LAMMPS (29 Sep 2021 - Update 2)
OMP_NUM_THREADS environment is not set. Defaulting to 1 thread. (src/comm.cpp:98)
  using 1 OpenMP thread(s) per MPI task
# ----------------------- Inicialização -----------------------

units			lj
atom_style 		atomic
dimension 		3
boundary 		p p p

# -------------------- Criação dos Átomos ---------------------

read_data 		topologia.txt
Reading data file ...
  orthogonal box = (0.0000000 0.0000000 0.0000000) to (21.540000 21.540000 21.540000)
  1 by 1 by 1 MPI processor grid
  reading atoms ...
  1000 atoms
  read_data CPU = 0.005 seconds

velocity 		all create ${temp} 87287 rot yes dist gaussian
velocity 		all create 0.32 87287 rot yes dist gaussian

# ------------------ Interação Interatômica -------------------

pair_style		table linear 1000
pair_coeff		1 1 force.table AA 5.0
WARNING: 2 of 1000 force values in table AA are inconsistent with -dE/dr.
WARNING:  Should only be flagged at inflection points (src/pair_table.cpp:465)
pair_coeff		1 2 force.table AB 5.0
WARNING: 1 of 1000 force values in table AB are inconsistent with -dE/dr.
WARNING:  Should only be flagged at inflection points (src/pair_table.cpp:465)
pair_coeff		2 2 force.table BB 5.0
pair_write		1 1 1000 r 0.008 5.0 table.check AA
Appending to table file table.check with DATE: 2023-06-15
Neighbor list info ...
  update every 1 steps, delay 10 steps, check yes
  max neighbors/atom: 2000, page size: 100000
  master list distance cutoff = 5.3
  ghost atom cutoff = 5.3
  binsize = 2.65, bins = 9 9 9
  1 neighbor lists, perpetual/occasional/extra = 1 0 0
  (1) pair table, perpetual
      attributes: half, newton on
      pair build: half/bin/atomonly/newton
      stencil: half/bin/3d
      bin: standard
pair_write		1 2 1000 r 0.008 5.0 table.check AB
Appending to table file table.check with DATE: 2023-06-15
pair_write		2 2 1000 r 0.008 5.0 table.check BB
Appending to table file table.check with DATE: 2023-06-15

neighbor 		0.3 bin
neigh_modify		every 20 delay 0 check no

# ------------------------- Ensemble --------------------------------------

fix 1			all npt temp ${temp} ${temp} 0.5 iso ${press} ${press} 5
fix 1			all npt temp 0.32 ${temp} 0.5 iso ${press} ${press} 5
fix 1			all npt temp 0.32 0.32 0.5 iso ${press} ${press} 5
fix 1			all npt temp 0.32 0.32 0.5 iso 0.13 ${press} 5
fix 1			all npt temp 0.32 0.32 0.5 iso 0.13 0.13 5

# ---------------------- Função de Distribuição Radial -----------------------

#compute RDF 		all rdf 2000 1 1 1 2 2 2
#fix 2 			all ave/time 1 2000 2000 c_RDF[*] file rdf.data mode vector

# ------------------------- Execução ---------------------------

timestep 		0.005
thermo_style		custom step temp pe ke etotal press vol atoms
thermo			2000
run			3000000
Per MPI rank memory allocation (min/avg/max) = 2.670 | 2.670 | 2.670 Mbytes
Step Temp PotEng KinEng TotEng Press Volume Atoms 
       0         0.32   0.24113201      0.47952   0.72065201   0.84331073    9993.9483     1000 
    2000   0.31513645   -2.6078773   0.47223197   -2.1356454   0.13519884    11410.813     1000 
    4000   0.32297528   -2.7215301   0.48397845   -2.2375517   0.13119307    11520.788     1000 
    6000    0.3321828   -2.7196813   0.49777592   -2.2219054   0.13980517    11444.765     1000 
    8000   0.32540243   -2.6919024   0.48761555   -2.2042869   0.13187694    11424.543     1000 
   10000   0.31625315   -2.7288799   0.47390535   -2.2549745   0.13036114    11478.124     1000 
   12000   0.31290898   -2.7537378   0.46889411   -2.2848437    0.1292247    11514.595     1000 
   14000   0.32910242    -2.700966   0.49315998    -2.207806   0.13561228    11395.971     1000 
   16000   0.32276629    -2.746281   0.48366528   -2.2626157   0.13176818    11418.166     1000 
   18000   0.31451701   -2.7294482   0.47130373   -2.2581445   0.12585889    11545.332     1000 
   20000   0.31520797   -2.7300031   0.47233915    -2.257664   0.12745873    11540.077     1000 
   22000   0.32901185   -2.7465172   0.49302426   -2.2534929    0.1281805    11450.708     1000 
   24000   0.30103306   -2.7708472   0.45109804   -2.3197492   0.12578309    11519.997     1000 
   26000   0.32539057   -2.7335162   0.48759777   -2.2459184   0.12599503    11431.439     1000 
   28000   0.33033156   -2.7670125   0.49500185   -2.2720107   0.12707936     11509.23     1000 
   30000   0.32321241   -2.7501583   0.48433379   -2.2658245   0.11373102    11582.092     1000 
   32000   0.31393677   -2.7312538   0.47043425   -2.2608196   0.13712644     11439.78     1000 
   34000   0.32327857   -2.7370204   0.48443293   -2.2525875   0.13616342    11464.885     1000 
   36000   0.32557148   -2.7306821   0.48786886   -2.2428133   0.13898338    11311.876     1000 
   38000   0.32851761   -2.7275865   0.49228364   -2.2353029   0.12252921    11607.937     1000 
   40000   0.32299392   -2.6983892    0.4840064   -2.2143828   0.13607425    11416.751     1000 
   42000   0.32688243   -2.6968669   0.48983333   -2.2070336    0.1381695     11460.97     1000 
   44000   0.31120213   -2.7458672    0.4663364   -2.2795308   0.12754472    11473.647     1000 
   46000   0.32245422   -2.7314614   0.48319765   -2.2482637   0.14046246    11484.293     1000 
   48000   0.31750147   -2.7804036   0.47577595   -2.3046277   0.14112187    11454.071     1000 
   50000   0.32904523    -2.733079   0.49307427   -2.2400047   0.14308628    11403.664     1000 
   52000   0.30081226   -2.7421166   0.45076717   -2.2913494   0.12613243    11471.501     1000 
   54000    0.3170761   -2.7527076   0.47513853   -2.2775691   0.12852469    11476.381     1000 
   56000   0.30724355   -2.7451261   0.46040447   -2.2847216   0.13228347    11423.214     1000 
   58000   0.31467901   -2.7654752    0.4715465   -2.2939287   0.12839976    11519.946     1000 
   60000   0.32915954   -2.7804789   0.49324557   -2.2872334   0.11805188    11602.138     1000 
   62000   0.32026407   -2.7386982    0.4799157   -2.2587825   0.13140201    11445.575     1000 
   64000    0.3171371   -2.7360315   0.47522994   -2.2608016   0.12977068    11418.867     1000 
   66000   0.31091879   -2.7601294   0.46591181   -2.2942176    0.1271519    11475.926     1000 
   68000    0.3115188   -2.7619789   0.46681093   -2.2951679   0.12844239    11463.893     1000 
   70000   0.32252501   -2.7417626   0.48330372   -2.2584588   0.12597221    11531.659     1000 
   72000   0.32990885    -2.770339   0.49436841   -2.2759706   0.12503142    11497.395     1000 
   74000   0.31703269   -2.7365028   0.47507348   -2.2614293   0.12797673    11406.104     1000 
   76000   0.32460424   -2.7314378   0.48641945   -2.2450183   0.12008527    11587.648     1000 
   78000   0.32500754   -2.7489317    0.4870238   -2.2619079   0.11853615    11578.017     1000 
   80000   0.32629371   -2.7635752   0.48895113   -2.2746241   0.13091293    11453.894     1000 
   82000   0.32607596   -2.7260059   0.48862483   -2.2373811   0.13081969    11437.552     1000 
   84000   0.31485762   -2.7657047   0.47181415   -2.2938905   0.12890831    11497.801     1000 
   86000   0.32605488   -2.7802325   0.48859324   -2.2916393   0.13047719    11553.164     1000 
   88000   0.30869292   -2.7856037   0.46257633   -2.3230274   0.12386527    11496.559     1000 
   90000   0.32417982   -2.7562429   0.48578345   -2.2704595   0.13282097    11454.794     1000 
   92000   0.31401942   -2.7520535    0.4705581   -2.2814954   0.14200135     11422.44     1000 
   94000   0.31430279   -2.7773582   0.47098272   -2.3063755   0.13304363    11434.787     1000 
   96000   0.31529409   -2.7677932    0.4724682    -2.295325    0.1269291    11494.324     1000 
   98000   0.32578229   -2.7843151   0.48818477   -2.2961303   0.13603402    11497.151     1000 
  100000   0.31364365   -2.7389112   0.46999501   -2.2689162   0.13057458     11426.87     1000 
  102000   0.32674121   -2.7670843    0.4896217   -2.2774626   0.12152521    11548.589     1000 
  104000   0.32183521   -2.7580573   0.48227006   -2.2757872   0.14010967    11400.054     1000 
  106000     0.321799   -2.7557451    0.4822158   -2.2735293   0.13485343    11441.966     1000 
  108000   0.31835279    -2.756481   0.47705165   -2.2794293   0.11919147    11486.852     1000 
  110000   0.31674734   -2.7409784   0.47464589   -2.2663325   0.12839911    11457.841     1000 
  112000   0.31109821   -2.7533861   0.46618066   -2.2872054   0.12959106    11479.662     1000 
  114000   0.31451335   -2.7475475   0.47129826   -2.2762492   0.12400502    11521.697     1000 
  116000   0.32936058   -2.7760577   0.49354682   -2.2825108   0.13180334    11433.068     1000 
  118000   0.33753997   -2.7830489   0.50580364   -2.2772453   0.13454767    11466.275     1000 
  120000   0.32828678   -2.7459886   0.49193774   -2.2540509   0.13838111      11392.8     1000 
  122000   0.31554351   -2.7241014   0.47284195   -2.2512595   0.12490914    11573.012     1000 
  124000   0.31998174   -2.7337912   0.47949264   -2.2542986   0.12633759    11510.579     1000 
  126000   0.31607713   -2.7671684   0.47364158   -2.2935268    0.1216416    11524.708     1000 
  128000   0.30381378    -2.721725   0.45526495   -2.2664601   0.12949717    11402.683     1000 
  130000   0.33171018   -2.7562705    0.4970677   -2.2592028    0.1218099     11527.11     1000 
  132000   0.31375453   -2.7714553   0.47016116   -2.3012942   0.12158182    11482.187     1000 
  134000   0.31535066   -2.7538543   0.47255297   -2.2813013   0.14001582    11454.603     1000 
  136000   0.30421045   -2.7554741   0.45585935   -2.2996148   0.12577278    11466.267     1000 
  138000   0.30955064   -2.7323427   0.46386163   -2.2684811   0.12819703    11476.169     1000 
  140000   0.31157102    -2.743811   0.46688917   -2.2769219   0.13532294    11414.968     1000 
  142000   0.33010985   -2.7962608   0.49466961   -2.3015911   0.12023175    11587.334     1000 
  144000   0.30880523   -2.7833999   0.46274464   -2.3206552   0.12004294    11592.175     1000 
  146000   0.31920866     -2.74814   0.47833418   -2.2698058   0.13245807    11414.834     1000 
  148000   0.30590605   -2.7599631   0.45840021   -2.3015628   0.12010968    11514.527     1000 
  150000   0.31728807   -2.7568921   0.47545618    -2.281436   0.14162557    11407.769     1000 
  152000   0.31289349   -2.7937468    0.4688709   -2.3248759   0.13557354    11467.004     1000 
  154000   0.31303306    -2.787789   0.46908005    -2.318709   0.12810437    11477.194     1000 
  156000    0.3233797   -2.7532506   0.48458448   -2.2686661   0.14542635    11345.312     1000 
  158000   0.33313166   -2.7579194   0.49919779   -2.2587217   0.15053853    11331.129     1000 
  160000   0.31784352   -2.7853834   0.47628852   -2.3090949   0.13770567    11459.823     1000 
  162000   0.31166095   -2.7895582   0.46702393   -2.3225343   0.12950192    11479.022     1000 
  164000   0.31134139   -2.7608305   0.46654507   -2.2942855   0.11019278    11553.067     1000 
  166000   0.32591471     -2.75509   0.48838319   -2.2667068   0.12815736    11464.116     1000 
  168000   0.30614995   -2.7436992    0.4587657   -2.2849335   0.12538631     11533.61     1000 
  170000   0.31205049    -2.789558   0.46760766   -2.3219503   0.12843621    11514.897     1000 
  172000   0.33559085   -2.7918342   0.50288289   -2.2889513   0.13091505    11480.617     1000 
  174000   0.31545847   -2.7431298   0.47271451   -2.2704153    0.1354255    11445.349     1000 
  176000    0.3199699   -2.7643487   0.47947489   -2.2848738   0.13246542    11406.227     1000 
  178000   0.32561446   -2.7835042   0.48793326    -2.295571   0.14129014     11459.05     1000 
  180000   0.32612571   -2.7753176   0.48869938   -2.2866182   0.12665548    11487.595     1000 
  182000   0.32710453   -2.7746909   0.49016614   -2.2845248    0.1351437    11433.438     1000 
  184000   0.31132048   -2.7791235   0.46651374   -2.3126098   0.11388718    11601.354     1000 
  186000   0.32535023   -2.7546186   0.48753732   -2.2670813   0.13797666    11339.959     1000 
  188000   0.31994041   -2.7580602   0.47943071   -2.2786295   0.12522502    11485.617     1000 
  190000   0.32579342   -2.7588459   0.48820143   -2.2706445    0.1226995     11526.97     1000 
  192000   0.33909639   -2.7618387   0.50813594   -2.2537028   0.13525469    11357.349     1000 
  194000   0.30974834   -2.8125866   0.46415789   -2.3484288    0.1148827    11598.949     1000 
  196000   0.32733778   -2.7329596   0.49051566    -2.242444   0.11807933    11552.201     1000 
  198000   0.31510712   -2.7689151   0.47218801   -2.2967271   0.13062339    11532.045     1000 
  200000   0.32704171   -2.7852791     0.490072   -2.2952071   0.14196704    11410.298     1000 
  202000   0.30995336   -2.7556223   0.46446511   -2.2911572   0.13254713    11496.655     1000 
  204000   0.33753261   -2.7622746   0.50579261    -2.256482   0.12314984    11545.662     1000 
  206000   0.31349715   -2.7612629   0.46977548   -2.2914874   0.10885577    11723.121     1000 
  208000   0.31817066    -2.695352   0.47677873   -2.2185733   0.13385055    11374.355     1000 
  210000   0.32011345   -2.7478104   0.47969001   -2.2681204    0.1335289    11428.063     1000 
  212000   0.31630583   -2.7583969   0.47398428   -2.2844127   0.12613233    11505.774     1000 
  214000   0.31586749   -2.7711256   0.47332744   -2.2977982   0.13287632    11449.722     1000 
  216000   0.32574347   -2.7437513   0.48812659   -2.2556247   0.12876826    11510.746     1000 
  218000   0.30518463   -2.7433411   0.45731917   -2.2860219   0.12649207     11494.49     1000 
  220000   0.31672947     -2.76283   0.47461911   -2.2882108   0.13652164    11477.011     1000 
  222000   0.30736942   -2.7594711   0.46059307   -2.2988781   0.13280181    11443.956     1000 
  224000   0.31843513   -2.7792209   0.47717504   -2.3020458   0.13269221    11499.134     1000 
  226000   0.31875992   -2.7555668   0.47766174   -2.2779051   0.12533006    11456.744     1000 
  228000   0.31996767    -2.746047   0.47947155   -2.2665754   0.14544355    11324.457     1000 
  230000   0.31987921   -2.7692926     0.479339   -2.2899536   0.13226523    11438.088     1000 
  232000    0.3300096   -2.7480908   0.49451938   -2.2535714   0.13413011    11488.889     1000 
  234000    0.3238662   -2.7643273    0.4853135   -2.2790138   0.12533318    11519.943     1000 
  236000   0.31281407    -2.790645   0.46875188   -2.3218931   0.12547738    11465.983     1000 
  238000   0.31998716   -2.7726131   0.47950076   -2.2931123   0.11860317    11569.003     1000 
  240000   0.32410015    -2.788952   0.48566407    -2.303288   0.12765341    11484.896     1000 
  242000    0.3194488   -2.7637389   0.47869403   -2.2850449   0.13466265    11471.872     1000 
  244000   0.30357596   -2.7366811   0.45490857   -2.2817725    0.1230568    11433.719     1000 
  246000   0.31602295   -2.7676747   0.47356039   -2.2941143   0.11570031    11542.643     1000 
  248000   0.32296278   -2.7906693   0.48395972   -2.3067096   0.13576291    11434.142     1000 
  250000   0.31430242   -2.7669753   0.47098218   -2.2959931    0.1342671    11405.729     1000 
  252000   0.31556629   -2.7359675   0.47287609   -2.2630914   0.13165091    11451.713     1000 
  254000   0.32568387   -2.7408181   0.48803727   -2.2527809   0.13315108    11443.895     1000 
  256000   0.31881159   -2.6905336   0.47773916   -2.2127944   0.13568495    11470.438     1000 
  258000    0.3166378   -2.7521252   0.47448174   -2.2776434   0.13727256    11472.851     1000 
  260000   0.31735903   -2.7709802   0.47556251   -2.2954177   0.10883567    11658.383     1000 
  262000   0.30636225   -2.7678324   0.45908383   -2.3087486   0.13304031    11422.839     1000 
  264000   0.32936273   -2.7894572   0.49355005   -2.2959071   0.12555314    11502.704     1000 
  266000   0.30748164   -2.7640881   0.46076124   -2.3033268   0.12966163    11417.902     1000 
  268000   0.31458706    -2.771985   0.47140871   -2.3005763   0.12771577    11500.626     1000 
  270000   0.31377502   -2.7298458   0.47019186   -2.2596539   0.13521376    11438.288     1000 
  272000   0.32239919   -2.7409712   0.48311519    -2.257856   0.12064929    11576.654     1000 
  274000    0.3246786    -2.735444   0.48653088   -2.2489131   0.13978545     11374.42     1000 
  276000   0.33176062   -2.7522195   0.49714329   -2.2550762   0.12514757    11499.468     1000 
  278000   0.32062729    -2.772751      0.48046    -2.292291    0.1270511    11467.246     1000 
  280000   0.33439561   -2.7684249   0.50109182   -2.2673331   0.13567247    11446.577     1000 
  282000   0.31407029   -2.7639711   0.47063434   -2.2933368   0.13040716     11418.64     1000 
  284000   0.31010109   -2.7957764   0.46468648   -2.3310899   0.11952758    11647.063     1000 
  286000   0.31667934   -2.7506463   0.47454398   -2.2761023   0.12829388    11559.257     1000 
  288000    0.3177669   -2.7222349    0.4761737   -2.2460612   0.13450999    11451.172     1000 
  290000   0.31777997   -2.7753395   0.47619328   -2.2991462   0.12586395    11499.094     1000 
  292000   0.33694105   -2.7525862   0.50490616   -2.2476801   0.13639691    11435.447     1000 
  294000   0.31301831   -2.7706741   0.46905794   -2.3016162   0.12483098     11526.06     1000 
  296000   0.31782699   -2.7552321   0.47626374   -2.2789683   0.11957012    11520.091     1000 
  298000   0.31774148   -2.7532475   0.47613561   -2.2771119    0.1277653    11466.419     1000 
  300000   0.31889187   -2.7495354   0.47785946    -2.271676   0.13624024    11426.872     1000 
  302000   0.30288666   -2.7631202   0.45387566   -2.3092445   0.13056099    11450.883     1000 
  304000   0.32217032   -2.7776512   0.48277223   -2.2948789   0.13171697    11467.684     1000 
  306000   0.32574986    -2.766826   0.48813616   -2.2786898   0.13345311     11442.81     1000 
  308000    0.3352661    -2.738385   0.50239626   -2.2359887   0.12955127    11456.608     1000 
  310000   0.32279669   -2.7330806   0.48371085   -2.2493697    0.1433017    11309.179     1000 
  312000   0.31004166   -2.7714571   0.46459743   -2.3068597   0.13097164    11479.741     1000 
  314000   0.30429907   -2.7746313   0.45599215   -2.3186392   0.13774572    11426.675     1000 
  316000   0.31104261    -2.739213   0.46609735   -2.2731156   0.12975227    11526.778     1000 
  318000   0.31532075   -2.7708938   0.47250815   -2.2983856   0.12117103    11547.365     1000 
  320000    0.3306975   -2.7663118    0.4955502   -2.2707616   0.12455907    11548.544     1000 
  322000   0.30559306   -2.7728266   0.45793121   -2.3148954   0.11877704    11508.012     1000 
  324000   0.32618612   -2.7326666   0.48878991   -2.2438767   0.13289568    11381.644     1000 
  326000   0.31447306   -2.7293605   0.47123787   -2.2581226   0.14642343    11338.231     1000 
  328000   0.32033314    -2.765827   0.48001922   -2.2858077   0.12672519    11506.356     1000 
  330000   0.30432474   -2.7446503   0.45603062   -2.2886197   0.13109228    11451.928     1000 
  332000   0.34908863   -2.7464731   0.52310931   -2.2233638   0.13730229    11435.255     1000 
  334000   0.32419849   -2.7793391   0.48581144   -2.2935277   0.13183319    11419.521     1000 
  336000   0.30618461   -2.7635095   0.45881764   -2.3046919   0.14142851    11389.799     1000 
  338000   0.31716673   -2.7424498   0.47527434   -2.2671755   0.12798288    11487.722     1000 
  340000    0.3182974   -2.7487704   0.47696866   -2.2718017     0.123434    11504.584     1000 
  342000   0.30832544   -2.7662051   0.46202567   -2.3041794   0.12537243    11485.217     1000 
  344000   0.32897622   -2.7464699   0.49297086   -2.2534991   0.12373564    11487.478     1000 
  346000   0.31822023   -2.7528182   0.47685302   -2.2759652   0.13889695    11425.386     1000 
  348000   0.31398543    -2.745458   0.47050716   -2.2749508   0.12156887    11556.859     1000 
  350000   0.32935156   -2.7884988   0.49353331   -2.2949654   0.13400476    11417.222     1000 
  352000   0.32412614   -2.7642308   0.48570302   -2.2785277   0.12763485    11456.919     1000 
  354000   0.32411981   -2.7530728   0.48569353   -2.2673792   0.12213772    11511.525     1000 
  356000   0.30914012   -2.7620472   0.46324647   -2.2988007    0.1193507    11551.354     1000 
  358000   0.31621756   -2.7534861   0.47385202   -2.2796341   0.12579028    11459.463     1000 
  360000   0.31775081    -2.763032   0.47614959   -2.2868824   0.13547991    11508.707     1000 
  362000   0.32882329   -2.7408947    0.4927417    -2.248153   0.12636539    11438.403     1000 
  364000   0.31650231   -2.7547294   0.47427871   -2.2804507   0.13574624    11399.631     1000 
  366000   0.31041364   -2.7602642   0.46515484   -2.2951094    0.1228164     11516.56     1000 
  368000   0.32399128   -2.7930397   0.48550093   -2.3075388   0.13455085    11483.449     1000 
  370000   0.32423403   -2.7904893   0.48586469   -2.3046246   0.12312876    11589.341     1000 
  372000   0.32504404   -2.7811844   0.48707849   -2.2941059   0.13227451    11434.259     1000 
  374000     0.326258   -2.7771963   0.48889762   -2.2882987   0.13329135    11505.697     1000 
  376000   0.33131476   -2.7533957   0.49647517   -2.2569206   0.12773427     11464.41     1000 
  378000   0.33126055   -2.7755396   0.49639393   -2.2791457   0.12370639    11559.757     1000 
  380000     0.307498    -2.750484   0.46078575   -2.2896982   0.12404945    11473.578     1000 
  382000   0.32330488   -2.7539559   0.48447236   -2.2694836   0.13149627    11446.342     1000 
  384000   0.31674169   -2.7207087   0.47463742   -2.2460713   0.13576357    11490.717     1000 
  386000   0.31947069   -2.7582881   0.47872683   -2.2795612   0.12510132    11474.184     1000 
  388000   0.32148783   -2.7510744   0.48174951   -2.2693249   0.11975337    11552.812     1000 
  390000   0.32060184   -2.7957224   0.48042186   -2.3153005   0.11796577    11577.294     1000 
  392000   0.31814217   -2.7699218   0.47673604   -2.2931857    0.1320008    11414.453     1000 
  394000   0.30816357   -2.7609428   0.46178312   -2.2991596    0.1250623    11496.994     1000 
  396000   0.32993275   -2.7755433   0.49440422    -2.281139   0.11884276    11481.936     1000 
  398000   0.32129005   -2.7914593   0.48145314   -2.3100062   0.12745011     11465.67     1000 
  400000   0.31240632   -2.7507941   0.46814088   -2.2826532     0.124129    11429.423     1000 
  402000   0.31208508    -2.796582    0.4676595   -2.3289225   0.12409817    11520.015     1000 
  404000   0.31324303   -2.7758766   0.46939468    -2.306482   0.12885975    11468.678     1000 
  406000   0.31109472   -2.7476621   0.46617544   -2.2814866   0.12904008    11443.661     1000 
  408000   0.30851881   -2.7410663   0.46231543   -2.2787508   0.13294923    11397.575     1000 
  410000   0.32653762   -2.7959932   0.48931662   -2.3066765    0.1201925    11560.956     1000 
  412000   0.31554547   -2.7805884   0.47284488   -2.3077435   0.12441694    11500.412     1000 
  414000   0.31301399   -2.7475723   0.46905147   -2.2785209   0.13163239     11487.43     1000 
  416000   0.31173145   -2.7904613   0.46712958   -2.3233317   0.13006548    11571.635     1000 
  418000    0.3200031   -2.8031031   0.47952465   -2.3235785   0.13678225    11451.353     1000 
  420000   0.31222531   -2.7651821   0.46786963   -2.2973124   0.11902448     11536.64     1000 
  422000   0.33548786   -2.7634092   0.50272856   -2.2606807   0.12884883    11483.335     1000 
  424000   0.33212841   -2.7467123   0.49769442   -2.2490179   0.13235834    11467.215     1000 
  426000   0.33560913   -2.7302504   0.50291028   -2.2273402    0.1456697     11352.68     1000 
  428000   0.31828754   -2.7601306   0.47695388   -2.2831768   0.14095928    11426.514     1000 
  430000   0.30540028   -2.7899883   0.45764232    -2.332346   0.13642677    11510.376     1000 
  432000   0.30712185   -2.7578177   0.46022209   -2.2975956   0.13011844    11468.829     1000 
  434000    0.3135307   -2.7663513   0.46982576   -2.2965255   0.12847985    11529.569     1000 
  436000   0.31216645   -2.7556757   0.46778142   -2.2878942   0.13008856    11415.416     1000 
  438000   0.32287267   -2.7497583   0.48382469   -2.2659336   0.13394639    11404.256     1000 
  440000   0.33168095   -2.7679679   0.49702391    -2.270944    0.1396688    11455.932     1000 
  442000   0.31394302   -2.7851514   0.47044361   -2.3147078   0.13514601    11483.473     1000 
  444000   0.31767126   -2.7621836   0.47603039   -2.2861532   0.11814745    11553.342     1000 
  446000   0.32906352   -2.7474256   0.49310168    -2.254324    0.1393108    11411.826     1000 
  448000   0.32662901   -2.7658983   0.48945357   -2.2764447   0.12151903    11502.719     1000 
  450000    0.3103954   -2.7702136   0.46512751   -2.3050861   0.13614136     11385.99     1000 
  452000   0.31349344   -2.7203968   0.46976991   -2.2506268   0.12818107    11452.746     1000 
  454000   0.30482567   -2.7807758   0.45678127   -2.3239946   0.10963598    11583.878     1000 
  456000   0.29515511   -2.7551826   0.44228993   -2.3128927   0.13036252    11389.071     1000 
  458000   0.32278293   -2.7533255   0.48369022   -2.2696352   0.12716526    11501.419     1000 
  460000   0.31993292   -2.7276778   0.47941949   -2.2482583   0.12287697    11484.021     1000 
  462000   0.32857742   -2.7578433   0.49237327     -2.26547   0.12815602    11500.295     1000 
  464000   0.33317536    -2.686101   0.49926327   -2.1868377   0.12956343    11476.019     1000 
  466000   0.31679348   -2.7561102   0.47471503   -2.2813952   0.13953194    11352.203     1000 
  468000   0.31777341    -2.724173   0.47618346   -2.2479895   0.13577035    11455.651     1000 
  470000   0.32944453   -2.7441217   0.49367263   -2.2504491   0.13150833    11427.408     1000 
  472000    0.3018459   -2.7343869   0.45231607   -2.2820708   0.13265412    11402.057     1000 
  474000    0.3182686    -2.714517   0.47692549   -2.2375915   0.12973489    11474.014     1000 
  476000   0.33128271   -2.7386759   0.49642714   -2.2422487   0.12892202    11439.257     1000 
  478000   0.31787474   -2.7744361    0.4763353   -2.2981008   0.12672825    11513.672     1000 
  480000   0.31935716   -2.7573027    0.4785567    -2.278746   0.13116275    11491.536     1000 
  482000   0.30728429    -2.724057   0.46046551   -2.2635915   0.12149163    11503.039     1000 
  484000   0.32170511   -2.7173409   0.48207511   -2.2352657   0.12583311    11479.721     1000 
  486000   0.32378256   -2.7368807   0.48518816   -2.2516926   0.13117584    11473.444     1000 
  488000   0.31686926   -2.7589757   0.47482858   -2.2841471    0.1285711    11502.636     1000 
  490000   0.33649747   -2.7662854   0.50424145   -2.2620439    0.1297688    11475.146     1000 
  492000   0.32392512   -2.7551868   0.48540179    -2.269785   0.12367423    11482.326     1000 
  494000   0.33309218   -2.7565657   0.49913864   -2.2574271   0.12743568    11522.813     1000 
  496000   0.32705653   -2.7198975   0.49009421   -2.2298033   0.13900759    11320.789     1000 
  498000   0.31933096   -2.7457894   0.47851745   -2.2672719   0.13701605    11422.851     1000 
  500000   0.31388518   -2.7473609   0.47035695    -2.277004   0.12691453    11462.103     1000 
  502000    0.3123692   -2.7586253   0.46808525   -2.2905401   0.13526243    11428.218     1000 
  504000   0.32525208   -2.7484991   0.48739025   -2.2611088   0.14202244    11425.593     1000 
  506000   0.31861761   -2.7559457   0.47744849   -2.2784973   0.13105071    11478.427     1000 
  508000   0.31814978   -2.7723673   0.47674745   -2.2956198   0.12380423    11455.357     1000 
  510000   0.32058283   -2.7797317   0.48039337   -2.2993383   0.12756009    11492.718     1000 
  512000   0.32183091   -2.7485251   0.48226361   -2.2662615   0.13362051    11501.778     1000 
  514000   0.31783682   -2.7626663   0.47627848   -2.2863878   0.12993798    11452.124     1000 
  516000   0.30668745   -2.7594418   0.45957115   -2.2998707   0.13286774    11464.417     1000 
  518000   0.32306556   -2.7373381   0.48411374   -2.2532244   0.13735163    11427.662     1000 
  520000   0.31822375   -2.7616204   0.47685829   -2.2847621   0.13541505    11458.195     1000 
  522000   0.31074314   -2.7869791    0.4656486   -2.3213305   0.12672617    11514.801     1000 
  524000   0.32593733   -2.7678868   0.48841709   -2.2794697   0.13524373    11413.915     1000 
  526000   0.32190617   -2.7515827    0.4823764   -2.2692063    0.1298858    11421.677     1000 
  528000   0.31920725   -2.7903307   0.47833207   -2.3119986    0.1332297    11510.521     1000 
  530000   0.33338643   -2.7374451   0.49957957   -2.2378655   0.13758123    11458.699     1000 
  532000   0.30438155   -2.7513625   0.45611576   -2.2952467   0.13040783    11510.961     1000 
  534000   0.31510496   -2.7602737   0.47218479   -2.2880889   0.13074788    11499.188     1000 
  536000   0.32756133   -2.7341035   0.49085065   -2.2432529   0.13229304    11465.845     1000 
  538000   0.31782502   -2.7822901    0.4762608   -2.3060293   0.13635402    11545.985     1000 
  540000    0.3166557   -2.7912666   0.47450857    -2.316758   0.12194303    11481.435     1000 
  542000   0.32016891   -2.7928421   0.47977311    -2.313069    0.1239974    11592.186     1000 
  544000   0.33404062   -2.7527584   0.50055987   -2.2521986   0.13683526    11407.262     1000 
  546000   0.32086156   -2.7587982   0.48081105   -2.2779871   0.12755292    11487.423     1000 
  548000   0.34499448   -2.7665973   0.51697423   -2.2496231   0.13111233    11559.815     1000 
  550000    0.3178355   -2.7133072    0.4762765   -2.2370307   0.13149073    11440.935     1000 
  552000   0.32118971   -2.8004406   0.48130278   -2.3191378   0.14076954    11513.343     1000 
  554000   0.33867707   -2.7493769   0.50750759   -2.2418693   0.13475477    11535.112     1000 
  556000   0.31549181    -2.753829   0.47276448   -2.2810645    0.1362535    11405.193     1000 
  558000   0.32889758   -2.7679397   0.49285302   -2.2750866   0.12723476    11481.359     1000 
  560000   0.33743199   -2.7464745   0.50564184   -2.2408326   0.12970152    11513.229     1000 
  562000   0.33041828   -2.7473019   0.49513179   -2.2521701   0.12314833    11513.675     1000 
  564000   0.33050956   -2.7296705   0.49526857   -2.2344019   0.13684393    11432.359     1000 
  566000   0.32914182   -2.7489515   0.49321902   -2.2557325   0.13699908    11444.075     1000 
  568000   0.32406895    -2.732342   0.48561732   -2.2467247   0.12820424    11502.871     1000 
  570000   0.32549412   -2.7352188   0.48775294   -2.2474658   0.13098973    11404.252     1000 
  572000    0.3235246   -2.7577561   0.48480161   -2.2729545   0.12172633    11453.285     1000 
  574000   0.31513363   -2.7338075   0.47222774   -2.2615797    0.1267165    11470.223     1000 
  576000   0.32742298   -2.7720435   0.49064334   -2.2814001   0.13657035    11455.236     1000 
  578000   0.30767021   -2.7829095   0.46104382   -2.3218657    0.1327307    11481.115     1000 
  580000   0.32686158   -2.7709668   0.48980207   -2.2811647   0.12332738    11486.696     1000 
  582000   0.32584889   -2.7890819   0.48828456   -2.3007973   0.13471391    11485.953     1000 
  584000   0.31697979   -2.7218144   0.47499422   -2.2468202   0.13739345    11383.678     1000 
  586000   0.31740773    -2.749471   0.47563548   -2.2738355   0.13056839    11480.053     1000 
  588000    0.3175579   -2.7275206   0.47586051   -2.2516601   0.14031423    11389.873     1000 
  590000     0.327992   -2.7571611   0.49149601    -2.265665   0.13998462    11383.121     1000 
  592000   0.33504968   -2.7506425   0.50207194   -2.2485705   0.11728895    11584.209     1000 
  594000   0.32453708   -2.7518034   0.48631881   -2.2654846   0.13171635    11554.473     1000 
  596000   0.32011336   -2.7595631   0.47968986   -2.2798732   0.13646512    11495.416     1000 
  598000   0.32590624   -2.7584997   0.48837051   -2.2701292    0.1269507    11509.321     1000 
  600000   0.32705052   -2.7841999   0.49008521   -2.2941147   0.12784735    11514.671     1000 
  602000   0.32372465    -2.787601   0.48510138   -2.3024997   0.11880709    11548.226     1000 
  604000   0.31147493    -2.759344   0.46674519   -2.2925988   0.13424117    11453.622     1000 
  606000   0.31797398   -2.7220386   0.47648401   -2.2455546   0.13027583    11463.795     1000 
  608000   0.32299905   -2.7676821   0.48401407   -2.2836681   0.12909305    11465.765     1000 
  610000   0.32748917       -2.787   0.49074252   -2.2962575   0.12131256    11509.777     1000 
  612000   0.32297519   -2.7770405   0.48397832   -2.2930622   0.11854834    11521.101     1000 
  614000   0.32606287   -2.7749608   0.48860521   -2.2863556   0.12594249    11489.723     1000 
  616000   0.32308445   -2.7950084   0.48414205   -2.3108664   0.13697175    11423.128     1000 
  618000   0.31209389   -2.8362245   0.46767269   -2.3685518   0.12647825    11539.179     1000 
  620000   0.31068524   -2.7438124   0.46556184   -2.2782506   0.13377797    11409.588     1000 
  622000   0.32867892   -2.7780199   0.49252537   -2.2854946   0.13327899    11451.881     1000 
  624000   0.31676754   -2.8087157   0.47467616   -2.3340395   0.11570919    11608.419     1000 
  626000   0.32201735   -2.7490399     0.482543   -2.2664969   0.13702904    11465.698     1000 
  628000   0.32373646   -2.7377285   0.48511909   -2.2526094   0.13204828    11430.773     1000 
  630000   0.32048859   -2.7187137   0.48025216   -2.2384616   0.12925672    11464.783     1000 
  632000   0.32314847   -2.7688297   0.48423798   -2.2845917   0.12727519    11505.398     1000 
  634000   0.33032841   -2.7297901   0.49499712    -2.234793   0.15044333    11365.602     1000 
  636000   0.31606525   -2.7689061   0.47362378   -2.2952824   0.12845157     11480.06     1000 
  638000   0.31331937    -2.746259   0.46950907   -2.2767499   0.12561879    11445.106     1000 
  640000   0.30567791   -2.7283567   0.45805834   -2.2702983   0.13158428    11417.582     1000 
  642000   0.31797616   -2.7412808   0.47648727   -2.2647935   0.12097285    11554.027     1000 
  644000   0.33691765   -2.7517723    0.5048711   -2.2469012   0.12205877    11518.948     1000 
  646000   0.31712007   -2.7671889   0.47520443   -2.2919845   0.13115024    11482.173     1000 
  648000   0.33253201   -2.8025068   0.49829921   -2.3042076   0.11332063    11618.704     1000 
  650000   0.31194834   -2.7572534   0.46745459   -2.2897988   0.13695556    11381.924     1000 
  652000   0.31367239   -2.7226276   0.47003808   -2.2525895   0.13832254    11471.738     1000 
  654000   0.30659167   -2.7691502   0.45942762   -2.3097226    0.1359696    11477.905     1000 
  656000   0.32638661   -2.7742172   0.48909033   -2.2851268   0.13648698    11446.784     1000 
  658000   0.31987671   -2.7499989   0.47933525   -2.2706637   0.12466449    11517.579     1000 
  660000   0.31293403   -2.7606274   0.46893164   -2.2916958   0.14347926    11368.288     1000 
  662000   0.32509126   -2.7982907   0.48714926   -2.3111414   0.13958058    11464.871     1000 
  664000    0.3105785    -2.773942   0.46540189   -2.3085401   0.12546028    11515.079     1000 
  666000   0.31260189     -2.76319   0.46843393   -2.2947561   0.13235686    11485.863     1000 
  668000   0.33052806    -2.764266    0.4952963   -2.2689697   0.13249497    11475.308     1000 
  670000   0.31898552   -2.7592839    0.4779998   -2.2812841   0.12646608      11484.7     1000 
  672000   0.30060516   -2.7520492   0.45045683   -2.3015923   0.12215989    11494.799     1000 
  674000   0.30710986   -2.7546531   0.46020412   -2.2944489   0.11245707    11577.646     1000 
  676000   0.31665967   -2.7725258   0.47451451   -2.2980113   0.12246696    11495.603     1000 
  678000   0.31252188   -2.7503897   0.46831404   -2.2820757    0.1340891    11411.965     1000 
  680000   0.32275435   -2.7545523   0.48364739   -2.2709049   0.12917191    11481.747     1000 
  682000   0.31388403    -2.775119   0.47035522   -2.3047638   0.12240381    11539.502     1000 
  684000   0.32713318   -2.7337306   0.49020908   -2.2435215    0.1325635    11422.332     1000 
  686000   0.32092798   -2.7350041   0.48091057   -2.2540936    0.1321908    11414.814     1000 
  688000   0.32619176   -2.7610446   0.48879835   -2.2722462   0.13123506    11529.133     1000 
  690000   0.31271107   -2.7323386   0.46859754   -2.2637411   0.14321809    11411.901     1000 
  692000    0.3075943   -2.7418056   0.46093005   -2.2808755   0.13162442    11484.537     1000 
  694000   0.32219032   -2.7794137   0.48280219   -2.2966115   0.13722136    11432.843     1000 
  696000   0.32044321   -2.7641572   0.48018416    -2.283973    0.1271685    11527.997     1000 
  698000   0.32283329   -2.7206952   0.48376569   -2.2369295   0.14400204    11334.439     1000 
  700000   0.31447123   -2.7569867   0.47123513   -2.2857516   0.12786434    11448.346     1000 
  702000   0.32278629   -2.7986768   0.48369526   -2.3149815   0.12580962    11539.764     1000 
  704000   0.32098109   -2.7147016   0.48099016   -2.2337115   0.13609878    11464.656     1000 
  706000   0.31580403   -2.7175846   0.47323234   -2.2443523   0.13645572    11426.619     1000 
  708000   0.32185796   -2.7597431   0.48230416   -2.2774389   0.12715099    11478.332     1000 
  710000   0.31071764   -2.7736139   0.46561039   -2.3080035   0.12437018    11511.489     1000 
  712000   0.31901687   -2.7693391   0.47804678   -2.2912924   0.11958022    11547.313     1000 
  714000   0.31720458   -2.7403618   0.47533106   -2.2650308   0.12989834    11490.756     1000 
  716000   0.31252282   -2.7480137   0.46831544   -2.2796983   0.12559347    11453.534     1000 
  718000   0.32292951   -2.7904151   0.48390987   -2.3065052   0.12494434    11477.536     1000 
  720000    0.3300982   -2.7680911   0.49465216   -2.2734389   0.12337074    11560.851     1000 
  722000   0.31663162   -2.7624941   0.47447248   -2.2880217   0.13332783    11496.675     1000 
  724000     0.328829   -2.7413692   0.49275026   -2.2486189   0.13576593     11466.39     1000 
  726000   0.31619237   -2.7555713   0.47381427    -2.281757   0.14510988    11368.219     1000 
  728000   0.33214859   -2.7687907   0.49772466    -2.271066   0.14553558    11383.088     1000 
  730000   0.32618603   -2.7595885   0.48878976   -2.2707987   0.14030455    11423.546     1000 
  732000   0.31858083   -2.7674595   0.47739338   -2.2900661   0.12940537    11500.658     1000 
  734000   0.32634962   -2.7501886   0.48903491   -2.2611536   0.13807831    11416.008     1000 
  736000   0.32592517   -2.7623604   0.48839886   -2.2739615   0.11310708    11572.004     1000 
  738000   0.32969776   -2.7708148   0.49405209   -2.2767627   0.12654828    11469.757     1000 
  740000   0.33136319   -2.7688949   0.49654775   -2.2723472   0.13348334    11436.608     1000 
  742000   0.32239275   -2.7201711   0.48310554   -2.2370655   0.13378176    11405.205     1000 
  744000   0.30916053   -2.7627458   0.46327706   -2.2994687   0.13418179    11418.077     1000 
  746000   0.31908994   -2.7459949   0.47815628   -2.2678387   0.13501317    11445.761     1000 
  748000   0.30711415   -2.7569955   0.46021055    -2.296785   0.13975599    11367.107     1000 
  750000   0.32552292   -2.7703906    0.4877961   -2.2825945   0.13729704    11400.768     1000 
  752000   0.29595679   -2.7334469   0.44349124   -2.2899556   0.13143723     11413.93     1000 
  754000   0.32679059   -2.7538261    0.4896957   -2.2641304   0.13775256    11339.997     1000 
  756000   0.31626759   -2.7349716   0.47392699   -2.2610446   0.13422564    11480.023     1000 
  758000   0.31689017   -2.7734709   0.47485992    -2.298611   0.12975709    11468.404     1000 
  760000   0.31582445   -2.7677067   0.47326293   -2.2944438   0.13415547    11465.134     1000 
  762000   0.31926414   -2.7409201   0.47841732   -2.2625028    0.1229626    11526.952     1000 
  764000   0.31094621    -2.755402   0.46595289   -2.2894491   0.13590711    11448.458     1000 
  766000   0.32655205     -2.75331   0.48933824   -2.2639717   0.14410991     11346.36     1000 
  768000   0.30680561   -2.7691151    0.4597482   -2.3093669   0.12515986    11506.341     1000 
  770000   0.31563866   -2.7466099   0.47298454   -2.2736254   0.11977522    11491.982     1000 
  772000   0.33116267   -2.7252726   0.49624727   -2.2290254   0.13529916     11500.25     1000 
  774000   0.31951116   -2.7325512   0.47878747   -2.2537638   0.12560488    11484.566     1000 
  776000     0.325355   -2.7172873   0.48754446   -2.2297428   0.12983056    11482.296     1000 
  778000   0.32155299   -2.7758536   0.48184716   -2.2940064   0.12247746    11479.272     1000 
  780000   0.32035671   -2.7103814   0.48005454   -2.2303269   0.12153554    11489.994     1000 
  782000     0.317376   -2.7739286   0.47558793   -2.2983407   0.11216394    11612.957     1000 
  784000    0.3157945   -2.7473114   0.47321806   -2.2740933   0.12467449    11555.742     1000 
  786000   0.31896259     -2.76868   0.47796544   -2.2907146   0.12461866    11561.321     1000 
  788000   0.32417978   -2.7124211   0.48578341   -2.2266377   0.13336556    11428.036     1000 
  790000   0.33412456   -2.7218319   0.50068565   -2.2211463   0.12881403    11395.835     1000 
  792000   0.30469648   -2.7164584   0.45658768   -2.2598708   0.12280951    11485.794     1000 
  794000   0.30792577   -2.7952484   0.46142677   -2.3338216   0.13085144    11509.038     1000 
  796000    0.3179299   -2.7354155   0.47641796   -2.2589976   0.12925574    11471.579     1000 
  798000   0.31983606   -2.7734289   0.47927434   -2.2941545   0.12803799    11502.689     1000 
  800000   0.32150595   -2.8044393   0.48177667   -2.3226626   0.12171438    11587.282     1000 
  802000   0.31924415   -2.7667184   0.47838736   -2.2883311   0.12582524    11514.579     1000 
  804000   0.31492358   -2.7588298   0.47191299   -2.2869168   0.13636128    11445.378     1000 
  806000     0.323172   -2.7905497   0.48427325   -2.3062764   0.11598619    11551.566     1000 
  808000   0.31519838   -2.7245344   0.47232477   -2.2522097   0.11568102    11529.758     1000 
  810000   0.31114508   -2.7492257   0.46625091   -2.2829748   0.14389332    11400.221     1000 
  812000   0.32667837    -2.792849   0.48952754   -2.3033215   0.13266544    11548.053     1000 
  814000   0.31651632   -2.7784796   0.47429971   -2.3041799   0.13208784     11456.55     1000 
  816000   0.29167726   -2.7748565   0.43707838   -2.3377781   0.12979701    11460.803     1000 
  818000   0.32328002   -2.7672849   0.48443512   -2.2828498   0.12624155    11460.568     1000 
  820000   0.31780096   -2.8063415   0.47622474   -2.3301168   0.12649513     11491.91     1000 
  822000   0.31052641   -2.7878207   0.46532383   -2.3224968   0.13260648    11440.922     1000 
  824000   0.32164508   -2.7417994   0.48198515   -2.2598143   0.14574885    11417.052     1000 
  826000   0.32248059   -2.7654544   0.48323716   -2.2822172   0.12566718    11496.548     1000 
  828000   0.32034816   -2.7672402   0.48004171   -2.2871985   0.12264815    11578.785     1000 
  830000   0.31240094   -2.7502889   0.46813281    -2.282156   0.12279176    11585.903     1000 
  832000   0.32288018   -2.7609647   0.48383594   -2.2771287    0.1342177    11412.108     1000 
  834000   0.32253019   -2.7594854   0.48331149   -2.2761739     0.133516     11472.38     1000 
  836000   0.30813516   -2.7905357   0.46174054   -2.3287952   0.12448133     11513.03     1000 
  838000   0.32543848    -2.762125   0.48766955   -2.2744554   0.13017758    11407.415     1000 
  840000   0.31731363   -2.7486939   0.47549447   -2.2731994   0.14136552    11373.684     1000 
  842000   0.32324682   -2.7567879   0.48438536   -2.2724025   0.13394118    11453.319     1000 
  844000   0.32691009   -2.7372435   0.48987478   -2.2473688   0.12810671    11479.463     1000 
  846000   0.31813344   -2.7799491   0.47672295   -2.3032261    0.1185466    11606.038     1000 
  848000   0.32962611   -2.7312713   0.49394473   -2.2373266   0.13031393    11462.957     1000 
  850000   0.32073397   -2.7331991   0.48061985   -2.2525792   0.13334266    11460.538     1000 
  852000   0.31835925   -2.7691611   0.47706134   -2.2920998   0.13356466    11469.306     1000 
  854000   0.31073825   -2.7363232   0.46564127   -2.2706819   0.13676033    11370.235     1000 
  856000   0.30717242   -2.7723397   0.46029787   -2.3120418   0.11716491    11547.921     1000 
  858000   0.33508823   -2.7743928   0.50212971   -2.2722631   0.12344629    11551.792     1000 
  860000    0.3265294   -2.7661351   0.48930431   -2.2768308   0.13882495    11408.928     1000 
  862000   0.32140939   -2.7479117   0.48163196   -2.2662798   0.13667206    11432.831     1000 
  864000   0.32173368   -2.7736042   0.48211792   -2.2914863   0.14401037      11385.3     1000 
  866000   0.31130746   -2.7494354   0.46649423   -2.2829412   0.12381337      11486.9     1000 
  868000   0.31909263   -2.7595776   0.47816031   -2.2814173   0.13086465    11457.176     1000 
  870000   0.31205244   -2.7533844   0.46761059   -2.2857738   0.12144404    11598.116     1000 
  872000   0.31077152   -2.7608675   0.46569113   -2.2951764   0.12253255    11516.317     1000 
  874000   0.32479413   -2.7368666   0.48670401   -2.2501626    0.1298242    11476.698     1000 
  876000   0.32588251   -2.7501086   0.48833494   -2.2617737     0.124413    11547.374     1000 
  878000   0.32023631   -2.7703343    0.4798741   -2.2904602   0.12698259    11465.322     1000 
  880000   0.31992476   -2.7533057   0.47940725   -2.2738985   0.12562905    11535.646     1000 
  882000   0.32327162   -2.7549279   0.48442252   -2.2705054   0.12558584    11525.213     1000 
  884000   0.31079667   -2.7301834   0.46572881   -2.2644546    0.1194411    11567.338     1000 
  886000    0.3218196   -2.7533237   0.48224667    -2.271077   0.12515806    11511.727     1000 
  888000   0.32197975   -2.7844586   0.48248666   -2.3019719   0.12098452     11590.09     1000 
  890000   0.33368269   -2.7339455    0.5000235    -2.233922   0.13171729    11402.839     1000 
  892000   0.32054266   -2.7664042   0.48033318    -2.286071   0.12764346    11459.499     1000 
  894000   0.31639058   -2.7263426   0.47411129   -2.2522313   0.12843116     11505.61     1000 
  896000    0.3239793   -2.7481537   0.48548299   -2.2626707   0.12515862    11488.046     1000 
  898000   0.33119942   -2.7880622   0.49630234   -2.2917599   0.12688884    11518.432     1000 
  900000   0.32631185    -2.762112   0.48897831   -2.2731336   0.12056261    11487.742     1000 
  902000   0.32418972   -2.7469307   0.48579829   -2.2611324   0.12314759    11547.916     1000 
  904000   0.32472148   -2.7654501   0.48659514    -2.278855    0.1296376    11440.978     1000 
  906000   0.32141038   -2.7686091   0.48163346   -2.2869757   0.13733361    11390.498     1000 
  908000   0.30495374   -2.7590426   0.45697317   -2.3020694   0.13405414    11443.001     1000 
  910000   0.33316582   -2.7439483   0.49924898   -2.2446993   0.13499279    11412.829     1000 
  912000   0.32006903   -2.7355774   0.47962344   -2.2559539   0.13575179    11422.845     1000 
  914000   0.32919728   -2.7259181   0.49330212   -2.2326159   0.13398628    11460.302     1000 
  916000   0.30223354   -2.7791018   0.45289696   -2.3262049   0.11577094    11518.912     1000 
  918000   0.32155784   -2.7322142   0.48185442   -2.2503598    0.1351032    11429.646     1000 
  920000   0.32508351   -2.7448588   0.48713765   -2.2577212   0.14339777    11397.545     1000 
  922000   0.32475613   -2.7654119   0.48664706   -2.2787648   0.13256192    11519.532     1000 
  924000   0.32126192   -2.7857087   0.48141098   -2.3042977   0.13281707    11415.322     1000 
  926000   0.32589437   -2.7871349   0.48835271   -2.2987821   0.13777025     11491.09     1000 
  928000   0.32770662   -2.7630036   0.49106838   -2.2719352    0.1389147    11453.644     1000 
  930000   0.33021148   -2.7669264    0.4948219   -2.2721045    0.1381603    11394.293     1000 
  932000   0.32213797   -2.7949776   0.48272375   -2.3122538   0.13332052    11476.725     1000 
  934000   0.31633049   -2.7530638   0.47402124   -2.2790426   0.14121637    11370.027     1000 
  936000   0.32390399   -2.7514473   0.48537013   -2.2660771   0.13365655    11468.562     1000 
  938000   0.31705824   -2.7765061   0.47511177   -2.3013943   0.11583697    11629.188     1000 
  940000   0.31511213   -2.7717762   0.47219552   -2.2995807   0.12220561    11494.641     1000 
  942000   0.30722827   -2.7504237   0.46038157   -2.2900422   0.11984908    11561.079     1000 
  944000   0.32483768   -2.7167889   0.48676926   -2.2300196   0.13809214    11407.436     1000 
  946000   0.31112883   -2.7587958   0.46622655   -2.2925692   0.13479853    11391.942     1000 
  948000   0.32617085   -2.7766196   0.48876702   -2.2878526   0.13672485    11456.048     1000 
  950000   0.32135474   -2.7856706   0.48155008   -2.3041205   0.12362688    11485.673     1000 
  952000   0.31254224   -2.7775962   0.46834455   -2.3092516   0.13128508    11469.537     1000 
  954000   0.32149786   -2.8105496   0.48176454   -2.3287851   0.12243639    11558.298     1000 
  956000   0.32323804   -2.7520453   0.48437221   -2.2676731   0.15122884    11375.708     1000 
  958000   0.31206824   -2.7767187   0.46763425   -2.3090844   0.11957746    11549.897     1000 
  960000   0.32133468   -2.7596439   0.48152002   -2.2781238   0.12648015    11499.515     1000 
  962000   0.31836711    -2.785185   0.47707311   -2.3081119    0.1184262    11571.018     1000 
  964000   0.31553375    -2.800112   0.47282732   -2.3272846   0.11735213    11554.645     1000 
  966000   0.31449301   -2.7926246   0.47126777   -2.3213569   0.14298683    11386.892     1000 
  968000   0.31689964   -2.8006552   0.47487411   -2.3257811   0.13767524    11446.316     1000 
  970000   0.31353111   -2.7698781   0.46982637   -2.3000517   0.13452829    11452.527     1000 
  972000     0.312825   -2.7504228   0.46876826   -2.2816546    0.1303671    11476.351     1000 
  974000   0.32900134   -2.7595266    0.4930085   -2.2665181   0.13719098    11456.666     1000 
  976000   0.30937971   -2.8013816    0.4636055   -2.3377761   0.11119445    11584.624     1000 
  978000   0.32372481   -2.7540652   0.48510163   -2.2689636    0.1273363    11495.534     1000 
  980000    0.3226492   -2.7448413   0.48348983   -2.2613515   0.13905522    11459.198     1000 
  982000   0.32152505    -2.780585   0.48180529   -2.2987797    0.1313143    11481.454     1000 
  984000   0.32023153   -2.7601681   0.47986695   -2.2803011   0.13419261    11490.218     1000 
  986000   0.32881016   -2.7646037   0.49272202   -2.2718817   0.12536172    11506.549     1000 
  988000   0.32966134   -2.7071781   0.49399751   -2.2131806   0.13768041    11339.577     1000 
  990000   0.32085427   -2.7250706   0.48080013   -2.2442705   0.13411254    11503.354     1000 
  992000   0.31865678   -2.7639213   0.47750718   -2.2864141   0.13055908    11491.599     1000 
  994000   0.30403604   -2.7669413   0.45559801   -2.3113433   0.12679219    11463.536     1000 
  996000   0.34064377   -2.7756016   0.51045469   -2.2651469   0.12947897    11497.396     1000 
  998000   0.30687714   -2.7241259    0.4598554   -2.2642705   0.12827712    11445.162     1000 
 1000000    0.3283142   -2.7266248   0.49197882   -2.2346459   0.14430219    11396.619     1000 
 1002000    0.3198958   -2.7428298   0.47936385   -2.2634659   0.12919101    11471.211     1000 
 1004000    0.3102926   -2.7236688   0.46497346   -2.2586953   0.13657126    11449.176     1000 
 1006000   0.31322459   -2.7377299   0.46936704   -2.2683628   0.13453555    11437.454     1000 
 1008000   0.32643501   -2.7269644   0.48916286   -2.2378015   0.14423503    11413.642     1000 
 1010000   0.32396651   -2.7595258   0.48546382   -2.2740619   0.12487883    11460.073     1000 
 1012000    0.3162582   -2.7983536   0.47391292   -2.3244407    0.1197404    11571.654     1000 
 1014000   0.31182998   -2.7136594   0.46727723   -2.2463822   0.13730339    11387.514     1000 
 1016000   0.31602134   -2.7710651   0.47355798   -2.2975072    0.1261888    11537.651     1000 
 1018000   0.31185467   -2.7631609   0.46731422   -2.2958467   0.12932161    11509.781     1000 
 1020000   0.31204278   -2.7532483   0.46759611   -2.2856522   0.12628569    11426.944     1000 
 1022000   0.31911503   -2.7169653   0.47819387   -2.2387715   0.13767348    11413.525     1000 
 1024000   0.31173599   -2.7388104   0.46713638    -2.271674   0.12852017     11460.52     1000 
 1026000   0.32939706    -2.762921    0.4936015   -2.2693195   0.13325699    11447.902     1000 
 1028000   0.32500154   -2.7303533    0.4870148   -2.2433385   0.12999156     11487.25     1000 
 1030000    0.3260059   -2.7065866   0.48851983   -2.2180667   0.12560993    11448.328     1000 
 1032000   0.32502128   -2.7121541   0.48704439   -2.2251097   0.12611618    11484.255     1000 
 1034000   0.32333874   -2.7227504   0.48452311   -2.2382273   0.13762327      11383.5     1000 
 1036000   0.30503099   -2.7765091   0.45708894   -2.3194202   0.12994585     11499.93     1000 
 1038000   0.32930448   -2.7360216   0.49346276   -2.2425589   0.11910632    11510.646     1000 
 1040000   0.32318109   -2.7477214   0.48428686   -2.2634345   0.12578553     11516.95     1000 
 1042000   0.32808514   -2.7606355   0.49163559   -2.2689999   0.12614821    11524.845     1000 
 1044000   0.32197724    -2.751005   0.48248289   -2.2685221   0.13485302    11473.858     1000 
 1046000   0.32988594   -2.7567815   0.49433408   -2.2624475   0.13277142    11439.232     1000 
 1048000   0.32166508   -2.7580953   0.48201512   -2.2760802   0.13162769    11491.264     1000 
 1050000   0.32389534   -2.7515183   0.48535717   -2.2661611   0.13020272    11427.771     1000 
 1052000   0.30052049   -2.7856132   0.45032995   -2.3352833   0.11438107    11566.238     1000 
 1054000   0.31675275   -2.7748949   0.47465399   -2.3002409   0.13540031    11460.271     1000 
 1056000   0.31416746   -2.7955102   0.47077994   -2.3247303   0.13448287    11538.383     1000 
 1058000   0.32124862   -2.7269516   0.48139105   -2.2455606   0.13227073    11410.513     1000 
 1060000   0.32905351    -2.726682   0.49308668   -2.2335953   0.14146227    11427.668     1000 
 1062000   0.31339837   -2.7834854   0.46962745    -2.313858   0.12217403    11546.987     1000 
 1064000   0.33870025    -2.745249   0.50754232   -2.2377067   0.12318829    11568.247     1000 
 1066000   0.30547613   -2.8040825   0.45775598   -2.3463265   0.12615766    11470.907     1000 
 1068000   0.31244833   -2.7393985   0.46820382   -2.2711947   0.13765359    11449.715     1000 
 1070000   0.31445645   -2.7782338   0.47121299   -2.3070208   0.12210654    11563.123     1000 
 1072000   0.31025597   -2.7826172   0.46491857   -2.3176986   0.13474727     11467.63     1000 
 1074000   0.33949467   -2.7510931   0.50873277   -2.2423603   0.14677507    11424.088     1000 
 1076000   0.32194404   -2.7479801   0.48243314   -2.2655469   0.12888496    11545.076     1000 
 1078000   0.32447674   -2.7668041   0.48622839   -2.2805757   0.13489297    11409.234     1000 
 1080000   0.32959333   -2.7810628   0.49389561   -2.2871672   0.12642016    11561.551     1000 
 1082000   0.31326177   -2.7827122   0.46942277   -2.3132894   0.12124722    11549.265     1000 
 1084000   0.32566577   -2.8029657   0.48801016   -2.3149555   0.13115297    11534.855     1000 
 1086000   0.32186517   -2.7866495   0.48231496   -2.3043345   0.13328831     11524.29     1000 
 1088000   0.31088862    -2.801631   0.46586659   -2.3357644   0.12927311    11535.305     1000 
 1090000   0.30930945   -2.7831078   0.46350021   -2.3196076   0.12636426    11467.402     1000 
 1092000   0.34148398   -2.7662729   0.51171374   -2.2545592   0.12917562    11497.556     1000 
 1094000   0.32450279     -2.76158   0.48626744   -2.2753126   0.12956105    11433.367     1000 
 1096000   0.31720477   -2.7721209   0.47533135   -2.2967896   0.13757584    11413.926     1000 
 1098000   0.32522353   -2.7986328   0.48734746   -2.3112853   0.12328385    11552.929     1000 
 1100000   0.31272133   -2.7440737   0.46861291   -2.2754608   0.12614514    11430.301     1000 
 1102000   0.31833807   -2.7834885    0.4770296   -2.3064589   0.13166921    11467.475     1000 
 1104000   0.31318726   -2.7802038    0.4693111   -2.3108927   0.12468042    11546.933     1000 
 1106000   0.31532811   -2.7844224   0.47251917   -2.3119032    0.1362288    11431.869     1000 
 1108000   0.32959233   -2.7377456    0.4938941   -2.2438515   0.13093315    11501.216     1000 
 1110000   0.30803875     -2.77503   0.46159606    -2.313434   0.13515359    11473.043     1000 
 1112000   0.32482954   -2.7498542   0.48675707   -2.2630972   0.13370444    11382.312     1000 
 1114000    0.3179708   -2.7238251   0.47647924   -2.2473458   0.13444868    11451.766     1000 
 1116000   0.32290308   -2.7444885   0.48387027   -2.2606182   0.12084656    11482.428     1000 
 1118000   0.32440777   -2.7837328   0.48612505   -2.2976078   0.12606105    11489.955     1000 
 1120000   0.31102357   -2.7554213   0.46606882   -2.2893524   0.13559591    11429.878     1000 
 1122000   0.32004857   -2.7819183   0.47959278   -2.3023255   0.12415454    11520.999     1000 
 1124000   0.31331297    -2.768976   0.46949949   -2.2994765   0.12849037    11428.379     1000 
 1126000   0.32980357   -2.7893685   0.49421066   -2.2951578   0.12704446     11503.17     1000 
 1128000   0.31348443   -2.7727832   0.46975642   -2.3030268   0.12990503    11483.928     1000 
 1130000   0.29881116   -2.7561836   0.44776853   -2.3084151   0.13911733    11368.048     1000 
 1132000   0.33122873    -2.743594   0.49634625   -2.2472477   0.13349194    11441.766     1000 
 1134000   0.30365447   -2.7652591   0.45502622   -2.3102329    0.1220217    11507.622     1000 
 1136000   0.32605853   -2.7451242   0.48859871   -2.2565255   0.13066322    11429.378     1000 
 1138000   0.33075582   -2.7407284    0.4956376   -2.2450908   0.12384192    11491.027     1000 
 1140000   0.31802157   -2.7668511   0.47655532   -2.2902958   0.12867373    11495.773     1000 
 1142000   0.32876442   -2.7401957   0.49265348   -2.2475422   0.13395677    11445.241     1000 
 1144000   0.32028285   -2.7322002   0.47994385   -2.2522564   0.13270105    11426.275     1000 
 1146000   0.33790094   -2.7732021   0.50634456   -2.2668576   0.13515305     11504.35     1000 
 1148000   0.31015083   -2.7386103   0.46476102   -2.2738492   0.13096357    11475.684     1000 
 1150000   0.32217766   -2.7374617   0.48278323   -2.2546785   0.12825823    11514.701     1000 
 1152000   0.32444286   -2.7722901   0.48617762   -2.2861125   0.13452956    11435.271     1000 
 1154000   0.31614462   -2.7747439   0.47374272   -2.3010012   0.11537901    11609.741     1000 
 1156000   0.30593464   -2.7638274   0.45844306   -2.3053843   0.12045574    11565.678     1000 
 1158000   0.32297377   -2.7445733    0.4839762   -2.2605971   0.11811377    11534.949     1000 
 1160000   0.32055405   -2.7761478   0.48035025   -2.2957975   0.11254461    11545.257     1000 
 1162000   0.31313897   -2.7586726   0.46923875   -2.2894338   0.12802662    11453.858     1000 
 1164000   0.30454023   -2.7809758   0.45635354   -2.3246223   0.12192368    11625.059     1000 
 1166000   0.31513974   -2.7204092   0.47223691   -2.2481723   0.12758137    11493.027     1000 
 1168000   0.31661147   -2.7432519   0.47444228   -2.2688096   0.11706218    11543.626     1000 
 1170000   0.32817695   -2.7888312   0.49177315    -2.297058   0.11998096    11579.512     1000 
 1172000   0.31181906   -2.7733569   0.46726086   -2.3060961   0.12415969    11544.823     1000 
 1174000   0.32063723   -2.7393506   0.48047489   -2.2588757   0.13549856    11422.515     1000 
 1176000   0.31923095   -2.7863759   0.47836758   -2.3080083   0.13377099    11445.362     1000 
 1178000   0.32811846   -2.7524463   0.49168552   -2.2607608   0.13753191    11469.334     1000 
 1180000    0.3144215   -2.7409772   0.47116062   -2.2698165   0.12479139    11546.937     1000 
 1182000   0.32906873   -2.7496326   0.49310949   -2.2565231   0.13455895    11376.486     1000 
 1184000   0.31247133   -2.7430773   0.46823829    -2.274839   0.12600825     11488.02     1000 
 1186000   0.31386026   -2.7425009   0.47031959   -2.2721813   0.13738424    11388.577     1000 
 1188000   0.30530282    -2.770771   0.45749627   -2.3132747   0.12255035    11502.963     1000 
 1190000   0.32301208    -2.748067   0.48403361   -2.2640334   0.14053353    11381.354     1000 
 1192000   0.32415137   -2.7361491   0.48574083   -2.2504082   0.13639622    11406.472     1000 
 1194000   0.31692098   -2.7646674   0.47490609   -2.2897613   0.11913068    11500.729     1000 
 1196000   0.33180959   -2.7601187   0.49721667   -2.2629021   0.12455715    11511.268     1000 
 1198000    0.3151313   -2.7753443   0.47222426   -2.3031201   0.11377741    11617.481     1000 
 1200000   0.29966304   -2.7255703   0.44904506   -2.2765252   0.13836908    11363.465     1000 
 1202000    0.3195949   -2.7554575   0.47891296   -2.2765445   0.12291093    11495.518     1000 
 1204000   0.32433793   -2.7511051   0.48602039   -2.2650847   0.13288111    11428.827     1000 
 1206000    0.3155848   -2.7555415   0.47290382   -2.2826377   0.13144442     11438.47     1000 
 1208000   0.32695533   -2.7655908   0.48994257   -2.2756482    0.1329124    11476.778     1000 
 1210000   0.33062689   -2.7773194   0.49544439   -2.2818751   0.13877401    11421.027     1000 
 1212000   0.32433889   -2.7474726   0.48602182   -2.2614507   0.13348909    11460.863     1000 
 1214000   0.31877816   -2.7569494   0.47768907   -2.2792603   0.11770112    11553.317     1000 
 1216000   0.31929926   -2.7666253   0.47846994   -2.2881553   0.13035484    11474.707     1000 
 1218000   0.31163748   -2.7875645   0.46698876   -2.3205757   0.11575766    11603.602     1000 
 1220000   0.31930301   -2.7596559   0.47847556   -2.2811804   0.12645711    11527.677     1000 
 1222000   0.32645849   -2.7522961   0.48919805    -2.263098   0.13304209    11459.611     1000 
 1224000   0.31325999   -2.7825956   0.46942009   -2.3131755   0.13112048    11420.927     1000 
 1226000   0.32568463   -2.8019364   0.48803842    -2.313898   0.13076033    11441.179     1000 
 1228000   0.30689217   -2.7606813   0.45987791   -2.3008034   0.12100314    11550.517     1000 
 1230000   0.32266692   -2.7185033   0.48351637    -2.234987   0.12517723    11517.721     1000 
 1232000   0.30651074   -2.6934919   0.45930635   -2.2341856   0.12509779    11452.002     1000 
 1234000   0.32370694   -2.7607724   0.48507485   -2.2756975   0.12620379    11530.155     1000 
 1236000   0.29527835   -2.7981902   0.44247461   -2.3557156   0.12707137    11456.062     1000 
 1238000   0.32914811   -2.7633232   0.49322844   -2.2700948   0.13358387    11425.902     1000 
 1240000   0.32609923   -2.7480601   0.48865969   -2.2594004   0.14230242    11383.621     1000 
 1242000   0.32986508   -2.7356264   0.49430283   -2.2413236   0.13746403    11491.332     1000 
 1244000   0.31908276   -2.7493556   0.47814552   -2.2712101   0.13491325     11478.41     1000 
 1246000   0.32261154   -2.7388186    0.4834334   -2.2553852   0.12433994    11533.057     1000 
 1248000   0.31627803   -2.7704361   0.47394263   -2.2964935   0.14047554    11428.248     1000 
 1250000   0.31179048   -2.7802974   0.46721804   -2.3130793   0.12149048    11552.401     1000 
 1252000   0.31992283   -2.7599548   0.47940437   -2.2805505   0.12615042    11498.368     1000 
 1254000   0.33049848   -2.8052386   0.49525196   -2.3099866   0.12530881     11494.97     1000 
 1256000   0.31763893   -2.7716097   0.47598194   -2.2956277   0.11663026    11517.157     1000 
 1258000   0.31542412   -2.7676559   0.47266304   -2.2949929   0.12904153    11450.346     1000 
 1260000   0.32239234   -2.7647775   0.48310492   -2.2816726   0.13888917    11426.773     1000 
 1262000   0.32598243   -2.7451335   0.48848467   -2.2566489   0.11646345    11593.957     1000 
 1264000   0.31064257   -2.7672221   0.46549789   -2.3017242   0.14085527    11322.759     1000 
 1266000    0.3228508   -2.7891002   0.48379192   -2.3053083   0.12106115    11585.908     1000 
 1268000   0.31709123   -2.7802879    0.4751612   -2.3051267   0.13381559     11385.55     1000 
 1270000   0.32617072   -2.7436264   0.48876683   -2.2548596   0.13310872    11465.167     1000 
 1272000   0.33159421   -2.7409926   0.49689393   -2.2440987   0.12574659    11480.853     1000 
 1274000   0.32528169   -2.7498322   0.48743462   -2.2623976   0.13585144    11343.691     1000 
 1276000   0.32440334   -2.7350628    0.4861184   -2.2489444   0.13462304    11459.204     1000 
 1278000   0.34343034    -2.779888   0.51463037   -2.2652577   0.13457443    11415.686     1000 
 1280000   0.32430688   -2.7780032   0.48597387   -2.2920294   0.12976071    11477.639     1000 
 1282000   0.30947851   -2.7603851   0.46375355   -2.2966316   0.11950522    11477.256     1000 
 1284000   0.31286263   -2.7621563   0.46882466   -2.2933316   0.13187552    11475.017     1000 
 1286000   0.32117799   -2.7651409   0.48128522   -2.2838557   0.13434924    11418.395     1000 
 1288000   0.32547574   -2.7665347    0.4877254   -2.2788093   0.13126024    11552.869     1000 
 1290000   0.32595352    -2.740318   0.48844135   -2.2518766   0.12505225    11447.363     1000 
 1292000   0.31651021   -2.7634365   0.47429054    -2.289146   0.15040208    11390.728     1000 
 1294000   0.31401344   -2.7308105   0.47054914   -2.2602614   0.14320705    11382.346     1000 
 1296000   0.32659675   -2.7591064   0.48940523   -2.2697012   0.11461222    11547.023     1000 
 1298000   0.31905373    -2.755939   0.47810202    -2.277837   0.12849811    11476.555     1000 
 1300000   0.31788767   -2.7539748   0.47635468   -2.2776201   0.12778129     11490.49     1000 
 1302000   0.30608364   -2.7611568   0.45866633   -2.3024905   0.12839126    11467.916     1000 
 1304000   0.33587874    -2.749486   0.50331429   -2.2461717   0.13638155    11518.357     1000 
 1306000   0.32878103   -2.7749676   0.49267837   -2.2822893   0.13048071    11453.419     1000 
 1308000   0.32818472   -2.7430829    0.4917848   -2.2512981   0.13613239    11419.793     1000 
 1310000   0.32444154   -2.7839733   0.48617565   -2.2977977   0.12639436     11574.31     1000 
 1312000   0.31601138   -2.7781394   0.47354306   -2.3045964   0.12285705    11513.991     1000 
 1314000   0.31321326   -2.7476187   0.46935007   -2.2782686   0.12824763    11525.026     1000 
 1316000    0.3340232   -2.7457774   0.50053377   -2.2452437   0.13781786    11375.393     1000 
 1318000   0.31791319   -2.7863118   0.47639291   -2.3099189   0.13832507    11423.266     1000 
 1320000   0.33084622     -2.80362   0.49577306   -2.3078469   0.12081188    11510.968     1000 
 1322000   0.32540973   -2.8137793   0.48762647   -2.3261528   0.12587719    11533.143     1000 
 1324000   0.31099157   -2.7356815   0.46602087   -2.2696607   0.12890155    11390.706     1000 
 1326000   0.33039947   -2.7737713   0.49510361   -2.2786677   0.13020309    11450.614     1000 
 1328000    0.3072598   -2.7924215   0.46042881   -2.3319927   0.11127424     11535.87     1000 
 1330000   0.32947523   -2.7065241   0.49371863   -2.2128054   0.13934776    11453.555     1000 
 1332000   0.32516828    -2.764766   0.48726466   -2.2775013    0.1317677    11497.194     1000 
 1334000   0.31744817   -2.7653612   0.47569608   -2.2896651   0.14183521    11392.222     1000 
 1336000   0.31664382   -2.7897729   0.47449077   -2.3152822   0.12734955    11575.428     1000 
 1338000   0.30954814   -2.7596761   0.46385788   -2.2958182   0.13074808    11482.372     1000 
 1340000   0.31084223   -2.7836454   0.46579708   -2.3178483   0.12846591    11525.876     1000 
 1342000   0.32465376   -2.7433661   0.48649366   -2.2568724    0.1254962    11500.046     1000 
 1344000   0.31363919    -2.725882   0.46998832   -2.2558937   0.13017928    11484.228     1000 
 1346000   0.32316638   -2.7852385   0.48426482   -2.3009737   0.11841524    11553.818     1000 
 1348000   0.32707932   -2.7238993   0.49012836    -2.233771   0.12702144    11478.485     1000 
 1350000   0.33264934   -2.7150719   0.49847503   -2.2165968   0.13476511     11442.02     1000 
 1352000   0.30911167   -2.7461309   0.46320384   -2.2829271   0.11961039    11521.654     1000 
 1354000   0.31422363   -2.7606146    0.4708641   -2.2897505   0.12727035    11508.692     1000 
 1356000   0.32994106   -2.7747131   0.49441668   -2.2802965   0.13794126    11479.182     1000 
 1358000   0.32934733   -2.7555859   0.49352697   -2.2620589    0.1271347    11458.531     1000 
 1360000    0.3245666   -2.7661916   0.48636305   -2.2798286   0.12528949     11431.89     1000 
 1362000   0.31753867   -2.7372589    0.4758317   -2.2614272   0.12306727    11444.722     1000 
 1364000   0.31432837    -2.713804   0.47102106    -2.242783   0.15573895    11336.973     1000 
 1366000   0.32367982   -2.7598525   0.48503421   -2.2748182   0.12666818    11554.982     1000 
 1368000   0.30855425   -2.7818154   0.46236854   -2.3194469   0.12998409    11480.602     1000 
 1370000   0.30030534   -2.7416661   0.45000756   -2.2916585   0.12464679    11491.901     1000 
 1372000   0.32838816   -2.7475201   0.49208966   -2.2554305   0.12062216    11600.092     1000 
 1374000   0.31258786   -2.7569456   0.46841291   -2.2885327   0.13180812    11484.222     1000 
 1376000   0.30181698   -2.7945754   0.45227274   -2.3423026   0.13073297    11444.686     1000 
 1378000   0.30787046    -2.751729   0.46134389   -2.2903851   0.13313099    11425.895     1000 
 1380000   0.32935063   -2.7505259   0.49353191    -2.256994   0.12541441     11506.43     1000 
 1382000   0.33382055   -2.7766541    0.5002301    -2.276424   0.12731944    11484.179     1000 
 1384000   0.33147952   -2.7507787   0.49672206   -2.2540566   0.12989377    11464.761     1000 
 1386000   0.32864939   -2.7452677   0.49248112   -2.2527866   0.13571718    11447.674     1000 
 1388000   0.32721667   -2.7356444   0.49033419   -2.2453102   0.13383923    11465.452     1000 
 1390000   0.30930909   -2.7781539   0.46349967   -2.3146543   0.12198204    11499.354     1000 
 1392000   0.31572287   -2.7594462   0.47311072   -2.2863355   0.13204254     11481.68     1000 
 1394000   0.32922122   -2.7468922   0.49333799   -2.2535542   0.11414471    11525.426     1000 
 1396000   0.31577568   -2.7607475   0.47318985   -2.2875576   0.13204324    11455.328     1000 
 1398000   0.31963679   -2.7538412   0.47897573   -2.2748655   0.13001452    11496.187     1000 
 1400000    0.3218338    -2.766543   0.48226795    -2.284275   0.12720012    11561.501     1000 
 1402000   0.31281861   -2.7906994   0.46875869   -2.3219407   0.13043136    11518.418     1000 
 1404000   0.33171069   -2.7753753   0.49706846   -2.2783068   0.14055107    11478.378     1000 
 1406000   0.32104813   -2.7587718   0.48109062   -2.2776812     0.120981     11541.08     1000 
 1408000   0.32945744   -2.7536074   0.49369198   -2.2599154   0.12700276    11472.428     1000 
 1410000   0.31317314   -2.7407038   0.46928995   -2.2714139   0.13424554    11387.691     1000 
 1412000   0.31533321   -2.7624634   0.47252682   -2.2899365   0.12632835    11504.812     1000 
 1414000   0.31826537   -2.7807576   0.47692066   -2.3038369   0.13401496    11484.713     1000 
 1416000    0.3354264   -2.7598605   0.50263646    -2.257224   0.13555125    11489.895     1000 
 1418000   0.30507173   -2.7283021   0.45714999   -2.2711521   0.13056362    11440.745     1000 
 1420000   0.31510491   -2.7761817    0.4721847    -2.303997   0.11606644    11547.013     1000 
 1422000   0.32361358   -2.7499298   0.48493495   -2.2649948    0.1277475    11481.668     1000 
 1424000   0.30544973    -2.712868   0.45771643   -2.2551516   0.11752206     11535.77     1000 
 1426000   0.30592641   -2.7446691   0.45843073   -2.2862383   0.11352358    11520.417     1000 
 1428000   0.31420446   -2.7567981   0.47083539   -2.2859627   0.12993469    11511.381     1000 
 1430000   0.32760031   -2.7271071   0.49090907    -2.236198   0.12561907    11527.833     1000 
 1432000   0.30485906   -2.7437092    0.4568313   -2.2868779   0.13676589    11440.061     1000 
 1434000   0.31462649   -2.7749613    0.4714678   -2.3034935   0.11618185      11542.2     1000 
 1436000   0.31777442   -2.7607399   0.47618496    -2.284555   0.13778471    11395.121     1000 
 1438000   0.30782416   -2.7704891   0.46127451   -2.3092146   0.12271021     11581.63     1000 
 1440000   0.32051722   -2.7508069   0.48029506   -2.2705118   0.13140452    11475.977     1000 
 1442000   0.30591547    -2.769497   0.45841433   -2.3110827   0.12590366    11449.072     1000 
 1444000   0.32155596   -2.7684297    0.4818516   -2.2865781    0.1284248    11545.993     1000 
 1446000   0.32046787   -2.7813467   0.48022111   -2.3011255   0.11306317     11647.64     1000 
 1448000   0.30566491   -2.7683149   0.45803887   -2.3102761   0.12475479    11545.745     1000 
 1450000   0.32060942   -2.7747774   0.48043322   -2.2943442    0.1273553    11472.029     1000 
 1452000    0.3206838   -2.7587345   0.48054467   -2.2781899    0.1438386    11355.578     1000 
 1454000   0.33210618   -2.7419081   0.49766111    -2.244247   0.12728305    11516.673     1000 
 1456000   0.32515618   -2.7556058   0.48724654   -2.2683592   0.13172631    11513.994     1000 
 1458000   0.33450064   -2.8146581    0.5012492   -2.3134089   0.12641167    11509.831     1000 
 1460000    0.3215248   -2.7534512   0.48180491   -2.2716463   0.12375283    11544.001     1000 
 1462000   0.32191983   -2.7762491   0.48239686   -2.2938523   0.13431316    11462.814     1000 
 1464000   0.32117117   -2.7615275     0.481275   -2.2802525   0.11865546     11511.86     1000 
 1466000   0.32138636   -2.7478062   0.48159745   -2.2662087   0.12056355    11556.476     1000 
 1468000   0.30048433   -2.7517145   0.45027576   -2.3014387   0.11453912    11530.568     1000 
 1470000   0.32325913    -2.785415   0.48440381   -2.3010112   0.12982648    11467.132     1000 
 1472000   0.31206732   -2.7727113   0.46763288   -2.3050784   0.13132499    11461.089     1000 
 1474000   0.33162218   -2.7393038   0.49693584    -2.242368   0.13129691    11378.574     1000 
 1476000   0.32797002   -2.7622563   0.49146307   -2.2707932    0.1206302     11509.93     1000 
 1478000   0.31432851   -2.7728909   0.47102127   -2.3018696   0.12833963    11529.599     1000 
 1480000   0.32554804   -2.8031019   0.48783373   -2.3152682   0.13162542    11492.999     1000 
 1482000   0.30465865   -2.7416728   0.45653098   -2.2851419   0.12502122    11470.876     1000 
 1484000   0.32364791   -2.7371048   0.48498639   -2.2521184   0.12550858    11461.584     1000 
 1486000   0.32865414   -2.7550606   0.49248822   -2.2625724   0.12641531    11473.005     1000 
 1488000   0.31425914    -2.750966   0.47091732   -2.2800487   0.12105236    11525.003     1000 
 1490000   0.32919026   -2.7582132    0.4932916   -2.2649216   0.12840747    11467.273     1000 
 1492000   0.31014294   -2.7519495    0.4647492   -2.2872003   0.12483395    11517.495     1000 
 1494000   0.31762474   -2.7595568   0.47596067   -2.2835961   0.14577899      11377.5     1000 
 1496000   0.32044415   -2.7603806   0.48018556   -2.2801951   0.13045296    11512.296     1000 
 1498000   0.30890236   -2.7825165   0.46289019   -2.3196263   0.12801474    11448.795     1000 
 1500000    0.3212755   -2.7654924   0.48143133   -2.2840611   0.12743281    11443.113     1000 
 1502000   0.32099442   -2.7853426   0.48101014   -2.3043324    0.1091953    11619.321     1000 
 1504000   0.30629149   -2.7539231    0.4589778   -2.2949453    0.1218134     11454.04     1000 
 1506000   0.31692884    -2.744396   0.47491787   -2.2694781   0.13869604    11423.032     1000 
 1508000   0.31544387   -2.7509695   0.47269265   -2.2782768   0.12857393    11516.285     1000 
 1510000   0.31437747    -2.776711   0.47109463   -2.3056164    0.1303181    11469.724     1000 
 1512000   0.32406805    -2.780294   0.48561598    -2.294678   0.13765683    11487.718     1000 
 1514000   0.30837714   -2.7633795   0.46210315   -2.3012764   0.10896151    11583.202     1000 
 1516000   0.32084425   -2.7668437   0.48078511   -2.2860585   0.12934073    11518.523     1000 
 1518000   0.32038444   -2.7855102   0.48009608   -2.3054142   0.13387283    11473.273     1000 
 1520000   0.32570871   -2.7601845    0.4880745     -2.27211    0.1329034    11391.122     1000 
 1522000   0.31905769   -2.7468568   0.47810795   -2.2687488   0.12191432    11518.998     1000 
 1524000   0.31705305   -2.7561097     0.475104   -2.2810057   0.13167763    11410.632     1000 
 1526000   0.33437478   -2.7667267   0.50106061   -2.2656661   0.13249938    11440.438     1000 
 1528000   0.30379302    -2.732699   0.45523383   -2.2774652    0.1253491    11434.457     1000 
 1530000   0.31610141   -2.7184107   0.47367796   -2.2447327   0.12211833    11435.191     1000 
 1532000   0.31126879   -2.7351546   0.46643628   -2.2687184   0.13190178     11430.98     1000 
 1534000   0.33110599   -2.7375461   0.49616233   -2.2413838   0.14348986    11395.318     1000 
 1536000   0.31052394   -2.7207251   0.46532012    -2.255405   0.13157826    11444.033     1000 
 1538000   0.33558206   -2.7187347   0.50286972   -2.2158649   0.13061998    11456.717     1000 
 1540000   0.32257289   -2.7578864   0.48337547   -2.2745109   0.12870879    11534.392     1000 
 1542000   0.30962545   -2.7061152   0.46397374   -2.2421415   0.12618048    11498.894     1000 
 1544000   0.30915536   -2.7185012    0.4632693   -2.2552319    0.1315384    11435.982     1000 
 1546000   0.31598925    -2.764791   0.47350989   -2.2912811    0.1195636    11560.915     1000 
 1548000   0.30511286   -2.7711264   0.45721162   -2.3139148   0.13682235     11437.75     1000 
 1550000   0.32891988    -2.760478   0.49288644   -2.2675915    0.1255693    11480.635     1000 
 1552000   0.31174113   -2.7663411   0.46714408    -2.299197   0.12369732    11519.138     1000 
 1554000   0.32338657   -2.7454022   0.48459478   -2.2608075    0.1306789    11398.384     1000 
 1556000   0.31463301   -2.8015326   0.47147756    -2.330055   0.13100649    11520.429     1000 
 1558000   0.30784708   -2.7657324   0.46130885   -2.3044236   0.12490843    11515.263     1000 
 1560000   0.32823689   -2.7728346   0.49186299   -2.2809716   0.12962458    11468.583     1000 
 1562000   0.30120467   -2.7363636    0.4513552   -2.2850084   0.11866769    11542.625     1000 
 1564000   0.30850215   -2.7695942   0.46229047   -2.3073037   0.12438066    11548.405     1000 
 1566000   0.31320937   -2.7587047   0.46934423   -2.2893605    0.1243436    11507.207     1000 
 1568000   0.31043696   -2.7560558   0.46518978    -2.290866   0.12782369    11532.239     1000 
 1570000   0.31197327    -2.757771   0.46749195   -2.2902791   0.13373369    11488.229     1000 
 1572000   0.32229515   -2.7878121   0.48295928   -2.3048528   0.12592587    11459.913     1000 
 1574000    0.3042529    -2.771622   0.45592296    -2.315699   0.12742213    11438.396     1000 
 1576000   0.34043752    -2.741895   0.51014562   -2.2317494   0.12451862    11504.732     1000 
 1578000   0.32191362   -2.7098125   0.48238756    -2.227425   0.13038193    11367.746     1000 
 1580000   0.32170097   -2.7415932    0.4820689   -2.2595243   0.12366122    11419.939     1000 
 1582000   0.33258572   -2.7173189   0.49837971   -2.2189392   0.12502927    11527.171     1000 
 1584000   0.31516387   -2.7835625   0.47227306   -2.3112894   0.13473913    11456.042     1000 
 1586000   0.32695957   -2.7491284   0.48994891   -2.2591795   0.14270644    11420.514     1000 
 1588000   0.31833544   -2.7375753   0.47702566   -2.2605496   0.12689125    11495.647     1000 
[...]
 2614000   0.31858213   -2.7769569   0.47739532   -2.2995615   0.12630645     11485.81     1000 
 2616000   0.31537556   -2.7809807   0.47259028   -2.3083904   0.12384099    11484.193     1000 
 2618000   0.29773497   -2.7631821   0.44615585   -2.3170262   0.13048674    11395.468     1000 
 2620000   0.32135884   -2.7612917   0.48155622   -2.2797355   0.12945617    11481.404     1000 
 2622000   0.31883582   -2.7685585   0.47777547   -2.2907831   0.12943649    11519.749     1000 
 2624000    0.3205447   -2.7773938   0.48033623   -2.2970575   0.12806331    11485.414     1000 
 2626000   0.32318464   -2.7514663   0.48429218   -2.2671741   0.12619322    11565.012     1000 
 2628000   0.32534218   -2.7437998   0.48752526   -2.2562746   0.13208795    11454.489     1000 
 2630000   0.32406061   -2.7511922   0.48560482   -2.2655874   0.12817509     11456.31     1000 
 2632000   0.32837076   -2.7649709   0.49206358   -2.2729073   0.12789905    11438.709     1000 
 2634000   0.32534835   -2.7659782    0.4875345   -2.2784437   0.13779215    11424.281     1000 
 2636000   0.31708022   -2.7272823   0.47514471   -2.2521376   0.12089279    11435.567     1000 
 2638000   0.32200073   -2.7871682    0.4825181   -2.3046501   0.12979196     11465.22     1000 
 2640000   0.31703326   -2.7520502   0.47507434   -2.2769759   0.13257988    11435.944     1000 
 2642000   0.32587513   -2.7584642   0.48832388   -2.2701403   0.13338528    11447.466     1000 
 2644000   0.31630979   -2.7775776   0.47399022   -2.3035874   0.11596034    11565.952     1000 
 2646000   0.31540109   -2.7501782   0.47262853   -2.2775497   0.13035471    11471.097     1000 
 2648000   0.34226242   -2.7603571   0.51288024   -2.2474768   0.13020039    11489.879     1000 
 2650000   0.32285326   -2.7497219   0.48379561   -2.2659263   0.11776371    11554.928     1000 
 2652000   0.33076025   -2.7225574   0.49564424   -2.2269132   0.12183884    11489.816     1000 
 2654000   0.32351411   -2.7481938   0.48478589   -2.2634079   0.13833113    11436.866     1000 
 2656000   0.32577521     -2.77641   0.48817415   -2.2882359   0.13340141    11462.061     1000 
 2658000   0.32677967    -2.755684   0.48967933   -2.2660047   0.13165761    11466.632     1000 
 2660000   0.31992019    -2.772545   0.47940041   -2.2931446   0.13247334    11438.998     1000 
 2662000   0.32758688   -2.7813105   0.49088894   -2.2904216    0.1404564    11462.454     1000 
 2664000   0.31570298   -2.7555261   0.47308091   -2.2824451   0.11781669    11612.754     1000 
 2666000   0.32274997   -2.7440428   0.48364083    -2.260402   0.13003367    11402.624     1000 
 2668000   0.31533378   -2.7642148   0.47252767   -2.2916871   0.12637307    11505.372     1000 
 2670000   0.31301092   -2.7535125   0.46904687   -2.2844656   0.14143623     11391.16     1000 
 2672000   0.32029736   -2.7475051    0.4799656   -2.2675395   0.13795384    11442.157     1000 
 2674000   0.31881414   -2.7517536   0.47774298   -2.2740106   0.13292234    11423.531     1000 
 2676000   0.30716216    -2.749995   0.46028249   -2.2897125   0.12149042    11545.297     1000 
 2678000    0.3185356   -2.7536859    0.4773256   -2.2763603   0.12661642    11498.358     1000 
 2680000   0.31307705   -2.7586586   0.46914596   -2.2895127   0.13234837    11421.691     1000 
 2682000   0.32791463   -2.7796222   0.49138008   -2.2882421   0.12516556    11501.923     1000 
 2684000   0.32097475   -2.7663923   0.48098066   -2.2854116   0.12694642     11443.48     1000 
 2686000   0.31789552   -2.7852915   0.47636644   -2.3089251   0.12958271    11497.249     1000 
 2688000   0.34378998   -2.7471024   0.51516928   -2.2319331   0.13302631    11495.729     1000 
 2690000   0.34555082   -2.7641695   0.51780791   -2.2463616   0.13157307    11502.686     1000 
 2692000   0.33188409   -2.7421423   0.49732831    -2.244814   0.12283292    11535.956     1000 
 2694000   0.31232787   -2.7343711   0.46802331   -2.2663478   0.13783955    11506.317     1000 
 2696000   0.32942188   -2.7443886   0.49363869   -2.2507499    0.1463331    11370.434     1000 
 2698000   0.30643056   -2.7764249   0.45918619   -2.3172387   0.11801189    11472.886     1000 
 2700000   0.31753353    -2.738188     0.475824    -2.262364   0.13058815    11512.489     1000 
 2702000   0.31756713   -2.7597088   0.47587434   -2.2838345   0.12463855    11525.543     1000 
 2704000   0.31515892   -2.7832502   0.47226565   -2.3109846   0.12726837    11428.103     1000 
 2706000   0.31547635   -2.7640027   0.47274131   -2.2912614   0.13110711    11454.131     1000 
 2708000   0.31391205   -2.7441126    0.4703972   -2.2737154   0.13282158     11413.25     1000 
 2710000   0.30761855   -2.7598871    0.4609664   -2.2989207    0.1307145     11450.04     1000 
 2712000   0.32056342     -2.78756   0.48036429   -2.3071957   0.12690999     11521.23     1000 
 2714000   0.32558715   -2.7430936   0.48789234   -2.2552012   0.12097882    11515.769     1000 
 2716000   0.31408665   -2.7229409   0.47065884   -2.2522821   0.13968918    11352.312     1000 
 2718000   0.31784575   -2.7423818   0.47629186   -2.2660899   0.12730289     11468.08     1000 
 2720000   0.31466794   -2.7457083    0.4715299   -2.2741784   0.12306225    11536.857     1000 
 2722000   0.31752207   -2.7230575   0.47580682   -2.2472507   0.12684304    11485.392     1000 
 2724000   0.32012107   -2.7452729   0.47970143   -2.2655715   0.12503958    11550.521     1000 
 2726000   0.30886526   -2.7717118   0.46283459   -2.3088772   0.14036586    11476.985     1000 
 2728000   0.32772109   -2.7711183   0.49109005   -2.2800283   0.12343742    11528.741     1000 
 2730000   0.31263299   -2.7350965   0.46848054    -2.266616   0.13107726    11421.914     1000 
 2732000   0.33577768   -2.7416819   0.50316286   -2.2385191   0.13870186    11440.537     1000 
 2734000   0.31034652   -2.7826739   0.46505427   -2.3176196   0.12452293    11560.922     1000 
 2736000   0.31920839   -2.7701107   0.47833377   -2.2917769   0.12880369    11485.048     1000 
 2738000   0.31052252   -2.7357833     0.465318   -2.2704653   0.13897077     11365.47     1000 
 2740000   0.32990356   -2.7520016   0.49436048   -2.2576411   0.12696154     11531.71     1000 
 2742000   0.32823745   -2.7747615   0.49186381   -2.2828977    0.1300096    11513.072     1000 
 2744000   0.32594593   -2.7773255   0.48842998   -2.2888955   0.13590733    11463.189     1000 
 2746000   0.32180031   -2.7230288   0.48221776    -2.240811   0.13436731    11463.277     1000 
 2748000   0.33848603   -2.7783581   0.50722132   -2.2711368   0.13573744    11488.181     1000 
 2750000    0.3150772   -2.7406664   0.47214318   -2.2685232   0.12758301    11465.438     1000 
 2752000    0.3115436    -2.780069   0.46684809   -2.3132209   0.11686197    11608.802     1000 
 2754000   0.32188733   -2.7689246   0.48234816   -2.2865765    0.1321223    11437.006     1000 
 2756000   0.32127332   -2.7489972   0.48142807   -2.2675692   0.12706301    11422.514     1000 
 2758000   0.31318946   -2.7545803    0.4693144   -2.2852659   0.12909149    11486.535     1000 
 2760000   0.32190266   -2.6957357   0.48237113   -2.2133646   0.13757411     11474.22     1000 
 2762000   0.32923487   -2.7804605   0.49335845   -2.2871021   0.13315967    11475.154     1000 
 2764000   0.30312254   -2.7718434   0.45422912   -2.3176143   0.12030121    11578.047     1000 
 2766000   0.32026552   -2.7689332   0.47991789   -2.2890153    0.1212018    11544.171     1000 
 2768000   0.31421298   -2.7582109   0.47084816   -2.2873627   0.12357425    11510.483     1000 
 2770000   0.30694839   -2.7639342   0.45996216   -2.3039721   0.12915071    11582.214     1000 
 2772000   0.31393587   -2.7372091   0.47043291   -2.2667762   0.12212951    11466.849     1000 
 2774000   0.32613944   -2.7400239   0.48871995    -2.251304   0.13389902    11513.772     1000 
 2776000   0.33301863   -2.7788648   0.49902841   -2.2798364    0.1348852    11404.987     1000 
 2778000   0.32745193   -2.7454006   0.49068672   -2.2547139   0.11997173    11438.146     1000 
 2780000   0.32056577   -2.7883453   0.48036781   -2.3079775   0.13209475      11535.9     1000 
 2782000   0.31386535   -2.7480437   0.47032723   -2.2777164   0.12653561    11474.034     1000 
 2784000   0.31070417   -2.7413881    0.4655902   -2.2757979   0.13255777    11422.987     1000 
 2786000   0.33918422   -2.7761608   0.50826755   -2.2678933   0.13564996    11415.615     1000 
 2788000   0.32817794   -2.7730089   0.49177464   -2.2812342   0.13006015    11464.412     1000 
 2790000   0.32617081   -2.7911103   0.48876696   -2.3023434   0.14040985    11457.708     1000 
 2792000   0.32254817   -2.7628576   0.48333843   -2.2795191   0.13926565    11463.493     1000 
 2794000   0.32084368   -2.7732527   0.48078425   -2.2924684   0.13578832    11414.591     1000 
 2796000   0.32361866   -2.7648447   0.48494256   -2.2799021   0.11723547    11569.295     1000 
 2798000   0.32809831    -2.766715   0.49165531   -2.2750597   0.13356989     11404.62     1000 
 2800000   0.31074277   -2.7706425   0.46564804   -2.3049945   0.12673082    11386.283     1000 
 2802000   0.33541667   -2.7629537   0.50262189   -2.2603318    0.1302695    11427.638     1000 
 2804000      0.32579   -2.7469927   0.48819631   -2.2587964   0.11851026    11457.833     1000 
 2806000   0.32510443   -2.7298888   0.48716899   -2.2427198    0.1239229    11428.769     1000 
 2808000   0.31771311   -2.7666422   0.47609309   -2.2905491   0.14098595    11421.692     1000 
 2810000   0.33066074   -2.7340678   0.49549513   -2.2385726   0.14031403    11347.994     1000 
 2812000   0.31914505   -2.7579586   0.47823886   -2.2797197   0.12447384    11515.949     1000 
 2814000   0.31751101   -2.7421675   0.47579025   -2.2663772   0.13924036    11358.644     1000 
 2816000   0.31836101   -2.7700778   0.47706397   -2.2930138   0.13281557    11440.147     1000 
 2818000    0.3253538   -2.7536002   0.48754267   -2.2660575    0.1360507    11447.764     1000 
 2820000   0.31864897   -2.7559351   0.47749549   -2.2784396   0.13793047    11408.835     1000 
 2822000    0.3104808   -2.7874046   0.46525548   -2.3221491   0.11347544     11564.12     1000 
 2824000   0.32446724   -2.7291392   0.48621416    -2.242925   0.13022082     11477.56     1000 
 2826000   0.31938281   -2.7263593   0.47859514   -2.2477642   0.13225042    11440.277     1000 
 2828000   0.31521011   -2.7620445   0.47234235   -2.2897021   0.12115879    11520.446     1000 
 2830000   0.32520568   -2.7869273   0.48732072   -2.2996066    0.1252508    11479.697     1000 
 2832000   0.32089153   -2.8190218   0.48085595   -2.3381658   0.12710139        11554     1000 
 2834000   0.32737912   -2.7443873   0.49057761   -2.2538097   0.13107829    11469.829     1000 
 2836000   0.31056948   -2.7906875   0.46538837   -2.3252991   0.11698194    11549.239     1000 
 2838000   0.31103756   -2.7441034   0.46608979   -2.2780136   0.13655547     11360.56     1000 
 2840000   0.34631125   -2.7610859    0.5189474   -2.2421385   0.13503662    11418.839     1000 
 2842000   0.32380891   -2.7803716   0.48522766   -2.2951439   0.14423343    11426.488     1000 
 2844000   0.30479996   -2.7143026   0.45674273   -2.2575599   0.12905379    11487.932     1000 
 2846000   0.32241005   -2.7456929   0.48313146   -2.2625615   0.15024564    11351.137     1000 
 2848000   0.33008125   -2.7208085   0.49462676   -2.2261818   0.13245908    11420.621     1000 
 2850000   0.32771888   -2.7543464   0.49108674   -2.2632597   0.13324027    11458.269     1000 
 2852000   0.32879122   -2.8089473   0.49269364   -2.3162536   0.11659868    11572.551     1000 
 2854000   0.32541987   -2.7766413   0.48764167   -2.2889996   0.12210908    11498.676     1000 
 2856000   0.32783011   -2.7731536   0.49125342   -2.2819002   0.12224037    11512.217     1000 
 2858000   0.32472654   -2.7767417   0.48660272   -2.2901389   0.13681291    11461.177     1000 
 2860000   0.31543974   -2.7413723   0.47268646   -2.2686858   0.13304861    11446.176     1000 
 2862000   0.31391123   -2.7662337   0.47039598   -2.2958377   0.12484694     11539.83     1000 
 2864000   0.31937357   -2.7496556   0.47858129   -2.2710743    0.1414902    11378.394     1000 
 2866000   0.32717234   -2.7358463   0.49026775   -2.2455786   0.13375119    11445.624     1000 
 2868000   0.33104746   -2.7758827   0.49607463   -2.2798081   0.13623705    11426.396     1000 
 2870000   0.32079515   -2.7917351   0.48071154   -2.3110236    0.1255382    11549.348     1000 
 2872000   0.32043567     -2.77481   0.48017286   -2.2946371   0.13174971    11466.969     1000 
 2874000   0.31743377   -2.7683252    0.4756745   -2.2926507   0.13484052    11471.443     1000 
 2876000   0.32068997   -2.7610467   0.48055392   -2.2804927   0.11674974    11525.365     1000 
 2878000    0.3282612   -2.7731176   0.49189942   -2.2812182   0.12734238    11528.164     1000 
 2880000   0.31963482   -2.7781285   0.47897278   -2.2991557   0.12822117    11460.267     1000 
 2882000   0.32727312   -2.7516759   0.49041877   -2.2612571   0.13188965    11476.294     1000 
 2884000   0.31058139    -2.763184   0.46540621   -2.2977778   0.13535547    11414.328     1000 
 2886000   0.30698878   -2.7526129   0.46002268   -2.2925902   0.13072108    11434.621     1000 
 2888000     0.311642   -2.7782195   0.46699554    -2.311224   0.12057536    11561.449     1000 
 2890000   0.31495777    -2.770249   0.47196422   -2.2982848    0.1315106    11493.816     1000 
 2892000    0.3196124   -2.7396342   0.47893918    -2.260695   0.13807262    11422.792     1000 
 2894000   0.32384379   -2.7725872   0.48527993   -2.2873073   0.13095473     11494.96     1000 
 2896000   0.31794986   -2.7872021   0.47644787   -2.3107542   0.12290231    11561.449     1000 
 2898000   0.31756706   -2.7404956   0.47587424   -2.2646213   0.13934239    11455.921     1000 
 2900000   0.31098876   -2.7319437   0.46601666    -2.265927   0.13938643    11429.954     1000 
 2902000   0.30926016   -2.7414221   0.46342635   -2.2779958   0.12848797    11510.927     1000 
 2904000   0.33751101   -2.7495317   0.50576025   -2.2437715   0.13834812    11461.247     1000 
 2906000   0.31250035   -2.7534107   0.46828177   -2.2851289   0.13787891    11409.545     1000 
 2908000   0.32191724   -2.7219652   0.48239299   -2.2395722   0.13446904    11410.474     1000 
 2910000   0.31597243   -2.7521982   0.47348469   -2.2787135   0.11721855    11487.264     1000 
 2912000    0.3034775   -2.8094684   0.45476103   -2.3547073   0.12248633     11474.78     1000 
 2914000   0.31463438   -2.7736711   0.47147962   -2.3021914   0.12039019    11557.119     1000 
 2916000    0.3271485   -2.7806918   0.49023203   -2.2904598   0.13845203    11424.885     1000 
 2918000   0.30860611   -2.7902429   0.46244626   -2.3277966   0.12864613    11483.245     1000 
 2920000   0.32060156   -2.7763719   0.48042144   -2.2959505   0.11691716    11536.224     1000 
 2922000   0.33797301   -2.7999748   0.50645255   -2.2935222   0.12292474    11479.128     1000 
 2924000   0.32422437   -2.7782497   0.48585021   -2.2923994   0.12564578    11524.221     1000 
 2926000   0.32776874   -2.7529854   0.49116145    -2.261824   0.13350886    11434.093     1000 
 2928000    0.3388514   -2.7699692   0.50776882   -2.2622004   0.12585538    11554.754     1000 
 2930000   0.32274905   -2.7611556   0.48363946   -2.2775161   0.12585978    11478.771     1000 
 2932000   0.31594765   -2.8040274   0.47344755   -2.3305798   0.12221168    11527.129     1000 
 2934000   0.32893727   -2.7610084    0.4929125   -2.2680959   0.13976575    11445.567     1000 
 2936000   0.31704415   -2.7489357   0.47509065    -2.273845    0.1233949    11472.393     1000 
 2938000   0.33461442   -2.7670494   0.50141971   -2.2656297   0.13997638    11437.022     1000 
 2940000   0.31603162   -2.7711196   0.47357338   -2.2975463   0.12318034    11556.788     1000 
 2942000   0.32444829   -2.7210211   0.48618576   -2.2348353   0.14554344    11392.117     1000 
 2944000    0.3258721   -2.7990502   0.48831934   -2.3107309   0.12985668    11535.655     1000 
 2946000   0.31176013    -2.790917   0.46717256   -2.3237445   0.12830343    11465.083     1000 
 2948000   0.31435493   -2.7516142   0.47106087   -2.2805534   0.12805529    11432.225     1000 
 2950000   0.32350861   -2.7614334   0.48477766   -2.2766557   0.13373504    11523.925     1000 
 2952000   0.31696369   -2.7625879   0.47497009   -2.2876178   0.12523076     11504.86     1000 
 2954000    0.3129296   -2.7220113     0.468925   -2.2530863   0.13082029    11509.339     1000 
 2956000   0.31340359   -2.7418405   0.46963529   -2.2722053   0.13391174    11434.497     1000 
 2958000   0.31108418   -2.7749428   0.46615965   -2.3087832   0.13322705    11450.912     1000 
 2960000    0.3123858   -2.7681655   0.46811012   -2.3000554   0.12043642    11577.245     1000 
 2962000   0.32593338   -2.7384093   0.48841117   -2.2499981   0.12238846    11599.553     1000 
 2964000   0.32682451   -2.7432764   0.48974653   -2.2535298   0.13071198    11491.429     1000 
 2966000   0.32185242   -2.7325395   0.48229585   -2.2502436   0.12346662    11472.087     1000 
 2968000   0.32631206   -2.7310795   0.48897863   -2.2421009   0.13460549    11412.355     1000 
 2970000   0.31777208    -2.726222   0.47618147   -2.2500405   0.13248537    11422.612     1000 
 2972000   0.32414684   -2.7628779   0.48573404   -2.2771439   0.13742511    11422.971     1000 
 2974000   0.32644121   -2.7813266   0.48917215   -2.2921545   0.14451962    11394.454     1000 
 2976000   0.31206168   -2.7416387   0.46762443   -2.2740143   0.13623212    11405.983     1000 
 2978000   0.32879392   -2.7537262   0.49269769   -2.2610285   0.13014659    11456.198     1000 
 2980000    0.3210306   -2.7653371   0.48106435   -2.2842727   0.11945736    11527.764     1000 
 2982000   0.32138553   -2.7836136   0.48159621   -2.3020174   0.12616321    11434.964     1000 
 2984000   0.31535495   -2.7681943   0.47255939   -2.2956349   0.12852573    11500.593     1000 
 2986000   0.32020503   -2.7442597   0.47982724   -2.2644324   0.12720351    11469.644     1000 
 2988000   0.31509967   -2.7593454   0.47217685   -2.2871686   0.13176428    11341.061     1000 
 2990000   0.31469821    -2.761621   0.47157527   -2.2900457   0.12343247    11549.115     1000 
 2992000   0.32713936   -2.8135514   0.49021833   -2.3233331   0.13460777    11560.057     1000 
 2994000    0.3033638   -2.7967004   0.45459066   -2.3421097    0.1259208    11524.105     1000 
 2996000    0.3170428   -2.7846357   0.47508863   -2.3095471   0.12984042    11443.644     1000 
 2998000   0.32843912   -2.7721794   0.49216602   -2.2800134   0.12940244    11484.741     1000 
 3000000   0.31465654   -2.7612663   0.47151282   -2.2897535   0.12868138    11428.567     1000 
Loop time of 1143.74 on 1 procs for 3000000 steps with 1000 atoms

Performance: 1133122.790 tau/day, 2622.969 timesteps/s
100.0% CPU use with 1 MPI tasks x 1 OpenMP threads

MPI task timing breakdown:
Section |  min time  |  avg time  |  max time  |%varavg| %total
---------------------------------------------------------------
Pair    | 899.15     | 899.15     | 899.15     |   0.0 | 78.61
Neigh   | 143.02     | 143.02     | 143.02     |   0.0 | 12.50
Comm    | 23.551     | 23.551     | 23.551     |   0.0 |  2.06
Output  | 0.016832   | 0.016832   | 0.016832   |   0.0 |  0.00
Modify  | 72.77      | 72.77      | 72.77      |   0.0 |  6.36
Other   |            | 5.234      |            |       |  0.46

Nlocal:        1000.00 ave        1000 max        1000 min
Histogram: 1 0 0 0 0 0 0 0 0 0
Nghost:        2200.00 ave        2200 max        2200 min
Histogram: 1 0 0 0 0 0 0 0 0 0
Neighs:        27654.0 ave       27654 max       27654 min
Histogram: 1 0 0 0 0 0 0 0 0 0

Total # of neighbors = 27654
Ave neighs/atom = 27.654000
Neighbor list builds = 150000
Dangerous builds not checked

Total wall time: 0:19:03
