LAMMPS (29 Sep 2021 - Update 2)
OMP_NUM_THREADS environment is not set. Defaulting to 1 thread. (src/comm.cpp:98)
  using 1 OpenMP thread(s) per MPI task
# ----------------------- Inicialização -----------------------

units			lj
atom_style 		atomic
dimension 		3
boundary 		p p p

# -------------------- Criação dos Átomos ---------------------

read_data 		topologia.txt
Reading data file ...
  orthogonal box = (0.0000000 0.0000000 0.0000000) to (21.540000 21.540000 21.540000)
  1 by 1 by 1 MPI processor grid
  reading atoms ...
  1000 atoms
  read_data CPU = 0.005 seconds

velocity 		all create ${temp} 87287 rot yes dist gaussian
velocity 		all create 0.65 87287 rot yes dist gaussian

# ------------------ Interação Interatômica -------------------

pair_style		table linear 1000
pair_coeff		1 1 force.table AA 5.0
WARNING: 2 of 1000 force values in table AA are inconsistent with -dE/dr.
WARNING:  Should only be flagged at inflection points (src/pair_table.cpp:465)
pair_coeff		1 2 force.table AB 5.0
WARNING: 1 of 1000 force values in table AB are inconsistent with -dE/dr.
WARNING:  Should only be flagged at inflection points (src/pair_table.cpp:465)
pair_coeff		2 2 force.table BB 5.0
pair_write		1 1 1000 r 0.008 5.0 table.check AA
Appending to table file table.check with DATE: 2023-06-15
Neighbor list info ...
  update every 1 steps, delay 10 steps, check yes
  max neighbors/atom: 2000, page size: 100000
  master list distance cutoff = 5.3
  ghost atom cutoff = 5.3
  binsize = 2.65, bins = 9 9 9
  1 neighbor lists, perpetual/occasional/extra = 1 0 0
  (1) pair table, perpetual
      attributes: half, newton on
      pair build: half/bin/atomonly/newton
      stencil: half/bin/3d
      bin: standard
pair_write		1 2 1000 r 0.008 5.0 table.check AB
Appending to table file table.check with DATE: 2023-06-15
pair_write		2 2 1000 r 0.008 5.0 table.check BB
Appending to table file table.check with DATE: 2023-06-15

neighbor 		0.3 bin
neigh_modify		every 20 delay 0 check no

# ------------------------- Ensemble --------------------------------------

fix 1			all npt temp ${temp} ${temp} 0.5 iso ${press} ${press} 5
fix 1			all npt temp 0.65 ${temp} 0.5 iso ${press} ${press} 5
fix 1			all npt temp 0.65 0.65 0.5 iso ${press} ${press} 5
fix 1			all npt temp 0.65 0.65 0.5 iso 0.13 ${press} 5
fix 1			all npt temp 0.65 0.65 0.5 iso 0.13 0.13 5

# ---------------------- Função de Distribuição Radial -----------------------

#compute RDF 		all rdf 2000 1 1 1 2 2 2
#fix 2 			all ave/time 1 2000 2000 c_RDF[*] file rdf.data mode vector

# ------------------------- Execução ---------------------------

timestep 		0.005
thermo_style		custom step temp pe ke etotal press vol atoms
thermo			2000
run			3000000
Per MPI rank memory allocation (min/avg/max) = 2.670 | 2.670 | 2.670 Mbytes
Step Temp PotEng KinEng TotEng Press Volume Atoms 
       0         0.65   0.24113201     0.974025     1.215157   0.87629769    9993.9483     1000 
    2000    0.6335427   -1.7440388   0.94936374  -0.79467508   0.12785961    11703.632     1000 
    4000   0.63040406    -1.810224   0.94466049  -0.86556353    0.1200086    11713.868     1000 
    6000   0.65090483   -1.8347522   0.97538089   -0.8593713   0.13741497    11532.279     1000 
    8000    0.6491156   -1.8295056   0.97269973  -0.85680584   0.12766552    11722.477     1000 
   10000   0.63372699   -1.7762598   0.94963989  -0.82661989    0.1304934    11629.479     1000 
   12000   0.66660421   -1.7194812   0.99890641  -0.72057477   0.13039544    11521.372     1000 
   14000   0.66986328   -1.8319747    1.0037901  -0.82818462   0.13118125    11579.997     1000 
   16000   0.65303984   -1.8625338    0.9785802  -0.88395358   0.11583944    11918.832     1000 
   18000   0.67331157   -1.7829263    1.0089574   -0.7739689   0.13428318     11841.73     1000 
   20000   0.64818388   -1.7530909   0.97130355  -0.78178734   0.12411748    11558.411     1000 
   22000   0.66797891   -1.8785883    1.0009664  -0.87762196   0.14045798     11468.97     1000 
   24000   0.64298583   -1.7829872   0.96351426  -0.81947299   0.12165593    11684.907     1000 
   26000   0.61335411   -1.7599803   0.91911114  -0.84086911   0.14329425    11530.782     1000 
   28000   0.68348248   -1.7951355    1.0241985  -0.77093704   0.13445683     11655.77     1000 
   30000   0.63332556   -1.7868589   0.94903835   -0.8378205   0.12553247    11794.763     1000 
   32000   0.63941097   -1.7101336   0.95815733  -0.75197622   0.13635902    11552.616     1000 
   34000   0.63876949   -1.8039158   0.95719608  -0.84671973   0.12584429    11725.648     1000 
   36000   0.68284453   -1.7716689    1.0232425   -0.7484264   0.13755441    11537.601     1000 
   38000   0.64635413   -1.8350507   0.96856167    -0.866489   0.12254607    11986.816     1000 
   40000   0.63126197   -1.8127779   0.94594607  -0.86683187   0.12778883    11746.034     1000 
   42000   0.62557174   -1.8007659   0.93741926  -0.86334662   0.12554833    11645.193     1000 
   44000    0.6572722   -1.7454722   0.98492239  -0.76054981   0.13751811    11616.118     1000 
   46000    0.6640901   -1.7782446   0.99513901  -0.78310556   0.14284477    11502.896     1000 
   48000   0.65125354    -1.841774   0.97590343  -0.86587052   0.12577732    11858.956     1000 
   50000   0.68542045   -1.8335713    1.0271025  -0.80646875   0.13283888    11667.256     1000 
   52000   0.62603585   -1.7903828   0.93811472  -0.85226806   0.11914956    11899.299     1000 
   54000   0.62210263   -1.7896094    0.9322208  -0.85738858   0.12695401    11761.581     1000 
   56000   0.64233939   -1.7560021   0.96254558   -0.7934565   0.13842191    11551.806     1000 
   58000   0.62671766   -1.7976349   0.93913642  -0.85849848   0.12517513    11662.439     1000 
   60000   0.65133145   -1.7878124   0.97602018  -0.81179226     0.127374    11806.476     1000 
   62000   0.64813379   -1.8068533   0.97122848  -0.83562481   0.13476799    11773.121     1000 
   64000   0.65973221   -1.8068947   0.98860872  -0.81828596   0.13634648    11743.319     1000 
   66000   0.65806619   -1.8304453   0.98611219  -0.84433312    0.1268411    11804.427     1000 
   68000    0.6613755   -1.7470959   0.99107118   -0.7560247   0.14419591    11634.744     1000 
   70000    0.6454828   -1.8177571   0.96725598  -0.85050116   0.11488713    11795.321     1000 
   72000   0.64438227   -1.8066166   0.96560683  -0.84100976   0.12634309    11682.366     1000 
   74000   0.67070392   -1.8761849    1.0050498  -0.87113507   0.11577085    11777.844     1000 
   76000   0.67104513   -1.8047746    1.0055611  -0.79921343   0.12595042    11652.637     1000 
   78000   0.66313068    -1.760607   0.99370133  -0.76690572   0.14134896    11562.831     1000 
   80000   0.65879542    -1.806976   0.98720494  -0.81977103   0.14839199    11508.021     1000 
   82000   0.66565532   -1.8029372    0.9974845  -0.80545272   0.13050501    11759.564     1000 
   84000   0.62904724   -1.7992568   0.94262728  -0.85662951   0.14085599    11477.379     1000 
   86000   0.64114486    -1.876967   0.96075557  -0.91621139   0.12363421    11790.727     1000 
   88000   0.68679258   -1.7898463    1.0291587  -0.76068757   0.11933779    11771.047     1000 
   90000   0.66549461   -1.8043774   0.99724367  -0.80713375   0.13823482    11651.215     1000 
   92000   0.64273125   -1.8485879   0.96313279  -0.88545511     0.134683    11818.327     1000 
   94000   0.65088655   -1.8660445   0.97535349  -0.89069101   0.12770901    11775.466     1000 
   96000   0.67001734    -1.789917     1.004021  -0.78589598   0.12389722     11774.61     1000 
   98000   0.63297275    -1.766395   0.94850967  -0.81788536   0.13070998    11623.455     1000 
  100000   0.63878766   -1.8150456   0.95722331  -0.85782229    0.1140004    11823.993     1000 
  102000   0.62280287   -1.8252827   0.93327009  -0.89201259   0.11994959    11888.354     1000 
  104000    0.6473955   -1.7710203   0.97012216  -0.80089817   0.14463267    11558.354     1000 
  106000   0.62445878   -1.7247505   0.93575148  -0.78899906   0.14740833    11596.092     1000 
  108000   0.65039495   -1.7702187   0.97461683  -0.79560185   0.12565575    11719.705     1000 
  110000    0.6384898   -1.7383653   0.95677696  -0.78158833    0.1534236    11505.835     1000 
  112000   0.64386066   -1.8090218    0.9648252  -0.84419658    0.1234962    11868.518     1000 
  114000   0.68053574   -1.8324909    1.0197828  -0.81270814   0.13763282    11659.441     1000 
  116000   0.65105887   -1.7928519   0.97561171  -0.81724015   0.13210725    11691.335     1000 
  118000   0.66534593   -1.7760134   0.99702087  -0.77899257   0.12669627    11682.932     1000 
  120000   0.65516168   -1.7625651   0.98175978  -0.78080533    0.1349258    11680.858     1000 
  122000   0.65197543   -1.8016655   0.97698518  -0.82468032   0.13621773    11579.016     1000 
  124000   0.64661639   -1.8027759   0.96895466  -0.83382126    0.1344174    11469.751     1000 
  126000   0.66102583   -1.8034107    0.9905472  -0.81286345   0.14128342    11634.561     1000 
  128000   0.64933997   -1.8020008   0.97303594  -0.82896482    0.1356944    11648.541     1000 
  130000   0.66216653    -1.782582   0.99225654  -0.79032546   0.12817522    11818.654     1000 
  132000   0.64213508   -1.7982011   0.96223942   -0.8359617   0.13062472    11674.354     1000 
  134000    0.6654069   -1.8134753   0.99711224  -0.81636302   0.11742393    11907.675     1000 
  136000   0.64294921    -1.728721    0.9634594  -0.76526156   0.13627603    11628.988     1000 
  138000   0.65752871   -1.8377595   0.98530677  -0.85245275   0.11630483    11713.201     1000 
  140000   0.67016143   -1.8599265    1.0042369   -0.8556896   0.12937529    11684.899     1000 
  142000    0.6511317   -1.8468461   0.97572085  -0.87112523   0.12831909    11688.355     1000 
  144000   0.66389583   -1.7711527    0.9948479  -0.77630479   0.13973766    11717.995     1000 
  146000   0.64092678   -1.7659736   0.96042878  -0.80554483   0.13046087    11438.811     1000 
  148000   0.66584168   -1.8415367   0.99776376  -0.84377298   0.12760909    11760.313     1000 
  150000   0.66704229   -1.8195736   0.99956287  -0.82001071    0.1249607     11852.28     1000 
  152000   0.67108377    -1.909889     1.005619  -0.90426992   0.12583827    11942.505     1000 
  154000   0.62587454   -1.8265366     0.937873   -0.8886636   0.12336558    11842.517     1000 
  156000   0.68628853   -1.7749274    1.0284034  -0.74652404   0.15515843    11437.189     1000 
  158000   0.64271248   -1.8069833   0.96310465  -0.84387862   0.13242328    11536.181     1000 
  160000   0.64388248   -1.7824402   0.96485789  -0.81758233   0.12784589    11599.862     1000 
  162000   0.66646317   -1.8333948   0.99869507  -0.83469977   0.11950166     11967.75     1000 
  164000   0.64352403    -1.794147   0.96432077  -0.82982627   0.12513336    11779.988     1000 
  166000   0.67034412   -1.8256978    1.0045107  -0.82118714   0.14134758    11648.197     1000 
  168000   0.63982482   -1.8571433    0.9587775   -0.8983658    0.1209404    11824.639     1000 
  170000   0.64912651   -1.7893923   0.97271608  -0.81667624   0.12664607    11756.435     1000 
  172000   0.63986289   -1.8494463   0.95883454  -0.89061174   0.11020517    11953.358     1000 
  174000   0.65033466   -1.8178991   0.97452649  -0.84337259   0.12256203     11859.91     1000 
  176000   0.66901849   -1.7646115    1.0025242  -0.76208729   0.14754027    11601.839     1000 
  178000   0.62436416   -1.8025369   0.93560969  -0.86692721   0.12608181     11645.41     1000 
  180000   0.67446558   -1.7783292    1.0106867  -0.76764251    0.1460173    11519.947     1000 
  182000   0.64554808   -1.8122742    0.9673538   -0.8449204   0.12564956    11758.728     1000 
  184000   0.64939781   -1.7738252   0.97312261  -0.80070263   0.13706286    11710.621     1000 
  186000   0.64487356   -1.7983399   0.96634303  -0.83199684   0.13963287    11624.458     1000 
  188000   0.65406884   -1.7590761   0.98012215  -0.77895398   0.12192135    11868.029     1000 
  190000   0.64478677   -1.7774957   0.96621298  -0.81128277   0.11752496    11797.626     1000 
  192000   0.63787489   -1.8210156   0.95585553  -0.86516004   0.12847306    11739.154     1000 
  194000   0.67205285   -1.7690137    1.0070712   -0.7619425   0.13187761    11736.712     1000 
  196000   0.68509262   -1.7700501    1.0266113  -0.74343877   0.12498037     11861.15     1000 
  198000   0.66023626   -1.8013751   0.98936404   -0.8120111   0.12076023    11759.057     1000 
  200000   0.63167333   -1.8408802   0.94656249  -0.89431771   0.12654756    11611.133     1000 
  202000   0.66791023   -1.7841612    1.0008635  -0.78329773    0.1251468    11625.538     1000 
  204000   0.69680936   -1.7988981    1.0441688  -0.75472927   0.13375931    11748.062     1000 
  206000   0.59785924    -1.785709   0.89589208   -0.8898169   0.12505678    11803.828     1000 
  208000   0.66047333   -1.8040105   0.98971929  -0.81429118   0.13353438    11720.658     1000 
  210000   0.64302079   -1.7347862   0.96356665   -0.7712195   0.14609661    11446.605     1000 
  212000   0.62439137   -1.7500927   0.93565047  -0.81444226   0.13623852    11346.964     1000 
  214000   0.64090162   -1.8280462   0.96039108  -0.86765514    0.1306082    11832.741     1000 
  216000   0.68180862   -1.7961187    1.0216902  -0.77442846   0.13218031    11846.257     1000 
  218000   0.65456904   -1.7732183   0.98087171  -0.79234661   0.13559069    11573.761     1000 
  220000   0.60289797   -1.7961387   0.90344261   -0.8926961   0.14520065      11555.7     1000 
  222000   0.63260631   -1.8355987   0.94796056  -0.88763812   0.12636589    11823.738     1000 
  224000   0.64227892   -1.8010863   0.96245496  -0.83863133   0.12738012    11625.564     1000 
  226000   0.66229764   -1.8562069   0.99245302  -0.86375389   0.13229107    11788.035     1000 
  228000   0.63032026   -1.8103079   0.94453492  -0.86577299     0.140812     11545.37     1000 
  230000   0.65635951   -1.8219391   0.98355473  -0.83838437   0.11628755    11867.144     1000 
  232000   0.66527376   -1.7890234   0.99691274  -0.79211065   0.14696324    11556.394     1000 
  234000   0.64165747   -1.8167219   0.96152372  -0.85519813    0.1273227    11860.868     1000 
  236000   0.64627561    -1.797583     0.968444  -0.82913896   0.13209575     11550.44     1000 
  238000    0.6618836   -1.7977845   0.99183258   -0.8059519   0.11834814    11836.203     1000 
  240000   0.63561831   -1.8186469   0.95247404  -0.86617282    0.1288033    11743.279     1000 
  242000   0.64207974   -1.7703875   0.96215649  -0.80823105   0.13972238      11431.7     1000 
  244000   0.63613133   -1.8148496   0.95324281  -0.86160683   0.11861783    11790.845     1000 
  246000   0.67093452   -1.7538056    1.0053954  -0.74841026   0.13325158    11650.496     1000 
  248000     0.655154   -1.8309622   0.98174828  -0.84921391   0.13232269    11594.328     1000 
  250000   0.64474193   -1.8175911   0.96614578  -0.85144532   0.14196938    11639.517     1000 
  252000   0.65117386   -1.8388973   0.97578402  -0.86311323   0.13430725    11643.525     1000 
  254000   0.67167852   -1.7800486    1.0065103  -0.77353834   0.13340025    11595.586     1000 
  256000    0.6415749   -1.8190186   0.96139999  -0.85761859   0.12171801    12052.661     1000 
  258000   0.62816811   -1.7734721   0.94130992  -0.83216214   0.12226163    11887.015     1000 
  260000   0.63361167   -1.7440912   0.94946708  -0.79462408   0.14417792    11530.017     1000 
  262000   0.65808318   -1.8106053   0.98613765  -0.82446768   0.13620207    11550.208     1000 
  264000   0.63188104   -1.7417906   0.94687375   -0.7949169   0.13268518    11693.589     1000 
  266000   0.64628938   -1.7678537   0.96846463  -0.79938911   0.12676681    11592.012     1000 
  268000   0.66220694   -1.7908239    0.9923171  -0.79850682   0.13239968    11730.869     1000 
  270000   0.63897625   -1.7500935   0.95750592  -0.79258756   0.13612651    11878.823     1000 
  272000    0.6208453   -1.7877161   0.93033668  -0.85737944   0.13161795    11674.116     1000 
  274000   0.64373899    -1.772963   0.96464288  -0.80832011   0.13520932    11648.371     1000 
  276000   0.62497859   -1.7620316   0.93653041  -0.82550116   0.13115707     11714.69     1000 
  278000   0.68362763   -1.7943487     1.024416  -0.76993272   0.14949993    11739.732     1000 
  280000   0.64823741   -1.8083873   0.97138375  -0.83700358   0.12616731    11747.593     1000 
  282000   0.64126413   -1.7896717    0.9609343  -0.82873737   0.12591141    11825.365     1000 
  284000   0.65324957   -1.7217395   0.97889448  -0.74284505   0.12929157    11654.727     1000 
  286000   0.64037686    -1.742828   0.95960472  -0.78322328   0.12666098    11635.256     1000 
  288000   0.65204035   -1.7859629   0.97708247  -0.80888047   0.12223797    11708.818     1000 
  290000   0.63228231   -1.7841212   0.94747504  -0.83664614   0.13463368    11532.603     1000 
  292000   0.65776092   -1.8262077   0.98565474    -0.840553   0.12950579    11855.702     1000 
  294000   0.63803076   -1.7349863    0.9560891  -0.77889718   0.13193488    11664.516     1000 
  296000    0.6591929   -1.7543741   0.98780056  -0.76657353   0.14492504    11510.192     1000 
  298000     0.659675   -1.8540034   0.98852298  -0.86548041   0.12876223    11853.255     1000 
  300000   0.65975788   -1.7828311   0.98864718  -0.79418392   0.13521833    11632.346     1000 
  302000   0.64352923   -1.8566447   0.96432855  -0.89231611   0.11057039    12013.898     1000 
  304000   0.65294531   -1.7711016   0.97843855  -0.79266308   0.12976897    11654.097     1000 
  306000   0.63052137   -1.7995161   0.94483627  -0.85467988   0.12783848    11933.143     1000 
  308000    0.6172708   -1.7522835   0.92498029  -0.82730317   0.13061606    11436.564     1000 
  310000   0.64701251   -1.8042276   0.96954825  -0.83467932   0.11828362    11932.688     1000 
  312000   0.63475442    -1.862896   0.95117949   -0.9117165   0.12029702    11875.633     1000 
  314000   0.67132748    -1.784645    1.0059842  -0.77866072   0.12425776    11796.752     1000 
  316000   0.67448512   -1.7773119     1.010716  -0.76659591   0.13576811    11756.451     1000 
  318000   0.65607457   -1.7878305   0.98312774  -0.80470274   0.12620115    11784.081     1000 
  320000   0.64215857    -1.837864   0.96227462  -0.87558942   0.12498284    11795.367     1000 
  322000   0.65756065   -1.7353493   0.98535464  -0.74999469    0.1336013    11654.642     1000 
  324000   0.63618252   -1.8068429    0.9533195  -0.85352337   0.13193529    11786.204     1000 
  326000    0.6459049   -1.7213514   0.96788849   -0.7534629   0.14213881    11424.375     1000 
  328000    0.6457609   -1.7318155    0.9676727  -0.76414276    0.1368423     11565.23     1000 
  330000   0.67093529   -1.7662477    1.0053965  -0.76085114   0.13102799    11722.695     1000 
  332000   0.66348885   -1.8134761   0.99423804  -0.81923807   0.12300619    11860.201     1000 
  334000   0.67503501   -1.7636611      1.01154  -0.75212112   0.13141039    11669.929     1000 
  336000   0.65340149   -1.8414716   0.97912213  -0.86234943     0.133906     11797.68     1000 
  338000   0.62149986   -1.7989854   0.93131754  -0.86766786   0.13877537    11518.495     1000 
  340000   0.66651427   -1.8049652   0.99877164  -0.80619353    0.1359189    11494.051     1000 
  342000    0.6415839   -1.7637967   0.96141347  -0.80238321   0.13428139     11643.69     1000 
  344000   0.64899649   -1.7837909   0.97252124  -0.81126965   0.12980947    11442.183     1000 
  346000   0.62964577   -1.7661588   0.94352419  -0.82263464   0.13697156    11544.954     1000 
  348000   0.64071843   -1.7740244   0.96011657  -0.81390779   0.12253083    11789.225     1000 
  350000   0.68388126   -1.8291366    1.0247961  -0.80434057   0.12991431     11644.83     1000 
  352000   0.61949444   -1.8269997   0.92831241  -0.89868725   0.12829277    11699.906     1000 
  354000    0.6460837   -1.7699816   0.96815643   -0.8018252   0.13177124    11588.393     1000 
  356000   0.65729257    -1.781367   0.98495292  -0.79641413   0.14350985    11670.591     1000 
  358000   0.65273104   -1.8513359   0.97811746  -0.87321849   0.14114769    11567.191     1000 
  360000   0.62515497   -1.7920723   0.93679472  -0.85527754   0.13319984    11700.961     1000 
  362000    0.6839608   -1.7723433    1.0249153  -0.74742805   0.13612047    11878.916     1000 
  364000   0.65674233   -1.8268499   0.98412838  -0.84272154   0.12869443    11598.573     1000 
  366000   0.65519046   -1.8183611   0.98180291  -0.83655824   0.13069034    11678.224     1000 
  368000   0.67049905   -1.7511069    1.0047428  -0.74636409   0.13953642    11595.174     1000 
  370000   0.63902836    -1.843206     0.957584  -0.88562201   0.10612885    11943.561     1000 
  372000   0.65569541   -1.8501918   0.98255957  -0.86763222   0.11601343    11909.279     1000 
  374000   0.62459165   -1.8168981   0.93595058  -0.88094753   0.14302029    11642.423     1000 
  376000   0.66683208    -1.783658   0.99924787  -0.78441011    0.1338817    11736.849     1000 
  378000   0.64610573   -1.7442577   0.96818943  -0.77606827   0.11132072    12060.619     1000 
  380000   0.66561733   -1.8539974   0.99742757  -0.85656978   0.12248845    11713.573     1000 
  382000    0.6363686   -1.7778837   0.95359835  -0.82428533   0.13707134     11463.01     1000 
  384000   0.64199084   -1.7985566   0.96202328  -0.83653331   0.12358095    11563.012     1000 
  386000   0.64059167   -1.8312263   0.95992662  -0.87129966   0.11556053    11943.657     1000 
  388000   0.64469393   -1.8090566   0.96607385  -0.84298278   0.12936478    11911.267     1000 
  390000    0.6267839   -1.8373715   0.93923568  -0.89813579   0.13187993    11702.054     1000 
  392000   0.66839401   -1.8033629    1.0015884  -0.80177447   0.14834101    11552.266     1000 
  394000   0.67972906   -1.7852314     1.018574  -0.76665745   0.13424386    11885.972     1000 
  396000   0.65699164    -1.833227   0.98450197  -0.84872503   0.12981702     11686.25     1000 
  398000    0.6601573   -1.7818176   0.98924572  -0.79257189   0.13494212     11528.67     1000 
  400000   0.64708348   -1.7768168   0.96965459  -0.80716219   0.13701774    11587.837     1000 
  402000   0.67865708   -1.7874777    1.0169676  -0.77051002   0.11794947    11726.152     1000 
  404000   0.62690212   -1.7421541   0.93941283  -0.80274131   0.13416756    11617.837     1000 
  406000   0.63384727   -1.7790847   0.94982013  -0.82926456   0.12788393    11745.939     1000 
  408000   0.65526875   -1.7509433   0.98192022  -0.76902309   0.11688185    11734.465     1000 
  410000   0.67991934   -1.7858645    1.0188591  -0.76700535   0.12094439    11907.226     1000 
  412000   0.64544737   -1.7594972   0.96720289  -0.79229431   0.13673548    11688.761     1000 
  414000    0.6618376   -1.7701253   0.99176364  -0.77836168    0.1182963    11826.914     1000 
  416000   0.63565257   -1.7670201   0.95252538  -0.81449473   0.13239261    11674.502     1000 
  418000   0.67917461   -1.8286196    1.0177431  -0.81087645   0.12698487    11938.826     1000 
  420000   0.63363563   -1.8144334   0.94950299  -0.86493037   0.11787234    11642.723     1000 
  422000   0.65512282   -1.7692799   0.98170154  -0.78757839   0.13415189    11730.174     1000 
  424000   0.64832048   -1.8504439   0.97150824  -0.87893564   0.11272356    11925.903     1000 
  426000   0.66274193   -1.7704319   0.99311878  -0.77731316   0.13675466    11748.844     1000 
  428000   0.63898036   -1.7935329   0.95751208  -0.83602084   0.13726755    11721.765     1000 
  430000   0.63702319   -1.7424804   0.95457925  -0.78790116   0.14083487    11460.817     1000 
  432000   0.64673936   -1.8058372   0.96913893  -0.83669832   0.13412717    11832.612     1000 
  434000   0.65504442   -1.8034862   0.98158406  -0.82190218   0.12559621    11801.218     1000 
  436000   0.63424589   -1.7398664   0.95041747  -0.78944889   0.11373321    11770.655     1000 
  438000   0.62467444    -1.745788   0.93607465  -0.80971334   0.12401393    11742.737     1000 
  440000   0.67980386   -1.7993488    1.0186861  -0.78066273   0.13630052    11649.446     1000 
  442000   0.65733677   -1.7842896   0.98501915  -0.79927048   0.12131564    11787.268     1000 
  444000   0.62575443   -1.7783411   0.93769301  -0.84064807   0.11714574    11804.734     1000 
  446000   0.66644324   -1.8349914   0.99866519  -0.83632619   0.12539135    11737.805     1000 
  448000   0.66568031   -1.7803184   0.99752194  -0.78279646   0.13954773    11618.306     1000 
  450000   0.65112148   -1.7180695   0.97570554    -0.742364   0.13551802    11671.206     1000 
  452000   0.65936203   -1.8384476     0.988054  -0.85039356   0.12776447     11681.89     1000 
  454000   0.64974313   -1.7448403   0.97364008   -0.7712002   0.13223348    11610.393     1000 
  456000   0.62506796   -1.8066784   0.93666433  -0.87001403    0.1356468    11609.715     1000 
  458000   0.68239768   -1.8423431    1.0225729  -0.81977023   0.13971868    11592.328     1000 
  460000   0.67434477   -1.8067422    1.0105056   -0.7962366   0.12589552    11689.182     1000 
  462000   0.64789984   -1.8022944   0.97087791  -0.83141644   0.13343411    11711.819     1000 
  464000   0.66995389   -1.7340671    1.0039259  -0.73014118   0.12275866    11641.491     1000 
  466000   0.65958852   -1.7471604    0.9883934  -0.75876699   0.13352537    11729.053     1000 
  468000   0.66038514   -1.8341922   0.98958713  -0.84460504   0.13364567    11693.606     1000 
  470000   0.63230387   -1.7745851   0.94750735  -0.82707776   0.11699897    11717.327     1000 
  472000   0.64508383   -1.7530155   0.96665813  -0.78635739   0.11793598    11664.944     1000 
  474000   0.62751526   -1.7950275   0.94033162  -0.85469585   0.11708137    11616.497     1000 
  476000   0.65010162   -1.8510394   0.97417728  -0.87686214   0.13086511    11921.174     1000 
  478000   0.62683909   -1.7535287   0.93931838  -0.81421036   0.13832277    11684.388     1000 
  480000   0.66640337    -1.813596   0.99860545   -0.8149906   0.13013358    11814.383     1000 
  482000   0.63311578   -1.7918317     0.948724  -0.84310767   0.12761729    11576.401     1000 
  484000   0.66043537   -1.8160783    0.9896624  -0.82641589    0.1313094    11783.338     1000 
  486000   0.64080483   -1.8277217   0.96024604  -0.86747567   0.12835439    11894.437     1000 
  488000   0.63447856   -1.7774327   0.95076612  -0.82666661   0.11482732    11891.186     1000 
  490000   0.61913408   -1.7845915   0.92777242  -0.85681913    0.1176798    11849.476     1000 
  492000   0.62222977   -1.8152616    0.9324113  -0.88285034   0.11590607    11985.421     1000 
  494000   0.64437889   -1.8289239   0.96560177  -0.86332213   0.11983019     11749.86     1000 
  496000   0.65144762   -1.7610389   0.97619426  -0.78484462   0.13733896    11664.351     1000 
  498000   0.66259505   -1.7677213   0.99289868  -0.77482262   0.13552883    11528.748     1000 
  500000   0.64351749   -1.7375506   0.96431095  -0.77323967   0.12958157    11634.165     1000 
  502000   0.63460866   -1.7871402   0.95096108  -0.83617913   0.13532821    11652.725     1000 
  504000   0.64769178   -1.8279543   0.97056613  -0.85738812   0.12800924    11788.682     1000 
  506000   0.65247644   -1.8180467   0.97773594  -0.84031071   0.11862279    11941.329     1000 
  508000   0.60542774   -1.7957402   0.90723347  -0.88850674   0.12218214    11722.473     1000 
  510000   0.63469487   -1.7626286   0.95109026  -0.81153837   0.11406679    11845.007     1000 
  512000   0.70331153   -1.7477585    1.0539123  -0.69384616   0.12074649    11731.409     1000 
  514000   0.66147262   -1.8460573   0.99121673  -0.85484054    0.1303431    11872.448     1000 
  516000   0.64928064   -1.8120122   0.97294704  -0.83906512    0.1277994    11725.305     1000 
  518000   0.64884153   -1.7234498   0.97228903  -0.75116075   0.13116662    11737.962     1000 
  520000   0.66466695   -1.8170852   0.99600343  -0.82108174   0.12218506    11834.581     1000 
  522000   0.67370761   -1.7887932    1.0095508  -0.77924231   0.12991621    11728.369     1000 
  524000   0.64562877    -1.801792   0.96747471  -0.83431727   0.11709391    11561.241     1000 
  526000   0.63386306   -1.8266283   0.94984379   -0.8767845   0.12395597    11881.361     1000 
  528000   0.64412615   -1.8832989   0.96522303  -0.91807582   0.12883675    11596.471     1000 
  530000   0.65468836   -1.7522831   0.98105051   -0.7712326    0.1279383    11679.324     1000 
  532000   0.63757165   -1.7785666   0.95540112  -0.82316547    0.1348254    11678.625     1000 
  534000   0.66301329   -1.8034264   0.99352541  -0.80990103   0.12416908    11652.388     1000 
  536000   0.64947711   -1.8274934   0.97324145  -0.85425191   0.11965512    11995.505     1000 
  538000   0.66577208   -1.8219251   0.99765946   -0.8242656   0.14139855    11725.198     1000 
  540000   0.64715254     -1.78002   0.96975808  -0.81026196   0.13974734    11549.672     1000 
  542000   0.64681931   -1.7704234   0.96925874  -0.80116471   0.12077443    11708.501     1000 
  544000    0.6301401   -1.8675039   0.94426494  -0.92323898    0.1213149    11870.987     1000 
  546000   0.66801206   -1.7830117    1.0010161  -0.78199566    0.1428955    11620.232     1000 
  548000   0.63882974     -1.78543   0.95728636  -0.82814362   0.12496427        11777     1000 
  550000   0.62639224   -1.7875579   0.93864877   -0.8489091   0.14404557    11415.358     1000 
  552000   0.65587969   -1.7306633   0.98283571  -0.74782759   0.12994584    11515.927     1000 
  554000   0.63200477   -1.7683042   0.94705915  -0.82124508   0.12071095    11631.349     1000 
  556000   0.65583558   -1.8292306   0.98276962    -0.846461   0.13676725    11706.534     1000 
  558000   0.65987125   -1.7918988   0.98881708  -0.80308171   0.12313731    11856.789     1000 
  560000   0.64077742   -1.8265683   0.96020496  -0.86636331   0.11740672    11779.985     1000 
  562000   0.65967129   -1.8113199   0.98851743  -0.82280243   0.13756948    11518.435     1000 
  564000   0.65271168   -1.7884154   0.97808845    -0.810327   0.14109016    11556.864     1000 
  566000   0.67662066   -1.7897406    1.0139161  -0.77582457   0.11826251    11919.966     1000 
  568000   0.63596628   -1.7599226   0.95299546  -0.80692709   0.13545201    11490.428     1000 
  570000   0.62954831   -1.8039824   0.94337815  -0.86060425    0.1371476    11574.595     1000 
  572000   0.64098427   -1.7733111   0.96051493  -0.81279616   0.13145416    11538.572     1000 
  574000   0.66720014   -1.7876963   0.99979941  -0.78789686   0.13584317    11803.482     1000 
  576000   0.63024281   -1.8115088   0.94441885  -0.86708993   0.12786511    11812.595     1000 
  578000   0.66741415   -1.8107436    1.0001201  -0.81062353   0.12434314    11664.094     1000 
  580000   0.62914407   -1.7815482   0.94277239  -0.83877577   0.12539288    11926.897     1000 
  582000   0.65098362   -1.8539665   0.97549895  -0.87846752   0.12756262    11663.218     1000 
  584000   0.65494809   -1.8168533   0.98143971  -0.83541355   0.13475134    11708.682     1000 
  586000   0.63450054   -1.8410798   0.95079906  -0.89028071   0.13216179     11676.99     1000 
  588000   0.66083075   -1.8198727   0.99025488  -0.82961778   0.13305985    11668.897     1000 
  590000   0.63576378   -1.7652656   0.95269203  -0.81257354    0.1392975    11674.119     1000 
  592000   0.63468076   -1.7493715   0.95106912   -0.7983024   0.13627567    11624.559     1000 
  594000   0.64548227   -1.8024471   0.96725518   -0.8351919   0.11478307    11753.624     1000 
  596000   0.65986336   -1.7650938   0.98880524  -0.77628861   0.13182117    11740.031     1000 
  598000   0.64057238   -1.7651489   0.95989771  -0.80525114   0.11969642    11820.191     1000 
  600000   0.66723324   -1.7685805   0.99984902   -0.7687315   0.12535924    11605.586     1000 
  602000    0.6727032   -1.7832523    1.0080457  -0.77520658   0.13812358    11727.237     1000 
  604000   0.67649666   -1.7550905    1.0137302   -0.7413603   0.14386153    11522.445     1000 
  606000   0.67265072   -1.7811909    1.0079671   -0.7732238    0.1389496    11421.526     1000 
  608000   0.64098452   -1.7559117    0.9605153  -0.79539644   0.13116475    11681.754     1000 
  610000   0.67786965   -1.8113706    1.0157877  -0.79558292   0.11856513    12037.715     1000 
  612000   0.64308032   -1.7781741   0.96365586  -0.81451819   0.13614285    11526.487     1000 
  614000   0.65017176   -1.7931273   0.97428238  -0.81884495   0.12831521    11607.395     1000 
  616000   0.68486148    -1.802336    1.0262649  -0.77607108   0.14116996    11552.868     1000 
  618000   0.68953527   -1.8201612    1.0332686  -0.78689259   0.12487655    11832.703     1000 
  620000   0.66352344   -1.7973596   0.99428988  -0.80306975   0.12767984    11774.991     1000 
  622000    0.6286106   -1.7943751   0.94197298  -0.85240211   0.12659949     11627.22     1000 
  624000   0.62395184   -1.8077434   0.93499183  -0.87275155   0.12169841    11763.375     1000 
  626000     0.640367   -1.7424793   0.95958996  -0.78288929   0.12353941    11695.039     1000 
  628000   0.63943497   -1.7892295    0.9581933  -0.83103623   0.13374296     11636.99     1000 
  630000     0.641294   -1.8239445   0.96097906  -0.86296547   0.12067878    11810.858     1000 
  632000   0.63860303   -1.7791355   0.95694664  -0.82218886   0.12095109    11991.713     1000 
  634000   0.65826708    -1.866181   0.98641322  -0.87976776   0.13402233     11786.04     1000 
  636000   0.65059666   -1.7512228    0.9749191  -0.77630374   0.12108156    11777.379     1000 
  638000   0.61891058   -1.8374888   0.92743751  -0.91005128   0.11399404    11859.308     1000 
  640000   0.64732735    -1.764809   0.97002003    -0.794789   0.11929799    11761.618     1000 
  642000   0.62642212   -1.7802762   0.93869355  -0.84158261    0.1182739    11748.955     1000 
  644000   0.68543113   -1.7774101    1.0271186  -0.75029155    0.1244942    11569.245     1000 
  646000   0.67580787   -1.7551655    1.0126981  -0.74246736   0.14008257     11600.76     1000 
  648000   0.64490105   -1.7759515   0.96638423  -0.80956724   0.11538967    11742.324     1000 
  650000   0.65892976   -1.7675448   0.98740625  -0.78013853   0.13714693    11734.716     1000 
  652000   0.64946745   -1.8087557   0.97322697  -0.83552874    0.1349369    11797.774     1000 
  654000    0.6534912   -1.8741639   0.97925657  -0.89490732   0.13836006    11690.359     1000 
  656000   0.64714617   -1.8094212   0.96974853  -0.83967262   0.13243504    11738.208     1000 
  658000   0.63618044    -1.845075   0.95331639  -0.89175862   0.11593192     11922.96     1000 
  660000   0.61430457   -1.7871476   0.92053539  -0.86661224    0.1334102    11632.924     1000 
  662000   0.64223431   -1.8064005   0.96238811  -0.84401242   0.11629995    11745.927     1000 
  664000   0.66260729   -1.8542643   0.99291702  -0.86134729   0.13267664    11750.766     1000 
  666000   0.64264783   -1.7917445   0.96300777  -0.82873669   0.14220517    11433.725     1000 
  668000    0.6448903   -1.7915399   0.96636812  -0.82517179   0.12905514    11694.161     1000 
  670000   0.64997204   -1.8666702    0.9739831  -0.89268712   0.13167224    11823.453     1000 
  672000   0.64282758   -1.7124969   0.96327713  -0.74921982   0.13894082    11564.519     1000 
  674000   0.67488372    -1.794487    1.0113133  -0.78317372   0.13031127    11796.551     1000 
  676000    0.6618503   -1.8609196   0.99178268  -0.86913693   0.12111468    11777.944     1000 
  678000   0.61282132   -1.8127293   0.91831275  -0.89441654   0.14016204    11553.827     1000 
  680000   0.64739728   -1.8026673   0.97012483  -0.83254249   0.13380925    11582.142     1000 
  682000   0.64778553   -1.7900288   0.97070662  -0.81932216   0.12645396    11874.475     1000 
  684000   0.66331981   -1.8261864   0.99398473  -0.83220162   0.13488841    11794.594     1000 
  686000   0.65457415   -1.7613281   0.98087937  -0.78044876   0.12740543    11646.968     1000 
  688000   0.67942282   -1.7912218    1.0181151  -0.77310668   0.14011024    11578.354     1000 
  690000   0.64575142    -1.777359    0.9676585  -0.80970051   0.13406325    11710.942     1000 
  692000   0.65599726   -1.7328072   0.98301189  -0.74979535   0.13756466    11589.152     1000 
  694000   0.66177545   -1.8060685   0.99167052  -0.81439798   0.12221169    11912.627     1000 
  696000   0.65133726   -1.7691452   0.97602889  -0.79311635   0.13076676    11723.401     1000 
  698000   0.64638178   -1.7721293   0.96860309  -0.80352624   0.14730099    11441.648     1000 
  700000   0.62291174   -1.8026302   0.93343324  -0.86919691    0.1210951    11715.427     1000 
  702000   0.63787379   -1.8011553   0.95585387  -0.84530146   0.12771281     11637.55     1000 
  704000   0.64642507    -1.809546   0.96866797  -0.84087802   0.12940324    11684.157     1000 
  706000   0.63881533   -1.8022097   0.95726477  -0.84494494   0.15204576    11443.904     1000 
  708000   0.65189777   -1.8064007   0.97686881   -0.8295319   0.11694335    11896.743     1000 
  710000   0.63174294   -1.7931662    0.9466668  -0.84649943   0.12644051     11662.55     1000 
  712000   0.65619264   -1.7973225   0.98330468   -0.8140178   0.13977856     11528.53     1000 
  714000   0.64471453   -1.7632616   0.96610472  -0.79715692   0.12748569    11922.834     1000 
  716000    0.6513143   -1.7561093   0.97599448  -0.78011485   0.12612843    11895.212     1000 
  718000   0.66090026   -1.8138635   0.99035904  -0.82350442   0.13993334    11398.705     1000 
  720000   0.69680573   -1.7734159    1.0441634  -0.72925251     0.136958    11682.021     1000 
  722000   0.66873945   -1.7624919    1.0021061  -0.76038581   0.14540204    11505.109     1000 
  724000   0.65160938   -1.7412733   0.97643666  -0.76483668   0.13378267    11440.612     1000 
  726000   0.65571709   -1.7800214   0.98259205  -0.79742937   0.13840559    11780.677     1000 
  728000   0.66116978   -1.7349536   0.99076291  -0.74419074   0.14568264    11506.817     1000 
  730000   0.65047686   -1.7624634   0.97473958  -0.78772383   0.12375613    11820.028     1000 
  732000   0.64763388   -1.7044142   0.97047937  -0.73393481   0.13036125    11508.464     1000 
  734000   0.64324656   -1.7756113   0.96390498  -0.81170633   0.13154401    11730.583     1000 
  736000      0.65733   -1.7659179     0.985009  -0.78090889   0.13694476     11630.37     1000 
  738000   0.62925197   -1.7360076   0.94293408  -0.79307356   0.12847926    11838.051     1000 
  740000   0.63012185   -1.8026704    0.9442376  -0.85843279   0.13354417    11663.636     1000 
  742000   0.64514329   -1.8541468   0.96674723   -0.8873996   0.12526425    11810.263     1000 
  744000   0.68500628   -1.7922373    1.0264819  -0.76575535    0.1299843    11715.029     1000 
  746000    0.6600152   -1.8652638   0.98903277  -0.87623103    0.1306894    11659.829     1000 
  748000   0.63008888   -1.8046168   0.94418819  -0.86042858   0.12518039    11754.085     1000 
  750000   0.65544061   -1.7635629   0.98217775  -0.78138519   0.12931974    11670.752     1000 
  752000   0.63634007    -1.748378   0.95355559   -0.7948224   0.11903332    11853.099     1000 
  754000   0.65822016   -1.7926124   0.98634292  -0.80626945   0.12596041    11715.084     1000 
  756000   0.64732274   -1.8198093   0.97001313  -0.84979617   0.12189254    11757.419     1000 
  758000   0.65135093    -1.847466   0.97604936  -0.87141661     0.151293    11525.828     1000 
  760000   0.67253131   -1.7974576    1.0077882  -0.78966943   0.13187499     11763.78     1000 
  762000   0.67034181    -1.808363    1.0045072  -0.80385578   0.12488305    11823.046     1000 
  764000   0.65837817   -1.7776436   0.98657969  -0.79106392   0.12762284    11746.446     1000 
  766000   0.65900327   -1.8425284   0.98751641  -0.85501197   0.12034395    11782.845     1000 
  768000   0.62869941   -1.8097933   0.94210606  -0.86768725   0.13323447    11736.127     1000 
  770000   0.63342955   -1.7835771   0.94919419  -0.83438289   0.13193407    11604.213     1000 
  772000   0.63032972   -1.7418702   0.94454909  -0.79732114   0.12665612    11811.764     1000 
  774000   0.63890056   -1.7372777   0.95739249  -0.77988518   0.13724441    11653.585     1000 
  776000   0.68530766   -1.7917149    1.0269335  -0.76478133   0.15106483    11463.286     1000 
  778000   0.68540191   -1.7701338    1.0270748  -0.74305902   0.12775638    11710.762     1000 
  780000   0.65518304   -1.8042013   0.98179179  -0.82240946   0.13054357    11799.645     1000 
  782000   0.64427339    -1.728511   0.96544368  -0.76306728   0.14073085    11511.695     1000 
  784000   0.62632466   -1.7582769   0.93854751  -0.81972941   0.12208966    11794.639     1000 
  786000   0.62519536    -1.801929   0.93685524  -0.86507379   0.14490352    11640.318     1000 
  788000   0.63665086   -1.7761594   0.95402132  -0.82213806   0.13980675    11493.517     1000 
  790000   0.66703575    -1.759223   0.99955307   -0.7596699   0.11944285    11795.924     1000 
  792000   0.65368288   -1.7951232    0.9795438   -0.8155794   0.12753917    11768.767     1000 
  794000   0.68302252   -1.7731519    1.0235092  -0.74964263   0.13505827     11707.36     1000 
  796000   0.64168994   -1.7538345   0.96157238  -0.79226217   0.12054751    11751.498     1000 
  798000   0.63288841   -1.7981649   0.94838328  -0.84978159   0.12185431    11856.653     1000 
  800000   0.63567025   -1.8273997   0.95255188  -0.87484783   0.11531457    11758.772     1000 
  802000   0.61389182   -1.8167236    0.9199169   -0.8968067   0.14697203    11452.241     1000 
  804000    0.6267457   -1.8111383   0.93917844  -0.87195985   0.13821078    11681.405     1000 
  806000   0.66014924   -1.8066103   0.98923364  -0.81737669   0.12321464    11833.602     1000 
  808000   0.66613377   -1.7909453   0.99820146  -0.79274387   0.14595898    11554.974     1000 
  810000   0.63640592    -1.813745   0.95365427  -0.86009074    0.1397811    11550.909     1000 
  812000   0.65675262   -1.7735326   0.98414381  -0.78938884   0.13056491    11602.251     1000 
  814000   0.65255354   -1.8175054   0.97785149  -0.83965388   0.12573813    11682.171     1000 
  816000   0.64358175   -1.7882894   0.96440726  -0.82388219   0.14069856    11682.472     1000 
  818000   0.66264608   -1.7395537   0.99297516  -0.74657855     0.143802    11554.331     1000 
  820000   0.66707823   -1.7849238   0.99961673   -0.7853071    0.1292926    11617.964     1000 
  822000   0.65698553   -1.7614425   0.98449282  -0.77694967   0.13067228    11728.521     1000 
  824000   0.62887589    -1.807584   0.94237053  -0.86521345   0.12770026    11590.171     1000 
  826000   0.66531131    -1.843217     0.996969    -0.846248   0.13001254    11668.148     1000 
  828000   0.65327185   -1.8002685   0.97892787  -0.82134063   0.12277801     11695.43     1000 
  830000   0.65076802   -1.8381954   0.97517588  -0.86301951   0.13645943    11711.919     1000 
  832000   0.65655473   -1.7957399   0.98384727  -0.81189263   0.13292238    11683.934     1000 
  834000   0.66473341     -1.82714   0.99610301  -0.83103701   0.12576469    11865.231     1000 
  836000   0.64700512   -1.8518881   0.96953717  -0.88235088   0.12342928    11814.592     1000 
  838000   0.65939422   -1.7540717   0.98810223  -0.76596945    0.1313156    11688.092     1000 
  840000   0.59886092    -1.794762   0.89739308   -0.8973689   0.12294362    11562.477     1000 
  842000   0.63774522   -1.7912032   0.95566121  -0.83554198   0.13562087    11602.756     1000 
  844000   0.65385395   -1.7680592   0.97980014  -0.78825903   0.14324455    11639.519     1000 
  846000   0.65863142   -1.8501116   0.98695918  -0.86315243   0.12312814    11736.595     1000 
  848000   0.62106195   -1.7975564   0.93066133  -0.86689507   0.12173182    11956.763     1000 
  850000   0.64322544   -1.8107896   0.96387333  -0.84691626   0.13220662    11779.185     1000 
  852000   0.67054924   -1.8491648     1.004818  -0.84434672   0.12240555    11778.537     1000 
  854000    0.6571761   -1.8000864   0.98477838  -0.81530802   0.14104775    11547.957     1000 
  856000   0.64435772   -1.8178215   0.96557005  -0.85225141    0.1187296      11784.4     1000 
  858000    0.6729918   -1.8094686    1.0084782  -0.80099034    0.1246218     11582.53     1000 
  860000   0.63728189   -1.7702141   0.95496691  -0.81524715   0.13432172    11797.332     1000 
  862000   0.62034349   -1.7721523   0.92958472  -0.84256755   0.13801295    11513.177     1000 
  864000   0.67059356   -1.7829472    1.0048844  -0.77806275   0.12888459    11554.532     1000 
  866000   0.64443308   -1.8165662   0.96568296  -0.85088323   0.13646261    11505.811     1000 
  868000   0.63215111    -1.780825   0.94727844  -0.83354655   0.12834267    11797.998     1000 
  870000   0.65275084   -1.7734896   0.97814713  -0.79534252   0.13655591    11464.948     1000 
  872000   0.68023153   -1.7864744    1.0193269  -0.76714746   0.13071088    11679.789     1000 
  874000   0.63534957   -1.8063834   0.95207134  -0.85431203   0.13009728    11806.313     1000 
  876000   0.61159381   -1.8863227   0.91647332  -0.96984936   0.13164801    11721.285     1000 
  878000    0.6524998   -1.8346495   0.97777095  -0.85687855   0.12820403    11668.662     1000 
  880000   0.64533975    -1.855935   0.96704161  -0.88889335   0.12901204    11727.848     1000 
  882000   0.64857491   -1.7944119    0.9718895  -0.82252242   0.14077128    11640.531     1000 
  884000   0.67228352   -1.8121285    1.0074169  -0.80471167   0.11205454    11875.023     1000 
  886000   0.65103301   -1.8271436   0.97557297   -0.8515706   0.11907726    11930.401     1000 
  888000    0.6521252   -1.7941124   0.97720961  -0.81690278   0.13720529    11606.985     1000 
  890000   0.65518004   -1.8337679   0.98178729  -0.85198061   0.13426392    11717.275     1000 
  892000   0.64659747   -1.7968419    0.9689263   -0.8279156   0.11663082    11903.851     1000 
  894000   0.63550566     -1.79011   0.95230523  -0.83780473   0.13824791     11620.69     1000 
  896000   0.66026172   -1.8206132   0.98940219    -0.831211   0.12567912    11897.146     1000 
  898000   0.67850128   -1.7820398    1.0167342  -0.76530564   0.12723387    11651.175     1000 
  900000   0.64601957   -1.7796369   0.96806033  -0.81157652   0.13093699    11831.151     1000 
  902000   0.68047141   -1.8411686    1.0196864  -0.82148219   0.14208474    11585.788     1000 
  904000   0.62231306   -1.7390913   0.93253613  -0.80655517   0.12410661    11791.801     1000 
  906000    0.6638257   -1.8039962   0.99474282  -0.80925336   0.12113309    11729.281     1000 
  908000   0.63115443   -1.7824129   0.94578491  -0.83662803   0.13449394    11771.294     1000 
  910000   0.65459055   -1.8456478   0.98090394  -0.86474384   0.13770225    11620.921     1000 
  912000    0.6552805   -1.8036551   0.98193782  -0.82171729   0.14012185    11625.924     1000 
  914000   0.62954381   -1.7621973   0.94337139  -0.81882591     0.125281    11525.031     1000 
  916000   0.67544291   -1.8122773    1.0121512  -0.80012606   0.14056084    11708.739     1000 
  918000   0.66078934   -1.7408242   0.99019283  -0.75063133    0.1299121    11617.036     1000 
  920000   0.64398097   -1.7549943   0.96500549  -0.78998883   0.13265059    11528.229     1000 
  922000   0.61997054   -1.7775961   0.92902586  -0.84857028   0.13568147    11597.568     1000 
  924000   0.65451235   -1.8147894   0.98078676  -0.83400262   0.12582386    11698.775     1000 
  926000   0.66102792    -1.796688   0.99055034  -0.80613763      0.12027    11924.107     1000 
  928000   0.66109046   -1.8444423   0.99064405  -0.85379821   0.13750259    11637.573     1000 
  930000   0.65880081    -1.808795   0.98721301  -0.82158199   0.12651599    11614.168     1000 
  932000   0.62194829   -1.7331055   0.93198952  -0.80111597   0.12719717    11606.938     1000 
  934000   0.65403769   -1.7843889   0.98007548  -0.80431341   0.12800666    11814.441     1000 
  936000   0.63459572   -1.8285321   0.95094168  -0.87759045   0.13303221    11739.368     1000 
  938000   0.63992896   -1.8095788   0.95893354  -0.85064523   0.13058695    11716.519     1000 
  940000   0.62568276   -1.8184112   0.93758561  -0.88082559   0.12436946    11821.083     1000 
  942000   0.65467117   -1.7971194   0.98102475  -0.81609466   0.12806833    11648.997     1000 
  944000     0.627144   -1.7735932   0.93977528  -0.83381794   0.12265617    11865.241     1000 
  946000   0.61912841   -1.8623331   0.92776392  -0.93456918   0.12539987    11838.066     1000 
  948000   0.65274159   -1.7795251   0.97813327  -0.80139181   0.13027351    11784.273     1000 
  950000   0.65735866   -1.8451265   0.98505195  -0.86007453    0.1319284    11724.985     1000 
  952000   0.65192832   -1.8140286   0.97691459  -0.83711397   0.11171212    11765.646     1000 
  954000   0.65550199   -1.8270586   0.98226974  -0.84478883   0.13351954    11715.049     1000 
  956000   0.64636347   -1.7931038   0.96857566  -0.82452817   0.13311501    11864.954     1000 
  958000   0.66683292   -1.7823652   0.99924914  -0.78311605    0.1181774    11722.011     1000 
  960000   0.69058356   -1.7408164    1.0348395  -0.70597693   0.13429251    11670.961     1000 
  962000   0.66059201   -1.8284823   0.98989713  -0.83858514   0.13350772    11638.506     1000 
  964000   0.65427802   -1.8049078   0.98043561  -0.82447215   0.12355458      11793.1     1000 
  966000   0.64930544   -1.8025395    0.9729842  -0.82955532    0.1204051    11939.677     1000 
  968000   0.65397273   -1.7417005   0.97997813  -0.76172234   0.14264781    11607.898     1000 
  970000   0.64630779   -1.7529771   0.96849222  -0.78448484   0.13807016    11685.398     1000 
  972000   0.62986789   -1.8306965   0.94385703  -0.88683949   0.12677754    11783.283     1000 
  974000   0.64610552   -1.7763251   0.96818912  -0.80813602   0.12528526    11811.701     1000 
  976000   0.65271892    -1.837541   0.97809931  -0.85944166   0.12819079    11752.104     1000 
  978000   0.68027405   -1.7686393    1.0193907  -0.74924863   0.12094979    11703.816     1000 
  980000    0.6668739   -1.8125391   0.99931054  -0.81322857   0.13667516    11727.443     1000 
  982000   0.63685966    -1.849386   0.95433419  -0.89505179    0.1258571    11880.607     1000 
  984000   0.65119448   -1.7726267   0.97581492  -0.79681177   0.12555959    11746.661     1000 
  986000   0.68462504   -1.8091086    1.0259106  -0.78319797   0.12487907    11741.328     1000 
  988000   0.64887239   -1.7771075   0.97233527  -0.80477225   0.13922621    11603.442     1000 
  990000   0.65016651   -1.8311478   0.97427451  -0.85687331   0.14048093     11709.05     1000 
  992000   0.64928455   -1.7992533   0.97295289  -0.82630044   0.11177748    11933.911     1000 
  994000   0.67101579   -1.7839628    1.0055172  -0.77844562   0.12677956    11698.336     1000 
  996000   0.64448632   -1.8398655   0.96576274  -0.87410273   0.14094925    11533.759     1000 
  998000   0.63563973   -1.7341358   0.95250614  -0.78162964   0.13153714    11776.961     1000 
 1000000   0.65778747   -1.8362303   0.98569453  -0.85053579   0.12180675    11815.676     1000 
 1002000   0.64736419   -1.7801636   0.97007525  -0.81008837   0.13636766    11729.806     1000 
 1004000   0.65327918   -1.7997979   0.97893886  -0.82085909   0.11944688    11757.939     1000 
 1006000   0.64170659   -1.8044996   0.96159733  -0.84290226   0.12330071    11692.879     1000 
 1008000   0.63157951   -1.7998926    0.9464219  -0.85347071   0.12724538    11879.627     1000 
 1010000    0.6617934   -1.7752093   0.99169741  -0.78351186   0.13486703        11689     1000 
 1012000    0.6573372   -1.7653067    0.9850198   -0.7802869   0.12647797    11718.025     1000 
 1014000    0.6524373   -1.7473166   0.97767729  -0.76963929   0.13902356    11558.666     1000 
 1016000   0.64566072    -1.780341   0.96752259   -0.8128184   0.13406087    11583.284     1000 
 1018000   0.64914208   -1.7200392   0.97273941  -0.74729984   0.12700135    11640.185     1000 
 1020000   0.65905825   -1.7890373   0.98759879  -0.80143849    0.1357582    11536.072     1000 
 1022000   0.65897107   -1.8460588   0.98746816  -0.85859067    0.1231978    11840.559     1000 
 1024000   0.64421546   -1.7835183   0.96535687  -0.81816145   0.12717957    11709.586     1000 
 1026000   0.64919264    -1.788929   0.97281518  -0.81611383   0.12788686    11414.379     1000 
 1028000   0.64750112   -1.7693139   0.97028042   -0.7990335   0.13504077    11778.471     1000 
 1030000   0.65842913   -1.7713292   0.98665605  -0.78467312   0.14493781    11518.531     1000 
 1032000   0.64548063   -1.7662771   0.96725273  -0.79902435   0.12645053    11756.439     1000 
 1034000   0.66979255   -1.8016121    1.0036841  -0.79792794    0.1221202    11704.771     1000 
 1036000   0.63646529   -1.7678021   0.95374324  -0.81405885   0.14830344    11477.896     1000 
 1038000   0.62397545   -1.7563925   0.93502721  -0.82136532   0.12021585    11634.389     1000 
 1040000   0.64655294   -1.7652241   0.96885958  -0.79636456   0.12079552    11461.065     1000 
 1042000   0.63065425   -1.7566804   0.94503539  -0.81164505    0.1255273    11697.057     1000 
 1044000   0.64142041   -1.7767725   0.96116849  -0.81560404   0.13190241    11667.226     1000 
 1046000   0.64386916   -1.7708353   0.96483794  -0.80599736   0.13916331    11464.572     1000 
 1048000   0.65114798   -1.8332693   0.97574525  -0.85752401   0.12563925     11683.32     1000 
 1050000   0.66067271   -1.8304092   0.99001805  -0.84039113   0.12405648    11758.528     1000 
 1052000   0.67292377   -1.8202416    1.0083763  -0.81186536   0.12411183    11819.768     1000 
 1054000   0.62667511   -1.7593088   0.93907266  -0.82023617   0.12776929    11672.613     1000 
 1056000   0.64390859   -1.7848842   0.96489702  -0.81998716   0.13262089    11576.381     1000 
 1058000   0.67709397   -1.8382386    1.0146253  -0.82361332   0.13263972    11768.486     1000 
 1060000   0.66782129    -1.765699    1.0007302  -0.76496883   0.11791717    11744.685     1000 
 1062000   0.65996419   -1.7646954   0.98895634  -0.77573908   0.13052601    11572.437     1000 
 1064000   0.63866597   -1.7450533   0.95704096  -0.78801235   0.14137834      11541.5     1000 
 1066000   0.63385543   -1.8013034   0.94983236    -0.851471   0.11137794    11747.661     1000 
 1068000   0.65910421   -1.7993414   0.98766766  -0.81167374   0.11087623    11866.752     1000 
 1070000   0.67181969   -1.7956105    1.0067218  -0.78888871   0.11597777    11780.014     1000 
 1072000   0.62246383   -1.8366723   0.93276205  -0.90391025    0.1246654     11583.98     1000 
 1074000   0.63776576   -1.8049684   0.95569199  -0.84927641   0.13160375    12033.914     1000 
 1076000   0.68691533   -1.7377948    1.0293426  -0.70845216   0.13496731    11535.967     1000 
 1078000   0.65055035   -1.7976015    0.9748497   -0.8227518   0.13467273    11667.565     1000 
 1080000   0.62704385   -1.7959457    0.9396252  -0.85632048   0.11427629    11888.467     1000 
 1082000   0.68353065     -1.82021    1.0242707  -0.79593931   0.13926091    11702.785     1000 
 1084000   0.64976252   -1.8318978   0.97366913  -0.85822863   0.11697342    11804.424     1000 
 1086000    0.6511766   -1.8734132   0.97578814  -0.89762507   0.14170314    11617.063     1000 
 1088000   0.68122974   -1.8415151    1.0208228  -0.82069237   0.13623645    11534.792     1000 
 1090000   0.65958596   -1.7642955   0.98838957  -0.77590594   0.14115696    11508.349     1000 
 1092000   0.63854917   -1.7644772   0.95686593  -0.80761129    0.1231977    11825.974     1000 
 1094000   0.65480184   -1.8248534   0.98122056   -0.8436328   0.12854457    11571.637     1000 
 1096000   0.66298196    -1.759312   0.99347846  -0.76583351   0.13006529    11790.708     1000 
 1098000   0.63730723   -1.7875881   0.95500488  -0.83258321   0.12453735     11605.76     1000 
 1100000   0.62273971   -1.8129265   0.93317546  -0.87975107   0.14122995    11548.295     1000 
 1102000   0.62598416   -1.7778949   0.93803727  -0.83985767   0.13619704    11802.958     1000 
 1104000   0.64615663   -1.7954994   0.96826571  -0.82723366   0.12289651    11744.615     1000 
 1106000    0.6528586   -1.8240514   0.97830861  -0.84574277   0.13721096    11667.911     1000 
 1108000     0.666022   -1.7568109   0.99803396  -0.75877695   0.15086995     11369.36     1000 
 1110000    0.6372497    -1.806252   0.95491867  -0.85133336   0.12936869    11728.312     1000 
 1112000   0.66430769   -1.7612564   0.99546507  -0.76579134   0.12977041    11814.128     1000 
 1114000   0.67960662   -1.7979318    1.0183905  -0.77954123   0.13127044    11845.978     1000 
 1116000   0.66776661   -1.8071801    1.0006483  -0.80653186   0.14371039    11557.349     1000 
 1118000   0.65069648   -1.7685143   0.97506868  -0.79344558   0.11984632    11818.927     1000 
 1120000   0.64238537   -1.8338904   0.96261448  -0.87127595     0.122373    11891.353     1000 
 1122000   0.66641735   -1.7826194    0.9986264  -0.78399296   0.13574174    11779.983     1000 
 1124000   0.63841697   -1.7818441   0.95666783  -0.82517628    0.1338429    11683.802     1000 
 1126000    0.6371299   -1.7933413   0.95473916  -0.83860214   0.12920994    11795.276     1000 
 1128000   0.67968461   -1.7708408    1.0185074  -0.75233342   0.13760733    11781.386     1000 
 1130000   0.67228868   -1.8080884    1.0074246  -0.80066379   0.13785367    11596.984     1000 
 1132000   0.66574815   -1.7468074   0.99762361  -0.74918375   0.13228499    11720.828     1000 
 1134000   0.61754195   -1.8031609   0.92538661  -0.87777426   0.12014975    11770.884     1000 
 1136000   0.66857751   -1.7510786    1.0018634   -0.7492152    0.1241332     11801.39     1000 
 1138000   0.61738843    -1.795422   0.92515656  -0.87026546   0.12613085    11742.555     1000 
 1140000   0.63006824   -1.8078811   0.94415726  -0.86372382   0.12767732    11669.117     1000 
 1142000   0.65541471   -1.8070433   0.98213894  -0.82490433   0.13473007    11699.899     1000 
 1144000   0.64798569   -1.8044891   0.97100656  -0.83348251   0.13686864    11612.953     1000 
 1146000   0.62581373    -1.751986   0.93778187  -0.81420411   0.11644323    11926.564     1000 
 1148000   0.63123199   -1.7774286   0.94590114  -0.83152749   0.13401657    11465.786     1000 
 1150000   0.63057088   -1.8097352   0.94491046  -0.86482475   0.12564774    11623.018     1000 
 1152000   0.64943034   -1.7616771   0.97317136  -0.78850576   0.13331129     11765.06     1000 
 1154000   0.64173925   -1.7713903   0.96164626    -0.809744   0.12916927    11632.828     1000 
 1156000   0.63590189   -1.7849631   0.95289898  -0.83206417   0.14128746    11606.906     1000 
 1158000    0.6295988   -1.7806664    0.9434538  -0.83721264   0.12126042    11819.756     1000 
 1160000    0.6527085   -1.7872586   0.97808368  -0.80917488    0.1258964    11729.692     1000 
 1162000   0.60177106   -1.8048227   0.90175394  -0.90306875   0.11211552    11807.069     1000 
 1164000   0.66140276   -1.8423271   0.99111204   -0.8512151   0.11760474    11740.162     1000 
 1166000   0.66081191   -1.7895925   0.99022665  -0.79936586   0.13478066     11485.64     1000 
 1168000   0.68431257   -1.7826597    1.0254424  -0.75721732   0.12430066    11681.754     1000 
 1170000    0.6751476   -1.7955614    1.0117087  -0.78385276   0.12151754    11803.874     1000 
 1172000    0.6339594    -1.841335   0.94998817  -0.89134686   0.12077858    11791.475     1000 
 1174000   0.64460265   -1.7926118   0.96593708  -0.82667469   0.12720311    11732.947     1000 
 1176000   0.66301383   -1.8157952   0.99352622  -0.82226895   0.12346686    11783.101     1000 
 1178000   0.64123818   -1.8006147   0.96089541  -0.83971932   0.13132202    11793.041     1000 
 1180000     0.637109   -1.8039936   0.95470783  -0.84928579   0.12960842     11646.67     1000 
 1182000   0.66433929   -1.7791991   0.99551242  -0.78368671   0.13870005    11649.424     1000 
 1184000   0.65284374   -1.7948084   0.97828635  -0.81652208   0.12819448     11832.56     1000 
 1186000   0.62733822   -1.8186658   0.94006632  -0.87859949   0.12242628    11735.446     1000 
 1188000    0.6748992   -1.7854307    1.0113365  -0.77409428   0.12604429    11662.937     1000 
 1190000   0.65658937   -1.8365167   0.98389917  -0.85261748   0.13726306    11659.007     1000 
 1192000   0.64916351    -1.745895   0.97277151  -0.77312349     0.120402    11721.919     1000 
 1194000    0.6419515   -1.7900144   0.96196433  -0.82805005   0.13196335    11706.734     1000 
 1196000   0.64865424   -1.7735412   0.97200838   -0.8015328   0.12014041    11756.632     1000 
 1198000    0.6626864   -1.7959747   0.99303558  -0.80293915   0.12780547    11720.033     1000 
 1200000   0.61642651   -1.7794428   0.92371512  -0.85572771   0.11887948    11644.497     1000 
 1202000   0.64966779   -1.8421467   0.97352718  -0.86861949   0.13198836     11883.36     1000 
 1204000   0.67015777   -1.7838531    1.0042314  -0.77962168   0.12603966    11647.865     1000 
 1206000    0.6402088   -1.7437975   0.95935289  -0.78444461   0.13201825    11445.115     1000 
 1208000   0.66605371   -1.7690597   0.99808149  -0.77097819   0.14431324    11614.285     1000 
 1210000   0.65758016   -1.7842084   0.98538387  -0.79882451   0.12777405    11787.918     1000 
 1212000   0.65545283   -1.7970602   0.98219607  -0.81486411   0.12019726     11794.57     1000 
 1214000    0.6465383   -1.8150088   0.96883764  -0.84617117   0.13092766    11403.348     1000 
 1216000   0.64487052   -1.7631371   0.96633847  -0.79679861   0.12738974    11632.164     1000 
 1218000   0.64793232   -1.8108345   0.97092658  -0.83990788   0.12513793    11759.196     1000 
 1220000   0.63997312   -1.8044787   0.95899972  -0.84547899   0.13172399     11693.63     1000 
 1222000   0.63463613   -1.7572574   0.95100223  -0.80625514   0.13135911    11586.147     1000 
 1224000   0.66165569   -1.7622033   0.99149106  -0.77071225   0.11366577    11834.999     1000 
 1226000   0.65868848   -1.7704695   0.98704468  -0.78342484   0.12709743    11694.356     1000 
 1228000   0.67365893   -1.7861035    1.0094779  -0.77662563   0.14661091    11628.532     1000 
 1230000   0.64202173   -1.7706904   0.96206956  -0.80862084   0.13368205    11731.871     1000 
 1232000   0.65015134   -1.8411549   0.97425178   -0.8669031   0.12949286    11793.099     1000 
 1234000   0.63238225   -1.8196096   0.94762479  -0.87198484   0.13303895    11784.806     1000 
 1236000   0.64099041   -1.7848578   0.96052413  -0.82433363   0.13589968    11681.419     1000 
 1238000   0.63978954   -1.8384627   0.95872462  -0.87973808   0.12505222    11815.847     1000 
 1240000    0.6614412   -1.8309798   0.99116964  -0.83981013   0.13044291    11708.655     1000 
 1242000   0.64409803   -1.7821971    0.9651809   -0.8170162   0.13605561    11778.539     1000 
 1244000   0.67371203   -1.8332797    1.0095575  -0.82372221   0.14096997    11589.793     1000 
 1246000   0.63428483   -1.7359265   0.95047582  -0.78545065   0.13622996    11683.694     1000 
 1248000   0.66455425   -1.8366808   0.99583455  -0.84084627   0.12605128    11864.111     1000 
 1250000   0.65115836   -1.8087679    0.9757608  -0.83300708   0.12966341    11714.398     1000 
 1252000   0.64395363   -1.8307173   0.96496452  -0.86575282   0.13525565    11617.347     1000 
 1254000   0.64752743   -1.8160118   0.97031985  -0.84569198   0.11838511    11774.369     1000 
 1256000   0.63839143   -1.7471378   0.95662955  -0.79050827   0.12357453    11796.238     1000 
 1258000   0.66708018   -1.8087776   0.99961964  -0.80915796    0.1378404    11745.847     1000 
 1260000   0.63464274   -1.7958845   0.95101214  -0.84487235   0.11502245     11927.36     1000 
 1262000   0.63237608   -1.7785218   0.94761556  -0.83090627   0.11827844    11798.594     1000 
 1264000   0.62418652   -1.8128137    0.9353435  -0.87747017   0.12953969    11692.241     1000 
 1266000   0.67196032   -1.8346089    1.0069325  -0.82767632   0.13936349    11768.573     1000 
 1268000   0.66752031   -1.7546237    1.0002792  -0.75434453   0.12340594     11771.86     1000 
 1270000   0.61711829   -1.7455352   0.92475176  -0.82078342   0.12381237    11675.924     1000 
 1272000   0.64425408   -1.7738136   0.96541474  -0.80839886   0.12653766    11686.801     1000 
 1274000   0.64560591   -1.8260661   0.96744046  -0.85862563   0.12383139    11876.707     1000 
 1276000   0.65870825   -1.7831954   0.98707431  -0.79612105   0.13328213    11725.883     1000 
 1278000   0.65523495   -1.7922792   0.98186958  -0.81040961   0.12481912    11960.351     1000 
 1280000   0.64795999   -1.7904936   0.97096804  -0.81952558   0.14089584    11555.201     1000 
 1282000   0.64303494   -1.8033477   0.96358785  -0.83975987   0.13704306    11490.482     1000 
 1284000   0.66479962   -1.7900706   0.99620223  -0.79386837   0.12581073    11888.616     1000 
 1286000   0.65625236   -1.7681219   0.98339417  -0.78472776   0.13016414    11505.092     1000 
 1288000   0.65189571   -1.7847566   0.97686573   -0.8078909    0.1165776    11866.129     1000 
 1290000   0.65841403   -1.8018703   0.98663342   -0.8152369   0.13973594     11656.64     1000 
 1292000   0.65907915   -1.7428999    0.9876301   -0.7552698   0.13825041    11590.419     1000 
 1294000   0.60846308   -1.7646428   0.91178192  -0.85286092   0.14471006    11613.592     1000 
 1296000   0.64030728   -1.8275294   0.95950046  -0.86802895   0.13888429    11650.182     1000 
 1298000   0.65682833   -1.7581163   0.98425725  -0.77385903   0.12002486    11768.573     1000 
 1300000    0.6498948   -1.7275842   0.97386736  -0.75371686   0.13427678     11798.55     1000 
 1302000   0.64970691   -1.7545695   0.97358581  -0.78098365   0.13894944    11702.157     1000 
 1304000   0.63156071   -1.8191003   0.94639372  -0.87270662    0.1320129    11560.572     1000 
 1306000   0.66200407   -1.8278439    0.9920131  -0.83583077   0.12629497    11769.496     1000 
 1308000   0.67244622   -1.7650639    1.0076607  -0.75740322   0.14228766    11518.427     1000 
 1310000   0.66755176   -1.7674918    1.0003263  -0.76716546   0.13097257    11648.531     1000 
 1312000   0.63868234    -1.834038   0.95706549  -0.87697253   0.12269937     11724.51     1000 
 1314000   0.68217195   -1.7739413    1.0222347  -0.75170663   0.12954167    11791.201     1000 
 1316000   0.67144259   -1.7781959    1.0061567  -0.77203921   0.13685651    11819.316     1000 
 1318000   0.65589762   -1.8027886   0.98286258  -0.81992599   0.11672405    11752.544     1000 
 1320000   0.68153057    -1.757587    1.0212736  -0.73631339   0.13060108    11658.184     1000 
 1322000   0.64446046   -1.8441739     0.965724  -0.87844988   0.12097568    11940.184     1000 
 1324000    0.6528379    -1.835842    0.9782776  -0.85756443   0.12774022    11719.292     1000 
 1326000   0.69177359   -1.8079316    1.0366227  -0.77130893   0.12552447     11674.16     1000 
 1328000   0.65297347   -1.8212743   0.97848074  -0.84279355   0.11835798      11889.7     1000 
 1330000   0.71017614   -1.7942081    1.0641989  -0.73000916   0.13566657    11609.668     1000 
 1332000   0.64193495   -1.7865685   0.96193953  -0.82462901   0.11989367    11790.413     1000 
 1334000   0.63637066   -1.7865367   0.95360143  -0.83293524   0.14254226    11587.502     1000 
 1336000   0.66610649   -1.7940442   0.99816057   -0.7958836    0.1296613    11753.041     1000 
 1338000   0.65016044   -1.7902345   0.97426542  -0.81596911   0.13908761    11578.011     1000 
 1340000   0.63762823   -1.7424164    0.9554859  -0.78693048   0.13361709    11703.205     1000 
 1342000   0.63040834   -1.7986204   0.94466689  -0.85395349   0.12058389    11843.312     1000 
 1344000    0.6303159    -1.808306   0.94452838  -0.86377767   0.12139083    11755.307     1000 
 1346000   0.63017868   -1.8136019   0.94432275  -0.86927916   0.13146477    11548.948     1000 
 1348000   0.65342005   -1.7863462   0.97914994  -0.80719622   0.13910445    11499.699     1000 
 1350000   0.63886233    -1.780267   0.95733521  -0.82293176   0.13556758    11537.764     1000 
 1352000   0.64373376   -1.7578334   0.96463505  -0.79319838   0.13587934    11820.023     1000 
 1354000   0.64182838   -1.8301379   0.96177983   -0.8683581   0.12621246     11718.87     1000 
 1356000   0.65614797   -1.7940538   0.98323773  -0.81081608   0.12897681    11793.038     1000 
 1358000   0.63551943   -1.7894332   0.95232587  -0.83710728   0.13397105    11601.588     1000 
 1360000   0.63371856   -1.7552635   0.94962726  -0.80563628   0.12231776    11612.108     1000 
 1362000   0.66277638   -1.8103206   0.99317041  -0.81715015   0.13809766    11700.022     1000 
 1364000   0.64672103   -1.8331798   0.96911146  -0.86406836   0.11628628    11712.753     1000 
 1366000   0.65858504   -1.7513444   0.98688969  -0.76445472   0.12434723     11756.61     1000 
 1368000   0.66950398   -1.8293987    1.0032517  -0.82614697   0.12969554    11828.448     1000 
 1370000   0.59912658   -1.7928162   0.89779118  -0.89502503   0.11870251    11690.743     1000 
 1372000   0.63949008   -1.8024414   0.95827589  -0.84416555   0.13801577    11792.331     1000 
 1374000   0.61048742   -1.7691895    0.9148154  -0.85437412   0.13214439    11655.715     1000 
 1376000   0.68103899   -1.7990165    1.0205369  -0.77847956   0.13979151    11604.834     1000 
 1378000   0.64732546   -1.7925378    0.9700172  -0.82252063   0.13296257        11661     1000 
 1380000   0.65644919   -1.8068405    0.9836891  -0.82315139    0.1366278    11710.375     1000 
 1382000   0.66438293   -1.7916492   0.99557782  -0.79607143   0.14215562    11587.222     1000 
 1384000   0.61332364   -1.8128221   0.91906547  -0.89375658   0.11892281    11871.577     1000 
 1386000   0.67962091    -1.793306    1.0184119  -0.77489406    0.1350284     11781.29     1000 
 1388000   0.63207265   -1.7919834   0.94716086  -0.84482254    0.1409513    11669.053     1000 
 1390000   0.67186006    -1.806046    1.0067823  -0.79926371   0.13170622    11819.598     1000 
 1392000   0.65453913    -1.839784   0.98082688  -0.85895708   0.11551042    11739.435     1000 
 1394000   0.68605521    -1.822467    1.0280537  -0.79441326   0.11762147    11848.022     1000 
 1396000   0.62740702   -1.7915701   0.94016942  -0.85140063   0.12737136    11577.845     1000 
 1398000   0.67897256   -1.8217451    1.0174404  -0.80430471   0.13686596     11596.94     1000 
 1400000   0.63329764   -1.7678042   0.94899651  -0.81880771   0.11386483    11801.249     1000 
 1402000   0.64113054   -1.8124908   0.96073411  -0.85175666   0.13676125    11656.818     1000 
 1404000   0.65671501   -1.8315482   0.98408745  -0.84746074   0.13256676    11710.414     1000 
 1406000   0.63478719   -1.7983616    0.9512286    -0.847133   0.13405551    11603.762     1000 
 1408000   0.69044559   -1.7938038    1.0346327  -0.75917109   0.14333865    11528.081     1000 
 1410000   0.63354221    -1.816948     0.949363  -0.86758503   0.11501413    11931.248     1000 
 1412000   0.66854945   -1.7763133    1.0018214  -0.77449195   0.13507434    11648.652     1000 
 1414000   0.64870427     -1.73907   0.97208334  -0.76698665   0.13002464    11663.823     1000 
 1416000   0.67190862   -1.8083386    1.0068551  -0.80148355   0.12553447    11704.348     1000 
 1418000   0.62303672   -1.7599649   0.93362053  -0.82634437   0.13850484    11725.265     1000 
 1420000   0.63276135   -1.8432588   0.94819288  -0.89506595   0.13448522    11607.359     1000 
 1422000   0.64971497   -1.8104245   0.97359789  -0.83682659   0.13418701    11727.709     1000 
 1424000   0.63209489   -1.7862846   0.94719419  -0.83909039   0.12342994    11713.457     1000 
 1426000   0.64649441    -1.792452   0.96877187  -0.82368015   0.13423008    11602.042     1000 
 1428000   0.65728721   -1.7854549   0.98494489  -0.80051002     0.121964    11789.491     1000 
 1430000   0.64247124   -1.8335292   0.96274315  -0.87078607   0.12411407    11713.264     1000 
 1432000   0.66922232   -1.7904304    1.0028296  -0.78760077   0.14204489    11798.317     1000 
 1434000   0.65259193   -1.7762596   0.97790901  -0.79835062   0.11332968     11558.17     1000 
 1436000    0.6582148   -1.8068767   0.98633488  -0.82054186   0.14015298    11759.562     1000 
 1438000    0.6589529   -1.7701994   0.98744092  -0.78275844   0.14132047    11712.619     1000 
 1440000   0.67022183   -1.7585805    1.0043274  -0.75425308   0.13263081    11895.909     1000 
 1442000   0.66290667   -1.7635649   0.99336565  -0.77019921   0.12744021     11825.86     1000 
 1444000    0.6588527   -1.7825577   0.98729077  -0.79526689   0.13429392    11736.327     1000 
 1446000   0.65903643   -1.8464124    0.9875661  -0.85884627   0.11867939    11956.108     1000 
 1448000   0.65977958   -1.7859245    0.9886797  -0.79724483   0.13820601    11687.954     1000 
 1450000   0.63386065   -1.7737139   0.94984018  -0.82387367   0.12668681    11776.887     1000 
 1452000   0.66686894   -1.7687655   0.99930311  -0.76946241   0.14097933    11547.313     1000 
 1454000   0.65305047   -1.7743854   0.97859613  -0.79578924   0.14296306    11594.106     1000 
 1456000    0.6324908   -1.8530398   0.94778746  -0.90525237   0.14004748      11523.9     1000 
 1458000   0.66548653   -1.8229066   0.99723156  -0.82567505   0.14283702    11664.617     1000 
 1460000   0.64480793   -1.8386554   0.96624469  -0.87241074   0.12596462    11768.592     1000 
 1462000   0.63848521   -1.7769529   0.95677008  -0.82018286   0.11909472    11794.629     1000 
 1464000   0.65561113   -1.8366047   0.98243328  -0.85417142    0.1305935    11723.572     1000 
 1466000   0.68761876   -1.7828441    1.0303967  -0.75244743   0.13589939    11734.122     1000 
 1468000   0.65103119   -1.7675755   0.97557023  -0.79200522   0.14625958    11626.902     1000 
 1470000    0.6652341   -1.8136842    0.9968533  -0.81683093   0.13889661    11604.346     1000 
 1472000   0.63717919    -1.791328   0.95481302  -0.83651499   0.13140299    11753.669     1000 
 1474000   0.63221532   -1.8179897   0.94737466  -0.87061502   0.13402964      11708.7     1000 
 1476000    0.6514134   -1.7610208   0.97614299  -0.78487786   0.12149659    11952.395     1000 
 1478000   0.68084776   -1.8021313    1.0202504  -0.78188098   0.12270398    11758.693     1000 
 1480000   0.64129112   -1.8564763   0.96097475  -0.89550157   0.12575776    11845.241     1000 
 1482000   0.66029869   -1.7741835   0.98945758   -0.7847259   0.14109815    11619.881     1000 
 1484000   0.66555829   -1.7987664   0.99733909  -0.80142733   0.11920449    11695.652     1000 
 1486000    0.6169768   -1.8154141   0.92453973  -0.89087433   0.12521971    11770.571     1000 
 1488000   0.64187705   -1.7428123   0.96185275  -0.78095958   0.12987579    11895.756     1000 
 1490000    0.6728658   -1.7987053    1.0082894  -0.79041587   0.12680225    11754.893     1000 
 1492000   0.66383397   -1.7938518    0.9947552  -0.79909663   0.12076153    11696.907     1000 
 1494000   0.65166577   -1.7180706   0.97652116  -0.74154945   0.14115969    11639.821     1000 
 1496000   0.64850402    -1.735673   0.97178327   -0.7638897   0.12552785    11741.717     1000 
 1498000   0.61513392   -1.8303764   0.92177818  -0.90859824   0.11599314    11726.589     1000 
 1500000   0.64682795   -1.7694117   0.96927168  -0.80013998   0.13080697    11617.962     1000 
 1502000   0.66233715   -1.8442235   0.99251222   -0.8517113   0.13043979    11806.902     1000 
 1504000   0.65964151   -1.8486688    0.9884728  -0.86019604   0.12377362    11731.604     1000 
 1506000   0.64047725   -1.7952885   0.95975515  -0.83553337   0.14099202    11659.802     1000 
 1508000    0.6534843   -1.7626364   0.97924622  -0.78339017   0.13179924    11529.715     1000 
 1510000   0.63268172   -1.7892775   0.94807356  -0.84120397   0.12124888    11841.529     1000 
 1512000   0.66363709   -1.8326032   0.99446018  -0.83814306   0.11056833    11791.858     1000 
 1514000   0.65293945   -1.8020043   0.97842976  -0.82357453   0.13781397    11889.236     1000 
 1516000   0.67224392     -1.88022    1.0073575   -0.8728625   0.13972817    11727.034     1000 
 1518000   0.63733587   -1.7428196    0.9550478  -0.78777182   0.13836011    11593.263     1000 
 1520000   0.65095162   -1.7920188   0.97545101  -0.81656775   0.11568615    11754.627     1000 
 1522000   0.68030935   -1.7892606    1.0194436  -0.76981703     0.136455    11568.187     1000 
 1524000   0.67659116   -1.7986987    1.0138719  -0.78482685   0.14183989    11513.228     1000 
 1526000   0.66767471   -1.7785772    1.0005106  -0.77806662   0.14168671    11646.684     1000 
 1528000   0.63590914   -1.8162338   0.95290984  -0.86332399   0.12978456    11896.555     1000 
 1530000   0.63040605   -1.7945531   0.94466346  -0.84988959   0.12834077    11634.835     1000 
 1532000   0.63887344    -1.858716   0.95735185  -0.90136416   0.12221817    11970.903     1000 
 1534000   0.63525142   -1.8133002   0.95192425  -0.86137599   0.13853408    11704.763     1000 
 1536000   0.64782379   -1.7651521   0.97076396   -0.7943881   0.13613251    11523.499     1000 
 1538000    0.6581591   -1.8243997   0.98625141  -0.83814834   0.12230237    11816.202     1000 
 1540000   0.64354085    -1.812218   0.96434597  -0.84787203   0.13269296    11702.998     1000 
 1542000   0.65526982   -1.8199921   0.98192182  -0.83807024   0.12259334    11772.171     1000 
 1544000   0.62677705   -1.7589734   0.93922541  -0.81974801   0.13721544    11651.619     1000 
 1546000   0.61975595   -1.8249793   0.92870429  -0.89627499   0.13128213    11564.256     1000 
 1548000   0.63705868   -1.8057986   0.95463244  -0.85116618   0.11777977    11913.395     1000 
 1550000   0.66726316   -1.8028136   0.99989385  -0.80291976   0.13141756    11757.683     1000 
 1552000   0.64328509   -1.7878456   0.96396271  -0.82388289   0.12609518    11597.906     1000 
 1554000   0.66393955   -1.7857013   0.99491341  -0.79078786   0.13997667     11648.96     1000 
 1556000   0.61515748   -1.8743224   0.92181349  -0.95250893   0.11857049    11747.791     1000 
 1558000   0.63903814   -1.8368232   0.95759865  -0.87922454   0.13234248    11824.349     1000 
 1560000    0.6427113   -1.8140421   0.96310288  -0.85093927   0.12481233    11781.233     1000 
 1562000   0.61818813   -1.8269912   0.92635491  -0.90063634   0.12284322    11864.756     1000 
 1564000   0.61879632   -1.7555195   0.92726628  -0.82825327   0.12843885    11676.208     1000 
 1566000   0.65808415   -1.7776347   0.98613909  -0.79149558   0.13338184        11725     1000 
 1568000   0.65572498   -1.8512674   0.98260388   -0.8686635   0.13001743    11713.626     1000 
 1570000   0.64447199    -1.800826   0.96574128  -0.83508472   0.12513088    11823.843     1000 
 1572000   0.66723502   -1.7577194   0.99985167  -0.75786772    0.1393753    11569.371     1000 
 1574000   0.66172298   -1.7842232   0.99159189  -0.79263129   0.13394521    11521.267     1000 
 1576000   0.63551842   -1.8241903   0.95232435  -0.87186593   0.12638001    11590.049     1000 
 1578000   0.65648732   -1.7847888   0.98374625  -0.80104253   0.14184616    11689.077     1000 
 1580000   0.65726027   -1.8024135   0.98490451  -0.81750902   0.13207975    11705.059     1000 
 1582000   0.64353728   -1.8087413   0.96434061   -0.8444007   0.11562281    11692.383     1000 
 1584000   0.65132052   -1.7956323   0.97600379  -0.81962849   0.13148877    11643.939     1000 
 1586000   0.61707945   -1.7717727   0.92469356  -0.84707913   0.12821655    11703.088     1000 
 1588000   0.64235026   -1.8065692   0.96256186  -0.84400738   0.13512585    11681.629     1000 
[...]
 2614000   0.67451958   -1.8107036    1.0107676  -0.79993601   0.12212174    11818.215     1000 
 2616000   0.64479704   -1.7380477   0.96622837  -0.77181935   0.12459106    11702.258     1000 
 2618000   0.69039008   -1.7480469    1.0345495  -0.71349739   0.14257395    11617.691     1000 
 2620000   0.64796683   -1.8026186    0.9709783  -0.83164031   0.14071182    11418.182     1000 
 2622000   0.63053266   -1.7814733   0.94485319  -0.83662011   0.12285105    11844.996     1000 
 2624000   0.66850672     -1.76257    1.0017573  -0.76081269   0.13381847    11638.879     1000 
 2626000   0.65803261   -1.7629778   0.98606186   -0.7769159   0.13168221    11568.159     1000 
 2628000   0.64115232   -1.8611203   0.96076675  -0.90035352   0.13728553    11606.597     1000 
 2630000   0.62433945    -1.769791   0.93557266  -0.83421833   0.13481757    11525.882     1000 
 2632000   0.67358386   -1.8198801    1.0093654  -0.81051469   0.14517358    11590.377     1000 
 2634000    0.6026481   -1.7759153   0.90306818   -0.8728471   0.14267918    11522.415     1000 
 2636000    0.6285762   -1.8043477   0.94192143  -0.86242627   0.14173117    11534.825     1000 
 2638000   0.64743408   -1.7463035   0.97017997  -0.77612353   0.12867182    11643.201     1000 
 2640000   0.67884237   -1.8278102    1.0172453  -0.81056488   0.13300462    11667.716     1000 
 2642000   0.63430644   -1.7888071    0.9505082  -0.83829892   0.12280511    11732.965     1000 
 2644000   0.64095691   -1.8172526   0.96047393  -0.85677869   0.14203541    11661.958     1000 
 2646000   0.66430507   -1.7273183   0.99546115  -0.73185713    0.1275697    11781.722     1000 
 2648000   0.64761406   -1.8618487   0.97044967  -0.89139902   0.11885218      11792.9     1000 
 2650000   0.64477086   -1.7643318   0.96618914  -0.79814267   0.12668132    11806.396     1000 
 2652000   0.63577202   -1.7417303   0.95270437  -0.78902594   0.12815864    11675.752     1000 
 2654000    0.6751422   -1.8086594    1.0117006  -0.79695883    0.1493432    11584.483     1000 
 2656000   0.66766796   -1.7707982    1.0005004   -0.7702978   0.13775881    11562.387     1000 
 2658000    0.6497661   -1.7852147    0.9736745  -0.81154024    0.1304895    11668.494     1000 
 2660000   0.63331489   -1.8229636   0.94902236  -0.87394127   0.12589888    11622.365     1000 
 2662000   0.64372982   -1.8157219   0.96462913  -0.85109273   0.13112021    11580.838     1000 
 2664000   0.63708085   -1.7282902   0.95466565  -0.77362459    0.1316743    11877.355     1000 
 2666000   0.64246386   -1.8119671    0.9627321  -0.84923496   0.11021963    12005.455     1000 
 2668000   0.63883176   -1.8262539   0.95728939  -0.86896449   0.12887785    11752.336     1000 
 2670000   0.64746652   -1.8672245   0.97022858  -0.89699595   0.12694469    11866.681     1000 
 2672000   0.62380741   -1.7818315    0.9347754  -0.84705607   0.13716309    11459.021     1000 
 2674000   0.64189255   -1.8131877   0.96187599  -0.85131171   0.12377361    11709.758     1000 
 2676000   0.65500141   -1.8297994   0.98151961  -0.84827982   0.13796027     11797.47     1000 
 2678000   0.64946058   -1.7934648   0.97321668  -0.82024814   0.12095112    11739.803     1000 
 2680000   0.64007495   -1.7777112   0.95915232   -0.8185589   0.14205133    11477.688     1000 
 2682000   0.65609076   -1.7447376     0.983152  -0.76158558   0.12827415    11770.265     1000 
 2684000   0.64894231   -1.7885881   0.97244006    -0.816148   0.13201689    11606.305     1000 
 2686000   0.65890189   -1.8028027   0.98736448  -0.81543818   0.12808428    11749.177     1000 
 2688000   0.65890296   -1.7784248   0.98736609  -0.79105875    0.1210105    11928.938     1000 
 2690000   0.65001553   -1.7674076   0.97404827  -0.79335936     0.134372    11561.722     1000 
 2692000   0.65891974    -1.840228   0.98739123   -0.8528368   0.13610774    11711.354     1000 
 2694000   0.66682127   -1.8042869   0.99923167   -0.8050552   0.13834284    11633.786     1000 
 2696000   0.65710301    -1.822157   0.98466886  -0.83748814   0.12630429     11700.15     1000 
 2698000   0.63575372   -1.8294513   0.95267695  -0.87677433   0.11461388    11870.765     1000 
 2700000   0.65478677   -1.8129488   0.98119798  -0.83175082   0.12321867    11817.552     1000 
 2702000   0.63224312   -1.7901908   0.94741631  -0.84277444   0.13416046    11664.388     1000 
 2704000   0.62943861   -1.8149916   0.94321375   -0.8717778    0.1158674    11900.383     1000 
 2706000   0.63640108   -1.8200194   0.95364703  -0.86637241   0.13757988    11713.013     1000 
 2708000   0.64366423   -1.7891549   0.96453085  -0.82462401   0.13328101    11687.228     1000 
 2710000   0.65614068   -1.7634529   0.98322681  -0.78022612   0.13375859    11617.097     1000 
 2712000   0.63847051   -1.7797296   0.95674805  -0.82298159   0.13570132    11620.308     1000 
 2714000   0.67038841   -1.7803382     1.004577   -0.7757612   0.13825661    11635.922     1000 
 2716000   0.61865151   -1.8141289   0.92704929  -0.88707956   0.11504264    11774.032     1000 
 2718000   0.64575718   -1.7995852   0.96766713  -0.83191804   0.13334876    11706.228     1000 
 2720000   0.65556977   -1.8135055    0.9823713  -0.83113423   0.11966254    11900.881     1000 
 2722000   0.62282522   -1.8484082   0.93330359  -0.91510458   0.11318204    11825.835     1000 
 2724000   0.65869736   -1.8058736   0.98705799  -0.81881565   0.13173907    11821.333     1000 
 2726000     0.654074   -1.7709841   0.98012988   -0.7908542   0.13326115    11622.944     1000 
 2728000   0.66350274   -1.8127424   0.99425886  -0.81848354   0.13401747    11610.077     1000 
 2730000   0.63462849   -1.7549547   0.95099079  -0.80396388   0.13545176    11747.124     1000 
 2732000   0.62693279   -1.7783853   0.93945879  -0.83892649    0.1194376    11805.032     1000 
 2734000   0.64591625   -1.7968159    0.9679055  -0.82891043   0.13195829    11566.002     1000 
 2736000   0.64458771   -1.8085925   0.96591469   -0.8426778   0.12786378    11667.353     1000 
 2738000   0.64992058   -1.8298153     0.973906  -0.85590928   0.14902538    11610.227     1000 
 2740000   0.65788652   -1.8039389   0.98584295  -0.81809594   0.13368447    11700.688     1000 
 2742000   0.67112481   -1.7923417    1.0056805  -0.78666114   0.11913085    11785.957     1000 
 2744000   0.62094173   -1.7451535   0.93048119  -0.81467234   0.14298624    11502.604     1000 
 2746000   0.62801764   -1.7906099   0.94108443  -0.84952543    0.1358136    11668.571     1000 
 2748000    0.6639187   -1.8149049   0.99488218  -0.82002269   0.13346915    11728.638     1000 
 2750000    0.6388755   -1.8059228   0.95735494  -0.84856783    0.1358506    11558.286     1000 
 2752000   0.66924543   -1.8268769    1.0028643   -0.8240126   0.13329687    11756.925     1000 
 2754000   0.64005825   -1.7571988   0.95912729  -0.79807155   0.12276452     11611.15     1000 
 2756000   0.65551013   -1.8040845   0.98228193  -0.82180257   0.11998715    11965.268     1000 
 2758000   0.62833098   -1.7720201   0.94155397  -0.83046617   0.13747667      11475.9     1000 
 2760000   0.68689217   -1.7973381    1.0293079  -0.76803014   0.14370501    11601.957     1000 
 2762000    0.6466042   -1.8186264    0.9689364  -0.84969002   0.12375074    11770.604     1000 
 2764000   0.61203163    -1.795608   0.91712939  -0.87847856   0.13830324    11560.558     1000 
 2766000   0.65325175   -1.8004986   0.97889775  -0.82160084   0.13073097    11682.712     1000 
 2768000   0.63885335   -1.7625226   0.95732174  -0.80520087   0.12676808    11642.631     1000 
 2770000   0.66190991    -1.810117     0.991872  -0.81824504   0.12929469    11723.712     1000 
 2772000     0.607206   -1.8040758    0.9098982  -0.89417764   0.13958053    11620.521     1000 
 2774000   0.64891012   -1.7917169   0.97239182  -0.81932504   0.13313344     11781.42     1000 
 2776000   0.64171328   -1.7759492   0.96160735  -0.81434188   0.11969975    11724.308     1000 
 2778000   0.63940542   -1.8075873   0.95814903  -0.84943829   0.13521095    11452.775     1000 
 2780000   0.66783604   -1.7435185    1.0007523  -0.74276619    0.1274619    11811.568     1000 
 2782000   0.64902224   -1.7961413   0.97255982  -0.82358147   0.12499625    11636.432     1000 
 2784000   0.62728242   -1.7868161   0.93998271  -0.84683339   0.11860937    11881.084     1000 
 2786000   0.68078052    -1.771403    1.0201496  -0.75125342   0.13832049     11788.05     1000 
 2788000   0.64875655   -1.8354674   0.97216169  -0.86330568   0.14114174    11504.315     1000 
 2790000   0.65115056   -1.8099604   0.97574911  -0.83421128   0.12472576     11787.72     1000 
 2792000   0.63004138   -1.8655897   0.94411701  -0.92147271   0.13327084    11417.032     1000 
 2794000   0.65102109   -1.7656947    0.9755551  -0.79013962   0.13170274     11784.12     1000 
 2796000   0.66734268   -1.7958805     1.000013  -0.79586745   0.13938195    11608.426     1000 
 2798000   0.66189029   -1.7586171   0.99184259  -0.76677455   0.12616973    11691.091     1000 
 2800000   0.66677229   -1.7601245   0.99915828   -0.7609662   0.13533844     11620.04     1000 
 2802000   0.67030625   -1.7644039    1.0044539  -0.75994999   0.12429943     11782.97     1000 
 2804000   0.64123171   -1.8377607   0.96088572  -0.87687494   0.14196824    11756.756     1000 
 2806000   0.65658726   -1.7910402     0.983896  -0.80714422   0.12505411    11770.696     1000 
 2808000   0.64657993   -1.7995446   0.96890002  -0.83064453   0.14625125    11663.035     1000 
 2810000   0.65284344   -1.8047077   0.97828589  -0.82642184   0.13369357    11670.359     1000 
 2812000   0.65750868   -1.7854311   0.98527675  -0.80015432   0.12277454    11886.152     1000 
 2814000   0.65341752   -1.7797747   0.97914616  -0.80062851   0.14979769    11554.118     1000 
 2816000   0.63580167   -1.7374489    0.9527488  -0.78470013   0.11407649    11603.255     1000 
 2818000   0.64839004   -1.7571971   0.97161247  -0.78558467   0.13728855     11713.78     1000 
 2820000   0.63651171   -1.7755979   0.95381279  -0.82178512   0.13273806    11785.363     1000 
 2822000   0.64493144   -1.7836263   0.96642977  -0.81719649   0.13762219    11621.265     1000 
 2824000   0.68656839   -1.7652301    1.0288227  -0.73640738   0.13629577     11578.37     1000 
 2826000    0.6558611   -1.7777169   0.98280786  -0.79490902   0.12648692    11641.589     1000 
 2828000   0.63712362   -1.8026072   0.95472974  -0.84787745   0.14331637    11588.376     1000 
 2830000   0.63435301   -1.8318116   0.95057798  -0.88123358   0.12366367    11729.343     1000 
 2832000   0.65269075   -1.7464284   0.97805709  -0.76837135   0.12995162    11584.813     1000 
 2834000    0.6517868   -1.7999146   0.97670252  -0.82321206   0.13514436    11572.417     1000 
 2836000   0.64296603   -1.8189159    0.9634846  -0.85543127   0.13471729    11858.582     1000 
 2838000   0.63563638   -1.7971578   0.95250111  -0.84465667   0.12588698    11677.253     1000 
 2840000    0.6775753   -1.7657319    1.0153466  -0.75038531   0.14172806    11511.953     1000 
 2842000   0.63826414   -1.7930286   0.95643882  -0.83658979   0.11614153    11843.641     1000 
 2844000   0.63337846   -1.8147397   0.94911762  -0.86562209   0.12974801    11623.525     1000 
 2846000   0.64503339   -1.8584534   0.96658253  -0.89187086   0.14062086    11591.033     1000 
 2848000   0.65626257   -1.8601061   0.98340946  -0.87669664   0.12841508     11873.34     1000 
 2850000   0.65071346   -1.7732226   0.97509412  -0.79812847   0.13192316    11683.722     1000 
 2852000    0.6137712   -1.8133201   0.91973614    -0.893584   0.13204799    11650.105     1000 
 2854000   0.65650187   -1.8205084   0.98376806  -0.83674037   0.12392571    11745.569     1000 
 2856000   0.63009065    -1.822665   0.94419084  -0.87847416   0.14377052    11572.948     1000 
 2858000    0.6487572   -1.8450615   0.97216266  -0.87289886   0.11724272    11986.011     1000 
 2860000   0.62586428   -1.8300506   0.93785763  -0.89219296   0.12069481    11714.079     1000 
 2862000   0.65658049   -1.7691389   0.98388586  -0.78525303   0.11710465    11845.967     1000 
 2864000   0.69895303   -1.7733702    1.0473811  -0.72598913   0.13575771     11636.07     1000 
 2866000   0.65433191   -1.8349297   0.98051637  -0.85441337   0.12951578    11752.936     1000 
 2868000   0.65630975   -1.7926614   0.98348017  -0.80918127   0.13489751    11689.008     1000 
 2870000   0.65046805   -1.7662449   0.97472637  -0.79151853   0.14220795     11652.74     1000 
 2872000     0.639588    -1.813673   0.95842262  -0.85525038   0.13514094    11629.859     1000 
 2874000   0.63946207   -1.7839469   0.95823392  -0.82571303   0.12781181    11702.785     1000 
 2876000   0.65102371   -1.7667449   0.97555903  -0.79118584   0.12632704    11855.088     1000 
 2878000   0.62295259   -1.7713581   0.93349445  -0.83786366   0.14410443    11435.937     1000 
 2880000   0.64913168    -1.793412   0.97272383   -0.8206882   0.11613988    11814.588     1000 
 2882000   0.65693439    -1.794124   0.98441618  -0.80970785    0.1246664    11798.154     1000 
 2884000   0.65505976   -1.7718012   0.98160705  -0.79019414   0.12523312     11841.07     1000 
 2886000    0.6756719   -1.8180062    1.0124943  -0.80551188   0.12715789    11613.972     1000 
 2888000   0.63756712   -1.6983282   0.95539433   -0.7429339   0.14009622    11557.851     1000 
 2890000   0.64308896   -1.7781003   0.96366881  -0.81443149   0.13397859    11655.944     1000 
 2892000   0.63999797    -1.760003   0.95903695  -0.80096606    0.1228855    11692.327     1000 
 2894000   0.64438006   -1.7790403   0.96560351  -0.81343678   0.14272073    11627.652     1000 
 2896000   0.66008532   -1.7521085   0.98913786  -0.76297068   0.13185483    11677.504     1000 
 2898000   0.63056247   -1.8301169   0.94489786  -0.88521906   0.11786454    11705.424     1000 
 2900000   0.64602782    -1.797637   0.96807269  -0.82956431   0.13286464    11592.125     1000 
 2902000   0.65014574   -1.8355062   0.97424339  -0.86126282   0.13811527    11630.627     1000 
 2904000   0.65191225   -1.7717753   0.97689051  -0.79488477   0.12447878    11791.651     1000 
 2906000   0.66103299   -1.7821221   0.99055793  -0.79156419   0.13317106     11624.33     1000 
 2908000   0.67783687    -1.804327    1.0157386  -0.78858847   0.13576176    11746.682     1000 
 2910000   0.66810216   -1.7573135    1.0011511  -0.75616246   0.13479976    11765.537     1000 
 2912000   0.66495262   -1.8023595    0.9964315  -0.80592798   0.12705255    11630.604     1000 
 2914000   0.62634026   -1.7269609   0.93857088  -0.78839004   0.12330997    11674.651     1000 
 2916000   0.64408265   -1.7976249   0.96515785  -0.83246706   0.13203342    11751.799     1000 
 2918000   0.67564207   -1.7637167    1.0124496  -0.75126703   0.13170722    11684.416     1000 
 2920000   0.65774068   -1.7894489    0.9856244  -0.80382447   0.14186995    11538.463     1000 
 2922000   0.65736294   -1.7877493   0.98505836  -0.80269089   0.14179806    11641.484     1000 
 2924000   0.62727153   -1.7577415   0.93996639  -0.81777509    0.1314768     11635.55     1000 
 2926000   0.66165844   -1.8100313   0.99149517  -0.81853616   0.12289614     11681.96     1000 
 2928000   0.65232354   -1.7928588   0.97750683  -0.81535202    0.1187893    11733.925     1000 
 2930000   0.63755764   -1.8185933   0.95538013  -0.86321319   0.13765115    11546.114     1000 
 2932000   0.65929104   -1.8628537   0.98794763  -0.87490603    0.1212463    11782.717     1000 
 2934000   0.63865503   -1.7597981   0.95702456  -0.80277352    0.1268686    11734.225     1000 
 2936000    0.6438667   -1.7898459   0.96483424  -0.82501161   0.12837824    11787.947     1000 
 2938000    0.6376377   -1.7725536    0.9555001  -0.81705348   0.13913529    11559.588     1000 
 2940000   0.64185046   -1.8389249   0.96181291  -0.87711198      0.11843    11866.236     1000 
 2942000   0.66958518   -1.7999083    1.0033734  -0.79653492   0.11972327    11671.174     1000 
 2944000   0.66662802   -1.7653469   0.99894209  -0.76640481   0.11315702    11786.704     1000 
 2946000   0.64336849   -1.7836818   0.96408768  -0.81959416   0.11066153    12020.045     1000 
 2948000   0.65047504   -1.7165949   0.97473684  -0.74185803   0.13718086    11483.539     1000 
 2950000   0.67109178   -1.8126872     1.005631  -0.80705616    0.1395345    11419.354     1000 
 2952000   0.68195941   -1.8488533    1.0219162  -0.82693707   0.13619822    11659.154     1000 
 2954000   0.66965866   -1.7551689    1.0034835  -0.75168541   0.12955605    11663.629     1000 
 2956000   0.64284077   -1.8452875   0.96329689  -0.88199058   0.12498819    11859.675     1000 
 2958000   0.64441074   -1.8134798    0.9656495  -0.84783026   0.12338752    11831.655     1000 
 2960000   0.62768267   -1.7890866   0.94058249  -0.84850414   0.13285684    11699.767     1000 
 2962000   0.65091589   -1.7788517   0.97539746  -0.80345429   0.12503887    11571.241     1000 
 2964000   0.62653519   -1.8180153   0.93886299  -0.87915235   0.12591675    11833.386     1000 
 2966000   0.62944202   -1.7991422   0.94321887  -0.85592331    0.1228891    11651.569     1000 
 2968000   0.66331667   -1.8065975   0.99398003  -0.81261749   0.13803518    11688.654     1000 
 2970000   0.65535416   -1.8187897    0.9820482  -0.83674153   0.12852129        11650     1000 
 2972000   0.66625567   -1.7914668   0.99838412  -0.79308266    0.1283275    11672.925     1000 
 2974000   0.65124699   -1.8153219   0.97589361  -0.83942831    0.1367558    11661.497     1000 
 2976000   0.65743012   -1.8516911   0.98515903  -0.86653206   0.11500726    11840.309     1000 
 2978000   0.64238418   -1.7846866   0.96261269  -0.82207394   0.12092169    11848.616     1000 
 2980000   0.66531545    -1.779925    0.9969752  -0.78294982   0.12479434    11766.956     1000 
 2982000   0.62527733   -1.7628779   0.93697808  -0.82589986   0.11491844    11891.867     1000 
 2984000   0.63788684    -1.811515   0.95587344  -0.85564152    0.1350135    11611.403     1000 
 2986000   0.63339368   -1.8565108   0.94914042  -0.90737037   0.13597685    11783.198     1000 
 2988000   0.66653597   -1.7774661   0.99880415  -0.77866198   0.12401199    11698.931     1000 
 2990000   0.66310464   -1.7596573   0.99366231  -0.76599497   0.13445929    11651.141     1000 
 2992000   0.63638355   -1.7722719   0.95362075   -0.8186511   0.13955091    11756.247     1000 
 2994000   0.65992207    -1.811896   0.98889322  -0.82300281   0.12168317    11767.478     1000 
 2996000   0.64752078   -1.7926736    0.9703099  -0.82236369   0.14039926    11554.264     1000 
 2998000   0.66924109   -1.8471588    1.0028578    -0.844301   0.13271736    11721.306     1000 
 3000000   0.64311664   -1.7709266   0.96371029  -0.80721632   0.12806862    11653.831     1000 
Loop time of 1162.48 on 1 procs for 3000000 steps with 1000 atoms

Performance: 1114858.561 tau/day, 2580.691 timesteps/s
100.0% CPU use with 1 MPI tasks x 1 OpenMP threads

MPI task timing breakdown:
Section |  min time  |  avg time  |  max time  |%varavg| %total
---------------------------------------------------------------
Pair    | 915.21     | 915.21     | 915.21     |   0.0 | 78.73
Neigh   | 144.73     | 144.73     | 144.73     |   0.0 | 12.45
Comm    | 24.565     | 24.565     | 24.565     |   0.0 |  2.11
Output  | 0.017818   | 0.017818   | 0.017818   |   0.0 |  0.00
Modify  | 72.647     | 72.647     | 72.647     |   0.0 |  6.25
Other   |            | 5.306      |            |       |  0.46

Nlocal:        1000.00 ave        1000 max        1000 min
Histogram: 1 0 0 0 0 0 0 0 0 0
Nghost:        2195.00 ave        2195 max        2195 min
Histogram: 1 0 0 0 0 0 0 0 0 0
Neighs:        26705.0 ave       26705 max       26705 min
Histogram: 1 0 0 0 0 0 0 0 0 0

Total # of neighbors = 26705
Ave neighs/atom = 26.705000
Neighbor list builds = 150000
Dangerous builds not checked

Total wall time: 0:19:22
