LAMMPS (29 Sep 2021 - Update 2)
OMP_NUM_THREADS environment is not set. Defaulting to 1 thread. (src/comm.cpp:98)
  using 1 OpenMP thread(s) per MPI task
# ----------------------- Inicialização -----------------------

units			lj
atom_style 		atomic
dimension 		3
boundary 		p p p

# -------------------- Criação dos Átomos ---------------------

read_data 		topologia.txt
Reading data file ...
  orthogonal box = (0.0000000 0.0000000 0.0000000) to (21.540000 21.540000 21.540000)
  1 by 2 by 2 MPI processor grid
  reading atoms ...
  1000 atoms
  read_data CPU = 0.002 seconds

velocity 		all create ${temp} 87287 rot yes dist gaussian
velocity 		all create 0.41 87287 rot yes dist gaussian

# ------------------ Interação Interatômica -------------------

pair_style		table linear 2000
pair_coeff		1 1 force.table AA 10.0
WARNING: 3 of 2000 force values in table AA are inconsistent with -dE/dr.
WARNING:  Should only be flagged at inflection points (src/pair_table.cpp:465)
pair_coeff		1 2 force.table AB 10.0
WARNING: 1 of 2000 force values in table AB are inconsistent with -dE/dr.
WARNING:  Should only be flagged at inflection points (src/pair_table.cpp:465)
pair_coeff		2 2 force.table BB 10.0
pair_write		1 1 2000 r 0.008 10.0 table.check AA
Appending to table file table.check with DATE: 2023-08-03
Neighbor list info ...
  update every 1 steps, delay 10 steps, check yes
  max neighbors/atom: 2000, page size: 100000
  master list distance cutoff = 10.3
  ghost atom cutoff = 10.3
  binsize = 5.15, bins = 5 5 5
  1 neighbor lists, perpetual/occasional/extra = 1 0 0
  (1) pair table, perpetual
      attributes: half, newton on
      pair build: half/bin/atomonly/newton
      stencil: half/bin/3d
      bin: standard
pair_write		1 2 2000 r 0.008 10.0 table.check AB
Appending to table file table.check with DATE: 2023-08-03
pair_write		2 2 2000 r 0.008 10.0 table.check BB
Appending to table file table.check with DATE: 2023-08-03

neighbor 		0.3 bin
neigh_modify		every 20 delay 0 check no

# ------------------------- Ensemble --------------------------------------

fix 1			all npt temp ${temp} ${temp} 0.5 iso ${press} ${press} 5
fix 1			all npt temp 0.41 ${temp} 0.5 iso ${press} ${press} 5
fix 1			all npt temp 0.41 0.41 0.5 iso ${press} ${press} 5
fix 1			all npt temp 0.41 0.41 0.5 iso 0.13 ${press} 5
fix 1			all npt temp 0.41 0.41 0.5 iso 0.13 0.13 5

# ---------------------- Função de Distribuição Radial -----------------------

#compute RDF 		all rdf 2000 1 1 1 2 2 2
#fix 2 			all ave/time 1 2000 2000 c_RDF[*] file rdf.data mode vector

# ------------------------- Execução ---------------------------

timestep 		0.005
thermo_style		custom step temp pe ke etotal press vol atoms
thermo			2000
run			3000000
Per MPI rank memory allocation (min/avg/max) = 2.758 | 2.758 | 2.758 Mbytes
Step Temp PotEng KinEng TotEng Press Volume Atoms 
       0         0.41    1.2722654     0.614385    1.8866504    1.5010926    9993.9483     1000 
    2000   0.41377214   -2.6033029   0.62003755   -1.9832654   0.12433976     11278.46     1000 
    4000   0.41887497   -2.6487263   0.62768414   -2.0210422   0.12404689    11361.713     1000 
    6000   0.40612708   -2.7088795   0.60858143   -2.1002981   0.12116776    11287.395     1000 
    8000   0.40676831   -2.6472502   0.60954231   -2.0377079   0.12754021    11198.166     1000 
   10000   0.40352157   -2.7070528   0.60467707   -2.1023757   0.13360551    11293.331     1000 
   12000   0.40396747   -2.7179388   0.60534525   -2.1125935   0.12295853    11308.901     1000 
   14000   0.40888745   -2.7468194   0.61271784   -2.1341016   0.11489908    11358.796     1000 
   16000   0.41535059   -2.6997007   0.62240286   -2.0772979   0.13090817    11249.507     1000 
   18000   0.40512108    -2.701094   0.60707393   -2.0940201   0.12798498    11261.503     1000 
   20000   0.42010563   -2.7536199   0.62952828   -2.1240917   0.12964853    11248.873     1000 
   22000   0.41187523   -2.7431976   0.61719504   -2.1260026   0.13901711    11237.618     1000 
   24000   0.41740165   -2.7046244   0.62547637    -2.079148   0.14191708    11228.909     1000 
   26000   0.40059434   -2.7198829   0.60029061   -2.1195923   0.12286308    11329.489     1000 
   28000   0.40902182   -2.6690144   0.61291919   -2.0560952   0.12995263    11168.575     1000 
   30000   0.41417589   -2.7189633   0.62064257   -2.0983207   0.14631022    11149.072     1000 
   32000   0.40532684    -2.747325   0.60738227   -2.1399427   0.13668353    11134.712     1000 
   34000   0.41031648   -2.7274164   0.61485925   -2.1125571   0.15197441    11192.542     1000 
   36000   0.40434854    -2.752448   0.60591628   -2.1465318   0.12333756    11322.284     1000 
   38000    0.4025271   -2.6979461   0.60318687   -2.0947593   0.12436118    11334.709     1000 
   40000   0.41324735    -2.667546   0.61925115   -2.0482949   0.13364435    11177.469     1000 
   42000   0.40637157   -2.7278512    0.6089478   -2.1189034   0.13260667    11144.238     1000 
   44000   0.38999864   -2.7229817   0.58441297   -2.1385688   0.13211821    11186.081     1000 
   46000   0.41536432   -2.6864964   0.62242343    -2.064073   0.14078691    11130.215     1000 
   48000   0.39771923   -2.7087867   0.59598227   -2.1128044   0.13383779    11215.551     1000 
   50000   0.39481751   -2.7256956   0.59163405   -2.1340616    0.1202314    11290.733     1000 
   52000   0.41065052   -2.6995723   0.61535981   -2.0842125   0.13032397    11289.291     1000 
   54000   0.41928893   -2.7758568   0.62830446   -2.1475524   0.13049922    11360.666     1000 
   56000   0.42247059   -2.7075353   0.63307217   -2.0744631   0.13929423    11092.699     1000 
   58000   0.41673931   -2.6844697   0.62448386   -2.0599858   0.11869004    11302.893     1000 
   60000   0.42865093   -2.6989739   0.64233341   -2.0566405   0.13652165    11134.517     1000 
   62000   0.41208434   -2.7008317   0.61750839   -2.0833233   0.13727209    11125.202     1000 
   64000    0.4048637    -2.706339   0.60668825   -2.0996507   0.13939799    11260.534     1000 
   66000   0.40436468   -2.7326967   0.60594047   -2.1267563   0.12129443    11182.834     1000 
   68000   0.39622171   -2.7541603   0.59373823   -2.1604221   0.12603312    11320.572     1000 
   70000   0.41722578   -2.7473101   0.62521284   -2.1220973   0.13475318    11197.568     1000 
   72000   0.40246134   -2.7283869   0.60308832   -2.1252986   0.12053518    11362.073     1000 
   74000   0.40428253   -2.7003048   0.60581737   -2.0944874   0.12438049    11165.991     1000 
   76000   0.41492141   -2.7353495   0.62175973   -2.1135898   0.13470163    11212.892     1000 
   78000   0.42603355   -2.7316359   0.63841127   -2.0932246   0.12531051    11335.544     1000 
   80000   0.42534094   -2.7296612    0.6373734   -2.0922878    0.1275371    11305.017     1000 
   82000    0.4093435   -2.6988866   0.61340124   -2.0854853   0.13468117     11038.15     1000 
   84000   0.40138838   -2.7139678   0.60148049   -2.1124874   0.14723056    11092.199     1000 
   86000   0.40389511   -2.7402523   0.60523682   -2.1350155   0.12649665    11320.145     1000 
   88000   0.40174181   -2.7417591   0.60201011    -2.139749   0.12820117    11252.966     1000 
   90000   0.39424586   -2.7363775   0.59077742   -2.1456001   0.12532538    11299.847     1000 
   92000     0.431848   -2.7388138   0.64712423   -2.0916896    0.1461767    11101.981     1000 
   94000   0.40626053   -2.7652218   0.60878141   -2.1564404   0.12728233    11201.935     1000 
   96000   0.43042685   -2.6334132   0.64499464   -1.9884186   0.13722357    11042.551     1000 
   98000   0.39484474   -2.7163326   0.59167485   -2.1246577   0.12777477    11183.716     1000 
  100000   0.40162625   -2.7322563   0.60183693   -2.1304193   0.13298315    11321.297     1000 
  102000   0.39739601    -2.733331   0.59549792   -2.1378331   0.13100802    11157.063     1000 
  104000    0.4157544   -2.7120963   0.62300797   -2.0890883   0.12341037    11197.886     1000 
  106000   0.40976403   -2.7451435    0.6140314   -2.1311121   0.12864671    11294.809     1000 
  108000    0.4062008   -2.7318335   0.60869189   -2.1231416   0.12567849    11247.909     1000 
  110000   0.40719068   -2.7555168   0.61017523   -2.1453415   0.11556819    11322.526     1000 
  112000   0.41969126   -2.7209239   0.62890736   -2.0920165   0.13179033    11251.484     1000 
  114000   0.42111224     -2.69198   0.63103669   -2.0609433   0.13828138      11166.5     1000 
  116000   0.41741808   -2.7044805     0.625501   -2.0789795   0.12781057    11207.987     1000 
  118000   0.42112084   -2.6845667   0.63104959   -2.0535171   0.13064068    11044.592     1000 
  120000     0.392938   -2.7049264    0.5888176   -2.1161088   0.12412622    11259.714     1000 
  122000    0.4036477   -2.7768683   0.60486608   -2.1720023    0.1254996    11370.797     1000 
  124000   0.40679999   -2.7112396   0.60958978   -2.1016498   0.14229754    11215.594     1000 
  126000   0.40002377     -2.70226   0.59943563   -2.1028244   0.12647113    11303.507     1000 
  128000   0.40591183   -2.7689836   0.60825888   -2.1607248   0.12681941      11284.1     1000 
  130000   0.39601757   -2.7364591   0.59343233   -2.1430268   0.12613011    11332.296     1000 
  132000    0.3990501   -2.7480885   0.59797658    -2.150112   0.14338069    11210.258     1000 
  134000   0.40973186   -2.7406627    0.6139832   -2.1266795   0.11867637    11336.845     1000 
  136000   0.42079115   -2.7333629   0.63055554   -2.1028073   0.12348833    11306.467     1000 
  138000   0.42763001   -2.7624553   0.64080357   -2.1216517   0.15214993    11140.749     1000 
  140000    0.3991924   -2.7311959   0.59818981   -2.1330061   0.12287601    11305.499     1000 
  142000   0.40775955    -2.710853   0.61102768   -2.0998253   0.13636352     11110.16     1000 
  144000   0.39189247   -2.7315272   0.58725087   -2.1442763   0.13861626    11235.247     1000 
  146000   0.40768443   -2.7493864   0.61091512   -2.1384713   0.12587042    11153.925     1000 
  148000   0.41530738   -2.7075135   0.62233811   -2.0851753    0.1288011    11134.588     1000 
  150000   0.42466863   -2.7148991   0.63636594   -2.0785332   0.13293347    11207.636     1000 
  152000   0.40871649   -2.7106753   0.61246166   -2.0982137    0.1365931    11323.564     1000 
  154000   0.38795855   -2.7035997   0.58135589   -2.1222439   0.12385074    11080.409     1000 
  156000   0.40549438   -2.7355509   0.60763333   -2.1279176   0.12100368     11295.49     1000 
  158000   0.40123902   -2.7406164   0.60125667   -2.1393597   0.12838684    11235.317     1000 
  160000   0.42681562   -2.7501044   0.63958321   -2.1105212   0.12542883    11342.427     1000 
  162000   0.40523791   -2.6606666   0.60724902   -2.0534176   0.12662218    11301.028     1000 
  164000   0.42873887   -2.7081137   0.64246519   -2.0656485   0.13876343    11281.849     1000 
  166000   0.40314991   -2.7762046   0.60412015   -2.1720845   0.13404109     11184.49     1000 
  168000   0.41929381   -2.7646321   0.62831177   -2.1363203   0.13304949    11316.355     1000 
  170000   0.40533149    -2.726774   0.60738923   -2.1193848   0.11909531    11351.584     1000 
  172000   0.40887494   -2.7296344    0.6126991   -2.1169353   0.13304591    11179.567     1000 
  174000   0.40846344   -2.7235079   0.61208247   -2.1114255   0.12257469    11349.308     1000 
  176000   0.42880064   -2.7560176   0.64255775   -2.1134599   0.12249825    11341.565     1000 
  178000   0.40527557   -2.7560532   0.60730545   -2.1487477   0.13187607    11304.465     1000 
  180000   0.41291015   -2.7051797   0.61874586   -2.0864338   0.12847893    11313.332     1000 
  182000   0.40317423   -2.7308457   0.60415659   -2.1266891   0.11464555    11343.267     1000 
  184000   0.39891966    -2.706845   0.59778112   -2.1090639   0.13435935    11160.041     1000 
  186000   0.42047388   -2.7420058   0.63008011   -2.1119257   0.13213568    11156.525     1000 
  188000     0.427334   -2.7596759   0.64035999   -2.1193159   0.12890929    11323.111     1000 
  190000   0.42645073    -2.700737   0.63903642   -2.0617006    0.1334831     11203.37     1000 
  192000    0.4085617   -2.7319816    0.6122297   -2.1197519   0.13568826    11279.474     1000 
  194000   0.40830052   -2.7368189   0.61183832   -2.1249805   0.13150303    11210.419     1000 
  196000   0.41971835   -2.7335159   0.62894795   -2.1045679    0.1240371    11296.555     1000 
  198000   0.41716909   -2.7234743   0.62512788   -2.0983464   0.13912751    11137.694     1000 
  200000   0.42140757    -2.723751   0.63147925   -2.0922717   0.13268921    11262.366     1000 
  202000   0.40984911   -2.7197544   0.61415889   -2.1055955   0.13215674    11251.849     1000 
  204000   0.41675767    -2.724345   0.62451136   -2.0998336   0.12604571    11235.795     1000 
  206000   0.41895066    -2.724732   0.62779756   -2.0969345   0.13926486    11170.436     1000 
  208000   0.40892199   -2.7493568   0.61276961   -2.1365872   0.14408738    11101.196     1000 
  210000     0.407378   -2.7328382   0.61045594   -2.1223823    0.1210201    11215.444     1000 
  212000   0.40690534    -2.709023   0.60974766   -2.0992753   0.14773038    11059.748     1000 
  214000   0.41736854   -2.7362448   0.62542675   -2.1108181    0.1355417    11192.933     1000 
  216000   0.41703465   -2.7655484   0.62492642    -2.140622   0.13351095    11155.688     1000 
  218000   0.42077877   -2.7078678   0.63053698   -2.0773308   0.12380169    11196.298     1000 
  220000   0.40313487   -2.7421661    0.6040976   -2.1380685    0.1415291    11211.964     1000 
  222000   0.43407767   -2.7139774   0.65046539    -2.063512   0.13160606    11138.038     1000 
  224000    0.4036637   -2.7195878   0.60489005   -2.1146978   0.12849405    11286.665     1000 
  226000   0.41179618   -2.7521059   0.61707658   -2.1350293   0.13020536     11271.38     1000 
  228000   0.40300547    -2.743619    0.6039037   -2.1397153   0.14607909    11078.972     1000 
  230000   0.41779739   -2.7159024   0.62606938    -2.089833   0.13107643    11250.238     1000 
  232000   0.43452393   -2.7532587   0.65113411   -2.1021246   0.13369628    11194.693     1000 
  234000   0.42596753   -2.7585362   0.63831234   -2.1202238   0.12503856    11297.204     1000 
  236000   0.39090687   -2.7322877   0.58577395   -2.1465137   0.13441658    11020.427     1000 
  238000   0.40287219   -2.7000557   0.60370398   -2.0963517   0.13131338    11212.193     1000 
  240000   0.41163852   -2.7347748   0.61684033   -2.1179344   0.13618172    11256.145     1000 
  242000   0.40056117   -2.7302551   0.60024091   -2.1300142   0.12529135    11150.048     1000 
  244000   0.40729256   -2.7622167    0.6103279   -2.1518888   0.12583925     11310.65     1000 
  246000   0.40307194   -2.7153591    0.6040033   -2.1113558   0.12573053    11221.182     1000 
  248000    0.4194415   -2.7325909   0.62853309   -2.1040579   0.13147922    11285.283     1000 
  250000   0.40388659   -2.7088597   0.60522405   -2.1036357   0.12501673    11190.329     1000 
  252000   0.41776589   -2.7151074   0.62602219   -2.0890852   0.12099347    11371.162     1000 
  254000    0.4079057   -2.7155849   0.61124669   -2.1043382   0.15036371    11125.999     1000 
  256000   0.39168554    -2.739247   0.58694078   -2.1523062   0.13250881     11293.39     1000 
  258000   0.40046242    -2.733741   0.60009293    -2.133648    0.1340722    11297.008     1000 
  260000   0.41138682   -2.7542203   0.61646315   -2.1377572   0.11712773    11278.128     1000 
  262000   0.38695903   -2.7119649   0.57985811   -2.1321067   0.12073639    11259.285     1000 
  264000   0.41238429   -2.7417025   0.61795786   -2.1237446   0.12589688    11375.943     1000 
  266000   0.41558614   -2.7072401   0.62275582   -2.0844843   0.12563287    11182.629     1000 
  268000   0.41215326   -2.7405424   0.61761167   -2.1229308   0.12911864    11241.611     1000 
  270000   0.40336749   -2.7253887   0.60444618   -2.1209425   0.12769727    11288.276     1000 
  272000   0.41314086   -2.7304371   0.61909158   -2.1113455   0.12238639    11334.764     1000 
  274000   0.39668971   -2.7109371   0.59443953   -2.1164976   0.12962372    11326.622     1000 
  276000   0.42898148   -2.7312323   0.64282874   -2.0884036   0.14098322    11179.592     1000 
  278000    0.3898192   -2.7692293   0.58414407   -2.1850853   0.13259089    11181.295     1000 
  280000   0.41319316   -2.7086458   0.61916995   -2.0894758   0.14035476    11139.027     1000 
  282000   0.43031576   -2.7071686   0.64482817   -2.0623405   0.12559654    11309.085     1000 
  284000   0.40771479   -2.7434647   0.61096061   -2.1325041   0.12870737     11300.26     1000 
  286000   0.42660404   -2.7241026   0.63926615   -2.0848365   0.13388906    11249.385     1000 
  288000   0.40201839   -2.7397201   0.60242455   -2.1372956   0.13155343    11137.112     1000 
  290000   0.41321527   -2.7310767   0.61920309   -2.1118736   0.12249579    11182.369     1000 
  292000    0.4174684   -2.7010763    0.6255764   -2.0754999   0.13642374    11146.862     1000 
  294000   0.40874275   -2.7041523   0.61250101   -2.0916513   0.12685416    11249.175     1000 
  296000   0.42263131   -2.7130521   0.63331301   -2.0797391   0.13260578    11270.293     1000 
  298000   0.40739168    -2.699296   0.61047643   -2.0888196   0.13938336    11089.961     1000 
  300000   0.39324565   -2.7129403    0.5892786   -2.1236617   0.14223111    11103.028     1000 
  302000   0.42338329   -2.7537854   0.63443986   -2.1193455   0.12617215    11203.889     1000 
  304000    0.4048773   -2.7333632   0.60670863   -2.1266546   0.12896172    11367.772     1000 
  306000   0.42111093   -2.7372831   0.63103472   -2.1062483   0.12183228    11216.127     1000 
  308000   0.41565613   -2.7093457    0.6228607    -2.086485    0.1228915    11228.011     1000 
  310000   0.41566329   -2.7652555   0.62287144   -2.1423841   0.13653768    11173.982     1000 
  312000   0.41319467   -2.7315392   0.61917222    -2.112367   0.13672715     11223.84     1000 
  314000   0.40648779   -2.6974171   0.60912195   -2.0882951    0.1399914     11176.83     1000 
  316000   0.41219886   -2.6806966   0.61767999   -2.0630166     0.143367    11182.802     1000 
  318000    0.4100506   -2.7586109   0.61446082   -2.1441501   0.13727638    11359.083     1000 
  320000   0.39105857   -2.7373398   0.58600126   -2.1513386   0.11929757    11338.326     1000 
  322000   0.40337212   -2.6853374   0.60445313   -2.0808842   0.14935185    11076.935     1000 
  324000   0.42653223   -2.7245777   0.63915854   -2.0854191    0.1287811    11200.702     1000 
  326000   0.41341065   -2.7387407   0.61949586   -2.1192448   0.12960351    11217.119     1000 
  328000   0.40075947   -2.6983791   0.60053806   -2.0978411   0.12082718    11201.277     1000 
  330000   0.41748992   -2.6955299   0.62560865   -2.0699212   0.13225341    11206.654     1000 
  332000    0.4250525   -2.6631035   0.63694117   -2.0261623    0.1260481    11191.897     1000 
  334000   0.41221077   -2.7323143   0.61769784   -2.1146164    0.1257632    11378.027     1000 
  336000    0.3963218   -2.7395045   0.59388822   -2.1456162    0.1283706    11303.506     1000 
  338000   0.41109128   -2.7675477   0.61602028   -2.1515274   0.13254215    11181.791     1000 
  340000   0.40253941   -2.7375696    0.6032053   -2.1343643   0.14013115    11073.056     1000 
  342000   0.39568776   -2.7386835   0.59293811   -2.1457454   0.12997838    11192.058     1000 
  344000   0.40450003   -2.7098846   0.60614329   -2.1037413   0.13192827    11244.705     1000 
  346000   0.42506786   -2.7404045   0.63696419   -2.1034403   0.13196564    11346.492     1000 
  348000   0.38977905   -2.7315587    0.5840839   -2.1474748   0.12087511    11286.561     1000 
  350000   0.41452486   -2.7622106   0.62116551   -2.1410451   0.11915135    11334.205     1000 
  352000   0.40806684   -2.7938377   0.61148816   -2.1823496   0.12368775    11276.349     1000 
  354000   0.41117471   -2.7085205   0.61614531   -2.0923752   0.13981251    11215.285     1000 
  356000     0.415166   -2.7546081   0.62212625   -2.1324819   0.12443997    11260.884     1000 
  358000   0.41888442    -2.714731   0.62769831   -2.0870326   0.12302606    11285.595     1000 
  360000    0.4164339   -2.7097656   0.62402619   -2.0857394   0.12969925    11218.118     1000 
  362000   0.41624247   -2.7542047   0.62373934   -2.1304653   0.13209484    11278.502     1000 
  364000   0.40523137   -2.7763861    0.6072392   -2.1691469   0.11889656    11363.921     1000 
  366000   0.40114019   -2.7565197   0.60110858   -2.1554111   0.12693418    11230.455     1000 
  368000   0.41142914   -2.7203249   0.61652657   -2.1037983   0.11975423    11273.655     1000 
  370000   0.42129144    -2.760547   0.63130522   -2.1292418   0.13721759    11184.607     1000 
  372000   0.40194899   -2.7721981   0.60232056   -2.1698775   0.12885746    11326.846     1000 
  374000   0.42658309   -2.7128907   0.63923476   -2.0736559   0.13939415    11155.185     1000 
  376000   0.41302163   -2.7163716   0.61891291   -2.0974587      0.10941    11323.025     1000 
  378000   0.39635129   -2.7408902    0.5939324   -2.1469578   0.12300659     11289.86     1000 
  380000    0.4043021   -2.7494344    0.6058467   -2.1435877   0.11785055    11330.078     1000 
  382000    0.4136731   -2.7484012   0.61988913   -2.1285121   0.12913114    11209.697     1000 
  384000   0.40531046    -2.710081   0.60735772   -2.1027233    0.1342013    11248.651     1000 
  386000   0.42355081   -2.7480519   0.63469088    -2.113361   0.13688827    11159.117     1000 
  388000   0.41123151   -2.7467436   0.61623042   -2.1305132   0.13007252    11229.834     1000 
  390000   0.39583813   -2.7133527   0.59316344   -2.1201893   0.14248178    11134.891     1000 
  392000   0.39692464   -2.7416146   0.59479157    -2.146823   0.11594607    11490.272     1000 
  394000   0.39566228   -2.7561597   0.59289992   -2.1632598   0.11581485    11392.184     1000 
  396000   0.40233936   -2.7820943   0.60290553   -2.1791887   0.12442447    11374.423     1000 
  398000   0.38910492    -2.753423   0.58307372   -2.1703493   0.12583943    11281.626     1000 
  400000    0.4281408   -2.7905277     0.641569   -2.1489587   0.11730017    11287.571     1000 
  402000   0.40335403   -2.7640871   0.60442601   -2.1596611   0.13137323    11159.351     1000 
  404000   0.40375241   -2.7417923   0.60502298   -2.1367693   0.12901116    11326.346     1000 
  406000   0.39427628   -2.7883778     0.590823   -2.1975548    0.1216174    11397.684     1000 
  408000   0.39215726   -2.6929821   0.58764765   -2.1053345   0.12206056    11218.291     1000 
  410000   0.43531451   -2.7581267   0.65231879    -2.105808   0.13444799    11264.259     1000 
  412000   0.40027872   -2.7106903   0.59981766   -2.1108727   0.13279573    11202.188     1000 
  414000   0.40954668    -2.724004   0.61370571   -2.1102983   0.13981936    11162.684     1000 
  416000   0.43301803   -2.7159039   0.64887752   -2.0670264   0.14123431    11150.437     1000 
  418000   0.39924747   -2.7671532   0.59827233   -2.1688809   0.13258823    11375.108     1000 
  420000   0.39489769   -2.7233575   0.59175419   -2.1316033   0.13001633    11255.499     1000 
  422000   0.41544291   -2.7441345    0.6225412   -2.1215933   0.14351607    11158.711     1000 
  424000   0.41903733   -2.7528065   0.62792744   -2.1248791   0.12747091    11253.782     1000 
  426000    0.4198796   -2.6404644   0.62918959   -2.0112748   0.13083663    11143.525     1000 
  428000   0.41649768   -2.7360185   0.62412177   -2.1118967    0.1377763    11182.092     1000 
  430000   0.41621924   -2.7847431   0.62370453   -2.1610386   0.12434354    11316.754     1000 
  432000   0.41088279   -2.7004156   0.61570787   -2.0847078   0.14478935    11159.072     1000 
  434000   0.41096997    -2.710331   0.61583851   -2.0944925   0.12790008    11264.158     1000 
  436000   0.41673875   -2.7055295   0.62448301   -2.0810465   0.13762173    11127.417     1000 
  438000   0.39662533   -2.7228814   0.59434306   -2.1285384    0.1347285    11267.715     1000 
  440000   0.41883565   -2.7550765   0.62762523   -2.1274512   0.14285697    11308.315     1000 
  442000   0.39558817   -2.7060863   0.59278887   -2.1132975   0.12821226    11253.312     1000 
  444000   0.41331909   -2.7400322   0.61935865   -2.1206736   0.11755656    11367.548     1000 
  446000   0.40742791   -2.7365299   0.61053073   -2.1259991   0.12610469    11301.432     1000 
  448000   0.40875532   -2.7048511   0.61251985   -2.0923313   0.11852725    11173.855     1000 
  450000   0.39736045   -2.7252498   0.59544464   -2.1298052   0.13439378    11210.067     1000 
  452000   0.41478379   -2.7461829   0.62155351   -2.1246294   0.12589286    11310.496     1000 
  454000   0.39363603   -2.7048399    0.5898636   -2.1149763   0.11588972    11300.453     1000 
  456000   0.39993968   -2.7406926   0.59930961    -2.141383    0.1288025    11161.992     1000 
  458000   0.40282047   -2.7156685   0.60362648    -2.112042   0.13399611    11210.803     1000 
  460000   0.41102317   -2.7078958   0.61591822   -2.0919776   0.12523236    11252.855     1000 
  462000   0.39865222   -2.6814231   0.59738035   -2.0840428   0.12615507    11187.014     1000 
  464000   0.40399197    -2.745751   0.60538197   -2.1403691   0.13518361    11173.492     1000 
  466000   0.40003561   -2.7404194   0.59945336    -2.140966   0.12538857     11274.82     1000 
  468000   0.40781768    -2.730672   0.61111479   -2.1195572   0.12680556    11354.876     1000 
  470000   0.41699723   -2.6882623   0.62487034    -2.063392   0.13770842     11032.99     1000 
  472000   0.40113702   -2.7640624   0.60110383   -2.1629586   0.13796575     11201.61     1000 
  474000   0.41600801   -2.7324752     0.623388   -2.1090872   0.12845382    11190.995     1000 
  476000   0.41517361   -2.7187916   0.62213765   -2.0966539   0.12821875    11312.163     1000 
  478000   0.40278847    -2.694852   0.60357852   -2.0912735   0.12532811    11210.958     1000 
  480000   0.39868123   -2.7352227   0.59742382   -2.1377988   0.13563858    11173.663     1000 
  482000   0.42545389   -2.7278743   0.63754265   -2.0903317   0.12102531    11159.887     1000 
  484000   0.39913075    -2.768717   0.59809743   -2.1706195   0.12755393    11155.001     1000 
  486000   0.39826225   -2.7302431   0.59679598   -2.1334471   0.13824313    11177.708     1000 
  488000   0.41322713   -2.7429941   0.61922085   -2.1237732   0.13258009    11281.251     1000 
  490000   0.40188245   -2.7399753   0.60222086   -2.1377544   0.12995594    11271.271     1000 
  492000   0.39505064   -2.7289185   0.59198339   -2.1369352   0.12440105    11257.863     1000 
  494000   0.39184559   -2.7207171   0.58718062   -2.1335365   0.12326111    11364.755     1000 
  496000   0.41566294   -2.7077654   0.62287092   -2.0848944   0.13024436    11230.612     1000 
  498000   0.40675939   -2.7223197   0.60952895   -2.1127908    0.1456467    11195.551     1000 
  500000   0.40978392   -2.7317252   0.61406121    -2.117664   0.13150231    11300.516     1000 
  502000   0.39807232   -2.7267562   0.59651137   -2.1302448   0.13592485     11166.34     1000 
  504000   0.43450741    -2.797042   0.65110935   -2.1459326   0.13329959     11325.15     1000 
  506000   0.39307694   -2.7281404   0.58902579   -2.1391146   0.14194112    11255.133     1000 
  508000   0.40359853   -2.7330624   0.60479239     -2.12827   0.13497117    11331.481     1000 
  510000   0.44567117   -2.7023067   0.66783825   -2.0344685   0.13595807     11146.78     1000 
  512000    0.4058139   -2.7488986   0.60811212   -2.1407865   0.11626141    11266.688     1000 
  514000   0.40999584   -2.6985772   0.61437877   -2.0841984   0.12872306     11300.97     1000 
  516000   0.40479363   -2.7278165   0.60658326   -2.1212333   0.11574156    11284.219     1000 
  518000   0.40612034   -2.7098216   0.60857133   -2.1012502   0.13052153     11053.42     1000 
  520000   0.41880525   -2.6852167   0.62757967   -2.0576371    0.1300586    11268.252     1000 
  522000   0.40840415   -2.7239684   0.61199361   -2.1119748   0.12587363    11274.977     1000 
  524000   0.39568909   -2.7807519   0.59294009   -2.1878118   0.12630485    11341.007     1000 
  526000   0.39253605   -2.6828363   0.58821528   -2.0946211   0.12593458    11129.705     1000 
  528000    0.4182707   -2.7150709   0.62677864   -2.0882923   0.13176244    11150.235     1000 
  530000   0.41459963    -2.680206   0.62127755   -2.0589284    0.1375072    11192.298     1000 
  532000   0.40686729   -2.7372023   0.60969063   -2.1275116     0.112573    11433.691     1000 
  534000   0.39220814   -2.7168837   0.58772389   -2.1291598   0.13113217    11185.962     1000 
  536000   0.41810579   -2.7170144   0.62653153   -2.0904829    0.1445943    11104.375     1000 
  538000   0.41823441   -2.7017016   0.62672426   -2.0749774   0.14153116    11048.865     1000 
  540000   0.42253423   -2.6733164   0.63316754   -2.0401489   0.13988276     11173.97     1000 
  542000   0.39909876   -2.7784932   0.59804949   -2.1804437   0.12442144    11271.108     1000 
  544000   0.41537058   -2.7465136   0.62243281   -2.1240808   0.12499426    11342.983     1000 
  546000   0.41006894    -2.658716   0.61448831   -2.0442276   0.14622823     11175.74     1000 
  548000   0.39292152   -2.7284722    0.5887929   -2.1396793   0.12699812    11166.854     1000 
  550000   0.40691791    -2.710381   0.60976649   -2.1006145   0.13927915    11094.895     1000 
  552000   0.39609819   -2.7682598   0.59355313   -2.1747067   0.13563968    11261.015     1000 
  554000   0.41146914   -2.7507063   0.61658651   -2.1341198   0.13934397    11216.521     1000 
  556000   0.42253419    -2.682898   0.63316748   -2.0497305   0.13980907    11198.448     1000 
  558000   0.41036811   -2.7549975   0.61493661   -2.1400609   0.12505085    11192.991     1000 
  560000   0.40818685   -2.7804668     0.611668   -2.1687988   0.14278419    11209.097     1000 
  562000   0.41094341   -2.6948318    0.6157987   -2.0790331   0.14153757    11122.435     1000 
  564000   0.41840301   -2.7367241   0.62697691   -2.1097472   0.13752747    11193.973     1000 
  566000   0.39696002   -2.7477258   0.59484459   -2.1528812   0.13412757    11274.372     1000 
  568000    0.4159919    -2.722757   0.62336387   -2.0993932   0.14292025    11223.308     1000 
  570000   0.42126312   -2.7201031   0.63126278   -2.0888403   0.13451587    11264.808     1000 
  572000   0.42408409   -2.7106339   0.63549001   -2.0751439   0.14044339    11172.522     1000 
  574000   0.41416562   -2.7620149   0.62062719   -2.1413877   0.12438933    11297.556     1000 
  576000   0.40598029   -2.7235876   0.60836146   -2.1152261   0.13567365    11158.129     1000 
  578000   0.40534126   -2.6845262   0.60740388   -2.0771223   0.12828068    11282.225     1000 
  580000   0.41836179   -2.7132142   0.62691514   -2.0862991   0.13491406    11217.007     1000 
  582000   0.40775333   -2.6761567   0.61101836   -2.0651383   0.13819762    11125.046     1000 
  584000   0.42210593   -2.7096332   0.63252574   -2.0771074   0.12413393    11172.784     1000 
  586000   0.41601246   -2.7858799   0.62339467   -2.1624852   0.14747908     11184.14     1000 
  588000   0.40461874   -2.7505902   0.60632118    -2.144269   0.11804329    11283.673     1000 
  590000   0.39413926    -2.758959   0.59061768   -2.1683413   0.13034352      11315.1     1000 
  592000   0.42206559    -2.754592   0.63246529   -2.1221267   0.11464159     11386.38     1000 
  594000   0.43050639   -2.7376462   0.64511383   -2.0925324   0.13613968    11244.413     1000 
  596000   0.41517817   -2.7025875   0.62214448    -2.080443   0.12765779    11297.769     1000 
  598000   0.41383188   -2.7390957   0.62012708   -2.1189686   0.13875316    11191.782     1000 
  600000   0.41493161   -2.7407901   0.62177502   -2.1190151   0.13279058     11295.12     1000 
  602000   0.40578362    -2.723497   0.60806676   -2.1154302   0.12112314    11191.432     1000 
  604000   0.40736152   -2.7464424   0.61043124   -2.1360111   0.13183074    11268.711     1000 
  606000   0.40600975   -2.7728258   0.60840562   -2.1644202   0.11315173    11410.254     1000 
  608000    0.4055762   -2.7405609   0.60775594   -2.1328049   0.12672834    11358.041     1000 
  610000   0.40366911   -2.7494941   0.60489817    -2.144596   0.14409642    11168.797     1000 
  612000   0.42021665   -2.7557431   0.62969466   -2.1260485   0.13791295     11274.38     1000 
  614000   0.41749588   -2.7257091   0.62561758   -2.1000916   0.13621448     11189.24     1000 
  616000   0.42102489   -2.7575418   0.63090579   -2.1266361   0.12966066    11303.078     1000 
  618000   0.39020101   -2.7545183   0.58471622   -2.1698021   0.11747058    11283.592     1000 
  620000   0.41614684   -2.6683259   0.62359603   -2.0447299   0.13217491    11211.342     1000 
  622000   0.40257284   -2.7005244    0.6032554    -2.097269   0.13412769    11142.225     1000 
  624000   0.40061371   -2.7170061   0.60031964   -2.1166865   0.12730364     11293.53     1000 
  626000   0.40803118   -2.7195718   0.61143472   -2.1081371   0.13951077    11287.701     1000 
  628000   0.42157589   -2.7313437   0.63173147   -2.0996123   0.12962295    11271.321     1000 
  630000   0.40951885   -2.7210398     0.613664   -2.1073758   0.13988137    11149.554     1000 
  632000   0.39822878   -2.7220608   0.59674583    -2.125315    0.1324958    11330.189     1000 
  634000   0.41270784   -2.7325392    0.6184427   -2.1140965   0.13154699    11236.728     1000 
  636000    0.3941837   -2.7115126   0.59068428   -2.1208283   0.12391218    11325.744     1000 
  638000   0.41697833   -2.7183673   0.62484203   -2.0935252   0.11854185    11331.896     1000 
  640000   0.42121731    -2.706625   0.63119414   -2.0754308   0.13696127    11223.323     1000 
  642000   0.41311557   -2.7251611   0.61905367   -2.1061074   0.13793091    11236.235     1000 
  644000   0.41547349   -2.6897911   0.62258703   -2.0672041   0.12719255    11061.828     1000 
  646000   0.40956203   -2.6723317   0.61372869    -2.058603   0.14240498     11098.32     1000 
  648000   0.40312911   -2.7224392   0.60408897   -2.1183503   0.13209322    11223.776     1000 
  650000   0.40423387   -2.7058376   0.60574445   -2.1000932   0.13211176     11156.41     1000 
  652000   0.41783607   -2.7273745   0.62612734   -2.1012471   0.13201376    11183.575     1000 
  654000    0.3882216   -2.7504069   0.58175007   -2.1686569   0.13764493    11199.246     1000 
  656000   0.39147932   -2.7417637   0.58663177    -2.155132   0.11882179    11225.822     1000 
  658000   0.40615632   -2.7393337   0.60862524   -2.1307084   0.12942997    11272.521     1000 
  660000    0.4053708   -2.7216982   0.60744814   -2.1142501   0.12934979    11245.308     1000 
  662000   0.41003441   -2.6634844   0.61443656   -2.0490478    0.1446701    11092.535     1000 
  664000   0.41273971    -2.736051   0.61849045   -2.1175606   0.12064892    11276.189     1000 
  666000     0.396769   -2.7409986   0.59455834   -2.1464402    0.1376162    11083.317     1000 
  668000   0.38871348   -2.6805165   0.58248715   -2.0980293   0.13671514    11096.654     1000 
  670000   0.39516588    -2.707483   0.59215607   -2.1153269   0.13110976    11071.407     1000 
  672000   0.41646137    -2.703226   0.62406737   -2.0791586   0.12600762    11160.734     1000 
  674000     0.425758   -2.7267339   0.63799836   -2.0887355   0.12738517    11230.004     1000 
  676000   0.40198423   -2.7287645   0.60237337   -2.1263912   0.13511411    11229.763     1000 
  678000   0.41045699   -2.6850989    0.6150698   -2.0700291   0.13449411    11238.492     1000 
  680000   0.40526701   -2.7445379   0.60729261   -2.1372453   0.12566235    11312.628     1000 
  682000   0.40802032    -2.687024   0.61141845   -2.0756055   0.13245415    11172.293     1000 
  684000   0.43748004   -2.7156771   0.65556385   -2.0601133   0.11722529    11370.629     1000 
  686000   0.41685015   -2.7429145   0.62464995   -2.1182645   0.13001594    11279.558     1000 
  688000   0.40052551   -2.7785366   0.60018748   -2.1783491   0.11705025    11316.728     1000 
  690000   0.38772979   -2.7038438   0.58101309   -2.1228307   0.11637912    11297.566     1000 
  692000   0.41554847    -2.704178   0.62269938   -2.0814787   0.13285388    11145.899     1000 
  694000   0.40876023   -2.7190358    0.6125272   -2.1065086   0.12551201    11254.107     1000 
  696000   0.40399882    -2.718237   0.60539223   -2.1128448   0.11934059    11322.221     1000 
  698000      0.41022   -2.7595468   0.61471467   -2.1448322   0.11922455    11205.954     1000 
  700000   0.40951176   -2.7461695   0.61365338   -2.1325161   0.13422373    11261.746     1000 
  702000   0.41550429   -2.7590743   0.62263318   -2.1364411    0.1283984    11297.656     1000 
  704000   0.42069938   -2.7048164   0.63041802   -2.0743984   0.13661286     11156.35     1000 
  706000   0.43017156    -2.741137   0.64461209   -2.0965249   0.13905499    11205.735     1000 
  708000   0.41122079   -2.7399381   0.61621436   -2.1237237   0.12687848    11189.701     1000 
  710000   0.40487651   -2.7023303   0.60670745   -2.0956229    0.1225765    11213.099     1000 
  712000   0.40604351    -2.730524    0.6084562   -2.1220678   0.12765878    11089.535     1000 
  714000    0.4127682   -2.7125402   0.61853315   -2.0940071   0.10806648    11398.343     1000 
  716000   0.41838704   -2.7443835   0.62695298   -2.1174305   0.13589163    11294.052     1000 
  718000   0.40980013   -2.7465708    0.6140855   -2.1324853   0.12493468    11247.715     1000 
  720000   0.40559669   -2.7258666   0.60778664     -2.11808   0.12746336    11187.813     1000 
  722000   0.37419245   -2.7096301   0.56072739   -2.1489027   0.12938049    11153.919     1000 
  724000   0.40554647   -2.7040007   0.60771139   -2.0962893   0.13338387    11134.078     1000 
  726000     0.438274   -2.7643573    0.6567536   -2.1076037   0.13982865    11336.202     1000 
  728000   0.41375637   -2.7346534   0.62001392   -2.1146395   0.13807864    11247.698     1000 
  730000   0.41650462   -2.6896757   0.62413217   -2.0655436   0.11984404    11209.269     1000 
  732000   0.39729873   -2.7228872   0.59535214   -2.1275351   0.12297364    11144.107     1000 
  734000   0.41277476   -2.7027356   0.61854297   -2.0841926   0.12587465    11255.002     1000 
  736000   0.41888085   -2.7019136   0.62769296   -2.0742207   0.14217112    11092.279     1000 
  738000   0.40012433   -2.7382934    0.5995863   -2.1387071   0.13069878    11240.038     1000 
  740000   0.40037305   -2.7173682   0.59995901   -2.1174092   0.12639632    11175.494     1000 
  742000   0.41189697    -2.710072   0.61722761   -2.0928444   0.15079708      11183.1     1000 
  744000   0.41489071   -2.7351226   0.62171373   -2.1134089   0.13430943    11179.158     1000 
  746000   0.40234865   -2.7397345   0.60291945    -2.136815    0.1539536    11183.523     1000 
  748000   0.43631623   -2.7228908   0.65381987   -2.0690709    0.1458886    11085.585     1000 
  750000   0.42160337   -2.7291207   0.63177265    -2.097348   0.14419606    11167.168     1000 
  752000   0.40714117   -2.7062079   0.61010105   -2.0961069   0.13303929    11159.323     1000 
  754000   0.42234891   -2.7337042   0.63288984   -2.1008144   0.13181919    11329.803     1000 
  756000   0.40083154   -2.7075797   0.60064607   -2.1069336   0.12499022    11244.749     1000 
  758000   0.41113447   -2.7519716     0.616085   -2.1358866   0.12281573    11264.095     1000 
  760000   0.41085902   -2.7537144   0.61567225   -2.1380421   0.13322546    11226.746     1000 
  762000   0.40044539   -2.6836645   0.60006742   -2.0835971   0.12939764    11124.178     1000 
  764000   0.41295059   -2.7428684   0.61880646   -2.1240619   0.13697832    11181.269     1000 
  766000   0.39789717   -2.7431852   0.59624891   -2.1469363   0.13408335    11268.111     1000 
  768000   0.41699948   -2.7512409   0.62487371   -2.1263672   0.13692012    11114.752     1000 
  770000     0.401457   -2.7425198   0.60158331   -2.1409365   0.13395336    11321.339     1000 
  772000   0.40947326   -2.7495235   0.61359568   -2.1359278   0.13757073    11209.431     1000 
  774000   0.40609751   -2.7101946   0.60853712   -2.1016575   0.12057969    11370.528     1000 
  776000   0.41170179   -2.7535065   0.61693513   -2.1365714    0.1406465    11283.169     1000 
  778000   0.40476625   -2.7710149   0.60654223   -2.1644726   0.13713193    11256.008     1000 
  780000   0.40017817   -2.7241709   0.59966699   -2.1245039   0.13170428     11301.33     1000 
  782000   0.40104791   -2.7592444   0.60097029   -2.1582741     0.117925    11329.818     1000 
  784000   0.41312665    -2.694559   0.61907029   -2.0754887    0.1330772    11132.515     1000 
  786000   0.40468396   -2.7055756   0.60641891   -2.0991567   0.12308295    11164.695     1000 
  788000   0.38473686   -2.7129178   0.57652819   -2.1363896   0.11438717    11318.865     1000 
  790000   0.41865076   -2.7413525   0.62734817   -2.1140044   0.12423754    11357.263     1000 
  792000   0.41468748   -2.7094225   0.62140918   -2.0880133   0.12790455    11211.481     1000 
  794000   0.41831204   -2.7593095   0.62684059   -2.1324689   0.13350472    11231.466     1000 
  796000   0.41698185   -2.7349176    0.6248473   -2.1100703   0.12635093    11369.271     1000 
  798000   0.41192329   -2.7628549   0.61726705   -2.1455878   0.12463783    11378.707     1000 
  800000   0.40307328   -2.7199863   0.60400531    -2.115981    0.1331996    11243.221     1000 
  802000   0.41355713    -2.706108   0.61971536   -2.0863926   0.12502951    11207.263     1000 
  804000    0.4050308   -2.6954842   0.60693865   -2.0885456    0.1171633    11293.247     1000 
  806000   0.40268837    -2.718298   0.60342852   -2.1148695   0.13949886    11196.207     1000 
  808000   0.41330867   -2.7410158   0.61934304   -2.1216728   0.13626005    11254.096     1000 
  810000   0.43359352   -2.7351989   0.64973989   -2.0854591   0.13289478    11219.815     1000 
  812000   0.39567582   -2.7414561   0.59292021   -2.1485359   0.14202416    11181.501     1000 
  814000   0.41434089   -2.7223727   0.62088982   -2.1014828   0.11790418    11265.894     1000 
  816000   0.39600791   -2.6885839   0.59341785    -2.095166   0.13928764    11221.153     1000 
  818000   0.40536801   -2.7769371   0.60744396   -2.1694931    0.1327624    11247.722     1000 
  820000   0.42359193   -2.7135356    0.6347525   -2.0787831   0.12734017    11240.047     1000 
  822000   0.39447128   -2.7613801   0.59111521   -2.1702649   0.12089537    11367.785     1000 
  824000   0.41602074     -2.73041   0.62340708    -2.107003    0.1213293    11343.885     1000 
  826000   0.40951115   -2.7172047   0.61365245   -2.1035523     0.139463    11179.992     1000 
  828000   0.40353082   -2.7635477   0.60469093   -2.1588568   0.12439379     11354.03     1000 
  830000   0.42540636     -2.69883   0.63747143   -2.0613586   0.12927422    11142.003     1000 
  832000     0.403119   -2.7495747   0.60407383   -2.1455009   0.11818387    11438.638     1000 
  834000   0.40512069   -2.7247908   0.60707335   -2.1177175   0.13133134    11237.858     1000 
  836000   0.40603573   -2.6770015   0.60844454    -2.068557   0.12834908    11215.618     1000 
  838000   0.39186742   -2.7378885   0.58721333   -2.1506752   0.12227622    11354.857     1000 
  840000   0.42499684   -2.7540693   0.63685776   -2.1172115   0.12929104     11177.07     1000 
  842000   0.40473774    -2.718789    0.6064995   -2.1122895   0.11134982     11370.37     1000 
  844000   0.41098938   -2.7631329   0.61586758   -2.1472653   0.13403248    11243.755     1000 
  846000   0.40737862   -2.7523642   0.61045686   -2.1419073   0.12591367    11324.025     1000 
  848000   0.38267997   -2.7180912   0.57344594   -2.1446453   0.13566475    11299.235     1000 
  850000   0.40447837   -2.7370287   0.60611084   -2.1309179   0.13696877    11181.222     1000 
  852000   0.40114362   -2.7324606   0.60111371   -2.1313469   0.12766882    11253.839     1000 
  854000   0.39098423   -2.7475272   0.58588987   -2.1616374   0.14400924    11177.983     1000 
  856000   0.41485307    -2.727002   0.62165733   -2.1053446   0.14524306    11239.042     1000 
  858000   0.42353596   -2.7449903   0.63466864   -2.1103216   0.13274832     11249.51     1000 
  860000   0.41403074   -2.6854261   0.62042506    -2.065001   0.13884085    11150.233     1000 
  862000   0.43118388   -2.7657433   0.64612905   -2.1196143   0.12289862    11285.861     1000 
  864000   0.40135464   -2.7527827   0.60142993   -2.1513528   0.13461449    11182.898     1000 
  866000   0.41161701   -2.7615958   0.61680809   -2.1447877   0.13371644     11189.57     1000 
  868000   0.41791788   -2.7397041   0.62624995   -2.1134541   0.12517447     11275.29     1000 
  870000   0.41623947   -2.6802484   0.62373485   -2.0565136   0.12757904     11190.83     1000 
  872000   0.39589321   -2.7424621   0.59324598   -2.1492161      0.12721    11165.754     1000 
  874000   0.43037598   -2.6897296   0.64491841   -2.0448112   0.13010937    11172.447     1000 
  876000   0.38851138   -2.7359146   0.58218431   -2.1537303   0.11654456    11273.782     1000 
  878000   0.41607141   -2.7080228   0.62348301   -2.0845398   0.13112001    11104.787     1000 
  880000   0.42247505   -2.7103857   0.63307886   -2.0773068   0.12667224    11271.569     1000 
  882000   0.41112702   -2.7073397   0.61607384   -2.0912658   0.13368681    11298.271     1000 
  884000    0.4248126   -2.7352133   0.63658167   -2.0986316   0.13250695    11270.196     1000 
  886000   0.41507411   -2.7127372   0.62198855   -2.0907487   0.13100737    11277.832     1000 
  888000   0.39308225    -2.737709   0.58903375   -2.1486752   0.11279433    11362.785     1000 
  890000   0.42075567   -2.7217548   0.63050237   -2.0912524   0.12077556    11212.766     1000 
  892000   0.40652132   -2.7309925    0.6091722   -2.1218203   0.11853483    11216.854     1000 
  894000   0.41516762   -2.6936919   0.62212868   -2.0715632   0.13281557    11142.197     1000 
  896000   0.41606555   -2.6628387   0.62347423   -2.0393645   0.13254641    11072.368     1000 
  898000   0.38746377   -2.6927452   0.58061447   -2.1121308   0.12878758    11095.133     1000 
  900000   0.41019791   -2.7316413   0.61468156   -2.1169597   0.13114507    11253.517     1000 
  902000   0.39791568   -2.7326099   0.59627665   -2.1363333   0.12924995    11238.605     1000 
  904000   0.39816173   -2.6864389   0.59664536   -2.0897935    0.1357117    11238.005     1000 
  906000   0.43009477   -2.7542936   0.64449701   -2.1097966   0.12714999    11237.819     1000 
  908000   0.40848624   -2.6617004   0.61211664   -2.0495838   0.13113431    11098.261     1000 
  910000   0.42965678   -2.7058701   0.64384068   -2.0620294   0.12389305    11269.357     1000 
  912000    0.3962292   -2.7305858   0.59374946   -2.1368363   0.12457256    11195.611     1000 
  914000    0.4254408   -2.7263359   0.63752304   -2.0888129   0.12527042    11296.045     1000 
  916000   0.40615725   -2.7664774   0.60862663   -2.1578507   0.12128536    11307.278     1000 
  918000   0.40974705   -2.7448704   0.61400596   -2.1308644    0.1394059    11239.518     1000 
  920000   0.40766824   -2.6826731   0.61089085   -2.0717822    0.1286384     11212.28     1000 
  922000   0.40726874   -2.7385418    0.6102922   -2.1282496   0.10689071    11411.382     1000 
  924000   0.41025465   -2.6717185   0.61476659   -2.0569519   0.13343959    11102.035     1000 
  926000    0.4171373   -2.7173108   0.62508024   -2.0922306     0.125843     11289.77     1000 
  928000   0.41207407   -2.7490905   0.61749299   -2.1315975   0.13382681    11186.347     1000 
  930000   0.41565507   -2.6827893   0.62285912   -2.0599301   0.13528251    11207.288     1000 
  932000   0.40975993   -2.7481616   0.61402525   -2.1341364   0.12499693    11323.887     1000 
  934000   0.42129673   -2.7150793   0.63131316   -2.0837661   0.13510445    11164.064     1000 
  936000   0.41214013   -2.7545872   0.61759199   -2.1369953   0.11793594    11317.114     1000 
  938000   0.39830926   -2.7364412   0.59686643   -2.1395748   0.12011858    11294.499     1000 
  940000   0.41709097   -2.7063235   0.62501083   -2.0813126   0.13388456    11203.238     1000 
  942000   0.40322919   -2.7587484   0.60423895   -2.1545094   0.13414181    11242.094     1000 
  944000   0.39978355   -2.7451305   0.59907565   -2.1460548   0.12168159    11299.702     1000 
  946000   0.42140127   -2.6886518   0.63146981    -2.057182   0.13205397    11188.846     1000 
  948000    0.3926215   -2.7490681   0.58834332   -2.1607248   0.13399389     11273.29     1000 
  950000   0.40842435   -2.7078856   0.61202389   -2.0958617   0.13578975    11289.123     1000 
  952000   0.42211481   -2.8182921   0.63253904   -2.1857531   0.10842173    11388.903     1000 
  954000   0.41149975   -2.7589176   0.61663238   -2.1422852   0.12373651    11305.704     1000 
  956000   0.42295598    -2.763164   0.63379954   -2.1293644   0.12770491    11318.161     1000 
  958000   0.41327311   -2.7428799   0.61928976   -2.1235901   0.12233715     11327.35     1000 
  960000   0.42027156   -2.6961558   0.62977693   -2.0663788   0.13241297    11255.857     1000 
  962000   0.40680915    -2.721164   0.60960351   -2.1115605   0.13486675    11152.339     1000 
  964000   0.42451254   -2.7449547   0.63613204   -2.1088226   0.13990648     11305.85     1000 
  966000   0.39598298   -2.6912933    0.5933805   -2.0979128   0.13290371    11273.325     1000 
  968000   0.41200007   -2.7142082    0.6173821   -2.0968261   0.11647144     11214.41     1000 
  970000   0.40759913   -2.7686114   0.61078729   -2.1578241   0.11542414    11374.034     1000 
  972000   0.40636986   -2.7030157   0.60894524   -2.0940705    0.1233395    11331.971     1000 
  974000   0.39956425   -2.7269156   0.59874702   -2.1281686   0.14085586    11256.659     1000 
  976000   0.42786199   -2.7644454    0.6411512   -2.1232942   0.14223564    11153.538     1000 
  978000   0.41122677   -2.7251173   0.61622332    -2.108894   0.13256379     11100.99     1000 
  980000   0.40716086   -2.7048676   0.61013055    -2.094737   0.12559289    11194.933     1000 
  982000   0.42676487   -2.7083184   0.63950716   -2.0688112   0.13515709    11227.175     1000 
  984000   0.39819719   -2.7502707    0.5966985   -2.1535722    0.1314081    11231.152     1000 
  986000   0.39561979   -2.7141978   0.59283625   -2.1213616   0.12622488    11382.012     1000 
  988000   0.40784721   -2.7471194   0.61115904   -2.1359603   0.13661019    11283.303     1000 
  990000    0.3934258   -2.7267065   0.58954855    -2.137158   0.12775172    11145.606     1000 
  992000   0.40595517   -2.7751247   0.60832383   -2.1668009   0.11739216    11325.387     1000 
  994000   0.40486945   -2.7182805   0.60669688   -2.1115837   0.13151734    11177.548     1000 
  996000   0.41949034   -2.7255744   0.62860627   -2.0969681   0.13104688    11245.842     1000 
  998000    0.3945509   -2.7194307   0.59123452   -2.1281962   0.12936528    11167.651     1000 
 1000000   0.38545702   -2.6568673   0.57760735   -2.0792599   0.12949124    11065.532     1000 
 1002000   0.37610328    -2.708522   0.56359077   -2.1449312   0.13218206    11264.598     1000 
 1004000   0.40049788   -2.7090784   0.60014608   -2.1089323   0.11984986    11218.237     1000 
 1006000   0.39893384   -2.7690947   0.59780236   -2.1712924   0.13667182    11220.558     1000 
 1008000   0.43240679   -2.7319326   0.64796158   -2.0839711    0.1209315    11272.816     1000 
 1010000    0.4127773   -2.7414567   0.61854678   -2.1229099   0.12643162    11357.713     1000 
 1012000   0.42279708   -2.7190534   0.63356142    -2.085492    0.1380744    11306.339     1000 
 1014000   0.42699338    -2.713239   0.63984958   -2.0733894   0.13462432    11197.346     1000 
 1016000   0.40425226   -2.6934767   0.60577202   -2.0877047   0.13362414    11172.193     1000 
 1018000   0.40648817   -2.6884504   0.60912252   -2.0793279   0.12116685    11236.292     1000 
 1020000   0.39668695    -2.723751   0.59443539   -2.1293156   0.12937063    11257.231     1000 
 1022000   0.39996732   -2.7563899   0.59935103   -2.1570389   0.13160265    11191.329     1000 
 1024000   0.40367687   -2.7671332    0.6049098   -2.1622234   0.11937238    11420.794     1000 
 1026000   0.41892194   -2.7197461   0.62775453   -2.0919915   0.14606657    11171.017     1000 
 1028000    0.4086362   -2.7190109   0.61234135   -2.1066695   0.12465424    11216.865     1000 
 1030000   0.41070572   -2.7366297   0.61544251   -2.1211872    0.1222638     11323.41     1000 
 1032000   0.39904502   -2.7542982   0.59796897   -2.1563293   0.14394201    11038.635     1000 
 1034000   0.41274892   -2.6973171   0.61850426   -2.0788128   0.12014673    11272.401     1000 
 1036000   0.41350385   -2.7133182   0.61963552   -2.0936827   0.12020009    11247.808     1000 
 1038000   0.38942542   -2.7419352   0.58355399   -2.1583813    0.1341723    11202.205     1000 
 1040000   0.42422905   -2.7559248   0.63570723   -2.1202176   0.12767267    11182.178     1000 
 1042000   0.40944529   -2.7289113   0.61355377   -2.1153575    0.1221965    11394.509     1000 
 1044000   0.40266203    -2.740731   0.60338905   -2.1373419   0.13604448    11212.849     1000 
 1046000   0.40527875   -2.7501886   0.60731021   -2.1428784   0.12073353    11236.547     1000 
 1048000   0.41306791   -2.7202509   0.61898227   -2.1012687   0.13544881    11216.038     1000 
 1050000   0.40592701   -2.7310612   0.60828162   -2.1227795   0.12679175    11235.901     1000 
 1052000   0.40174109   -2.7554366   0.60200902   -2.1534276   0.12109483    11371.148     1000 
 1054000   0.41118693   -2.6768381   0.61616361   -2.0606745   0.13226533    11164.917     1000 
 1056000   0.40630302   -2.7126941   0.60884508    -2.103849   0.11072112    11229.011     1000 
 1058000   0.40165061   -2.6989739   0.60187343   -2.0971005   0.12818162    11227.624     1000 
 1060000   0.40563196   -2.7881107    0.6078395   -2.1802712   0.12718927    11253.284     1000 
 1062000     0.413828    -2.733569   0.62012126   -2.1134478   0.12344734    11349.206     1000 
 1064000   0.41810536   -2.7427115   0.62653088   -2.1161807    0.1235868    11390.137     1000 
 1066000   0.39653845   -2.7233822   0.59421287   -2.1291694   0.13368728     11260.53     1000 
 1068000   0.40793997   -2.7410159   0.61129804   -2.1297179    0.1309764    11248.506     1000 
 1070000   0.41928035   -2.7498012   0.62829161   -2.1215096    0.1208612    11291.023     1000 
 1072000   0.40286787   -2.7613883   0.60369751   -2.1576908   0.14353404    11234.575     1000 
 1074000    0.4109845   -2.6990782   0.61586028   -2.0832179   0.12716035    11273.021     1000 
 1076000   0.40553292   -2.6820821   0.60769108    -2.074391   0.13216764    11162.379     1000 
 1078000   0.41194352    -2.688547   0.61729736   -2.0712496   0.12973847    11150.932     1000 
 1080000   0.39261293   -2.7218609   0.58833047   -2.1335304   0.13933805    11165.263     1000 
 1082000   0.41820089   -2.7290033   0.62667403   -2.1023292   0.13982194    11159.275     1000 
 1084000   0.42246852   -2.7362911   0.63306907    -2.103222   0.13653239    11129.702     1000 
 1086000   0.41676908   -2.6927797   0.62452847   -2.0682513   0.13080397    11170.427     1000 
 1088000   0.41871078   -2.7241619    0.6274381   -2.0967238   0.13499519    11195.182     1000 
 1090000    0.4150227   -2.7137848   0.62191151   -2.0918733   0.13087738    11239.511     1000 
 1092000   0.39080815   -2.7433144   0.58562601   -2.1576884   0.11736918    11211.112     1000 
 1094000   0.42566609    -2.716223   0.63786064   -2.0783624   0.12797256    11268.748     1000 
 1096000   0.41944744   -2.7027065   0.62854198   -2.0741645   0.11818194    11267.741     1000 
 1098000   0.41877274   -2.7416848   0.62753095   -2.1141538   0.13856611     11162.71     1000 
 1100000   0.42437236   -2.7234162   0.63592199   -2.0874942   0.11526306    11226.904     1000 
 1102000   0.40279766   -2.7395476   0.60359229   -2.1359553   0.12162963     11300.54     1000 
 1104000   0.40205725   -2.7395994   0.60248279   -2.1371166   0.13126582    11259.493     1000 
 1106000   0.39695114   -2.7075613   0.59483128     -2.11273   0.13453725    11232.733     1000 
 1108000   0.38885955   -2.7223919   0.58270604   -2.1396858   0.12764629    11263.456     1000 
 1110000   0.40999324    -2.713074   0.61437487   -2.0986991   0.12958182    11291.827     1000 
 1112000   0.41220753   -2.6819108   0.61769299   -2.0642178   0.12062242    11323.808     1000 
 1114000   0.42553901   -2.7494177   0.63767021   -2.1117475   0.13498893    11217.657     1000 
 1116000   0.43072176   -2.7468996   0.64543656    -2.101463   0.12018591    11363.471     1000 
 1118000   0.42080117   -2.7790375   0.63057055    -2.148467   0.11464834    11502.573     1000 
 1120000   0.40722721   -2.7469473   0.61022997   -2.1367173   0.12423939    11364.887     1000 
 1122000   0.42675132   -2.7478664   0.63948685   -2.1083795   0.12993306    11299.667     1000 
 1124000   0.41771184   -2.7948621    0.6259412   -2.1689209   0.13713157    11333.934     1000 
 1126000   0.41652714   -2.7636634   0.62416593   -2.1394975   0.13179062    11305.231     1000 
 1128000   0.41795302   -2.7235157    0.6263026   -2.0972131    0.1359221    11126.265     1000 
 1130000   0.42021239   -2.7225858   0.62968827   -2.0928975   0.12588305    11226.578     1000 
 1132000   0.42297851   -2.7389147    0.6338333   -2.1050814   0.14362142    11297.861     1000 
 1134000   0.39744076   -2.7002374   0.59556497   -2.1046725   0.13577734    11242.937     1000 
 1136000   0.41257688   -2.7633228   0.61824645   -2.1450763    0.1266391     11307.23     1000 
 1138000   0.40996121   -2.7595419   0.61432687    -2.145215   0.11982533    11280.613     1000 
 1140000   0.40217021    -2.701339   0.60265206   -2.0986869   0.14357692    11214.389     1000 
 1142000    0.4299654   -2.7313529   0.64430316   -2.0870497    0.1182121    11329.778     1000 
 1144000   0.39944094   -2.7569967   0.59856225   -2.1584345   0.11993581    11412.531     1000 
 1146000   0.41810022   -2.7456915   0.62652318   -2.1191684   0.11729973    11260.004     1000 
 1148000   0.40320805   -2.7185265   0.60420727   -2.1143193   0.12135319    11299.499     1000 
 1150000   0.39496869    -2.730485   0.59186059   -2.1386244    0.1212737    11255.765     1000 
 1152000   0.41022213   -2.7572168   0.61471786    -2.142499   0.12479559    11282.045     1000 
 1154000   0.41955258   -2.8109119   0.62869954   -2.1822123   0.11586809    11333.873     1000 
 1156000   0.39901266    -2.744052   0.59792047   -2.1461315   0.11592354    11348.567     1000 
 1158000   0.39157534   -2.7405899   0.58677565   -2.1538142   0.13430626    11287.573     1000 
 1160000   0.41778919   -2.7584578    0.6260571   -2.1324007   0.11985841    11350.415     1000 
 1162000   0.41477372    -2.742021   0.62153843   -2.1204825   0.12944237    11275.632     1000 
 1164000    0.4157334   -2.7162796    0.6229765   -2.0933031   0.12854238    11268.752     1000 
 1166000   0.41295991   -2.7172837   0.61882043   -2.0984632    0.1390832    11245.764     1000 
 1168000    0.4098095   -2.7556957   0.61409953   -2.1415962   0.12655042    11388.084     1000 
 1170000   0.40892974   -2.7364619   0.61278122   -2.1236807   0.11744189    11329.743     1000 
 1172000   0.39542866    -2.763347   0.59254984   -2.1707972   0.11441822    11363.108     1000 
 1174000   0.42832858   -2.7161628   0.64185038   -2.0743124    0.1384261    11149.429     1000 
 1176000   0.41855427   -2.7405035   0.62720358   -2.1132999   0.14750798    11101.997     1000 
 1178000   0.43135798   -2.7158682   0.64638994   -2.0694783   0.12951142    11246.183     1000 
 1180000   0.39918955   -2.7355313   0.59818555   -2.1373457   0.12625529    11234.209     1000 
 1182000    0.4131737   -2.7240085   0.61914079   -2.1048677    0.1356494    11276.328     1000 
 1184000   0.42657932   -2.7375102   0.63922911   -2.0982811   0.13497866    11163.065     1000 
 1186000   0.40026418    -2.738869   0.59979588   -2.1390731   0.12749418    11355.233     1000 
 1188000   0.41069235   -2.7295714   0.61542249   -2.1141489   0.12797586     11262.59     1000 
 1190000   0.40036877   -2.7354049   0.59995261   -2.1354523   0.12190241    11226.686     1000 
 1192000   0.41683356   -2.6885217   0.62462509   -2.0638966   0.13580612    11146.714     1000 
 1194000   0.39234934   -2.7798784   0.58793548    -2.191943   0.11894884    11372.448     1000 
 1196000   0.42061327   -2.7006174   0.63028899   -2.0703284   0.13605457    10986.635     1000 
 1198000   0.43139349   -2.7502799   0.64644315   -2.1038368   0.11639324    11246.424     1000 
 1200000   0.40189954   -2.6757687   0.60224647   -2.0735222   0.10861786    11375.515     1000 
 1202000   0.40978796   -2.7283601   0.61406725   -2.1142928   0.12395736     11338.61     1000 
 1204000   0.39503841   -2.7507243   0.59196506   -2.1587592   0.11934736    11271.844     1000 
 1206000   0.40767684   -2.7350278   0.61090374   -2.1241241   0.11915218    11278.556     1000 
 1208000   0.42075978   -2.7594106   0.63050854   -2.1289021   0.12926958    11305.864     1000 
 1210000   0.41849663   -2.7262837    0.6271172   -2.0991665   0.12756725    11296.212     1000 
 1212000   0.41993463   -2.7469353   0.62927204   -2.1176632   0.12490005    11223.509     1000 
 1214000   0.41315102   -2.6701519   0.61910681   -2.0510451   0.13550505    11184.424     1000 
 1216000   0.40742032   -2.7630381   0.61051935   -2.1525188   0.12713614    11297.273     1000 
 1218000   0.40925412   -2.7519807   0.61326729   -2.1387135   0.14439071    11163.708     1000 
 1220000   0.42873682   -2.7167402   0.64246213   -2.0742781    0.1434131     11249.22     1000 
 1222000   0.42114809   -2.7505032   0.63109042   -2.1194128   0.12446321    11313.107     1000 
 1224000   0.38255354   -2.7037931   0.57325648   -2.1305366   0.13224969    11232.593     1000 
 1226000   0.41385741   -2.7053285   0.62016533   -2.0851632   0.13360051    11211.807     1000 
 1228000   0.41721583   -2.7181737   0.62519793   -2.0929758   0.12138543    11450.182     1000 
 1230000   0.40801076   -2.7360999   0.61140413   -2.1246957   0.12167924    11333.017     1000 
 1232000   0.42060314   -2.7123581    0.6302738   -2.0820843   0.12194581    11267.852     1000 
 1234000   0.39705585   -2.7406739   0.59498819   -2.1456857   0.12291496    11333.109     1000 
 1236000   0.41161656   -2.7140326   0.61680742   -2.0972252   0.13044177    11108.136     1000 
 1238000   0.38928629   -2.7389171   0.58334551   -2.1555716   0.12083361    11331.691     1000 
 1240000   0.41325463   -2.7353042   0.61926206   -2.1160421   0.12898879    11243.234     1000 
 1242000   0.41937557   -2.7237784    0.6284343   -2.0953441   0.13291293    11283.944     1000 
 1244000   0.41694299   -2.7533922   0.62478907   -2.1286031   0.14201763    11155.926     1000 
 1246000   0.40778052   -2.7305297   0.61105911   -2.1194706   0.13416393    11164.293     1000 
 1248000   0.40922253   -2.7566813   0.61321996   -2.1434613   0.13121089    11250.992     1000 
 1250000   0.41824374   -2.6865988   0.62673824   -2.0598605   0.13585933    11160.001     1000 
 1252000   0.41610817   -2.7547068   0.62353809   -2.1311687   0.13045041    11322.875     1000 
 1254000   0.40652077   -2.7184399   0.60917137   -2.1092685   0.14569758    10998.952     1000 
 1256000   0.37725678   -2.7604298   0.56531929   -2.1951105    0.1159027    11390.503     1000 
 1258000   0.41121907   -2.7401312   0.61621178   -2.1239195   0.13424696    11306.787     1000 
 1260000   0.40962894   -2.7168586   0.61382897   -2.1030296   0.13513888    11140.295     1000 
 1262000   0.42162534   -2.7317217   0.63180557   -2.0999161   0.13082459    11247.911     1000 
 1264000   0.40052689   -2.7349805   0.60018954    -2.134791   0.13741467    11210.657     1000 
 1266000    0.4258419   -2.7283891   0.63812409    -2.090265    0.1268209    11165.984     1000 
 1268000    0.4131891   -2.7381648   0.61916387    -2.119001   0.13162037    11329.737     1000 
 1270000   0.40146466   -2.7479703    0.6015948   -2.1463755    0.1401391    11209.503     1000 
 1272000   0.39189538   -2.7179852   0.58725522   -2.1307299   0.13656472    11066.278     1000 
 1274000   0.41683822   -2.6997477   0.62463207   -2.0751156   0.13601168    11106.512     1000 
 1276000   0.39699768   -2.7123368   0.59490102   -2.1174358   0.12761425    11101.953     1000 
 1278000   0.41350222    -2.751078   0.61963307   -2.1314449   0.11887931    11269.177     1000 
 1280000   0.40510035     -2.70027   0.60704287   -2.0932271   0.14302505    11170.175     1000 
 1282000   0.41684534   -2.7801243   0.62464274   -2.1554816   0.13752004    11342.767     1000 
 1284000   0.40763858   -2.7196182   0.61084641   -2.1087718   0.13731935    11199.986     1000 
 1286000   0.43281692   -2.7490211   0.64857616    -2.100445   0.13608277    11127.472     1000 
 1288000   0.42046374   -2.7099582   0.63006491   -2.0798933   0.14249141    11121.576     1000 
 1290000   0.39901285   -2.6894963   0.59792075   -2.0915755   0.12650342    11110.945     1000 
 1292000   0.40611632   -2.7371164   0.60856531   -2.1285511   0.11255332    11416.288     1000 
 1294000   0.40553794   -2.7063953    0.6076986   -2.0986967   0.12974053    11127.659     1000 
 1296000   0.39501926   -2.7550466   0.59193636   -2.1631102   0.13091225     11298.88     1000 
 1298000   0.40104433   -2.7229191   0.60096493   -2.1219542   0.13077835     11214.99     1000 
 1300000   0.40674694   -2.7461659   0.60951029   -2.1366556   0.13169627     11240.82     1000 
 1302000   0.42896358   -2.6912991   0.64280193   -2.0484972   0.14500725    11118.811     1000 
 1304000   0.41765556   -2.6970964   0.62585685   -2.0712395    0.1403025    11238.358     1000 
 1306000   0.41960065   -2.7291433   0.62877157   -2.1003717   0.13012658    11290.681     1000 
 1308000   0.42301697   -2.7834876   0.63389093   -2.1495966   0.14012073    11208.738     1000 
 1310000   0.40104019     -2.73135   0.60095873   -2.1303913   0.14398336    11226.584     1000 
 1312000   0.41520215   -2.6924038   0.62218042   -2.0702234   0.12397026    11183.401     1000 
 1314000   0.41394893   -2.7107758   0.62030247   -2.0904734    0.1405234    11267.817     1000 
 1316000   0.40126765   -2.7461291   0.60129958   -2.1448295   0.12864455    11216.467     1000 
 1318000   0.40008205   -2.6812229   0.59952295      -2.0817   0.13467594    11199.028     1000 
 1320000   0.41886791   -2.7178831   0.62767356   -2.0902096   0.13810046    11094.676     1000 
 1322000   0.42056724   -2.7114709   0.63022001   -2.0812509   0.13590701    11119.638     1000 
 1324000   0.40884025   -2.6969733   0.61264711   -2.0843262   0.13235369    11189.915     1000 
 1326000   0.41411849   -2.7565254   0.62055656   -2.1359688   0.12390155    11330.118     1000 
 1328000   0.41882521   -2.7299815   0.62760957    -2.102372   0.13043765    11173.669     1000 
 1330000   0.40539451   -2.7577513   0.60748368   -2.1502677   0.11315299    11292.733     1000 
 1332000   0.41241627   -2.6787652   0.61800578   -2.0607595   0.11233866    11217.629     1000 
 1334000      0.42595   -2.6716547   0.63828607   -2.0333686   0.13244363    11240.821     1000 
 1336000   0.40085504   -2.7349745   0.60068128   -2.1342932   0.13734258    11221.404     1000 
 1338000   0.41717768   -2.7656323   0.62514076   -2.1404915   0.12582435    11432.237     1000 
 1340000   0.40848381   -2.7376731   0.61211299   -2.1255601   0.14817849    11225.714     1000 
 1342000   0.40359896   -2.7005167   0.60479304   -2.0957237   0.13908239    11214.751     1000 
 1344000   0.41616028   -2.7122225   0.62361618   -2.0886063   0.13334356     11188.88     1000 
 1346000   0.40952581    -2.697451   0.61367443   -2.0837765   0.13213718    11205.122     1000 
 1348000   0.40058184   -2.7370598   0.60027188   -2.1367879   0.12264626    11227.443     1000 
 1350000   0.40617656   -2.7336899   0.60865557   -2.1250343   0.12782428    11205.168     1000 
 1352000   0.41240004   -2.7554294   0.61798146    -2.137448   0.12533098    11222.736     1000 
 1354000   0.40815926   -2.7240848   0.61162665   -2.1124581   0.12322081    11273.274     1000 
 1356000   0.41031806   -2.7657117   0.61486162   -2.1508501   0.12460142     11174.45     1000 
 1358000   0.41220285   -2.6961474   0.61768597   -2.0784615   0.13687286    11203.711     1000 
 1360000   0.40797481   -2.7000969   0.61135025   -2.0887467   0.13000289    11265.767     1000 
 1362000   0.40773645   -2.7149571   0.61099307   -2.1039641   0.13002984    11145.059     1000 
 1364000   0.41284192   -2.6984532   0.61864361   -2.0798096   0.12386018    11099.264     1000 
 1366000   0.41225997   -2.7236952   0.61777157   -2.1059237   0.13724215    11172.203     1000 
 1368000   0.38802141    -2.741671   0.58145009   -2.1602209   0.12676609    11177.518     1000 
 1370000   0.40398629   -2.7233034   0.60537346   -2.1179299   0.12971238    11351.024     1000 
 1372000   0.40729953     -2.72512   0.61033835   -2.1147817   0.11728288    11340.291     1000 
 1374000   0.42606978   -2.7343768   0.63846557   -2.0959112    0.1189226     11313.46     1000 
 1376000   0.40759709    -2.749358   0.61078423   -2.1385738   0.12879174    11319.361     1000 
 1378000   0.40575421   -2.7029535   0.60802268   -2.0949308   0.14304673    11136.872     1000 
 1380000   0.41185779   -2.7606428    0.6171689   -2.1434739   0.11615399    11474.097     1000 
 1382000   0.41088277   -2.7246711   0.61570783   -2.1089633   0.13543907    11231.322     1000 
 1384000   0.42763181   -2.7498567   0.64080627   -2.1090504   0.13260452    11399.175     1000 
 1386000   0.41803042   -2.7392872   0.62641859   -2.1128686    0.1431002    11246.895     1000 
 1388000   0.39448207   -2.7348005   0.59113138   -2.1436691    0.1474039    11096.062     1000 
 1390000   0.40278638   -2.7372847   0.60357538   -2.1337094   0.13804237    11189.041     1000 
 1392000   0.40160285   -2.7112455   0.60180187   -2.1094436   0.10800379    11372.357     1000 
 1394000   0.42248159   -2.7467229   0.63308866   -2.1136343   0.13034068    11236.615     1000 
 1396000   0.40979504   -2.7278468   0.61407787   -2.1137689   0.12512004     11188.46     1000 
 1398000   0.41933621   -2.7367286    0.6283753   -2.1083533   0.12444269    11369.005     1000 
 1400000   0.41591426   -2.7105056   0.62324752   -2.0872581   0.13457109      11250.2     1000 
 1402000   0.41482456   -2.7388426   0.62161461    -2.117228   0.12707855     11224.98     1000 
 1404000   0.42493012   -2.7160403   0.63675779   -2.0792825   0.13268327    11372.142     1000 
 1406000   0.40748501   -2.7504383   0.61061629    -2.139822    0.1215406    11274.254     1000 
 1408000   0.40128742   -2.7752856    0.6013292   -2.1739564   0.12105006    11294.934     1000 
 1410000    0.4076043   -2.7407203   0.61079504   -2.1299253   0.12775029    11245.973     1000 
 1412000   0.39376466   -2.7707004   0.59005635   -2.1806441   0.11096145    11407.457     1000 
 1414000   0.41652662    -2.739305   0.62416514   -2.1151399   0.11252082    11294.979     1000 
 1416000   0.40747432   -2.7213619   0.61060027   -2.1107616   0.14371657    11231.152     1000 
 1418000   0.41192429   -2.7277669   0.61726855   -2.1104984   0.14894225    11071.055     1000 
 1420000   0.41309651   -2.7224292   0.61902512   -2.1034041   0.14233168    11181.601     1000 
 1422000   0.40111253   -2.6973534   0.60106713   -2.0962862   0.14564573    11124.801     1000 
 1424000   0.40781521   -2.7367954   0.61111109   -2.1256843   0.12299789    11268.933     1000 
 1426000   0.40688745   -2.7284654   0.60972084   -2.1187446   0.13033856    11245.058     1000 
 1428000   0.42691089   -2.7513088   0.63972596   -2.1115828   0.12388631    11196.323     1000 
 1430000   0.40395211   -2.7252315   0.60532223   -2.1199093   0.13340813    11278.918     1000 
 1432000   0.38893755   -2.7105576   0.58282292   -2.1277346   0.13983012     11231.75     1000 
 1434000   0.41502959   -2.6729955   0.62192184   -2.0510737   0.13050307    11247.908     1000 
 1436000   0.40504882    -2.711073   0.60696566   -2.1041073   0.12548173    11309.766     1000 
 1438000   0.40596232   -2.7457115   0.60833454   -2.1373769   0.11883612    11289.408     1000 
 1440000   0.40839008    -2.704553   0.61197253   -2.0925805   0.13804113    11128.756     1000 
 1442000    0.4041805   -2.6950822   0.60566448   -2.0894177   0.13555926     11135.91     1000 
 1444000   0.40387008   -2.7282997   0.60519932   -2.1231004   0.12673939    11202.616     1000 
 1446000   0.40546274   -2.7102891   0.60758592   -2.1027032   0.12128485     11222.83     1000 
 1448000   0.41010015   -2.6810083   0.61453508   -2.0664732   0.12764237    11245.838     1000 
 1450000   0.39531386   -2.6990515   0.59237782   -2.1066736   0.12402615    11191.784     1000 
 1452000   0.39173989   -2.7308786   0.58702222   -2.1438564    0.1373437     11149.24     1000 
 1454000   0.40774882   -2.7356248    0.6110116   -2.1246132   0.12987989    11258.778     1000 
 1456000   0.41226163   -2.6516825   0.61777405   -2.0339085   0.14024296    11008.888     1000 
 1458000   0.40316154   -2.6975507   0.60413756   -2.0934131   0.13158914    11345.778     1000 
 1460000   0.40290974   -2.7673992   0.60376024    -2.163639   0.11190875    11427.438     1000 
 1462000   0.39658222   -2.6719305   0.59427846    -2.077652   0.12222177    11302.444     1000 
 1464000   0.40173742   -2.7555485   0.60200352    -2.153545   0.12625701    11275.378     1000 
 1466000   0.41159418   -2.7108912   0.61677388   -2.0941173   0.13933602    11142.974     1000 
 1468000   0.41735903   -2.7200108    0.6254125   -2.0945982   0.12368095    11263.084     1000 
 1470000   0.38869127   -2.7482778   0.58245387   -2.1658239   0.13303603    11175.192     1000 
 1472000   0.41483338   -2.7320315   0.62162782   -2.1104037   0.11686286    11321.716     1000 
 1474000   0.39219717   -2.7298184   0.58770746   -2.1421109    0.1207627    11142.988     1000 
 1476000   0.41769297   -2.7406727   0.62591292   -2.1147598   0.13693333    11215.395     1000 
 1478000   0.41070261   -2.7373107   0.61543786   -2.1218728   0.11907488    11331.419     1000 
 1480000   0.40764323   -2.7634324   0.61085337    -2.152579   0.12004775    11201.507     1000 
 1482000   0.42275752   -2.7083203   0.63350214   -2.0748181   0.13217111    11290.011     1000 
 1484000   0.41336349   -2.7686584   0.61942518   -2.1492332    0.1171525    11395.447     1000 
 1486000   0.40387147   -2.7206363    0.6052014   -2.1154349   0.12862597    11207.664     1000 
 1488000   0.41834595   -2.7800048   0.62689141   -2.1531134   0.12250639    11329.576     1000 
 1490000   0.40168272   -2.7443418   0.60192155   -2.1424202   0.13620805    11159.406     1000 
 1492000    0.4068364   -2.7226861   0.60964434   -2.1130418   0.11899392    11363.367     1000 
 1494000   0.41930861   -2.7352212   0.62833395   -2.1068872   0.13008578    11318.268     1000 
 1496000   0.42817773   -2.7390316   0.64162433   -2.0974073   0.13837164    11139.381     1000 
 1498000   0.40465427   -2.7332238   0.60637442   -2.1268494   0.14344433    11135.363     1000 
 1500000   0.41443671   -2.7417875   0.62103341   -2.1207541   0.11760961    11272.509     1000 
 1502000    0.4320294   -2.7553547   0.64739605   -2.1079586   0.12485516    11271.004     1000 
 1504000   0.40550863   -2.6962226   0.60765468    -2.088568   0.12572187    11229.072     1000 
 1506000    0.4202116   -2.7185238   0.62968708   -2.0888368   0.12118086    11273.028     1000 
 1508000   0.40726813   -2.7496257    0.6102913   -2.1393344   0.12754187    11319.334     1000 
 1510000    0.4081647   -2.7680061    0.6116348   -2.1563713   0.12545959    11338.785     1000 
 1512000    0.4312981   -2.7224224    0.6463002   -2.0761222   0.12408938    11263.227     1000 
 1514000   0.40273876   -2.7229145   0.60350403   -2.1194105   0.13638958    11236.265     1000 
 1516000   0.43022604   -2.7031678   0.64469371   -2.0584741   0.14218853    11091.566     1000 
 1518000    0.4261083   -2.7323518   0.63852329   -2.0938285   0.13874708    11169.428     1000 
 1520000   0.40347626   -2.6892958   0.60460918   -2.0846866   0.13355562    11245.094     1000 
 1522000   0.38859538   -2.6639443   0.58231018   -2.0816341    0.1464554    11063.895     1000 
 1524000   0.42245555   -2.7227806   0.63304964    -2.089731   0.12419478    11189.082     1000 
 1526000   0.40567739   -2.7001938   0.60790757   -2.0922862   0.13876322    11107.203     1000 
 1528000   0.40325487   -2.7549988   0.60427743   -2.1507213    0.1160674    11380.982     1000 
 1530000   0.39714222   -2.7231845   0.59511762   -2.1280669   0.12323589    11254.003     1000 
 1532000   0.41550452   -2.6993411   0.62263352   -2.0767076    0.1351604    11317.531     1000 
 1534000    0.4150492   -2.7651552   0.62195123   -2.1432039   0.14071449    11236.759     1000 
 1536000   0.43071993   -2.7000346   0.64543381   -2.0546008   0.13797367    11139.418     1000 
 1538000   0.42319892   -2.7328737   0.63416359   -2.0987101   0.14371938    11178.377     1000 
 1540000   0.38787874    -2.650914   0.58123629   -2.0696777   0.14656738    10990.629     1000 
 1542000   0.40842199    -2.737883   0.61202036   -2.1258626   0.11944716     11377.11     1000 
 1544000   0.43038502   -2.7437644   0.64493195   -2.0988324   0.12319869    11428.243     1000 
 1546000   0.39614668    -2.772641   0.59362581   -2.1790152   0.13011567    11208.547     1000 
 1548000   0.40747819    -2.716835   0.61060608   -2.1062289   0.13461053    11220.267     1000 
 1550000   0.40732055   -2.7203129   0.61036984    -2.109943   0.12770781    11203.661     1000 
 1552000   0.40324759   -2.7841737   0.60426651   -2.1799072    0.1295884    11331.583     1000 
 1554000   0.39625277   -2.7388584   0.59378478   -2.1450736   0.12129781    11420.898     1000 
 1556000   0.41622768    -2.704852   0.62371718   -2.0811348   0.11849543     11291.87     1000 
 1558000   0.39277176   -2.7206958   0.58856848   -2.1321273   0.12037214    11320.106     1000 
 1560000   0.39581073   -2.7397859   0.59312238   -2.1466636   0.12548381    11226.414     1000 
 1562000   0.38396276   -2.7184887   0.57536819   -2.1431205   0.12068922    11273.526     1000 
 1564000   0.39349537   -2.7675347   0.58965281   -2.1778819   0.12253334    11280.056     1000 
 1566000   0.40775562   -2.7304646   0.61102179   -2.1194428   0.13492066    11191.334     1000 
 1568000   0.41287181     -2.72545   0.61868841   -2.1067616   0.13405745    11180.416     1000 
 1570000   0.40436131   -2.7358182   0.60593543   -2.1298827   0.12091447    11293.312     1000 
 1572000   0.41911297   -2.7298381   0.62804079   -2.1017973   0.13402874    11132.533     1000 
 1574000   0.42058105   -2.7477917    0.6302407   -2.1175509   0.13942508    11192.734     1000 
 1576000   0.39567642   -2.7268278   0.59292112   -2.1339067   0.12578167    11344.637     1000 
 1578000   0.38315355   -2.7210458   0.57415559   -2.1468902   0.12069486    11358.194     1000 
 1580000   0.41820042   -2.7144343   0.62667333   -2.0877609   0.13615885    11162.102     1000 
 1582000   0.41085098   -2.7007111   0.61566019   -2.0850509   0.12433559    11260.461     1000 
 1584000   0.40607017   -2.6893274   0.60849615   -2.0808313   0.12458828    11162.677     1000 
 1586000   0.42470415   -2.7251498   0.63641917   -2.0887306   0.13830961    11145.561     1000 
 1588000   0.41532636   -2.7589094   0.62236655   -2.1365428   0.12532632     11291.62     1000 
[...]
 2614000   0.41391545   -2.7431192    0.6202523   -2.1228669   0.11997231    11171.312     1000 
 2616000   0.41886205   -2.7456028   0.62766479    -2.117938   0.11995915    11267.749     1000 
 2618000   0.41282757   -2.7117626   0.61862211   -2.0931405   0.14427348    11113.795     1000 
 2620000   0.42573819   -2.6993308   0.63796867   -2.0613621   0.13415259      11141.7     1000 
 2622000   0.40748832   -2.7417138   0.61062124   -2.1310926   0.12869658     11292.49     1000 
 2624000   0.39300624   -2.7260042   0.58891986   -2.1370843    0.1321856    11227.501     1000 
 2626000   0.43013275   -2.7969496   0.64455393   -2.1523957    0.1177992    11391.617     1000 
 2628000   0.41455813    -2.721891   0.62121536   -2.1006757   0.13187738    11246.238     1000 
 2630000   0.41102254    -2.742887   0.61591727   -2.1269697   0.12338998     11307.25     1000 
 2632000   0.42759416   -2.6612847   0.64074984   -2.0205349   0.13083002     11124.67     1000 
 2634000   0.41242095   -2.7234986   0.61801279   -2.1054858   0.11952068    11360.536     1000 
 2636000   0.42281813   -2.7581519   0.63359297    -2.124559     0.130067    11201.486     1000 
 2638000   0.41760264   -2.7219727   0.62577755   -2.0961951   0.13772527    11201.176     1000 
 2640000   0.42380955   -2.7220882    0.6350786   -2.0870096   0.13567142     11154.74     1000 
 2642000   0.39323332   -2.7434128   0.58926013   -2.1541527   0.13459062    11156.707     1000 
 2644000   0.40923727   -2.7558124   0.61324204   -2.1425703   0.13733267    11184.819     1000 
 2646000    0.3927529   -2.7195144   0.58854022   -2.1309742   0.14752694     11162.19     1000 
 2648000   0.41234497   -2.7155689   0.61789894   -2.0976699   0.12530574    11258.511     1000 
 2650000   0.40763138   -2.7448901   0.61083562   -2.1340545   0.13574391    11261.998     1000 
 2652000   0.40651289   -2.7096262   0.60915956   -2.1004667   0.12847117    11184.453     1000 
 2654000   0.39972852   -2.7073413   0.59899319   -2.1083481    0.1402292    11010.599     1000 
 2656000   0.41379394   -2.6814042   0.62007023    -2.061334   0.13687886    11193.349     1000 
 2658000   0.42866425   -2.7227319   0.64235338   -2.0803785   0.14044495    11259.239     1000 
 2660000   0.40023825   -2.7218804   0.59975702   -2.1221234   0.12626381     11237.94     1000 
 2662000   0.39911691   -2.7214201   0.59807669   -2.1233434    0.1254108    11185.681     1000 
 2664000   0.40426827   -2.6925416     0.605796   -2.0867456    0.1368442     11248.34     1000 
 2666000   0.39831446   -2.6718384   0.59687421   -2.0749642   0.13094568    11264.546     1000 
 2668000   0.42485524    -2.761485   0.63664558   -2.1248394   0.11728522    11408.842     1000 
 2670000   0.41634149   -2.7464761   0.62388772   -2.1225884    0.1305037     11353.36     1000 
 2672000   0.41422352   -2.7268531   0.62071395   -2.1061391   0.13801813    11216.799     1000 
 2674000   0.41609666   -2.7223712   0.62352085   -2.0988504   0.12953439    11333.398     1000 
 2676000   0.40534989   -2.7472823   0.60741681   -2.1398655   0.13806061    11160.254     1000 
 2678000   0.42203981   -2.7493899   0.63242665   -2.1169633   0.12526736    11222.801     1000 
 2680000   0.39091874   -2.7303609   0.58579174   -2.1445692   0.12031794    11263.169     1000 
 2682000   0.39859089   -2.7347766   0.59728844   -2.1374882   0.13040151    11245.016     1000 
 2684000   0.40724663   -2.7037684   0.61025907   -2.0935094   0.14582276    10990.605     1000 
 2686000   0.39427428   -2.6719512      0.59082   -2.0811312   0.13749989    11160.152     1000 
 2688000   0.40321105   -2.7274866   0.60421175   -2.1232748   0.12295598    11207.336     1000 
 2690000   0.42078496    -2.730555   0.63054626   -2.1000088   0.12715937    11206.341     1000 
 2692000   0.41048942   -2.7451173    0.6151184   -2.1299989   0.13349211    11169.118     1000 
 2694000   0.43016956   -2.6910039   0.64460909   -2.0463948   0.13946069    11112.806     1000 
 2696000   0.39328497   -2.6979639   0.58933753   -2.1086264   0.13993193    11083.845     1000 
 2698000   0.39713921   -2.6929058   0.59511311   -2.0977927   0.12589322    11162.493     1000 
 2700000   0.41034475   -2.6540641    0.6149016   -2.0391625   0.12010553    11322.261     1000 
 2702000   0.41603082   -2.6974484   0.62342218   -2.0740262    0.1247677    11178.813     1000 
 2704000   0.42014805   -2.7727419   0.62959185     -2.14315   0.12647887    11229.949     1000 
 2706000   0.42665546   -2.7533334   0.63934321   -2.1139902   0.11601532    11458.166     1000 
 2708000   0.41900309   -2.7251405   0.62787613   -2.0972643    0.1508449    11210.715     1000 
 2710000   0.40483859   -2.6935969   0.60665062   -2.0869463   0.14624176    11178.553     1000 
 2712000   0.41126007   -2.7415646   0.61627322   -2.1252914   0.13425232    11211.189     1000 
 2714000   0.40983693   -2.7543722   0.61414064   -2.1402316   0.13557881    11255.766     1000 
 2716000   0.40120951   -2.6857823   0.60121246   -2.0845699   0.11375288    11254.042     1000 
 2718000   0.42263844    -2.747514    0.6333237   -2.1141903   0.12637544    11234.577     1000 
 2720000   0.41637739   -2.7269445   0.62394152    -2.103003   0.12521749    11372.697     1000 
 2722000   0.41078976    -2.732094   0.61556846   -2.1165256   0.11807695    11322.746     1000 
 2724000    0.4120343   -2.7375351   0.61743339   -2.1201017   0.14596893    11159.302     1000 
 2726000   0.40957655    -2.752598   0.61375046   -2.1388476   0.12623446    11216.403     1000 
 2728000   0.40656263   -2.7466841    0.6092341     -2.13745   0.12492845    11291.494     1000 
 2730000   0.41071881   -2.7325895   0.61546213   -2.1171274   0.12746283    11222.537     1000 
 2732000   0.40182902   -2.7434123   0.60214079   -2.1412715    0.1318935    11209.182     1000 
 2734000   0.39713362   -2.7292418   0.59510473   -2.1341371   0.12052054    11305.786     1000 
 2736000   0.39783102   -2.7578343   0.59614979   -2.1616845   0.13208689    11286.353     1000 
 2738000   0.40069793    -2.730291   0.60044585   -2.1298451   0.12864787    11347.868     1000 
 2740000   0.40161583   -2.7556003   0.60182133    -2.153779   0.12587574    11315.776     1000 
 2742000   0.40196492   -2.7444911   0.60234443   -2.1421467   0.11437845    11393.671     1000 
 2744000   0.43472066   -2.7424487   0.65142891   -2.0910198   0.13728653    11114.018     1000 
 2746000   0.41419081   -2.7172768   0.62066492   -2.0966119   0.12039756     11302.51     1000 
 2748000    0.4207881   -2.7534102   0.63055097   -2.1228592   0.12899956    11283.404     1000 
 2750000   0.39942306   -2.7510509   0.59853546   -2.1525155   0.13799145    11198.999     1000 
 2752000   0.41753633   -2.7665201   0.62567819   -2.1408419   0.13006466    11332.202     1000 
 2754000   0.40196023   -2.7348938   0.60233741   -2.1325564   0.12375775    11320.381     1000 
 2756000   0.41476746   -2.7198129   0.62152903   -2.0982839   0.14047758     11264.74     1000 
 2758000   0.41967512   -2.7201816   0.62888317   -2.0912984    0.1238785    11196.226     1000 
 2760000   0.39617943   -2.6989565   0.59367488   -2.1052816   0.13359417    11204.216     1000 
 2762000   0.41039444    -2.743917   0.61497607   -2.1289409   0.13449333    11230.165     1000 
 2764000   0.41647154   -2.7153975    0.6240826   -2.0913149   0.14182356     11199.29     1000 
 2766000   0.42051647   -2.7474973   0.63014392   -2.1173534   0.12684094    11301.307     1000 
 2768000   0.41425449   -2.7432311   0.62076035   -2.1224707   0.13524434    11266.694     1000 
 2770000   0.40798183   -2.7407141   0.61136078   -2.1293533   0.12433583    11246.892     1000 
 2772000   0.39341739   -2.6970716   0.58953596   -2.1075356    0.1274571    11272.885     1000 
 2774000   0.41660601    -2.761161    0.6242841   -2.1368769   0.12780639    11286.009     1000 
 2776000   0.40929176   -2.7649258   0.61332371   -2.1516021   0.12579796    11234.526     1000 
 2778000   0.41252687   -2.7251621   0.61817151   -2.1069906   0.13701308    11226.756     1000 
 2780000   0.39628926   -2.7983514   0.59383945   -2.2045119   0.13151819    11317.605     1000 
 2782000   0.39768779   -2.7481899   0.59593515   -2.1522548   0.13097536     11254.83     1000 
 2784000   0.40126518   -2.7701243   0.60129587   -2.1688285   0.12760301    11418.147     1000 
 2786000   0.40417095   -2.7225311   0.60565017   -2.1168809    0.1248071    11182.763     1000 
 2788000   0.42591369    -2.689707   0.63823167   -2.0514754   0.14124077    11147.392     1000 
 2790000   0.39331333    -2.759741   0.58938002    -2.170361   0.12285868     11366.51     1000 
 2792000   0.41243773     -2.69852   0.61803793   -2.0804821   0.12340313    11370.565     1000 
 2794000   0.40467345   -2.7120732   0.60640317   -2.1056701   0.13277671    11261.504     1000 
 2796000   0.39815624   -2.7134539   0.59663713   -2.1168168   0.12639141    11242.579     1000 
 2798000   0.41491778   -2.7619603    0.6217543    -2.140206   0.11847559    11429.668     1000 
 2800000    0.4198972    -2.728204   0.62921596   -2.0989881   0.14260044    11153.564     1000 
 2802000   0.41011606   -2.7183116   0.61455892   -2.1037527   0.14360975    11166.771     1000 
 2804000   0.42621904    -2.742195   0.63868924   -2.1035058   0.12929913    11198.941     1000 
 2806000   0.40492344   -2.7005236   0.60677778   -2.0937458   0.12486946    11296.224     1000 
 2808000   0.40128682   -2.7108083   0.60132829     -2.10948   0.13186167    11185.139     1000 
 2810000   0.41887533   -2.7146258   0.62768469   -2.0869411    0.1350684    11121.209     1000 
 2812000   0.40897812   -2.7363586   0.61285372   -2.1235049   0.13033011    11246.856     1000 
 2814000   0.38685835    -2.749188   0.57970724   -2.1694808   0.11659793    11313.046     1000 
 2816000   0.40812169   -2.7547738   0.61157036   -2.1432035   0.13527955    11201.084     1000 
 2818000   0.41948669   -2.7670099   0.62860081   -2.1384091   0.12273848    11250.893     1000 
 2820000   0.38607806   -2.7502848   0.57853797   -2.1717468   0.11931872     11296.82     1000 
 2822000   0.39594944   -2.7169874   0.59333024   -2.1236571   0.14279742    11135.259     1000 
 2824000   0.39927686   -2.7147945   0.59831637   -2.1164781      0.13665    11179.056     1000 
 2826000   0.41409711   -2.7568082   0.62052452   -2.1362836   0.12774416    11377.608     1000 
 2828000    0.4163707   -2.7430547    0.6239315   -2.1191232   0.13416793    11166.055     1000 
 2830000   0.40458711   -2.7536294   0.60627379   -2.1473556   0.12268916    11265.693     1000 
 2832000   0.41701237   -2.7418569   0.62489304   -2.1169639   0.13187792     11244.88     1000 
 2834000   0.43151855   -2.7392181   0.64663055   -2.0925875   0.14220115    11226.342     1000 
 2836000   0.41787613   -2.6752746   0.62618739   -2.0490872   0.11913759    11198.195     1000 
 2838000   0.40664074   -2.7406046   0.60935115   -2.1312534   0.12630008    11257.908     1000 
 2840000   0.41270488   -2.7434061   0.61843826   -2.1249679   0.12514571    11311.881     1000 
 2842000   0.41958273   -2.7265927   0.62874472    -2.097848   0.13657762    11204.895     1000 
 2844000    0.4050316   -2.7056329   0.60693986   -2.0986931   0.12598459    11206.303     1000 
 2846000   0.41326868   -2.7373331   0.61928311   -2.1180499   0.12399741    11315.761     1000 
 2848000   0.41175462   -2.6883994   0.61701429   -2.0713851   0.12358261    11243.851     1000 
 2850000   0.41721029   -2.7001863   0.62518962   -2.0749966   0.12528044    11269.325     1000 
 2852000   0.41066965   -2.7273055   0.61538847   -2.1119171   0.12833551    11275.508     1000 
 2854000   0.41489743   -2.7409449    0.6217238   -2.1192211   0.13105281    11280.221     1000 
 2856000   0.41781313   -2.7404242   0.62609298   -2.1143312   0.14350582    11233.708     1000 
 2858000   0.39901085   -2.7603932   0.59791776   -2.1624755   0.12816789    11263.957     1000 
 2860000   0.42548724   -2.7620253   0.63759263   -2.1244327   0.11236759    11418.922     1000 
 2862000   0.42389861   -2.7540625   0.63521207   -2.1188504     0.151145    11107.519     1000 
 2864000    0.4255953   -2.7185163   0.63775456   -2.0807618   0.11958956    11237.629     1000 
 2866000    0.4206711   -2.7825481   0.63037565   -2.1521724   0.12939025    11221.095     1000 
 2868000   0.39107426   -2.7296452   0.58602478   -2.1436204   0.14129382    11123.996     1000 
 2870000   0.40796184    -2.761832   0.61133081   -2.1505012   0.12829603     11409.07     1000 
 2872000   0.42764486   -2.7454711   0.64082582   -2.1046452   0.13130406    11282.985     1000 
 2874000    0.4160634   -2.7407439     0.623471   -2.1172729   0.12159304    11356.082     1000 
 2876000   0.40425834   -2.7451497   0.60578112   -2.1393685   0.12583652    11308.089     1000 
 2878000   0.40154141   -2.7640267    0.6017098   -2.1623169   0.13931104    11267.826     1000 
 2880000   0.41242885   -2.7206726   0.61802463    -2.102648   0.13896728    11189.667     1000 
 2882000    0.4201334   -2.7719032    0.6295699   -2.1423333    0.1239786    11405.652     1000 
 2884000   0.39671974   -2.7332668   0.59448454   -2.1387823   0.13919852    11097.272     1000 
 2886000   0.40728624    -2.697348   0.61031844   -2.0870296   0.12049915    11216.778     1000 
 2888000   0.40733959   -2.7341611   0.61039837   -2.1237627   0.12109785    11286.779     1000 
 2890000   0.41597567   -2.7696499   0.62333954   -2.1463104   0.13570275    11199.757     1000 
 2892000   0.41220006   -2.7038717   0.61768178     -2.08619   0.13158518    11145.543     1000 
 2894000   0.40201309   -2.7447631   0.60241661   -2.1423465   0.12136893    11215.445     1000 
 2896000   0.42074609   -2.7051691   0.63048802   -2.0746811   0.11881192    11199.621     1000 
 2898000   0.42685279   -2.7268991   0.63963891   -2.0872601   0.13117283    11282.262     1000 
 2900000   0.41006886   -2.7675094   0.61448818   -2.1530212   0.13051432    11261.272     1000 
 2902000   0.40894707   -2.6741572   0.61280718     -2.06135   0.14070776    11182.668     1000 
 2904000   0.42107531   -2.7329702   0.63098135   -2.1019889   0.12563698     11290.52     1000 
 2906000   0.39776059   -2.7495582   0.59604424    -2.153514   0.13054658    11192.427     1000 
 2908000   0.40370853   -2.7506602   0.60495723    -2.145703    0.1176704    11344.295     1000 
 2910000   0.41492253   -2.7576575   0.62176141   -2.1358961    0.1371111     11330.41     1000 
 2912000   0.41052012   -2.6976464   0.61516441    -2.082482   0.13044881    11193.497     1000 
 2914000   0.40780892   -2.7294325   0.61110167   -2.1183309   0.12874376     11204.52     1000 
 2916000    0.4117885    -2.713489   0.61706507    -2.096424   0.13164083    11193.335     1000 
 2918000   0.39766902   -2.6986011   0.59590703    -2.102694   0.13433822    11216.829     1000 
 2920000   0.40364407   -2.7130685   0.60486064   -2.1082078   0.13541208    11222.963     1000 
 2922000   0.40402863   -2.7133337    0.6054369   -2.1078968   0.12880717    11172.949     1000 
 2924000   0.40589408    -2.740454   0.60823228   -2.1322217   0.12011092     11452.35     1000 
 2926000    0.4110069    -2.739681   0.61589384   -2.1237872   0.14360857    11110.954     1000 
 2928000   0.41125046     -2.73824   0.61625882   -2.1219812   0.12755647    11285.202     1000 
 2930000   0.40674564   -2.7720451   0.60950834   -2.1625368   0.12512631    11343.896     1000 
 2932000   0.42916715   -2.7163856   0.64310697   -2.0732787   0.12657887    11234.271     1000 
 2934000   0.40489161   -2.7588467   0.60673008   -2.1521166   0.12877513    11357.836     1000 
 2936000   0.40348275   -2.7414673   0.60461891   -2.1368484   0.12769397    11229.797     1000 
 2938000   0.41247012    -2.779042   0.61808648   -2.1609556   0.12390956    11322.293     1000 
 2940000   0.43324672   -2.7454106   0.64922021   -2.0961904   0.14690955    11132.347     1000 
 2942000   0.40815271    -2.712792   0.61161683   -2.1011752   0.14044951    11201.231     1000 
 2944000   0.41043029   -2.7058637   0.61502979   -2.0908339   0.13746597    11172.133     1000 
 2946000   0.41685745   -2.7197176   0.62466089   -2.0950567   0.12061676    11224.863     1000 
 2948000   0.40981661   -2.7339986   0.61411019   -2.1198884    0.1320252    11246.563     1000 
 2950000   0.41806089   -2.7407552   0.62646424    -2.114291   0.13405019    11228.406     1000 
 2952000   0.39861707     -2.76829   0.59732768   -2.1709624   0.12615863    11310.337     1000 
 2954000   0.40242015   -2.7185011    0.6030266   -2.1154745   0.12810512    11328.911     1000 
 2956000   0.42640379   -2.7617218   0.63896608   -2.1227557   0.13117292    11258.011     1000 
 2958000   0.39937636   -2.7563635   0.59846548    -2.157898   0.11705986    11319.465     1000 
 2960000   0.42081824   -2.7309831   0.63059614    -2.100387   0.13374958    11341.381     1000 
 2962000   0.41344725   -2.7465298    0.6195507   -2.1269791   0.11965609    11304.484     1000 
 2964000   0.42102146    -2.730555   0.63090065   -2.0996544    0.1373877    11277.802     1000 
 2966000   0.39682874   -2.7591156   0.59464786   -2.1644678   0.11448995     11366.08     1000 
 2968000   0.43262983   -2.6917355    0.6482958   -2.0434397   0.14399503    11125.067     1000 
 2970000    0.4339156   -2.6831799   0.65022253   -2.0329573   0.12440629    11188.682     1000 
 2972000   0.40967612   -2.6767653   0.61389966   -2.0628656   0.13626492    11206.968     1000 
 2974000   0.42258107   -2.7468202   0.63323774   -2.1135824   0.12154915     11302.82     1000 
 2976000   0.40716798   -2.7269382   0.61014121   -2.1167969   0.12651317    11204.544     1000 
 2978000   0.41881634   -2.7226234   0.62759629   -2.0950271   0.13433585    11136.356     1000 
 2980000   0.40756872   -2.7351806   0.61074173   -2.1244389   0.13098576    11206.826     1000 
 2982000    0.4202621   -2.7330452   0.62976275   -2.1032824   0.12798266    11194.178     1000 
 2984000   0.40963871   -2.7290069   0.61384361   -2.1151633    0.1095485    11273.594     1000 
 2986000    0.3984454   -2.7426285   0.59707043   -2.1455581   0.12494364    11225.998     1000 
 2988000    0.4219588   -2.7140459   0.63230526   -2.0817406   0.13943922    11313.987     1000 
 2990000   0.42259319   -2.7161581   0.63325589   -2.0829022   0.12722552    11174.496     1000 
 2992000   0.42515254   -2.7041553   0.63709108   -2.0670642    0.1207739    11241.074     1000 
 2994000   0.40858224   -2.7200974   0.61226048   -2.1078369   0.13381243    11210.262     1000 
 2996000   0.40860432    -2.743171   0.61229357   -2.1308774   0.12874868     11226.14     1000 
 2998000    0.4235651   -2.7846485    0.6347123   -2.1499362   0.13316482    11246.393     1000 
 3000000   0.43356461   -2.7051183   0.64969657   -2.0554217    0.1437775    11167.052     1000 
Loop time of 3274.08 on 4 procs for 3000000 steps with 1000 atoms

Performance: 395836.021 tau/day, 916.287 timesteps/s
97.4% CPU use with 4 MPI tasks x 1 OpenMP threads

MPI task timing breakdown:
Section |  min time  |  avg time  |  max time  |%varavg| %total
---------------------------------------------------------------
Pair    | 2734.1     | 2749.8     | 2769.1     |  24.5 | 83.99
Neigh   | 179.91     | 180.23     | 180.52     |   1.9 |  5.50
Comm    | 263.28     | 282.6      | 298.1      |  76.4 |  8.63
Output  | 0.029409   | 0.03388    | 0.047163   |   4.2 |  0.00
Modify  | 47.535     | 47.921     | 48.432     |   5.1 |  1.46
Other   |            | 13.47      |            |       |  0.41

Nlocal:        250.000 ave         254 max         246 min
Histogram: 1 0 0 1 0 0 1 0 0 1
Nghost:        3646.75 ave        3678 max        3612 min
Histogram: 1 0 1 0 0 0 0 0 1 1
Neighs:        51003.8 ave       52124 max       49518 min
Histogram: 1 0 0 0 0 0 2 0 0 1

Total # of neighbors = 204015
Ave neighs/atom = 204.01500
Neighbor list builds = 150000
Dangerous builds not checked

Total wall time: 0:54:34
