LAMMPS (29 Sep 2021 - Update 2)
OMP_NUM_THREADS environment is not set. Defaulting to 1 thread. (src/comm.cpp:98)
  using 1 OpenMP thread(s) per MPI task
# ----------------------- Inicialização -----------------------

units			lj
atom_style 		atomic
dimension 		3
boundary 		p p p

# -------------------- Criação dos Átomos ---------------------

read_data 		topologia.txt
Reading data file ...
  orthogonal box = (0.0000000 0.0000000 0.0000000) to (21.540000 21.540000 21.540000)
  1 by 1 by 1 MPI processor grid
  reading atoms ...
  1000 atoms
  read_data CPU = 0.005 seconds

velocity 		all create ${temp} 87287 rot yes dist gaussian
velocity 		all create 0.60 87287 rot yes dist gaussian

# ------------------ Interação Interatômica -------------------

pair_style		table linear 1000
pair_coeff		1 1 force.table AA 5.0
WARNING: 2 of 1000 force values in table AA are inconsistent with -dE/dr.
WARNING:  Should only be flagged at inflection points (src/pair_table.cpp:465)
pair_coeff		1 2 force.table AB 5.0
WARNING: 1 of 1000 force values in table AB are inconsistent with -dE/dr.
WARNING:  Should only be flagged at inflection points (src/pair_table.cpp:465)
pair_coeff		2 2 force.table BB 5.0
pair_write		1 1 1000 r 0.008 5.0 table.check AA
Appending to table file table.check with DATE: 2023-07-13
Neighbor list info ...
  update every 1 steps, delay 10 steps, check yes
  max neighbors/atom: 2000, page size: 100000
  master list distance cutoff = 5.3
  ghost atom cutoff = 5.3
  binsize = 2.65, bins = 9 9 9
  1 neighbor lists, perpetual/occasional/extra = 1 0 0
  (1) pair table, perpetual
      attributes: half, newton on
      pair build: half/bin/atomonly/newton
      stencil: half/bin/3d
      bin: standard
pair_write		1 2 1000 r 0.008 5.0 table.check AB
Appending to table file table.check with DATE: 2023-07-13
pair_write		2 2 1000 r 0.008 5.0 table.check BB
Appending to table file table.check with DATE: 2023-07-13

neighbor 		0.3 bin
neigh_modify		every 20 delay 0 check no

# ------------------------- Ensemble --------------------------------------

fix 1			all npt temp ${temp} ${temp} 0.5 iso ${press} ${press} 5
fix 1			all npt temp 0.60 ${temp} 0.5 iso ${press} ${press} 5
fix 1			all npt temp 0.60 0.60 0.5 iso ${press} ${press} 5
fix 1			all npt temp 0.60 0.60 0.5 iso 0.13 ${press} 5
fix 1			all npt temp 0.60 0.60 0.5 iso 0.13 0.13 5

# ---------------------- Função de Distribuição Radial -----------------------

#compute RDF 		all rdf 2000 1 1 1 2 2 2
#fix 2 			all ave/time 1 2000 2000 c_RDF[*] file rdf.data mode vector

# ------------------------- Execução ---------------------------

timestep 		0.005
thermo_style		custom step temp pe ke etotal press vol atoms
thermo			2000
run			3000000
Per MPI rank memory allocation (min/avg/max) = 2.670 | 2.670 | 2.670 Mbytes
Step Temp PotEng KinEng TotEng Press Volume Atoms 
       0          0.6   0.81543937       0.8991    1.7145394    1.2071335    9993.9483     1000 
    2000   0.60196435   -1.9866911   0.90204358   -1.0846475   0.13096272    11886.843     1000 
    4000   0.59608484   -1.9927897   0.89323314   -1.0995566   0.12673836      11758.5     1000 
    6000   0.60391147   -2.0005386   0.90496134   -1.0955772   0.13008022    11587.095     1000 
    8000   0.59123264   -2.0568374   0.88596211   -1.1708752   0.11971767    11797.692     1000 
   10000   0.60618994   -1.9185025   0.90837562   -1.0101269   0.12194581    11663.287     1000 
   12000   0.62137072   -2.0475443   0.93112402   -1.1164203   0.11575085    11772.461     1000 
   14000   0.61101468   -2.0176306   0.91560549   -1.1020252   0.14660179    11657.109     1000 
   16000    0.5777233   -2.0505663   0.86571836   -1.1848479    0.1223238    11680.163     1000 
   18000   0.61989248   -1.9705057   0.92890888   -1.0415969   0.12398092    11805.188     1000 
   20000   0.58787755   -1.9971091   0.88093451   -1.1161746   0.12237559     11752.61     1000 
   22000   0.59913872   -1.9799476   0.89780937   -1.0821383   0.12909447    11574.144     1000 
   24000   0.59626365   -1.9966958   0.89350109   -1.1031947   0.13627271    11500.952     1000 
   26000   0.60171594   -2.0188161   0.90167134   -1.1171448    0.1238356    11633.358     1000 
   28000    0.5846154   -2.0452824   0.87604618   -1.1692362   0.13435666    11673.293     1000 
   30000   0.61807956   -1.9925889   0.92619222   -1.0663967   0.14510346    11508.943     1000 
   32000   0.59188818   -2.0123913   0.88694444   -1.1254469   0.12963713    11733.561     1000 
   34000   0.60868032   -1.9779008   0.91210746   -1.0657933   0.12235014    11704.124     1000 
   36000   0.59560642   -1.9973318   0.89251623   -1.1048155   0.12722445    11770.558     1000 
   38000   0.63289349   -1.9992861   0.94839089   -1.0508953   0.14682347    11664.352     1000 
   40000   0.61645035   -2.0440552   0.92375085   -1.1203043   0.12217178    11858.215     1000 
   42000   0.61567238   -2.0293182   0.92258506   -1.1067331   0.13530882    11740.901     1000 
   44000   0.59497343   -2.0027355   0.89156769   -1.1111678   0.14082896    11531.006     1000 
   46000    0.5845913   -2.0282407   0.87601007   -1.1522306   0.13728711    11647.042     1000 
   48000   0.59470997   -2.1002042   0.89117288   -1.2090313   0.13140531    11786.241     1000 
   50000   0.59864153    -2.054582   0.89706434   -1.1575176   0.13954707    11642.034     1000 
   52000   0.60894645   -2.0293331   0.91250626   -1.1168269    0.1301389    11580.065     1000 
   54000   0.60318796   -2.0153008   0.90387716   -1.1114236   0.12325671    11699.707     1000 
   56000   0.62121104   -2.0242271   0.93088475   -1.0933424    0.1441596     11560.74     1000 
   58000   0.61004749   -1.9979724   0.91415616   -1.0838162   0.13010378    11637.568     1000 
   60000   0.59529464   -2.0059094   0.89204902   -1.1138604   0.11612556    11775.488     1000 
   62000   0.62059531   -2.0197104   0.92996207   -1.0897483   0.13940386    11503.965     1000 
   64000   0.58827101   -2.0651885   0.88152411   -1.1836644   0.12924514    11599.679     1000 
   66000   0.61455299   -2.0377355   0.92090766   -1.1168278   0.12728719    11616.378     1000 
   68000   0.60050967   -2.0292769   0.89986373   -1.1294132   0.14004118    11637.176     1000 
   70000   0.59268317   -2.0032194   0.88813572   -1.1150837   0.15125132    11638.222     1000 
   72000   0.64876903   -2.0253248   0.97218039   -1.0531444   0.14764705    11621.008     1000 
   74000   0.59095006   -1.9927434   0.88553867   -1.1072047   0.13382678     11672.02     1000 
   76000   0.61031752   -1.9750136    0.9145608   -1.0604528    0.1200588    11668.033     1000 
   78000   0.59465766   -2.0107953    0.8910945   -1.1197008   0.15190441    11481.316     1000 
   80000   0.60876167   -2.0277447   0.91222936   -1.1155153   0.13826725    11669.853     1000 
   82000   0.60504832   -2.0167152   0.90666491   -1.1100503   0.13569985    11708.442     1000 
   84000   0.61180218   -1.9922829   0.91678557   -1.0754973   0.13379669    11661.664     1000 
   86000   0.61053534   -2.0057818   0.91488721   -1.0908946   0.13800309    11642.506     1000 
   88000   0.58479563   -2.0371437   0.87631626   -1.1608275   0.11814749    11721.763     1000 
   90000   0.64199742   -2.0147141   0.96203314    -1.052681   0.14500466      11684.4     1000 
   92000   0.62450987   -2.0796821   0.93582804   -1.1438541   0.13517843    11565.434     1000 
   94000   0.60810481   -2.0139654   0.91124506   -1.1027203    0.1204979    11743.369     1000 
   96000   0.61377822   -2.0174981   0.91974666   -1.0977514   0.12222562    11770.236     1000 
   98000   0.62884495   -2.0166059   0.94232417   -1.0742818   0.13609626    11727.878     1000 
  100000   0.60233702    -1.996489   0.90260203    -1.093887   0.12277252    11627.077     1000 
  102000   0.62312074   -2.0284104   0.93374643    -1.094664   0.14426215     11650.72     1000 
  104000   0.58411676    -2.015015   0.87529897    -1.139716   0.13835577    11483.626     1000 
  106000   0.59998453   -2.0579759   0.89907681   -1.1588991   0.13059049    11722.316     1000 
  108000   0.56588866   -1.9804116   0.84798415   -1.1324274   0.12456059    11372.414     1000 
  110000   0.57242208   -2.0840687   0.85777448   -1.2262942   0.13305489    11651.356     1000 
  112000   0.57734393   -1.9998223   0.86514988   -1.1346724   0.11525231    11702.039     1000 
  114000    0.5883112   -2.0569435   0.88158433   -1.1753592    0.1220317    11830.797     1000 
  116000   0.59214045   -1.9816299   0.88732246   -1.0943074   0.13892279    11611.175     1000 
  118000   0.60506824   -2.0141903   0.90669475   -1.1074955   0.13502119    11677.721     1000 
  120000   0.61347823   -1.9953904   0.91929713   -1.0760933   0.14674969    11527.815     1000 
  122000   0.58884305   -2.0267814   0.88238132   -1.1444001   0.13754581    11525.679     1000 
  124000   0.60732767   -2.0187782   0.91008051   -1.1086976   0.12435834    11469.763     1000 
  126000   0.57144004   -2.0104401    0.8563029   -1.1541372   0.12163242    11726.134     1000 
  128000   0.62251906   -2.0146043   0.93284482   -1.0817595   0.13506055    11653.192     1000 
  130000   0.60582768   -2.0460485   0.90783278   -1.1382158   0.13011451    11761.305     1000 
  132000   0.57158924   -2.0046838   0.85652648   -1.1481573    0.1233837    11582.666     1000 
  134000   0.61512325   -2.0303217   0.92176219   -1.1085595   0.12901318    11920.508     1000 
  136000   0.60302894   -2.0196223   0.90363887   -1.1159835   0.13024542    11689.193     1000 
  138000   0.60565178   -1.9602021   0.90756919   -1.0526329   0.13362707    11755.337     1000 
  140000   0.59958648   -1.9906887   0.89848034   -1.0922084   0.12681855    11408.002     1000 
  142000   0.62180351   -1.9726985   0.93177255    -1.040926   0.13303784    11664.602     1000 
  144000   0.58858294    -2.032444   0.88199153   -1.1504524   0.12845698    11631.951     1000 
  146000   0.60950821   -2.0188081   0.91334806     -1.10546   0.13793276    11628.387     1000 
  148000   0.60053236    -2.035042   0.89989774   -1.1351442   0.10921343    11967.012     1000 
  150000   0.60812968    -1.970517   0.91128233   -1.0592347   0.14665742    11473.258     1000 
  152000   0.57687568    -2.014115   0.86444821   -1.1496668   0.11582999    11642.379     1000 
  154000   0.58251808   -1.9228428   0.87290334   -1.0499395   0.12348851    11792.142     1000 
  156000   0.58183066   -2.0018498   0.87187324   -1.1299765   0.11605583    11778.458     1000 
  158000    0.6054842   -1.9398916   0.90731808   -1.0325735   0.11839253    11765.056     1000 
  160000   0.60327339   -1.9891487   0.90400518   -1.0851436   0.13661422    11550.479     1000 
  162000   0.58225326   -2.0126689   0.87250651   -1.1401624   0.12540894    11679.847     1000 
  164000     0.601537   -1.9376898   0.90140319   -1.0362866   0.13102781    11534.811     1000 
  166000     0.594631   -2.0235184   0.89105456   -1.1324638    0.1152605     11820.12     1000 
  168000   0.60323014   -2.0369477   0.90394036   -1.1330073   0.14215545    11636.896     1000 
  170000   0.61174077    -2.034211   0.91669354   -1.1175174   0.13104349    11579.771     1000 
  172000   0.60522077   -2.0232963   0.90692333    -1.116373   0.13015804    11561.346     1000 
  174000    0.5836613    -1.950855   0.87461646   -1.0762385   0.12358362    11645.496     1000 
  176000   0.61865602   -2.0039748   0.92705605   -1.0769187    0.1410739    11496.791     1000 
  178000   0.60532312   -2.0132882    0.9070767   -1.1062115   0.14312341    11467.072     1000 
  180000    0.6323986   -2.1007963    0.9476493    -1.153147   0.12442677    11772.351     1000 
  182000   0.61349874   -2.0361227   0.91932786   -1.1167948   0.12279014    11646.001     1000 
  184000   0.61804489   -1.9811037   0.92614027   -1.0549635   0.12701522    11671.033     1000 
  186000   0.58079944   -1.9848215   0.87032796   -1.1144935   0.14008241    11548.159     1000 
  188000    0.5959051   -2.0010691   0.89296379   -1.1081053   0.13980459    11675.475     1000 
  190000   0.60173163   -2.0248822   0.90169485   -1.1231873   0.13183466    11750.114     1000 
  192000   0.60177833   -2.0285374   0.90176482   -1.1267726   0.12883104    11632.913     1000 
  194000   0.59031551   -2.0375175   0.88458779   -1.1529297   0.13387021    11593.274     1000 
  196000   0.60615878   -2.0086463   0.90832893   -1.1003174   0.12200876    11796.747     1000 
  198000   0.63333049   -1.9909275   0.94904575   -1.0418817   0.13486134     11582.94     1000 
  200000   0.59612755   -2.0283024   0.89329714   -1.1350053   0.12045581     11895.49     1000 
  202000   0.61203607   -1.9833377   0.91713606   -1.0662017   0.12475363    11720.219     1000 
  204000   0.63310123   -1.9869849   0.94870219   -1.0382827   0.12403759    11615.158     1000 
  206000   0.59048433   -2.0849256   0.88484077   -1.2000849   0.12449912    11734.736     1000 
  208000   0.60913109   -2.0345604   0.91278294   -1.1217774   0.12490863    11621.879     1000 
  210000   0.58724455   -2.0527734   0.87998596   -1.1727874   0.11378343    11806.765     1000 
  212000   0.59182579   -2.0095643   0.88685094   -1.1227133   0.13152517    11666.676     1000 
  214000   0.59790856    -2.019943   0.89596597    -1.123977   0.13925124    11562.197     1000 
  216000   0.58228023   -1.9976972   0.87254693   -1.1251503   0.14489448    11594.284     1000 
  218000   0.58927482   -2.0104847   0.88302831   -1.1274564   0.12289795    11637.664     1000 
  220000   0.60883234   -2.0230357   0.91233527   -1.1107005   0.12279312    11716.983     1000 
  222000   0.58604361   -2.0295976   0.87818635   -1.1514113   0.12618156    11693.405     1000 
  224000   0.59157269   -1.9732632   0.88647167   -1.0867915     0.133613    11631.316     1000 
  226000   0.58014549   -2.0251129   0.86934801   -1.1557649    0.1249729    11709.263     1000 
  228000   0.59879307   -2.0114054   0.89729141    -1.114114    0.1217188    11807.668     1000 
  230000   0.61300987   -2.0292899    0.9185953   -1.1106946   0.13475364    11475.429     1000 
  232000   0.60811921   -2.0199805   0.91126664   -1.1087139   0.13212514    11642.617     1000 
  234000   0.60343461   -2.0736144   0.90424677   -1.1693676   0.12558422    11884.896     1000 
  236000   0.59335164   -2.0405009   0.88913743   -1.1513635   0.13161269    11724.896     1000 
  238000   0.60397298   -1.9992224   0.90505351   -1.0941689   0.12444858    11723.487     1000 
  240000   0.65410736   -2.0399928   0.98017988   -1.0598129   0.13327332    11805.014     1000 
  242000   0.59838988     -1.99458   0.89668723   -1.0978928   0.11208669    11878.658     1000 
  244000   0.61595468   -1.9984174   0.92300809   -1.0754093   0.13136191    11537.961     1000 
  246000   0.59608208   -1.9798379     0.893229   -1.0866089   0.13232085    11503.884     1000 
  248000   0.61520874   -1.9720241    0.9218903   -1.0501338   0.12517204    11732.932     1000 
  250000   0.60159418   -2.0488443   0.90148888   -1.1473554   0.12254454    11811.551     1000 
  252000   0.56565898   -1.9861422   0.84763998   -1.1385022   0.11536217    11955.774     1000 
  254000   0.62978099    -2.015635   0.94372682   -1.0719081   0.11916314    11733.335     1000 
  256000   0.60665685   -1.9843703   0.90907529    -1.075295   0.12255568    11652.408     1000 
  258000   0.61145357    -2.003364   0.91626317   -1.0871009   0.12661623    11641.536     1000 
  260000   0.57912809   -1.9995249   0.86782345   -1.1317015    0.1170428    11593.056     1000 
  262000   0.59612057   -1.9960553   0.89328668   -1.1027686   0.12922966    11603.544     1000 
  264000   0.60441907   -2.0210565   0.90572198   -1.1153345   0.12373435    11867.688     1000 
  266000   0.58671501   -2.0475353   0.87919245   -1.1683429    0.1058212    11699.288     1000 
  268000   0.61383261   -2.0266216   0.91982817   -1.1067934   0.12314355    11715.538     1000 
  270000    0.6111692   -2.0614186   0.91583704   -1.1455815   0.11481754    11688.305     1000 
  272000   0.59290676   -2.0393604   0.88847079   -1.1508896   0.12172147    11798.424     1000 
  274000   0.59674742   -1.9961569   0.89422601   -1.1019309   0.13777618    11548.467     1000 
  276000    0.6050309   -2.0114929    0.9066388   -1.1048541   0.12277746    11809.783     1000 
  278000   0.58662162   -2.0166957    0.8790525   -1.1376432     0.127688    11539.259     1000 
  280000   0.59922161   -2.0361607   0.89793358   -1.1382271   0.13213557    11699.552     1000 
  282000   0.60241033   -1.9790417   0.90271187   -1.0763298   0.13072721    11809.752     1000 
  284000   0.58834871   -1.9795521   0.88164054   -1.0979115   0.12616742    11896.115     1000 
  286000   0.60764724   -2.0989235   0.91055939   -1.1883641   0.11115657    11828.361     1000 
  288000   0.60588286   -2.0443803   0.90791546   -1.1364648   0.12401695    11691.537     1000 
  290000   0.62577905    -2.023068    0.9377299   -1.0853381   0.13906934    11583.125     1000 
  292000   0.57129111   -2.0377053   0.85607972   -1.1816255   0.12724599    11712.408     1000 
  294000    0.6001105   -2.0289418   0.89926558   -1.1296762   0.12740491    11809.033     1000 
  296000   0.59295303   -2.0625383   0.88854011   -1.1739982   0.12009108    11824.668     1000 
  298000   0.62736462   -2.0252197   0.94010588   -1.0851138   0.14078838    11685.004     1000 
  300000   0.59490969   -1.9855654   0.89147217   -1.0940932   0.13665974    11579.502     1000 
  302000    0.5817456    -2.005575   0.87174578   -1.1338292   0.13351881     11586.77     1000 
  304000    0.6230771   -2.0790046   0.93368103   -1.1453235   0.12889367     11710.41     1000 
  306000   0.60910593   -2.0509673   0.91274524   -1.1382221    0.1159517    11792.081     1000 
  308000   0.58948873    -2.036665   0.88334886   -1.1533161   0.11047926    11842.899     1000 
  310000   0.60600442   -2.0711207   0.90809762   -1.1630231   0.11422502    11856.694     1000 
  312000   0.59480918   -2.0917481   0.89132156   -1.2004266   0.13511156    11835.322     1000 
  314000   0.57854571   -1.9775741   0.86695075   -1.1106233   0.11801041    11558.583     1000 
  316000   0.58270488   -1.9784899   0.87318327   -1.1053067     0.120279    11642.318     1000 
  318000   0.59831177   -1.9543104   0.89657018   -1.0577403   0.13860286    11568.368     1000 
  320000   0.59574722    -2.020744    0.8927272   -1.1280168   0.14123119    11536.065     1000 
  322000   0.58432486   -2.0403223   0.87561081   -1.1647115    0.1217012    11754.911     1000 
  324000   0.59682062   -1.9959143    0.8943357   -1.1015786   0.12641313    11673.045     1000 
  326000   0.59350617   -2.0203498     0.889369   -1.1309808   0.12131409    11785.417     1000 
  328000   0.62110201   -2.0628657   0.93072136   -1.1321443   0.12935932    11785.084     1000 
  330000   0.58976055   -2.0106787   0.88375619   -1.1269225   0.12736433    11650.097     1000 
  332000   0.60169806   -2.0490203   0.90164455   -1.1473757   0.12050798    11495.719     1000 
  334000    0.5858574    -2.002184   0.87790731   -1.1242766   0.11760792    11690.079     1000 
  336000   0.57519714   -2.0182509   0.86193291   -1.1563179   0.12702171    11692.888     1000 
  338000   0.59525289   -1.9963504   0.89198646   -1.1043639   0.14540078    11487.543     1000 
  340000   0.58769724   -2.0372557   0.88066432   -1.1565914   0.13696119    11616.345     1000 
  342000   0.59985762   -2.0439092   0.89888664   -1.1450226   0.12784096     11520.45     1000 
  344000   0.56758084   -2.0351702   0.85051989   -1.1846504   0.11910966    11741.245     1000 
  346000   0.60584131   -2.0109508    0.9078532   -1.1030976   0.14080225    11513.632     1000 
  348000   0.61190999   -2.0128631   0.91694712   -1.0959159   0.12983486    11721.977     1000 
  350000   0.59897271   -1.9605484   0.89756061   -1.0629878   0.13039318     11724.17     1000 
  352000   0.60166687   -2.0715026    0.9015978   -1.1699048   0.14088906     11512.57     1000 
  354000   0.59399092   -1.9567869    0.8900954   -1.0666915   0.13510634    11463.435     1000 
  356000   0.58445265   -2.0710562    0.8758023   -1.1952539   0.12689222    11634.693     1000 
  358000   0.59956342   -1.9816264   0.89844578   -1.0831806   0.12996319    11533.002     1000 
  360000   0.59129542    -1.993155   0.88605619   -1.1070988   0.13065214    11560.609     1000 
  362000    0.5885262     -2.07138   0.88190651   -1.1894735   0.12955142    11696.263     1000 
  364000   0.63254777   -2.0217729   0.94787284   -1.0739001   0.13382996    11531.571     1000 
  366000    0.6049053   -2.0141886    0.9064506    -1.107738   0.13895912    11591.028     1000 
  368000   0.59908519   -2.0496909   0.89772915   -1.1519618   0.12506809    11841.012     1000 
  370000    0.6169088   -2.0699762   0.92443784   -1.1455384   0.14427922    11708.563     1000 
  372000   0.58761102   -2.0224796   0.88053512   -1.1419444   0.12919889    11625.979     1000 
  374000   0.61265838    -2.044948   0.91806859   -1.1268794   0.11549892    11907.814     1000 
  376000    0.6300546   -2.0174109   0.94413682   -1.0732741   0.13302786    11612.242     1000 
  378000   0.58922851   -2.0241659   0.88295892    -1.141207   0.11380961    11794.782     1000 
  380000   0.61021827   -2.0625257   0.91441207   -1.1481136    0.1213908    11732.727     1000 
  382000   0.61860525    -2.058789   0.92697996   -1.1318091   0.12652411    11852.878     1000 
  384000   0.59270415   -2.0367086   0.88816716   -1.1485415   0.13184664     11691.08     1000 
  386000   0.61263805    -2.010289   0.91803812   -1.0922509   0.14602446     11491.94     1000 
  388000   0.58315761   -2.0405768   0.87386167   -1.1667151   0.12977192    11773.633     1000 
  390000   0.59657165   -1.9891235   0.89396261   -1.0951609   0.13533844    11656.738     1000 
  392000   0.58095897    -2.054141   0.87056702    -1.183574   0.13101176    11710.034     1000 
  394000   0.61497495   -1.9753443   0.92153996   -1.0538044   0.14221428    11616.029     1000 
  396000   0.62200568    -1.954824    0.9320755   -1.0227485   0.13523649    11569.925     1000 
  398000   0.60912692   -2.0673811   0.91277668   -1.1546044   0.13556011    11830.433     1000 
  400000   0.61353396   -2.0384061   0.91938064   -1.1190255   0.13110161    11653.128     1000 
  402000   0.59161323   -2.0410493   0.88653242   -1.1545169   0.12555774    11625.182     1000 
  404000   0.61226822   -2.0230915   0.91748393   -1.1056075   0.13233304    11626.936     1000 
  406000   0.62750671   -2.0179335    0.9403188   -1.0776147   0.12451759    11756.773     1000 
  408000   0.59182086   -2.0774439   0.88684356   -1.1906004   0.13067849    11518.359     1000 
  410000   0.58337424    -2.039416    0.8741863   -1.1652297   0.12796771    11664.385     1000 
  412000   0.59274893   -2.0194054   0.88823428   -1.1311711   0.13347907    11637.469     1000 
  414000   0.60576784   -1.9574844   0.90774311   -1.0497413   0.13814418    11512.296     1000 
  416000   0.61383741     -2.05756   0.91983536   -1.1377247   0.12767504    11713.162     1000 
  418000   0.59589426   -1.9632144   0.89294756   -1.0702669   0.12688822    11640.474     1000 
  420000   0.58117947   -2.0704897   0.87089743   -1.1995923   0.11849797    11870.931     1000 
  422000   0.62178716   -1.9707743   0.93174805   -1.0390263   0.12501387    11740.884     1000 
  424000   0.59713988    -2.003891   0.89481411   -1.1090768   0.13824808    11361.856     1000 
  426000   0.59266563   -2.0164286   0.88810945   -1.1283192   0.14119455    11592.432     1000 
  428000   0.58176782    -2.036522   0.87177908   -1.1647429   0.13011187    11561.807     1000 
  430000   0.59828523   -2.0533569   0.89653041   -1.1568265   0.11619839    11908.136     1000 
  432000   0.59801771   -2.0091656   0.89612953    -1.113036   0.13498135    11403.545     1000 
  434000   0.59430988   -1.9973424   0.89057335   -1.1067691   0.13086462     11569.19     1000 
  436000   0.58024703   -2.0117932   0.86950017    -1.142293   0.13104078    11598.164     1000 
  438000   0.61550927   -2.0190265   0.92234064   -1.0966858    0.1171011    11686.098     1000 
  440000   0.54826517   -2.0408172   0.82157535   -1.2192419   0.11740078    11816.339     1000 
  442000   0.61292543   -2.0177765   0.91846876   -1.0993078   0.14570754    11640.911     1000 
  444000   0.60826545   -1.9899996   0.91148578   -1.0785138   0.11050659    11779.317     1000 
  446000    0.6042827   -1.9943774   0.90551763   -1.0888598   0.12917576    11808.284     1000 
  448000   0.64740704   -2.0452338   0.97013945   -1.0750943   0.12442475    11714.493     1000 
  450000   0.58618442   -2.0128403   0.87839735   -1.1344429    0.1380256    11573.611     1000 
  452000   0.59264366   -2.0514404   0.88807653   -1.1633639   0.14173445    11622.145     1000 
  454000    0.5884694    -2.016394   0.88182139   -1.1345726   0.12374363     11586.12     1000 
  456000   0.60189957   -2.0864159   0.90194651   -1.1844694   0.12976078    11630.345     1000 
  458000   0.63321371   -2.0180036   0.94887075   -1.0691328   0.13944124     11542.12     1000 
  460000    0.5817436   -2.0152698   0.87174279    -1.143527   0.12504453    11715.415     1000 
  462000   0.59399713   -2.0650141    0.8901047   -1.1749094   0.13872538    11840.735     1000 
  464000   0.59234167   -2.0032082   0.88762399   -1.1155843   0.12408386    11648.671     1000 
  466000   0.61450375   -2.0369942   0.92083387   -1.1161603   0.13901892    11537.693     1000 
  468000   0.61689715   -2.0717733   0.92442038   -1.1473529   0.12619205    11735.716     1000 
  470000   0.60110606   -1.9764735   0.90075743    -1.075716   0.12839329    11608.999     1000 
  472000   0.59879988   -2.0288397   0.89730162    -1.131538   0.14030789    11441.034     1000 
  474000   0.60922071    -1.974741   0.91291723   -1.0618237   0.13797776    11522.852     1000 
  476000   0.59764986   -2.0077052   0.89557831   -1.1121269   0.12195822    11689.332     1000 
  478000   0.59926188   -2.0300051   0.89799392   -1.1320112   0.13121349    11641.765     1000 
  480000   0.60549733   -2.0569378   0.90733775   -1.1496001   0.13440736    11677.975     1000 
  482000   0.60730643   -1.9975484   0.91004868   -1.0874997   0.12965021    11620.127     1000 
  484000   0.59944282    -2.030365   0.89826507      -1.1321   0.12158104    11551.342     1000 
  486000   0.61442049   -2.0312285   0.92070911   -1.1105194   0.14383537    11581.961     1000 
  488000   0.57522431   -2.0248315   0.86197363   -1.1628579   0.13072276    11663.861     1000 
  490000   0.59186651   -1.9879461   0.88691196   -1.1010341   0.13486395    11539.239     1000 
  492000   0.60852553   -2.0327111   0.91187551   -1.1208356   0.12473218    11608.792     1000 
  494000    0.5989608   -1.9812995   0.89754276   -1.0837567    0.1202793    11815.979     1000 
  496000   0.58128343   -2.0482794   0.87105322   -1.1772262   0.13236635    11673.156     1000 
  498000   0.60517687   -2.0201598   0.90685754   -1.1133022   0.12525393    11590.777     1000 
  500000   0.60150099   -2.0483382   0.90134923   -1.1469889   0.13094553    11724.522     1000 
  502000   0.60945746    -2.045164     0.913272    -1.131892   0.12844297    11641.108     1000 
  504000   0.61437801   -1.9785654   0.92064544     -1.05792    0.1334826    11501.279     1000 
  506000   0.61605016   -2.0540456   0.92315117   -1.1308944    0.1358331    11680.916     1000 
  508000   0.59056757   -1.9816517   0.88496551   -1.0966862   0.12225101    11730.015     1000 
  510000    0.5833407    -2.052726   0.87413604   -1.1785899   0.13882409    11696.244     1000 
  512000   0.59663599   -2.0140537   0.89405903   -1.1199947   0.13694385     11706.75     1000 
  514000   0.59360257   -2.0414262   0.88951346   -1.1519127   0.13815815    11423.095     1000 
  516000   0.61344018   -2.0414836   0.91924011   -1.1222435   0.13762115    11614.001     1000 
  518000   0.60744259   -2.0576543   0.91025272   -1.1474016   0.11882928    11655.342     1000 
  520000   0.61106358   -1.9763396   0.91567877   -1.0606608   0.12885823    11687.815     1000 
  522000   0.62485885   -2.0568256   0.93635098   -1.1204746   0.14338858    11569.877     1000 
  524000    0.6377298    -2.036074    0.9556381   -1.0804359   0.13970158      11641.5     1000 
  526000   0.61538554   -2.0516064   0.92215522   -1.1294511   0.13333815     11928.23     1000 
  528000   0.58735134   -2.0030041   0.88014598   -1.1228581    0.1158918    11828.266     1000 
  530000   0.59116163   -2.0099004   0.88585571   -1.1240447    0.1272742    11717.136     1000 
  532000    0.5747431   -2.0644137   0.86125253   -1.2031611   0.13067031    11608.406     1000 
  534000   0.61202013   -2.0446915   0.91711217   -1.1275794   0.11707757    11779.578     1000 
  536000   0.57911621   -2.0227097   0.86780564   -1.1549041   0.12773441    11754.202     1000 
  538000   0.61396886   -2.0457358   0.92003233   -1.1257035   0.13421134    11754.067     1000 
  540000   0.60224923   -1.9862857   0.90247047   -1.0838152   0.12412098      11570.1     1000 
  542000   0.59711073   -1.9807947   0.89477042   -1.0860243   0.14975583     11569.03     1000 
  544000   0.60296352    -2.007846   0.90354083   -1.1043052   0.12597629    11650.407     1000 
  546000   0.57816406   -1.9655019   0.86637884   -1.0991231   0.14116236    11594.262     1000 
  548000   0.57936259   -1.9989131   0.86817485   -1.1307383   0.13280811    11491.144     1000 
  550000   0.58791542   -2.0154646   0.88099125   -1.1344733   0.12714886    11503.768     1000 
  552000   0.57896163   -2.0569435     0.867574   -1.1893695   0.14316645    11545.401     1000 
  554000   0.59085541   -2.0227389   0.88539683   -1.1373421   0.13371306    11792.144     1000 
  556000   0.60836266   -2.0438286   0.91163144   -1.1321971   0.12149877    11853.509     1000 
  558000   0.61600888   -2.0343661   0.92308931   -1.1112768   0.13053379    11578.613     1000 
  560000   0.62352832   -2.0026738   0.93435719   -1.0683167    0.1315067    11619.033     1000 
  562000   0.60939104    -2.032099   0.91317247   -1.1189265   0.12231813    11845.598     1000 
  564000   0.60040828   -2.0157699   0.89971181    -1.116058   0.13098296    11639.186     1000 
  566000   0.59734565   -2.0277217   0.89512246   -1.1325993   0.12025883    11762.309     1000 
  568000   0.58528826   -2.0255366   0.87705445   -1.1484822   0.13555314    11648.497     1000 
  570000   0.59776712   -2.0186577   0.89575402   -1.1229036     0.128739    11682.985     1000 
  572000   0.61062537    -1.964847   0.91502211   -1.0498248   0.13688867    11664.014     1000 
  574000   0.58551383   -2.0142572   0.87739247   -1.1368648   0.11813433    11701.428     1000 
  576000   0.60799322     -2.01589   0.91107785   -1.1048121    0.1423477    11584.029     1000 
  578000   0.58884628   -2.0485254   0.88238616   -1.1661393   0.13054258    11958.313     1000 
  580000   0.59033064   -2.0082168   0.88461046   -1.1236064   0.12907695    11687.746     1000 
  582000   0.58893423   -1.9937148   0.88251795   -1.1111968    0.1192434    11728.451     1000 
  584000   0.59773782   -2.0053837   0.89571013   -1.1096736   0.13472172    11471.756     1000 
  586000   0.59038787   -2.0387324   0.88469622   -1.1540362   0.13045773    11538.059     1000 
  588000   0.60744576   -2.0369596   0.91025747   -1.1267022   0.12990956    11754.664     1000 
  590000   0.58200462     -2.06364   0.87213392   -1.1915061   0.12761661    11656.481     1000 
  592000   0.61828681   -2.0087205   0.92650279   -1.0822177   0.13149156    11677.862     1000 
  594000   0.58144562   -2.0634835   0.87129627   -1.1921872   0.13470885     11450.81     1000 
  596000   0.57674543   -2.0119596   0.86425302   -1.1477066   0.12994161     11663.64     1000 
  598000   0.60693907   -2.0174198   0.90949819   -1.1079216   0.12993334    11589.163     1000 
  600000   0.60857851   -2.0415782    0.9119549   -1.1296233   0.12924799    11620.705     1000 
  602000   0.60586068   -2.0262232   0.90788223   -1.1183409   0.13761929      11578.3     1000 
  604000   0.60978803   -2.0366986   0.91376737   -1.1229312   0.12704526    11704.975     1000 
  606000   0.62522494   -2.0380724   0.93689958   -1.1011728   0.12511993     11670.02     1000 
  608000   0.60261047   -2.0124545   0.90301179   -1.1094427   0.12027244    11730.816     1000 
  610000   0.60145295   -1.9891732   0.90127725    -1.087896   0.12553156    11709.292     1000 
  612000   0.61549062   -2.0105142    0.9223127   -1.0882015   0.14074422    11627.181     1000 
  614000   0.57440529   -2.0303356   0.86074632   -1.1695893   0.11873496    11691.174     1000 
  616000   0.60136071   -1.9970019   0.90113903   -1.0958628   0.13590436    11609.349     1000 
  618000   0.61434323   -1.9992605   0.92059333   -1.0786671   0.12431832    11709.265     1000 
  620000    0.5903629   -2.0373273   0.88465881   -1.1526685   0.13292583    11711.612     1000 
  622000   0.60696041   -2.0501668   0.90953018   -1.1406366   0.12258487    11727.315     1000 
  624000   0.59805618   -2.0098564   0.89618719   -1.1136692   0.12960701    11747.808     1000 
  626000    0.6094154   -1.9925325   0.91320898   -1.0793236    0.1270312    11745.404     1000 
  628000   0.58655025   -2.0184647   0.87894555   -1.1395192   0.12840274    11595.995     1000 
  630000   0.59866562   -2.0605599   0.89710043   -1.1634595   0.12087536     11706.58     1000 
  632000   0.60395236   -1.9760887   0.90502261   -1.0710661   0.14126652      11547.5     1000 
  634000    0.6021069   -1.9953633   0.90225719   -1.0931061   0.13171779    11596.207     1000 
  636000   0.57437796   -2.0511121   0.86070537   -1.1904067   0.11191536    11976.518     1000 
  638000    0.6210882   -2.0570763   0.93070067   -1.1263756   0.12631045    11762.048     1000 
  640000   0.59256217   -2.0087793   0.88795441   -1.1208249   0.12165561    11879.782     1000 
  642000   0.60404374   -2.0643782   0.90515955   -1.1592187   0.12980105    11720.154     1000 
  644000   0.63113329   -2.0241561   0.94575324   -1.0784028   0.13382261     11400.63     1000 
  646000   0.59877573   -2.0044966   0.89726542   -1.1072312   0.14012822    11488.534     1000 
  648000   0.59971091   -2.0326989    0.8986668   -1.1340321   0.13035857    11558.688     1000 
  650000    0.5692304   -2.0413236   0.85299175   -1.1883319   0.12722141    11765.789     1000 
  652000   0.57754932    -2.058115   0.86545765   -1.1926574   0.12152085    11835.811     1000 
  654000    0.5933789   -2.0239268   0.88917828   -1.1347486   0.13355382    11541.878     1000 
  656000   0.61056117   -1.9961695   0.91492591   -1.0812436   0.12538736    11761.771     1000 
  658000   0.60750461   -1.9590343   0.91034566   -1.0486886   0.11834996    11695.267     1000 
  660000   0.57335256    -2.027013   0.85916881   -1.1678442   0.13026892    11523.242     1000 
  662000   0.57796326   -2.0085168   0.86607794   -1.1424389   0.12493972    11682.444     1000 
  664000   0.61147085   -2.0329636   0.91628907   -1.1166745   0.12792835    11672.409     1000 
  666000   0.59145713   -2.0345831    0.8862985   -1.1482846   0.13266851    11667.465     1000 
  668000   0.60768604   -2.0108831   0.91061753   -1.1002656   0.14776799    11501.783     1000 
  670000   0.59716524   -2.0207172   0.89485212   -1.1258651   0.12656168    11694.665     1000 
  672000   0.60356013   -1.9462158   0.90443486   -1.0417809   0.12912677    11675.072     1000 
  674000    0.6105782   -2.0883231   0.91495144   -1.1733717   0.12377204    11866.368     1000 
  676000   0.62608552   -2.0599851   0.93818916    -1.121796   0.12506591    11876.333     1000 
  678000   0.60983677   -2.0529713   0.91384041   -1.1391309   0.13189422      11706.3     1000 
  680000   0.60259799     -2.03192   0.90299309   -1.1289269   0.12761598     11727.42     1000 
  682000   0.59681914   -2.0474697   0.89433349   -1.1531362   0.12643795    11593.436     1000 
  684000   0.62180155   -2.0714341   0.93176963   -1.1396645   0.13614788    11569.126     1000 
  686000   0.59955357   -1.9632711   0.89843102     -1.06484   0.11941458    11826.829     1000 
  688000   0.60785442   -2.0265381   0.91086984   -1.1156683   0.13458668    11702.796     1000 
  690000   0.57603531   -2.0003381   0.86318891   -1.1371492   0.13577921    11515.346     1000 
  692000   0.59933313   -1.9551426    0.8981007   -1.0570419   0.14692736    11530.198     1000 
  694000   0.61391855   -2.0552306   0.91995695   -1.1352736   0.13158091    11764.114     1000 
  696000   0.58377616   -1.9998842   0.87478857   -1.1250956   0.13693634    11578.654     1000 
  698000   0.59805668   -2.0111789   0.89618794    -1.114991   0.12760875    11619.313     1000 
  700000   0.61096193   -1.9837439   0.91552645   -1.0682175   0.14296482    11528.806     1000 
  702000   0.60790511   -1.9872184    0.9109458   -1.0762726   0.13124051    11710.464     1000 
  704000   0.59217327    -2.042892   0.88737165   -1.1555204   0.11750023    11907.164     1000 
  706000   0.60237856   -2.0131269   0.90266428   -1.1104626   0.12600168    11849.511     1000 
  708000   0.59054543   -2.0526886   0.88493233   -1.1677562   0.12621824     11818.09     1000 
  710000   0.60668908   -2.0106254   0.90912358   -1.1015018   0.12653778    11867.225     1000 
  712000   0.58656587    -2.041166   0.87896896    -1.162197    0.1203182    11836.854     1000 
  714000   0.60754264    -2.029393   0.91040265   -1.1189904   0.12060792    11723.452     1000 
  716000   0.61744779   -2.0650108   0.92524551   -1.1397653   0.12813042    11501.802     1000 
  718000   0.60041122   -1.9969187   0.89971621   -1.0972025    0.1347078    11738.252     1000 
  720000   0.61465395   -2.0229371   0.92105894   -1.1018782   0.14012959    11563.208     1000 
  722000   0.59628957    -1.988845   0.89353992   -1.0953051   0.13583935    11714.502     1000 
  724000   0.60427115    -2.028783   0.90550032   -1.1232826   0.12754202    11716.926     1000 
  726000   0.58111028   -2.0431782   0.87079375   -1.1723845   0.11776878    11654.938     1000 
  728000   0.61405514   -2.0137269   0.92016163   -1.0935653   0.13506941    11785.414     1000 
  730000   0.63232947   -2.0073363   0.94754571   -1.0597906   0.14411854     11628.47     1000 
  732000   0.60229993   -1.9956555   0.90254644   -1.0931091   0.13746102    11720.742     1000 
  734000     0.618719   -2.0355945   0.92715043   -1.1084441   0.14400566    11436.832     1000 
  736000    0.5780526   -2.0608786   0.86621183   -1.1946668   0.11424271    11823.132     1000 
  738000   0.60314389   -2.0374062   0.90381111   -1.1335951   0.12412328    11700.088     1000 
  740000   0.62106684   -2.0534931   0.93066866   -1.1228245   0.11779675    11755.282     1000 
  742000   0.59957891   -2.0594502   0.89846899   -1.1609812   0.13678546    11556.287     1000 
  744000   0.61110226   -2.0125605   0.91573674   -1.0968238   0.12411113    11700.766     1000 
  746000   0.61069246   -2.0048967   0.91512265   -1.0897741   0.12613177     11838.91     1000 
  748000    0.6123991   -1.9889287   0.91768006   -1.0712486   0.11206867    11793.162     1000 
  750000   0.62501405   -1.9994307   0.93658356   -1.0628472   0.14248928    11721.014     1000 
  752000   0.59831817   -2.0493831   0.89657977   -1.1528033   0.12895028    11732.841     1000 
  754000    0.6180688   -1.9990932   0.92617609   -1.0729171   0.14511456    11635.734     1000 
  756000   0.62663934   -1.9849754   0.93901904   -1.0459564   0.12778222    11762.273     1000 
  758000   0.61965773    -2.039867   0.92855711   -1.1113099   0.13176945     11607.25     1000 
  760000   0.57628026   -2.0780695   0.86355597   -1.2145136   0.12556967    11434.787     1000 
  762000   0.58558224   -2.0400642   0.87749498   -1.1625692   0.11428384    11858.918     1000 
  764000   0.58358052    -2.016446    0.8744954   -1.1419506   0.12044725    11820.499     1000 
  766000    0.6013071   -1.9859356   0.90105869    -1.084877   0.12833449    11640.235     1000 
  768000   0.59449776   -2.0494999   0.89085489    -1.158645    0.1242795    11648.518     1000 
  770000   0.63099122   -1.9819814   0.94554035   -1.0364411   0.13234113     11666.51     1000 
  772000   0.59180208   -1.9912281   0.88681542   -1.1044126   0.12241652    11856.583     1000 
  774000   0.61222035   -2.0321003   0.91741219   -1.1146882   0.13433023    11517.507     1000 
  776000   0.57477209   -2.0241113   0.86129597   -1.1628154   0.13781277    11768.879     1000 
  778000   0.59352983    -2.071416   0.88940444   -1.1820116    0.1230713    11762.388     1000 
  780000   0.60723757   -2.0692646   0.90994549   -1.1593191   0.12190811    11833.901     1000 
  782000   0.59941529    -1.989376   0.89822382   -1.0911522   0.14627129    11573.637     1000 
  784000   0.60895674   -2.0254009   0.91252168   -1.1128792   0.14297227    11640.686     1000 
  786000   0.60361572    -2.035789   0.90451816   -1.1312709   0.13117009    11593.556     1000 
  788000   0.62600953   -2.0263641   0.93807528   -1.0882888   0.12800539    11738.851     1000 
  790000   0.61790493    -2.017899   0.92593054   -1.0919685   0.13271475    11925.693     1000 
  792000   0.58604571   -2.0467914   0.87818949   -1.1686019   0.13167585     11627.42     1000 
  794000   0.58757049   -2.0133643   0.88047438   -1.1328899   0.12003344    11796.596     1000 
  796000   0.60541277   -2.0263034   0.90721104   -1.1190923   0.13465489     11632.36     1000 
  798000   0.61203646   -2.0199762   0.91713664   -1.1028396    0.1235791     11932.81     1000 
  800000    0.5880046   -2.0393837   0.88112489   -1.1582588    0.1222441    11758.447     1000 
  802000   0.60346959   -2.0213094   0.90429918   -1.1170103   0.12499221    11804.783     1000 
  804000   0.59551408   -1.9979013   0.89237785   -1.1055235   0.11772557    11675.284     1000 
  806000   0.60560632   -2.0491513   0.90750108   -1.1416502   0.12876529    11771.886     1000 
  808000    0.5935381   -1.9992777   0.88941684   -1.1098609   0.13267423    11639.277     1000 
  810000   0.61413763   -1.9803882   0.92028523    -1.060103   0.13436502    11719.958     1000 
  812000   0.57135704    -2.002567   0.85617852   -1.1463885    0.1445136    11470.795     1000 
  814000   0.60009513   -1.9972191   0.89924255   -1.0979766    0.1263801    11828.925     1000 
  816000   0.56487139   -1.9790444   0.84645978   -1.1325846   0.13067997    11726.196     1000 
  818000    0.5938238   -2.0354112   0.88984496   -1.1455662   0.10646423     11875.03     1000 
  820000    0.5782634   -2.0220542   0.86652771   -1.1555265   0.13260071    11628.103     1000 
  822000   0.56765918    -1.985161   0.85063727   -1.1345237   0.14652644    11537.774     1000 
  824000   0.61548436   -2.0215964   0.92230332    -1.099293   0.12794134    11635.783     1000 
  826000   0.59747925    -2.040319   0.89532265   -1.1449963   0.13459122    11665.385     1000 
  828000   0.62572545   -2.0342009   0.93764958   -1.0965513   0.12547568    11746.945     1000 
  830000   0.59837814   -1.9957571   0.89666965   -1.0990874   0.13386815    11527.195     1000 
  832000   0.60903668   -2.0120962   0.91264146   -1.0994547     0.141394    11615.011     1000 
  834000   0.60258409   -1.9766842   0.90297226    -1.073712   0.14315918    11486.655     1000 
  836000   0.59090705   -1.9880333   0.88547421    -1.102559   0.12868377    11642.775     1000 
  838000   0.59709721   -1.9664712   0.89475017    -1.071721     0.133006    11724.367     1000 
  840000   0.59051224   -2.0175729   0.88488259   -1.1326903   0.13015197    11804.273     1000 
  842000   0.59354683   -2.0197271   0.88942992   -1.1302972   0.11698712    11662.122     1000 
  844000   0.60243208   -2.0340094   0.90274447   -1.1312649   0.13110571    11559.939     1000 
  846000   0.60827306   -2.0417111   0.91149718   -1.1302139   0.14852651    11512.278     1000 
  848000   0.58115374   -2.0483001   0.87085888   -1.1774412   0.13466516    11733.877     1000 
  850000   0.54859644   -2.0054887   0.82207176   -1.1834169   0.13508147    11480.605     1000 
  852000   0.60085268   -2.0214621   0.90037774   -1.1210843   0.13454752    11572.277     1000 
  854000   0.61108197   -2.0187173   0.91570634   -1.1030109   0.12635622    11773.446     1000 
  856000   0.58170194   -2.0027522   0.87168036   -1.1310718   0.12424158    11603.539     1000 
  858000   0.62948281    -2.035767      0.94328    -1.092487   0.13303024    11610.121     1000 
  860000   0.58631407   -2.0240085   0.87859164   -1.1454169   0.13131651    11587.966     1000 
  862000   0.63969535   -2.0428522   0.95858348   -1.0842687   0.12414063    11709.079     1000 
  864000   0.62430356   -2.0426919   0.93551888   -1.1071731    0.1514904    11421.644     1000 
  866000   0.58972554   -1.9599147   0.88370372    -1.076211   0.12414522    11574.701     1000 
  868000    0.5923705   -2.0103052    0.8876672    -1.122638   0.12467911    11797.436     1000 
  870000   0.60685895   -2.0669349   0.90937813   -1.1575568   0.13596707    11622.415     1000 
  872000   0.60555724    -2.011821   0.90742752   -1.1043935    0.1269319        11665     1000 
  874000   0.61352089   -2.0611053   0.91936105   -1.1417442   0.12430118    11749.559     1000 
  876000   0.60134137   -2.0003189   0.90111004   -1.0992089    0.1380807    11776.569     1000 
  878000    0.6035913   -2.0188787   0.90448156   -1.1143971   0.14355967    11700.365     1000 
  880000   0.60246928   -1.9855796   0.90280021   -1.0827794   0.14083436    11534.368     1000 
  882000   0.58665988   -2.0193412   0.87910983   -1.1402314   0.11875965    11826.961     1000 
  884000   0.59354544   -2.0606747   0.88942784   -1.1712468    0.1258464    11673.876     1000 
  886000   0.62592994   -2.0111733   0.93795601   -1.0732172   0.12684338     11886.81     1000 
  888000   0.60864263   -2.0467673   0.91205098   -1.1347164   0.13500783    11748.433     1000 
  890000   0.58604931     -1.96223    0.8781949   -1.0840351   0.13803931     11511.63     1000 
  892000   0.62498811   -2.0109028   0.93654468   -1.0743581   0.13172613    11709.364     1000 
  894000   0.59692439   -2.0267884    0.8944912   -1.1322972   0.12810188    11697.014     1000 
  896000   0.60607448   -2.0273499   0.90820261   -1.1191472   0.12593764    11735.292     1000 
  898000   0.59707161   -2.0310728    0.8947118    -1.136361   0.13019192    11786.665     1000 
  900000   0.57651762   -2.0265662   0.86391166   -1.1626546   0.13418121    11469.106     1000 
  902000   0.57389556   -1.9731374   0.85998249   -1.1131549   0.14127128    11619.612     1000 
  904000   0.59986073   -1.9608615   0.89889131   -1.0619702   0.13107478     11653.82     1000 
  906000   0.61960463   -2.0193552   0.92847753   -1.0908777   0.14497512    11699.081     1000 
  908000   0.59669433     -2.07942   0.89414645   -1.1852735   0.12557919    11803.103     1000 
  910000   0.62182454     -2.03669   0.93180407   -1.1048859   0.13882845    11636.504     1000 
  912000   0.62920205   -1.9797467   0.94285927   -1.0368874   0.12934796    11669.814     1000 
  914000   0.58947391    -1.989765   0.88332666   -1.1064383   0.13232361    11564.427     1000 
  916000   0.57723386   -1.9820564   0.86498494   -1.1170715   0.12711341    11777.734     1000 
  918000   0.60621136   -2.0338461   0.90840772   -1.1254384   0.13208964    11717.671     1000 
  920000   0.60726176   -2.0485415   0.90998175   -1.1385598     0.147673    11449.931     1000 
  922000   0.61181816   -1.9609606   0.91680951   -1.0441511   0.13084338    11720.306     1000 
  924000   0.59245963   -1.9997981   0.88780076   -1.1119973   0.12576665    11670.715     1000 
  926000   0.58235803   -2.0068149    0.8726635   -1.1341514   0.11654428    11684.727     1000 
  928000   0.59310819   -2.0389371   0.88877262   -1.1501645   0.13141281    11661.409     1000 
  930000    0.6027843   -2.0353019   0.90327227   -1.1320296   0.14064052    11687.599     1000 
  932000   0.60558731   -2.0419477   0.90747259   -1.1344751   0.12288136    11747.526     1000 
  934000   0.56797348   -2.0312359   0.85110826   -1.1801277   0.11378016    11760.338     1000 
  936000   0.60365901   -2.0953994   0.90458303   -1.1908163   0.12649124    11758.572     1000 
  938000   0.57119217    -2.012914   0.85593146   -1.1569825    0.1354662    11563.361     1000 
  940000   0.59985189   -2.0097526   0.89887806   -1.1108745   0.12068365    11826.262     1000 
  942000   0.58174545   -2.0159796   0.87174555    -1.144234   0.12888795    11604.415     1000 
  944000   0.59949624   -2.0480391   0.89834511    -1.149694   0.11602619    11887.249     1000 
  946000   0.60154291   -2.0424151   0.90141204   -1.1410031    0.1223239    11616.336     1000 
  948000   0.60472877   -2.0270592   0.90618606   -1.1208732   0.12108753    11729.406     1000 
  950000    0.5747336   -2.0392619    0.8612383   -1.1780236   0.12243412    11728.106     1000 
  952000   0.60222643   -2.0341944    0.9024363   -1.1317581    0.1367525    11675.153     1000 
  954000   0.58969797   -2.0318778   0.88366241   -1.1482154   0.14379974    11619.258     1000 
  956000   0.60034845   -2.0095623   0.89962216   -1.1099402   0.12790969    11641.625     1000 
  958000   0.60282037   -2.0430827   0.90332632   -1.1397564   0.13111815     11687.79     1000 
  960000   0.59406735   -1.9982887   0.89020992   -1.1080788   0.13785713    11593.833     1000 
  962000   0.57258967   -2.0373556   0.85802561     -1.17933   0.11700122     11824.02     1000 
  964000   0.61492026   -2.0538314   0.92145801   -1.1323734   0.13657803    11755.512     1000 
  966000   0.60363316   -2.0329444   0.90454429   -1.1284001    0.1298881    11715.881     1000 
  968000   0.60792656   -2.0405852   0.91097795   -1.1296073   0.13090601    11793.836     1000 
  970000   0.59692314   -1.9826717   0.89448932   -1.0881824   0.12357753    11516.283     1000 
  972000   0.57287683   -2.0386995   0.85845593   -1.1802435   0.12672676    11673.542     1000 
  974000   0.60746883   -2.0043858   0.91029204   -1.0940938   0.12214384    11703.001     1000 
  976000   0.60613813   -1.9577439   0.90829799   -1.0494459   0.13275045    11579.955     1000 
  978000   0.61186163   -2.0129756   0.91687465   -1.0961009   0.12458862    11633.335     1000 
  980000   0.58674619   -2.0551145   0.87923917   -1.1758753   0.14116579    11622.318     1000 
  982000   0.60745383   -2.0213102   0.91026956   -1.1110406   0.13075795    11797.482     1000 
  984000   0.61032807   -2.0023373   0.91457661   -1.0877606   0.12939923    11664.977     1000 
  986000   0.61095603   -2.0411002   0.91551761   -1.1255826   0.11690152    11937.721     1000 
  988000   0.60926679   -2.0500616   0.91298628   -1.1370753   0.12318731     11720.48     1000 
  990000    0.6234682    -2.003969   0.93426709   -1.0697019   0.12332736    11536.751     1000 
  992000   0.58287858   -1.9787312   0.87344354   -1.1052876   0.13011391    11805.218     1000 
  994000   0.58942238    -2.089453   0.88324944   -1.2062036   0.12376451    11651.321     1000 
  996000   0.58763751    -2.014866   0.88057481   -1.1342912   0.11986436    11678.356     1000 
  998000   0.60097939   -2.0278168   0.90056761   -1.1272492   0.13229469    11664.999     1000 
 1000000   0.60668277   -1.9779556   0.90911413   -1.0688414    0.1238119    11716.229     1000 
 1002000   0.58860147   -2.0199337    0.8820193   -1.1379144   0.12160866    11782.112     1000 
 1004000   0.56880811   -1.9900214   0.85235896   -1.1376624   0.14115568     11469.94     1000 
 1006000   0.59983981   -2.0001618   0.89885996   -1.1013019   0.13581138    11658.133     1000 
 1008000   0.61871286   -1.9992174   0.92714122   -1.0720762   0.14768987    11419.907     1000 
 1010000   0.61169672   -2.0296597   0.91662753   -1.1130322   0.11330078    11902.832     1000 
 1012000    0.5880953     -2.01798   0.88126081   -1.1367192   0.10682371    11956.456     1000 
 1014000   0.60112097   -2.0454493   0.90077977   -1.1446696   0.12138055    11799.841     1000 
 1016000   0.60256983   -1.9873389    0.9029509    -1.084388   0.13603596      11574.1     1000 
 1018000   0.60803931   -2.0339246    0.9111469   -1.1227777   0.12102864     11802.16     1000 
 1020000   0.62064432   -2.0047711   0.93003552   -1.0747355   0.13783219    11794.533     1000 
 1022000    0.5863152   -1.9855586   0.87859333   -1.1069652   0.13882589    11400.392     1000 
 1024000   0.63442235   -2.0184204    0.9506819   -1.0677385   0.11946336    11733.586     1000 
 1026000   0.59416641   -2.0638643   0.89035836    -1.173506   0.11485669     11869.15     1000 
 1028000   0.60038567   -1.9924325   0.89967792   -1.0927546   0.12385759    11693.744     1000 
 1030000   0.60554271   -1.9994209   0.90740576   -1.0920151    0.1360141     11692.15     1000 
 1032000    0.5931956   -2.0042071   0.88890361   -1.1153035   0.13079914    11638.379     1000 
 1034000   0.59286008     -2.03389   0.88840083   -1.1454892   0.12950316    11491.246     1000 
 1036000   0.61800967   -2.0603009   0.92608749   -1.1342134   0.12939351    11677.382     1000 
 1038000   0.59504279   -1.9841931   0.89167163   -1.0925215    0.1494336    11431.113     1000 
 1040000   0.59798803   -2.0676746   0.89608506   -1.1715895   0.13475898    11643.018     1000 
 1042000   0.58905932   -2.0250513    0.8827054    -1.142346   0.12404284    11733.423     1000 
 1044000   0.60511704   -2.0162167   0.90676789   -1.1094488   0.12968799    11632.189     1000 
 1046000   0.59929463   -1.9940455   0.89804301   -1.0960025    0.1261761    11740.675     1000 
 1048000   0.59622141   -2.0296208   0.89343778    -1.136183   0.12488343    11871.577     1000 
 1050000   0.61331033   -2.0159564   0.91904553   -1.0969109   0.12887282    11851.101     1000 
 1052000   0.60084803   -1.9306251   0.90037077   -1.0302543   0.14268142    11473.777     1000 
 1054000   0.61858289   -2.0206096   0.92694646   -1.0936632   0.11693914    11776.919     1000 
 1056000   0.59746939    -1.995651   0.89530788   -1.1003431   0.11827818    11719.247     1000 
 1058000   0.58042987   -2.0105877   0.86977416   -1.1408135   0.14025042    11621.545     1000 
 1060000   0.58754472   -2.0303458   0.88043576   -1.1499101    0.1317328    11494.498     1000 
 1062000   0.62096514   -2.0180849   0.93051626   -1.0875687   0.12743193    11790.003     1000 
 1064000   0.61120675   -2.0405489   0.91589331   -1.1246556   0.11713822    11708.525     1000 
 1066000   0.57810381   -2.0291188   0.86628856   -1.1628303   0.12546768    11900.016     1000 
 1068000   0.58592216   -2.0020342   0.87800436   -1.1240299   0.12252066    11759.268     1000 
 1070000    0.6056868   -1.9795443   0.90762167   -1.0719227    0.1326203     11562.47     1000 
 1072000   0.61090125   -2.0492597   0.91543553   -1.1338242   0.12240901    11782.076     1000 
 1074000   0.59471576   -2.0728575   0.89118157   -1.1816759   0.13806001    11684.727     1000 
 1076000   0.59333713   -2.0537615   0.88911569   -1.1646458   0.13456515    11740.316     1000 
 1078000   0.60229284    -2.036172   0.90253582   -1.1336361   0.13748399    11615.461     1000 
 1080000   0.61331172   -2.0392498   0.91904762   -1.1202022   0.12001711     11749.63     1000 
 1082000   0.60501177     -1.98992   0.90661014   -1.0833099   0.13421587    11621.141     1000 
 1084000    0.6115846   -1.9935833   0.91645953   -1.0771237   0.12476672    11719.201     1000 
 1086000   0.58525908   -2.0033522   0.87701074   -1.1263415   0.13621163    11542.015     1000 
 1088000   0.58091862    -2.015895   0.87050655   -1.1453884   0.13244452    11643.488     1000 
 1090000   0.58371537   -2.0337728   0.87469748   -1.1590753   0.13053043    11553.346     1000 
 1092000   0.62919282   -2.0649734   0.94284543    -1.122128   0.13803832    11578.646     1000 
 1094000   0.60309876   -2.0312407   0.90374349   -1.1274972   0.13312095    11637.057     1000 
 1096000   0.58701888   -2.0459832   0.87964778   -1.1663354   0.13734875    11644.639     1000 
 1098000   0.59422523   -2.0339983   0.89044651   -1.1435518   0.12501337    11671.387     1000 
 1100000   0.61900011   -2.0256072   0.92757167   -1.0980355   0.13000338    11671.002     1000 
 1102000   0.57779112   -2.0789365      0.86582   -1.2131165   0.12321247    11670.591     1000 
 1104000    0.6168036   -1.9842677   0.92428019   -1.0599875    0.1352966    11506.229     1000 
 1106000   0.59337255   -1.9834691   0.88916877   -1.0943003   0.13002304    11725.805     1000 
 1108000   0.60869122   -1.9887694   0.91212379   -1.0766456   0.12144637     11638.97     1000 
 1110000   0.59705518   -2.0765859   0.89468718   -1.1818987   0.11504112     11843.75     1000 
 1112000   0.60713976    -2.059493   0.90979892   -1.1496941   0.13229053    11692.175     1000 
 1114000   0.62753364   -2.0252344   0.94035916   -1.0848752   0.13149422    11614.028     1000 
 1116000   0.57097825   -2.0177957    0.8556109   -1.1621848   0.12408211    11755.007     1000 
 1118000   0.60249331   -2.0016755   0.90283622   -1.0988392   0.12381084     11704.74     1000 
 1120000   0.59060498    -2.048644   0.88502157   -1.1636224   0.12386651    11782.793     1000 
 1122000   0.62089752   -1.9937429   0.93041494    -1.063328   0.14165216    11593.081     1000 
 1124000   0.61815465   -2.0343726   0.92630475   -1.1080679    0.1334594    11574.915     1000 
 1126000   0.59667854   -2.0164688    0.8941228    -1.122346    0.1476135    11406.928     1000 
 1128000    0.5932232   -2.0449402   0.88894497   -1.1559952   0.12876812     11586.87     1000 
 1130000   0.62901552   -2.0782393   0.94257976   -1.1356595   0.13889881    11750.291     1000 
 1132000   0.59633754   -2.0772804   0.89361181   -1.1836685   0.12310316    11631.962     1000 
 1134000   0.57857582   -1.9924776   0.86699586   -1.1254817   0.12445028    11654.161     1000 
 1136000   0.60538428   -2.0152641   0.90716834   -1.1080957   0.13830594    11781.137     1000 
 1138000   0.61511894    -1.977552   0.92175573   -1.0557963   0.14332151    11554.362     1000 
 1140000   0.58768101   -1.9910226   0.88063999   -1.1103826   0.12996778    11645.974     1000 
 1142000   0.58381269   -2.0582055   0.87484332   -1.1833622    0.1155438    11832.579     1000 
 1144000   0.59189833   -1.9860235   0.88695965   -1.0990639   0.11463175    11812.898     1000 
 1146000   0.58885835   -2.0371473   0.88240424   -1.1547431   0.11470721     11776.64     1000 
 1148000   0.59956062   -1.9964416   0.89844158       -1.098   0.12574798    11748.511     1000 
 1150000   0.59115645   -1.9842871   0.88584795   -1.0984392   0.12220512    11775.004     1000 
 1152000   0.61234994   -1.9767292   0.91760638   -1.0591229   0.13188638    11599.016     1000 
 1154000   0.59586868   -2.0317703   0.89290922   -1.1388611   0.12626538    11715.559     1000 
 1156000   0.58036589   -2.0604948   0.86967829   -1.1908165   0.13555147    11655.854     1000 
 1158000   0.60997291   -2.0285146   0.91404441   -1.1144702   0.13351641    11485.025     1000 
 1160000   0.60854611   -2.0197426   0.91190634   -1.1078363   0.13011961    11573.642     1000 
 1162000   0.58267741   -2.0421174    0.8731421   -1.1689753   0.12319272    11565.194     1000 
 1164000   0.58249183   -2.0053053   0.87286401   -1.1324413   0.12995822    11639.026     1000 
 1166000   0.59200967   -2.0650822   0.88712649   -1.1779558   0.13284285    11658.656     1000 
 1168000   0.61438779    -2.020384   0.92066011   -1.0997239   0.12981169    11723.916     1000 
 1170000   0.59532121   -2.0636668   0.89208883   -1.1715779   0.14989907    11539.213     1000 
 1172000   0.59149201   -2.0296912   0.88635078   -1.1433404   0.12427573    11728.376     1000 
 1174000   0.60724903   -1.9740454   0.90996267   -1.0640828   0.12742034    11834.256     1000 
 1176000   0.58854597   -1.9721636   0.88193614   -1.0902275   0.12854096     11617.04     1000 
 1178000   0.58014673   -1.9800716   0.86934988   -1.1107218   0.13820437    11511.084     1000 
 1180000   0.58170791    -2.005173    0.8716893   -1.1334837   0.12577653    11570.932     1000 
 1182000   0.61522116   -2.0387301   0.92190891   -1.1168212   0.12457432     11678.88     1000 
 1184000   0.56967491   -1.9619036   0.85365786   -1.1082457   0.11910261    11577.163     1000 
 1186000   0.60661964   -2.0151184   0.90901953   -1.1060988   0.12101132    11783.026     1000 
 1188000   0.60470377   -2.0348119    0.9061486   -1.1286633   0.13735585     11666.84     1000 
 1190000    0.6216338   -1.9959817   0.93151824   -1.0644634   0.13190772    11588.661     1000 
 1192000     0.608442   -1.9929127   0.91175034   -1.0811624   0.13323721    11673.421     1000 
 1194000   0.59954769   -2.0528953   0.89842222   -1.1544731   0.12188647    11787.289     1000 
 1196000   0.60773853   -1.9775819   0.91069619   -1.0668857   0.11689679    11720.395     1000 
 1198000   0.60956678   -2.0212983   0.91343582   -1.1078624   0.12877872    11719.421     1000 
 1200000   0.61665739   -2.0140634    0.9240611   -1.0900023   0.10988172    11786.957     1000 
 1202000   0.61910285   -2.0413967   0.92772562    -1.113671   0.13523002    11635.402     1000 
 1204000   0.60458659   -2.0298494     0.905973   -1.1238764   0.12279652     11655.21     1000 
 1206000   0.55589097   -1.9976147   0.83300261   -1.1646121   0.12758721    11570.173     1000 
 1208000   0.61937715   -2.0262623   0.92813666   -1.0981257    0.1430899    11727.862     1000 
 1210000   0.59966155   -1.9592831   0.89859283   -1.0606903   0.11921255    11807.807     1000 
 1212000   0.58607397   -2.0088527   0.87823184   -1.1306209   0.12692166    11767.776     1000 
 1214000    0.6217852   -1.9855631   0.93174512    -1.053818   0.13471545    11605.676     1000 
 1216000   0.58941892   -1.9996619   0.88324425   -1.1164176   0.13154208    11799.217     1000 
 1218000   0.59102611   -2.0284308   0.88565263   -1.1427782   0.12082179    11802.739     1000 
 1220000    0.6112915   -2.0417216   0.91602032   -1.1257013   0.12378296    11711.398     1000 
 1222000   0.64039495   -2.0281028   0.95963183    -1.068471   0.11965939    11615.879     1000 
 1224000   0.58703101   -2.0511314   0.87966597   -1.1714655   0.12421521    11704.277     1000 
 1226000   0.59408331   -2.0627721   0.89023384   -1.1725382    0.1304513    11567.374     1000 
 1228000   0.60515098   -2.0103666   0.90681875   -1.1035479   0.13680225    11708.858     1000 
 1230000   0.57936204   -1.9839373   0.86817402   -1.1157633   0.12992696    11583.194     1000 
 1232000   0.59178846   -2.0014112   0.88679501   -1.1146162   0.12042933    11804.998     1000 
 1234000   0.61584869   -1.9751349   0.92284927   -1.0522857   0.13709481    11687.133     1000 
 1236000   0.58824701   -2.0787749   0.88148814   -1.1972867   0.12293641    11887.948     1000 
 1238000   0.56954537   -2.0750268   0.85346373   -1.2215631    0.1171075    11791.147     1000 
 1240000   0.62787967   -2.0179682   0.94087769   -1.0770905   0.14217516    11506.301     1000 
 1242000   0.58155498    -2.072006   0.87146013   -1.2005459   0.13751622    11455.285     1000 
 1244000   0.59170876   -1.9929687   0.88667558   -1.1062931    0.1235009    11720.204     1000 
 1246000   0.61675054   -1.9911759   0.92420068   -1.0669753   0.12856349    11599.882     1000 
 1248000   0.58056768   -1.9907212   0.86998066   -1.1207406   0.12434933    11607.954     1000 
 1250000   0.59459378   -2.0431722   0.89099877   -1.1521734   0.13288128    11530.829     1000 
 1252000   0.61008163   -2.0314853   0.91420733    -1.117278   0.12979251    11694.667     1000 
 1254000   0.60963018    -1.996157   0.91353083   -1.0826262   0.12128285    11669.906     1000 
 1256000   0.60592305   -2.0590992   0.90797569   -1.1511235    0.1249354    11785.967     1000 
 1258000   0.61695802   -2.0109608    0.9245116   -1.0864493    0.1319302    11718.704     1000 
 1260000   0.58448867   -1.9969083   0.87585627    -1.121052   0.11324114    11724.664     1000 
 1262000   0.60910188    -2.030848   0.91273917   -1.1181088   0.12932471    11681.662     1000 
 1264000   0.61316774   -2.0127295   0.91883186   -1.0938977     0.142973    11646.531     1000 
 1266000   0.60391392   -2.0686454   0.90496501   -1.1636804   0.11618964    11603.612     1000 
 1268000   0.61558063    -2.016541   0.92244757   -1.0940934   0.12151141    11700.732     1000 
 1270000   0.61747211   -2.0488792   0.92528196   -1.1235973   0.14223245    11556.047     1000 
 1272000   0.63300099   -1.9898117   0.94855199   -1.0412597   0.14039787     11629.06     1000 
 1274000   0.59764862   -2.0350698   0.89557646   -1.1394934   0.13500538    11666.149     1000 
 1276000   0.58471299   -2.0115338   0.87619242   -1.1353413   0.12663577     11570.53     1000 
 1278000   0.60644787   -1.9704843   0.90876213   -1.0617222   0.13724388    11609.874     1000 
 1280000   0.57934429   -2.0051746   0.86814741   -1.1370272   0.14478208    11412.688     1000 
 1282000   0.61915876   -2.0268031   0.92780941   -1.0989937   0.11460227    11904.197     1000 
 1284000   0.60072376   -1.9963886   0.90018455    -1.096204   0.13353095    11623.984     1000 
 1286000   0.58483431   -2.0513043   0.87637422   -1.1749301   0.11163858    11960.252     1000 
 1288000   0.61389688   -1.9936493   0.91992447   -1.0737248   0.13421266    11644.348     1000 
 1290000   0.59071889   -1.9901143   0.88519226   -1.1049221   0.13525251    11504.432     1000 
 1292000   0.58378179   -2.0921952   0.87479702   -1.2173982   0.13511857    11756.903     1000 
 1294000    0.6101956     -1.96737    0.9143781   -1.0529919   0.14148672    11508.222     1000 
 1296000   0.58069109   -1.9445007   0.87016559   -1.0743351    0.1401279    11739.322     1000 
 1298000   0.61453761   -2.0339651    0.9208846   -1.1130805   0.14465209    11655.027     1000 
 1300000   0.58865587   -1.9997983   0.88210083   -1.1176975   0.14564154    11452.419     1000 
 1302000    0.6088926   -2.0730346   0.91242557   -1.1606091   0.11416632    11807.375     1000 
 1304000    0.5754273    -1.983439   0.86227781   -1.1211612   0.13483275    11477.152     1000 
 1306000   0.61204874   -2.0286758   0.91715503   -1.1115207    0.1305972     11775.89     1000 
 1308000   0.60652524   -2.0347847   0.90887807   -1.1259067   0.12451437    11739.528     1000 
 1310000   0.58558683     -2.01376   0.87750186   -1.1362581   0.13233468    11557.208     1000 
 1312000    0.6221723   -1.9933202    0.9323252    -1.060995   0.12478472    11554.932     1000 
 1314000   0.59771041   -2.0189481   0.89566905   -1.1232791   0.13197892    11813.859     1000 
 1316000   0.60061169   -1.9904269   0.90001661   -1.0904103   0.13022119    11692.786     1000 
 1318000   0.58609058   -1.9810901   0.87825674   -1.1028334   0.12982941    11656.867     1000 
 1320000   0.61686012   -2.0192914   0.92436489   -1.0949266   0.13655496    11447.388     1000 
 1322000   0.58857932    -2.032977   0.88198612   -1.1509908   0.12723055    11674.974     1000 
 1324000   0.59058751   -2.0181925   0.88499538   -1.1331971   0.12474221    11704.601     1000 
 1326000   0.59225932   -2.0047216    0.8875006    -1.117221   0.12274891    11626.393     1000 
 1328000   0.57359262   -2.0527089   0.85952854   -1.1931803   0.13579361    11471.023     1000 
 1330000   0.59470294   -2.0424742   0.89116236   -1.1513119   0.13655279    11649.225     1000 
 1332000   0.62952721    -1.976536   0.94334652   -1.0331895    0.1428021    11342.968     1000 
 1334000   0.60299406   -1.9957009    0.9035866   -1.0921143   0.13224469    11635.246     1000 
 1336000   0.58906645   -2.0302297   0.88271607   -1.1475137   0.15464578    11395.512     1000 
 1338000    0.6113598   -2.0021559   0.91612266   -1.0860333   0.13298295    11666.798     1000 
 1340000   0.60412284    -2.086342   0.90527807   -1.1810639   0.12787029    11725.306     1000 
 1342000   0.62062466   -1.9861388   0.93000605   -1.0561328    0.1184053    11784.662     1000 
 1344000   0.59790364   -2.0012911    0.8959586   -1.1053325   0.10457019    11897.084     1000 
 1346000   0.61799335   -2.0268149   0.92606304   -1.1007519   0.15319316    11543.114     1000 
 1348000    0.5979019   -2.0375231     0.895956   -1.1415671   0.13944886    11630.509     1000 
 1350000     0.612814   -2.0552693   0.91830177   -1.1369675    0.1106881    11798.264     1000 
 1352000   0.61361304   -2.1289637   0.91949915   -1.2094646   0.12146376    11870.294     1000 
 1354000   0.59032514   -2.0194989   0.88460222   -1.1348967   0.12012827    11708.043     1000 
 1356000   0.60106858   -1.9524575   0.90070126   -1.0517563   0.11968987     11786.77     1000 
 1358000   0.61605847   -2.0891944   0.92316361   -1.1660308   0.13285931    11785.974     1000 
 1360000   0.57020712   -2.0126096   0.85445538   -1.1581542   0.12123813     11866.89     1000 
 1362000   0.61213829   -1.9840723   0.91728923   -1.0667831   0.11566414    11658.408     1000 
 1364000   0.60348327   -1.9731239   0.90431968   -1.0688042   0.12747677    11444.748     1000 
 1366000   0.60905947   -2.0518735   0.91267562   -1.1391979   0.12397825    11826.222     1000 
 1368000   0.58423278    -2.018497   0.87547282   -1.1430242   0.11034864     11808.73     1000 
 1370000   0.61312662   -2.0489775   0.91877024   -1.1302072   0.12481314    11875.545     1000 
 1372000   0.59434704   -2.0026268   0.89062905   -1.1119977   0.14035188    11516.245     1000 
 1374000   0.61974831   -1.9860974   0.92869284   -1.0574046   0.12776671    11738.796     1000 
 1376000   0.60521328   -2.0482601    0.9069121    -1.141348   0.12367155    11752.456     1000 
 1378000   0.58334343   -2.0390544   0.87414013   -1.1649143   0.11889435    11634.097     1000 
 1380000   0.61270277   -2.0237899    0.9181351   -1.1056548   0.13202997    11669.585     1000 
 1382000   0.57362605   -2.0541767   0.85957864   -1.1945981   0.11645215    11707.358     1000 
 1384000   0.62021178   -1.9831061   0.92938735   -1.0537188    0.1446133     11579.98     1000 
 1386000   0.58404537   -2.0367703   0.87519198   -1.1615784   0.11686123    11777.145     1000 
 1388000   0.58715919   -1.9905095   0.87985804   -1.1106515   0.14099545    11541.884     1000 
 1390000   0.60973723   -2.0907428   0.91369123   -1.1770516   0.14175221    11557.508     1000 
 1392000   0.62421287   -2.0250535   0.93538299   -1.0896705   0.12161408    11817.869     1000 
 1394000   0.60778585   -1.9877557    0.9107671   -1.0769886   0.12614908    11645.857     1000 
 1396000   0.61987314   -2.0159969    0.9288799    -1.087117   0.11701882    11612.915     1000 
 1398000   0.61426701   -2.0860233   0.92047911   -1.1655442   0.13905253    11599.707     1000 
 1400000   0.60031393   -2.0239348   0.89957042   -1.1243644   0.14081815    11593.636     1000 
 1402000   0.55946401   -2.0256059   0.83835683   -1.1872491   0.13284925    11703.542     1000 
 1404000   0.59579768   -2.0223072   0.89280282   -1.1295043   0.12536777    11639.021     1000 
 1406000   0.64173445   -2.0963383   0.96163907   -1.1346992   0.12129097    11860.729     1000 
 1408000   0.57422409   -2.1011229    0.8604748   -1.2406481   0.11746577    11683.951     1000 
 1410000   0.61658546   -2.0212846   0.92395331   -1.0973313   0.13363775    11659.537     1000 
 1412000   0.57655218   -2.0042987   0.86396343   -1.1403352   0.12674177    11661.149     1000 
 1414000   0.61229988   -2.0272756   0.91753138   -1.1097442    0.1313222    11535.243     1000 
 1416000   0.61597195   -2.0246618   0.92303396   -1.1016279   0.12536553    11805.973     1000 
 1418000   0.61889889   -2.0256341   0.92741998   -1.0982141   0.12676426    11598.465     1000 
 1420000   0.61440325   -2.0588613   0.92068326    -1.138178   0.12399856    11595.559     1000 
 1422000   0.59991609   -2.0083045   0.89897427   -1.1093302   0.12009917    11840.647     1000 
 1424000    0.5845361   -1.9742988   0.87592734   -1.0983714   0.13313085    11696.979     1000 
 1426000   0.59202087   -2.0075892   0.88714327    -1.120446   0.13533876    11640.942     1000 
 1428000   0.58924594   -2.0099553   0.88298504   -1.1269703   0.12969004    11674.544     1000 
 1430000   0.60240726   -2.0058198   0.90270728   -1.1031126   0.15236782    11393.033     1000 
 1432000   0.59153818   -1.9832611   0.88641996   -1.0968411   0.12357457    11614.458     1000 
 1434000   0.60794646   -1.9366315   0.91100778   -1.0256237   0.12057448    11717.154     1000 
 1436000   0.60199462   -2.0634986   0.90208894   -1.1614096   0.13155293    11750.127     1000 
 1438000   0.57469143   -2.0234128   0.86117511   -1.1622377   0.14033514    11744.368     1000 
 1440000   0.58295743   -2.0500111    0.8735617   -1.1764494   0.13403885    11614.098     1000 
 1442000   0.60955036   -2.0069797   0.91341121   -1.0935685   0.13079544    11591.643     1000 
 1444000   0.59074339   -2.0194609   0.88522897   -1.1342319   0.12797718    11567.947     1000 
 1446000   0.59186881   -2.0181149   0.88691541   -1.1311995   0.12164192    11832.098     1000 
 1448000   0.60452935   -2.0401756   0.90588723   -1.1342884   0.12408739    11636.654     1000 
 1450000   0.58750897   -2.0087543   0.88038219   -1.1283721   0.12976193    11644.499     1000 
 1452000   0.62663093   -1.9942585   0.93900645   -1.0552521   0.14023229    11537.277     1000 
 1454000   0.61242732   -2.0307928   0.91772235   -1.1130705   0.13125718    11583.188     1000 
 1456000   0.57161811   -2.0011804   0.85656973   -1.1446107   0.11503576    11780.997     1000 
 1458000   0.56585932   -2.0523037   0.84794019   -1.2043635   0.11919621      11806.4     1000 
 1460000   0.59395442   -2.0048823   0.89004069   -1.1148416     0.126778    11634.625     1000 
 1462000   0.60506353   -2.0317737    0.9066877    -1.125086   0.13285432    11732.678     1000 
 1464000   0.58182381   -2.0102549   0.87186298   -1.1383919   0.13768778    11536.614     1000 
 1466000   0.58076639   -2.0002119   0.87027844   -1.1299335    0.1268713    11789.809     1000 
 1468000   0.59687272   -2.0044787   0.89441377   -1.1100649   0.11578252    11732.282     1000 
 1470000    0.5994419   -1.9607355   0.89826369   -1.0624718   0.12992163    11582.022     1000 
 1472000   0.57804558   -2.0057861   0.86620131   -1.1395848   0.12771744    11573.106     1000 
 1474000   0.60032527   -2.0463573   0.89958742   -1.1467699   0.12043997    11648.805     1000 
 1476000   0.59400083    -2.048852   0.89011025   -1.1587417   0.12532558    11618.142     1000 
 1478000   0.61566731   -2.0045754   0.92257746   -1.0819979   0.13509696    11607.813     1000 
 1480000   0.59089725   -1.9799602   0.88545953   -1.0945006    0.1276445    11606.789     1000 
 1482000   0.60407119   -2.0426711   0.90520067   -1.1374704   0.12465061     11737.47     1000 
 1484000   0.60111415   -2.0321167   0.90076956   -1.1313472   0.14230176    11563.057     1000 
 1486000   0.60720629   -2.0072716   0.90989863    -1.097373   0.12667056    11783.448     1000 
 1488000   0.61408431   -2.0625461   0.92020535   -1.1423407   0.15589828    11391.608     1000 
 1490000   0.60011059   -2.0049962   0.89926572   -1.1057304     0.133267    11698.851     1000 
 1492000   0.60825222    -2.026813   0.91146595   -1.1153471    0.1265677    11793.695     1000 
 1494000    0.6144807    -2.006257   0.92079932   -1.0854576   0.13317339    11715.217     1000 
 1496000   0.62414468   -2.0347058   0.93528081   -1.0994249   0.13079082    11535.431     1000 
 1498000   0.61159891   -2.0421608   0.91648097   -1.1256799   0.10906984    11896.795     1000 
 1500000   0.61206072   -2.0037479   0.91717299    -1.086575   0.11595814    11829.442     1000 
 1502000   0.59518678    -2.033415   0.89188739   -1.1415276   0.12565611    11705.717     1000 
 1504000   0.58148787   -2.0088388   0.87135957   -1.1374792   0.12359263    11745.398     1000 
 1506000    0.6055317   -2.0231303   0.90738926    -1.115741   0.13439731    11675.733     1000 
 1508000   0.58545963   -1.9608546   0.87731126   -1.0835434   0.14601181    11564.006     1000 
 1510000   0.58806439   -2.0161684   0.88121449   -1.1349539   0.12579605    11681.414     1000 
 1512000   0.59583455   -1.9803497   0.89285808   -1.0874916    0.1332243    11684.991     1000 
 1514000   0.61017834   -1.9827233   0.91435224    -1.068371   0.13271278     11862.06     1000 
 1516000   0.60835859   -2.0275445   0.91162534   -1.1159191   0.13431886    11760.022     1000 
 1518000   0.58390873   -1.9762501   0.87498723   -1.1012629    0.1261553    11672.317     1000 
 1520000   0.59396257     -1.99344    0.8900529   -1.1033871   0.12198315    11737.376     1000 
 1522000      0.60829   -1.9809571   0.91152256   -1.0694346    0.1422855    11417.729     1000 
 1524000   0.65443901   -1.9976552   0.98067685   -1.0169784   0.14041654     11776.46     1000 
 1526000   0.59663225   -2.0449326   0.89405342   -1.1508792   0.11481837    11706.617     1000 
 1528000     0.595313   -2.0563415   0.89207653    -1.164265   0.12797092    11678.573     1000 
 1530000   0.59026518   -2.0401743   0.88451237   -1.1556619    0.1377593     11507.12     1000 
 1532000   0.60049022    -2.020866    0.8998346   -1.1210315   0.13026619    11667.884     1000 
 1534000   0.58482004   -2.0228111   0.87635283   -1.1464583   0.11637982    11792.431     1000 
 1536000   0.59530169   -2.0085878   0.89205959   -1.1165282   0.12287197    11859.656     1000 
 1538000   0.62569011   -1.9885684   0.93759663   -1.0509718   0.12933074    11775.219     1000 
 1540000   0.60037826   -2.0474427   0.89966683   -1.1477759   0.14704955    11629.051     1000 
 1542000   0.59599242   -2.0296022   0.89309464   -1.1365075   0.11043254    11800.666     1000 
 1544000   0.61436042   -1.9687862    0.9206191   -1.0481671   0.13026925    11656.931     1000 
 1546000   0.59735217    -2.040285   0.89513223   -1.1451528   0.12329002    11717.612     1000 
 1548000    0.5958436   -2.0343968   0.89287163   -1.1415252   0.13426535    11648.197     1000 
 1550000   0.58544389   -2.0124699   0.87728767   -1.1351823   0.12840389    11668.078     1000 
 1552000   0.60124909   -1.9883481   0.90097177   -1.0873763    0.1471398    11483.303     1000 
 1554000   0.62497979   -1.9845418   0.93653222   -1.0480096   0.14268624    11535.544     1000 
 1556000   0.62381746   -2.0271944   0.93479047    -1.092404   0.14294895    11687.019     1000 
 1558000   0.61175497   -2.0388058   0.91671483    -1.122091   0.13730959    11833.666     1000 
 1560000   0.63180802   -2.0310982   0.94676431   -1.0843339   0.13982581     11494.67     1000 
 1562000   0.60749072   -2.0241351   0.91032484   -1.1138103   0.13404002    11566.446     1000 
 1564000   0.58308648    -1.991833   0.87375508   -1.1180779   0.11653585    11581.566     1000 
 1566000   0.60637179   -1.9737018   0.90864812   -1.0650537   0.13550752    11594.605     1000 
 1568000   0.60229039   -2.0372677   0.90253215   -1.1347355   0.14074286    11566.863     1000 
 1570000   0.60276608   -1.9985566   0.90324497   -1.0953116   0.13588487    11822.719     1000 
 1572000   0.64624638   -1.9831649    0.9684002   -1.0147647   0.13664186    11650.033     1000 
 1574000   0.60529936   -2.0300328    0.9070411   -1.1229917   0.13415074    11788.601     1000 
 1576000   0.60492336   -2.0760605   0.90647766   -1.1695829   0.12057103    11800.871     1000 
 1578000   0.59555215   -1.9945734    0.8924349   -1.1021385   0.12852098    11619.759     1000 
 1580000    0.6161901   -2.0671152   0.92336087   -1.1437543   0.15201657    11648.601     1000 
 1582000   0.61521587   -2.0125999   0.92190098   -1.0906989   0.14120455    11462.211     1000 
 1584000   0.61140012   -2.0286023   0.91618307   -1.1124192   0.13432599    11525.961     1000 
 1586000   0.58759457   -2.0145293   0.88051047   -1.1340189   0.13133202    11501.912     1000 
 1588000   0.60210996   -1.9696914   0.90226177   -1.0674296   0.13144959    11775.667     1000 
[...]
 2614000   0.60185363    -1.989058   0.90187767   -1.0871803   0.14047221     11621.04     1000 
 2616000   0.56967513   -2.0272138   0.85365818   -1.1735556   0.12326497    11701.203     1000 
 2618000   0.61194542   -1.9978213   0.91700021   -1.0808211   0.14195071    11670.618     1000 
 2620000   0.60806619   -1.9953839   0.91118719   -1.0841967   0.12480159     11789.58     1000 
 2622000    0.5858987   -2.0102567    0.8779692   -1.1322875   0.11458806    11727.628     1000 
 2624000   0.57956368   -2.0375359   0.86847618   -1.1690597   0.12647307    11718.337     1000 
 2626000   0.60088495    -2.037259   0.90042609   -1.1368329   0.14494532    11593.105     1000 
 2628000   0.59988985   -2.0207606   0.89893494   -1.1218256   0.14716606    11447.959     1000 
 2630000   0.58746475   -1.9985797   0.88031594   -1.1182638   0.13596235    11612.115     1000 
 2632000   0.61035826     -2.05884   0.91462186   -1.1442182   0.12330791    11766.027     1000 
 2634000   0.61221893   -2.0155436   0.91741006   -1.0981335   0.14110727    11797.347     1000 
 2636000   0.60574585   -2.0157487   0.90771016   -1.1080385   0.12533458    11642.984     1000 
 2638000   0.59713674   -2.0302051   0.89480941   -1.1353957   0.13377378     11610.56     1000 
 2640000   0.58903553   -1.9460293   0.88266974   -1.0633595   0.11688663    11813.249     1000 
 2642000   0.59091722   -2.0400688   0.88548946   -1.1545793     0.123834    11756.593     1000 
 2644000   0.61559349   -2.0668321   0.92246685   -1.1443653   0.13167591    11771.596     1000 
 2646000   0.60746022   -1.9992356   0.91027915   -1.0889565   0.13330939    11591.075     1000 
 2648000   0.57136857   -2.0474472    0.8561958   -1.1912514   0.13954074    11701.756     1000 
 2650000   0.58373391   -2.0122456   0.87472527   -1.1375203   0.15304708    11399.483     1000 
 2652000    0.6016541    -1.933423   0.90157867   -1.0318443   0.13957823    11485.792     1000 
 2654000   0.61117663   -2.0022538   0.91584818   -1.0864056   0.13564192    11586.345     1000 
 2656000   0.62062721   -2.0053033   0.93000987   -1.0752935   0.12937799    11626.299     1000 
 2658000   0.58397956   -1.9863823   0.87509337    -1.111289    0.1245071    11600.659     1000 
 2660000   0.59121528   -2.0031692   0.88593609   -1.1172331   0.13991824     11357.14     1000 
 2662000   0.56671775   -2.0142989   0.84922655   -1.1650724   0.14588578    11557.613     1000 
 2664000    0.5938407   -1.9429242   0.88987029   -1.0530539   0.14346964     11501.81     1000 
 2666000   0.60847684   -1.9859381   0.91180255   -1.0741355   0.13945188    11467.797     1000 
 2668000   0.61188121   -1.9714316   0.91690399   -1.0545276   0.13543648     11603.92     1000 
 2670000   0.57813085   -1.9668588   0.86632908   -1.1005297   0.13244851    11561.039     1000 
 2672000   0.61116023   -2.0743751    0.9158236   -1.1585515   0.12634715    11875.158     1000 
 2674000   0.58994887   -2.0186077   0.88403839   -1.1345693      0.13247    11684.675     1000 
 2676000   0.62616201   -2.0008458   0.93830377    -1.062542   0.12907458    11665.888     1000 
 2678000   0.56504276    -2.006497   0.84671658   -1.1597804   0.12659317    11757.986     1000 
 2680000   0.62121925    -2.011496   0.93089705   -1.0805989   0.12787943    11596.871     1000 
 2682000   0.59295567   -1.9803417   0.88854408   -1.0917977   0.13243386    11678.931     1000 
 2684000   0.61183813   -2.0010071   0.91683944   -1.0841676   0.12329336    11797.668     1000 
 2686000   0.60829578   -1.9372622   0.91153122    -1.025731   0.12906196    11561.463     1000 
 2688000   0.59525505   -2.0212238   0.89198969   -1.1292341   0.12721746     11604.21     1000 
 2690000   0.59798708    -1.954522   0.89608364   -1.0584384    0.1321113    11524.642     1000 
 2692000   0.60488474   -1.9905356   0.90641979   -1.0841159   0.14123648    11460.245     1000 
 2694000   0.60072663   -1.9908296   0.90018885   -1.0906407   0.13881492    11392.522     1000 
 2696000   0.61386135   -1.9672126   0.91987123   -1.0473413   0.13051643     11724.69     1000 
 2698000   0.58893572   -2.0528431   0.88252017   -1.1703229   0.12245161    11686.979     1000 
 2700000   0.58387705   -2.0567322   0.87493976   -1.1817925   0.13761234    11720.815     1000 
 2702000    0.5948412   -2.0672771   0.89136954   -1.1759076   0.12512018    11765.441     1000 
 2704000   0.60433854   -1.9464357    0.9056013   -1.0408344   0.13698418    11574.237     1000 
 2706000   0.58448176   -2.0210053   0.87584592   -1.1451594   0.13603134    11594.702     1000 
 2708000   0.63146323   -2.0262815   0.94624765   -1.0800338   0.11467651    11883.851     1000 
 2710000   0.57716507   -2.0126801   0.86488186   -1.1477983   0.13256619    11647.054     1000 
 2712000   0.60799104   -2.0250819   0.91107458   -1.1140073   0.14318154    11475.281     1000 
 2714000   0.61291341   -1.9899223   0.91845075   -1.0714715   0.13352999    11680.915     1000 
 2716000   0.59890033   -2.0189793   0.89745215   -1.1215271   0.13255538    11704.549     1000 
 2718000   0.60490837    -2.078403   0.90645519   -1.1719478   0.12235013    11792.183     1000 
 2720000   0.61312565   -2.1040219   0.91876878   -1.1852531   0.12786373    11725.253     1000 
 2722000   0.58731973   -1.9761866   0.88009861    -1.096088   0.12784526    11621.825     1000 
 2724000   0.58765116   -2.0252508   0.88059526   -1.1446556   0.12741822    11711.338     1000 
 2726000   0.61055888   -2.0275946   0.91492248   -1.1126721   0.14375532    11564.325     1000 
 2728000   0.58786389   -1.9681675   0.88091404   -1.0872535   0.12910031    11548.706     1000 
 2730000   0.59626202   -1.9759208   0.89349863   -1.0824222   0.11251263    11900.178     1000 
 2732000   0.59620194   -2.0128496   0.89340861    -1.119441    0.1237906    11615.909     1000 
 2734000   0.57193294   -2.0540499   0.85704151   -1.1970084   0.13676113    11608.175     1000 
 2736000      0.59202   -2.0495326   0.88714196   -1.1623907   0.11689471    11596.164     1000 
 2738000   0.59631453   -1.9814598   0.89357733   -1.0878825   0.13900996    11415.363     1000 
 2740000   0.57561574    -2.010317   0.86256018   -1.1477568   0.11717114    11789.172     1000 
 2742000   0.57523778   -2.0330345   0.86199382   -1.1710407   0.13330525    11738.036     1000 
 2744000    0.6042237   -2.0213067   0.90542922   -1.1158775   0.15013355     11402.64     1000 
 2746000   0.57112944   -2.0110995   0.85583746    -1.155262   0.12866636    11709.463     1000 
 2748000   0.60969529   -2.0248538   0.91362839   -1.1112255   0.13046849    11701.203     1000 
 2750000   0.57460065    -2.000776   0.86103907   -1.1397369   0.13386831    11467.672     1000 
 2752000   0.59335721   -2.0433286   0.88914578   -1.1541828   0.12361773    11636.401     1000 
 2754000   0.58168974   -2.0397651   0.87166207    -1.168103   0.12863718    11805.694     1000 
 2756000   0.62937515   -2.0098315   0.94311866   -1.0667128   0.13693001    11547.568     1000 
 2758000   0.58565173   -1.9653638   0.87759911   -1.0877647   0.13444049    11703.055     1000 
 2760000   0.61056525   -2.0809457   0.91493203   -1.1660137   0.11393503     11775.06     1000 
 2762000   0.57464919   -2.0172266   0.86111181   -1.1561148   0.14872886    11343.904     1000 
 2764000    0.5850885   -2.0565204   0.87675512   -1.1797653   0.14026538     11669.91     1000 
 2766000   0.62085886   -1.9819754     0.930357   -1.0516184   0.13220917    11772.603     1000 
 2768000   0.60559792   -2.0421893   0.90748849   -1.1347008   0.12215392    11872.498     1000 
 2770000   0.58219147   -2.0012188   0.87241392   -1.1288049   0.13031331    11654.274     1000 
 2772000   0.59870266   -2.0282146   0.89715593   -1.1310587   0.11966275    11626.612     1000 
 2774000   0.62396773   -1.9852963   0.93501565   -1.0502806   0.14312966    11500.774     1000 
 2776000   0.58095694   -2.0266597   0.87056397   -1.1560958    0.1311986    11591.441     1000 
 2778000   0.59751046   -2.0595144   0.89536943    -1.164145   0.13216024     11707.58     1000 
 2780000   0.60079257    -1.994807   0.90028767   -1.0945194   0.12703173     11680.51     1000 
 2782000   0.59581803   -2.0614768   0.89283331   -1.1686435   0.12786602    11720.368     1000 
 2784000   0.61211695   -2.0271124   0.91725725   -1.1098552   0.12581963    11662.483     1000 
 2786000   0.59194906   -1.9881165   0.88703567   -1.1010808   0.13778748    11693.721     1000 
 2788000   0.58900797   -2.0422101   0.88262844   -1.1595817   0.13210208    11707.977     1000 
 2790000   0.58056599   -2.0298247   0.86997813   -1.1598466   0.13719385    11454.995     1000 
 2792000   0.58581076   -2.0172873   0.87783743   -1.1394499   0.12505914    11805.985     1000 
 2794000   0.59200618   -1.9760734   0.88712127   -1.0889521   0.11658818    11839.252     1000 
 2796000   0.58857322   -1.9742399   0.88197697    -1.092263    0.1259382     11584.58     1000 
 2798000   0.58442973   -1.9842867   0.87576795   -1.1085188   0.13887392    11589.542     1000 
 2800000   0.60725591    -2.022792   0.90997298    -1.112819   0.12958609     11753.39     1000 
 2802000   0.60420309   -2.0281404   0.90539834   -1.1227421   0.13469474    11694.026     1000 
 2804000   0.60894173   -1.9841436   0.91249918   -1.0716444   0.12693105    11653.668     1000 
 2806000    0.6014352   -2.0751008   0.90125064   -1.1738502   0.12461349    11844.556     1000 
 2808000   0.58483026   -2.0297645   0.87636815   -1.1533964   0.12943669    11915.784     1000 
 2810000   0.60636341   -2.0184543   0.90863557   -1.1098187    0.1287888    11569.327     1000 
 2812000   0.58979589   -1.9966805   0.88380913   -1.1128714   0.15401663    11359.307     1000 
 2814000   0.61664342   -2.0165169   0.92404016   -1.0924767   0.13199388    11662.833     1000 
 2816000   0.60504059   -2.0214188   0.90665332   -1.1147655    0.1277602    11618.442     1000 
 2818000   0.61836199   -1.9966021   0.92661544   -1.0699866   0.12876008    11745.941     1000 
 2820000   0.59567307   -2.0074823   0.89261609   -1.1148662   0.11799994    11774.052     1000 
 2822000   0.60263646   -2.0147393   0.90305074   -1.1116886   0.13065613    11639.607     1000 
 2824000   0.59463281   -1.9836198   0.89105727   -1.0925626   0.12594993    11726.421     1000 
 2826000   0.59341657   -1.9719293   0.88923473   -1.0826946   0.13582874    11508.348     1000 
 2828000   0.62617401   -2.0263336   0.93832175   -1.0880119   0.12844156    11660.377     1000 
 2830000   0.59841999   -2.0476645   0.89673235   -1.1509322   0.13268697    11591.297     1000 
 2832000   0.60289359   -2.0339136   0.90343604   -1.1304776   0.13998993     11602.41     1000 
 2834000   0.58846364   -2.0194796   0.88181276   -1.1376669   0.13307998    11610.579     1000 
 2836000   0.60836964   -2.0232805   0.91164191   -1.1116386   0.12010158    11671.055     1000 
 2838000   0.59930121   -2.0103028   0.89805287     -1.11225   0.12823411    11615.371     1000 
 2840000   0.60174386   -1.9962258   0.90171318   -1.0945126   0.12568845    11667.576     1000 
 2842000   0.57457671   -2.0260245   0.86100319   -1.1650213   0.13080392    11610.676     1000 
 2844000   0.57593463   -2.0431122   0.86303805   -1.1800742   0.12426347    11614.164     1000 
 2846000   0.60446528   -2.0203049   0.90579122   -1.1145136   0.13341863    11605.278     1000 
 2848000   0.59962393   -2.0154895   0.89853646   -1.1169531   0.13742055    11647.431     1000 
 2850000   0.59138881   -2.0024112   0.88619613   -1.1162151   0.13283137     11498.88     1000 
 2852000   0.59813465   -2.0649866   0.89630477   -1.1686818   0.12716822    11529.592     1000 
 2854000   0.60235084   -1.9939481   0.90262273   -1.0913254   0.13160892    11652.712     1000 
 2856000   0.60451696   -2.0423337   0.90586867    -1.136465   0.13012282    11619.577     1000 
 2858000   0.58879802    -2.036131   0.88231384   -1.1538171   0.13666344    11589.131     1000 
 2860000   0.58147615   -2.0247473   0.87134201   -1.1534053   0.12994832     11693.95     1000 
 2862000   0.58779445   -1.9608108   0.88080998   -1.0800008   0.12877544    11533.806     1000 
 2864000   0.57943699    -2.071619   0.86828633   -1.2033327   0.13736356    11564.939     1000 
 2866000   0.60365655   -2.0418126   0.90457935   -1.1372332   0.14174937    11477.932     1000 
 2868000   0.60338111   -2.0901124   0.90416659   -1.1859458   0.12263169    11906.746     1000 
 2870000   0.61732803   -1.9998678   0.92506606   -1.0748017    0.1380514    11615.612     1000 
 2872000   0.60026416   -1.9808562   0.89949585   -1.0813604   0.13737942    11478.056     1000 
 2874000   0.57865807   -1.9929693   0.86711912   -1.1258502   0.12922936    11708.349     1000 
 2876000    0.5872167   -2.0001925   0.87994423   -1.1202483   0.11719084    11831.547     1000 
 2878000   0.62038424   -2.0151435   0.92964578   -1.0854978   0.12819979    11739.355     1000 
 2880000   0.59524605   -1.9439528   0.89197621   -1.0519766   0.12755965    11601.668     1000 
 2882000   0.57687644   -2.0352398   0.86444934   -1.1707905   0.11807084    11754.549     1000 
 2884000   0.60753374   -2.0096323   0.91038931    -1.099243   0.14284587    11646.097     1000 
 2886000   0.57455684   -2.0067896   0.86097342   -1.1458162   0.11487621    11683.721     1000 
 2888000   0.60555216   -1.9701324   0.90741992   -1.0627124   0.13254446    11645.702     1000 
 2890000   0.59442605   -2.0627934   0.89074744    -1.172046   0.13944663    11693.868     1000 
 2892000   0.60110635   -2.0299136   0.90075786   -1.1291557   0.12723528    11676.128     1000 
 2894000     0.600715   -1.9819501   0.90017143   -1.0817787   0.15066067    11512.457     1000 
 2896000   0.59744613    -1.974961   0.89527303    -1.079688   0.13245387    11716.357     1000 
 2898000   0.60387242   -2.0351607   0.90490282   -1.1302579   0.12301232    11826.587     1000 
 2900000   0.60543627   -1.9964084   0.90724625   -1.0891622    0.1387613    11496.642     1000 
 2902000   0.58592215   -2.0416344   0.87800434   -1.1636301   0.12322173    11698.267     1000 
 2904000   0.57477587    -2.044641   0.86130164   -1.1833393   0.11581255    11764.305     1000 
 2906000   0.57054926   -2.0057328   0.85496806   -1.1507648   0.12541442    11511.905     1000 
 2908000   0.60504136   -2.0150802   0.90665448   -1.1084257   0.12474383    11798.481     1000 
 2910000    0.6089016   -1.9672081   0.91243905    -1.054769   0.13498831    11506.159     1000 
 2912000   0.60728994   -1.9497671   0.91002398   -1.0397431   0.14891766    11435.883     1000 
 2914000   0.59697158   -2.0212657   0.89456192   -1.1267038   0.12307547    11723.524     1000 
 2916000    0.5767933   -2.0602683   0.86432476   -1.1959435   0.12920677    11536.667     1000 
 2918000   0.59585056   -2.0476234   0.89288206   -1.1547413   0.13759743    11767.507     1000 
 2920000    0.6112797   -2.0497812   0.91600263   -1.1337785   0.14090586    11599.017     1000 
 2922000   0.58496908   -2.0171103   0.87657617   -1.1405341   0.13976009    11506.387     1000 
 2924000   0.60017194   -2.0654504   0.89935766   -1.1660927    0.1229282    11799.261     1000 
 2926000   0.60254608   -2.0001419    0.9029153   -1.0972266   0.13756743     11680.77     1000 
 2928000   0.60029508   -1.9929944   0.89954218   -1.0934522   0.14106637     11600.35     1000 
 2930000   0.59351392   -2.0148423   0.88938061   -1.1254617   0.13405859     11734.53     1000 
 2932000   0.61170828   -1.9445535   0.91664486   -1.0279086   0.13823519    11657.472     1000 
 2934000    0.5632485   -2.0828784   0.84402787   -1.2388506   0.12276734    11766.896     1000 
 2936000   0.56779048   -2.0652555   0.85083404   -1.2144215   0.12992707    11733.668     1000 
 2938000   0.59849553   -1.9642905   0.89684555    -1.067445   0.11894127    11606.526     1000 
 2940000   0.61121695     -2.04364   0.91590861   -1.1277314   0.12477836    11727.064     1000 
 2942000     0.587722   -2.0330244   0.88070141    -1.152323   0.13216839    11612.746     1000 
 2944000   0.60206086   -2.0214497    0.9021882   -1.1192615   0.13173808     11593.63     1000 
 2946000   0.59505377   -2.0418065   0.89168807   -1.1501184   0.12468854    11665.621     1000 
 2948000   0.58661484   -2.0369905   0.87904233   -1.1579481   0.10761103    11876.679     1000 
 2950000   0.60601901   -2.0223666   0.90811949   -1.1142471   0.12064567     11765.69     1000 
 2952000   0.60479552   -1.9768261   0.90628609     -1.07054   0.14508048    11591.536     1000 
 2954000   0.59243988   -2.0422206   0.88777117   -1.1544494    0.1382481    11565.804     1000 
 2956000   0.58581244   -2.0407506   0.87783994   -1.1629106   0.12399053    11705.095     1000 
 2958000   0.57092592   -1.9824605   0.85553249    -1.126928   0.13224006    11585.759     1000 
 2960000   0.61047444   -2.0320812   0.91479595   -1.1172853   0.14466756    11391.308     1000 
 2962000   0.60961738   -2.0439544   0.91351164   -1.1304428   0.13092026    11662.194     1000 
 2964000   0.58444921   -2.0317577   0.87579714   -1.1559606   0.12981981    11672.649     1000 
 2966000   0.60511494   -1.9805374   0.90676473   -1.0737727   0.13898983    11695.463     1000 
 2968000    0.6169331   -2.0561338   0.92447426   -1.1316595   0.12510487     11677.73     1000 
 2970000    0.5855754   -2.0105924   0.87748473   -1.1331076   0.12366301    11798.377     1000 
 2972000   0.61692608   -1.9943383   0.92446373   -1.0698746   0.12395632    11750.793     1000 
 2974000    0.6092659   -1.9940788   0.91298495   -1.0810938   0.12958305    11584.419     1000 
 2976000   0.57023309   -2.0174714   0.85449428   -1.1629771   0.12996881    11540.411     1000 
 2978000   0.60881055   -2.0541092   0.91230261   -1.1418066    0.1230026    11807.951     1000 
 2980000   0.58350083   -2.0136158     0.874376   -1.1392398   0.11555158    11805.977     1000 
 2982000   0.58494861   -1.9621694   0.87654548   -1.0856239   0.12001329    11783.958     1000 
 2984000   0.61482302   -1.9791729    0.9213123   -1.0578606   0.13013734    11606.811     1000 
 2986000   0.62077475   -2.0647887   0.93023097   -1.1345577   0.13022991    11519.884     1000 
 2988000   0.61391951   -2.0591173   0.91995838   -1.1391589   0.12128061    11782.437     1000 
 2990000   0.57589934   -1.9725477   0.86298516   -1.1095625   0.12182287    11833.299     1000 
 2992000   0.57640269    -2.053774   0.86373943   -1.1900346   0.13183199    11484.039     1000 
 2994000   0.62655614   -2.0726148   0.93889438   -1.1337204   0.12490264    11615.647     1000 
 2996000   0.58836547   -1.9870364   0.88166566   -1.1053707   0.12294063    11683.328     1000 
 2998000   0.58984195   -1.9826614   0.88387816   -1.0987833   0.13903424     11556.39     1000 
 3000000   0.58944199    -2.062569   0.88327882   -1.1792902   0.11705482    11755.923     1000 
Loop time of 1146.37 on 1 procs for 3000000 steps with 1000 atoms

Performance: 1130523.147 tau/day, 2616.952 timesteps/s
100.0% CPU use with 1 MPI tasks x 1 OpenMP threads

MPI task timing breakdown:
Section |  min time  |  avg time  |  max time  |%varavg| %total
---------------------------------------------------------------
Pair    | 899.35     | 899.35     | 899.35     |   0.0 | 78.45
Neigh   | 144.5      | 144.5      | 144.5      |   0.0 | 12.60
Comm    | 24.385     | 24.385     | 24.385     |   0.0 |  2.13
Output  | 0.018184   | 0.018184   | 0.018184   |   0.0 |  0.00
Modify  | 72.807     | 72.807     | 72.807     |   0.0 |  6.35
Other   |            | 5.313      |            |       |  0.46

Nlocal:        1000.00 ave        1000 max        1000 min
Histogram: 1 0 0 0 0 0 0 0 0 0
Nghost:        2141.00 ave        2141 max        2141 min
Histogram: 1 0 0 0 0 0 0 0 0 0
Neighs:        26613.0 ave       26613 max       26613 min
Histogram: 1 0 0 0 0 0 0 0 0 0

Total # of neighbors = 26613
Ave neighs/atom = 26.613000
Neighbor list builds = 150000
Dangerous builds not checked

Total wall time: 0:19:06
