LAMMPS (29 Sep 2021 - Update 2)
OMP_NUM_THREADS environment is not set. Defaulting to 1 thread. (src/comm.cpp:98)
  using 1 OpenMP thread(s) per MPI task
# ----------------------- Inicialização -----------------------

units			lj
atom_style 		atomic
dimension 		3
boundary 		p p p

# -------------------- Criação dos Átomos ---------------------

read_data 		topologia.txt
Reading data file ...
  orthogonal box = (0.0000000 0.0000000 0.0000000) to (21.540000 21.540000 21.540000)
  1 by 2 by 2 MPI processor grid
  reading atoms ...
  1000 atoms
  read_data CPU = 0.004 seconds

velocity 		all create ${temp} 87287 rot yes dist gaussian
velocity 		all create 0.34 87287 rot yes dist gaussian

# ------------------ Interação Interatômica -------------------

pair_style		table linear 1300
pair_coeff		1 1 force.table AA 6.5
WARNING: 2 of 1300 force values in table AA are inconsistent with -dE/dr.
WARNING:  Should only be flagged at inflection points (src/pair_table.cpp:465)
pair_coeff		1 2 force.table AB 6.5
WARNING: 1 of 1300 force values in table AB are inconsistent with -dE/dr.
WARNING:  Should only be flagged at inflection points (src/pair_table.cpp:465)
pair_coeff		2 2 force.table BB 6.5
pair_write		1 1 1600 r 0.008 6.5 table.check AA
Appending to table file table.check with DATE: 2023-08-12
Neighbor list info ...
  update every 1 steps, delay 10 steps, check yes
  max neighbors/atom: 2000, page size: 100000
  master list distance cutoff = 6.8
  ghost atom cutoff = 6.8
  binsize = 3.4, bins = 7 7 7
  1 neighbor lists, perpetual/occasional/extra = 1 0 0
  (1) pair table, perpetual
      attributes: half, newton on
      pair build: half/bin/atomonly/newton
      stencil: half/bin/3d
      bin: standard
pair_write		1 2 1600 r 0.008 6.5 table.check AB
Appending to table file table.check with DATE: 2023-08-12
pair_write		2 2 1600 r 0.008 6.5 table.check BB
Appending to table file table.check with DATE: 2023-08-12

neighbor 		0.3 bin
neigh_modify	every 20 delay 0 check no

# ------------------------- Ensemble --------------------------------------

fix 1			all npt temp ${temp} ${temp} 0.5 iso ${press} ${press} 5
fix 1			all npt temp 0.34 ${temp} 0.5 iso ${press} ${press} 5
fix 1			all npt temp 0.34 0.34 0.5 iso ${press} ${press} 5
fix 1			all npt temp 0.34 0.34 0.5 iso 0.13 ${press} 5
fix 1			all npt temp 0.34 0.34 0.5 iso 0.13 0.13 5

# ---------------------- Função de Distribuição Radial -----------------------

compute RDF 	all rdf 2000 1 1 1 2 2 2
fix 2 			all ave/time 1 2000 2000 c_RDF[*] file rdf.data mode vector

# ------------------------- Execução ---------------------------

timestep 		0.005
thermo_style	custom step temp pe ke etotal press vol atoms
thermo			2000
run				3000000
Neighbor list info ...
  update every 20 steps, delay 0 steps, check no
  max neighbors/atom: 2000, page size: 100000
  master list distance cutoff = 6.8
  ghost atom cutoff = 6.8
  binsize = 3.4, bins = 7 7 7
  2 neighbor lists, perpetual/occasional/extra = 1 1 0
  (1) pair table, perpetual
      attributes: half, newton on
      pair build: half/bin/atomonly/newton
      stencil: half/bin/3d
      bin: standard
  (2) compute rdf, occasional, copy from (1)
      attributes: half, newton on
      pair build: copy
      stencil: none
      bin: none
Per MPI rank memory allocation (min/avg/max) = 2.675 | 2.675 | 2.675 Mbytes
Step Temp PotEng KinEng TotEng Press Volume Atoms 
       0         0.34    0.3122489      0.50949    0.8217389   0.92089033    9993.9483     1000 
    2000   0.34329913   -2.6718432   0.51443374   -2.1574094   0.12976815    11328.037     1000 
    4000   0.34472679   -2.7264613   0.51657309   -2.2098882   0.12534777     11328.66     1000 
    6000   0.33035505   -2.7793404   0.49503704   -2.2843033   0.11867652    11444.325     1000 
    8000   0.35394761   -2.7612213   0.53039049   -2.2308308   0.13581108    11371.786     1000 
   10000    0.3238915   -2.7736986   0.48535141   -2.2883472    0.1396025    11289.249     1000 
   12000   0.33739435   -2.8074874   0.50558543    -2.301902    0.1147785    11425.738     1000 
   14000   0.34745499   -2.7559632   0.52066131   -2.2353019   0.12664826    11321.471     1000 
   16000   0.33741473   -2.7663087   0.50561598   -2.2606927   0.13987855    11196.415     1000 
   18000   0.33203342   -2.7953503   0.49755208   -2.2977982   0.13195805    11276.927     1000 
   20000   0.34079818   -2.7373816   0.51068607   -2.2266955   0.13739818    11171.083     1000 
   22000   0.33568862   -2.7610295    0.5030294   -2.2580001   0.12510049    11459.122     1000 
   24000   0.34307945    -2.761723   0.51410456   -2.2476184   0.13286165    11227.235     1000 
   26000   0.33632092   -2.7940608    0.5039769   -2.2900839    0.1286042    11379.663     1000 
   28000     0.349071   -2.7223126   0.52308289   -2.1992297   0.13289704    11267.511     1000 
   30000   0.33423055   -2.7429758   0.50084448   -2.2421313    0.1279938    11322.486     1000 
   32000   0.34696374   -2.7751669   0.51992516   -2.2552418   0.12447335    11312.787     1000 
   34000   0.32327717    -2.770515   0.48443084   -2.2860842   0.12209647    11350.233     1000 
   36000   0.33071628   -2.7540292   0.49557835   -2.2584508   0.12865554    11299.296     1000 
   38000    0.3535229   -2.7890879   0.52975407   -2.2593338   0.13721699    11271.612     1000 
   40000   0.33992929   -2.7457641   0.50938404   -2.2363801   0.13646987    11266.447     1000 
   42000   0.33697569   -2.7884013   0.50495808   -2.2834433   0.12167249    11385.732     1000 
   44000    0.3433645   -2.7931817   0.51453171     -2.27865   0.12701054    11332.517     1000 
   46000   0.32585565    -2.781019   0.48829469   -2.2927243   0.13812848    11302.943     1000 
   48000   0.33548484   -2.8019865   0.50272403   -2.2992625   0.13210232    11317.714     1000 
   50000   0.33751192   -2.7825227   0.50576161   -2.2767611   0.14053251    11267.447     1000 
   52000   0.33649341   -2.7656726   0.50423538   -2.2614372    0.1298277    11294.406     1000 
   54000     0.351218   -2.7784315   0.52630017   -2.2521313    0.1258589    11420.594     1000 
   56000    0.3351201   -2.7606861   0.50217747   -2.2585086   0.12228554    11342.289     1000 
   58000   0.34233279   -2.8231714   0.51298568   -2.3101858   0.13436331    11370.125     1000 
   60000   0.34603385   -2.7876732   0.51853173   -2.2691415   0.13362515    11293.145     1000 
   62000   0.35307574   -2.7752286     0.529084   -2.2461446   0.12103407    11447.942     1000 
   64000   0.34311407    -2.789405   0.51415644   -2.2752486   0.12965114    11316.944     1000 
   66000   0.34632462   -2.8127829   0.51896745   -2.2938155   0.11671096     11462.36     1000 
   68000    0.3401645   -2.7961169   0.50973651   -2.2863804   0.12214713    11393.977     1000 
   70000   0.33999908   -2.8239176   0.50948862    -2.314429   0.13689532    11297.055     1000 
   72000   0.34666716   -2.7999971   0.51948073   -2.2805164   0.12548932    11305.169     1000 
   74000   0.35287619   -2.7901796   0.52878497   -2.2613946   0.13280695    11397.244     1000 
   76000   0.34705193   -2.7956692   0.52005731   -2.2756119   0.12918201    11246.504     1000 
   78000   0.34430411   -2.7946487   0.51593971    -2.278709   0.14610639    11179.124     1000 
   80000   0.33134608   -2.7688955    0.4965221   -2.2723734   0.13651678    11283.437     1000 
   82000   0.34670716   -2.8197861   0.51954068   -2.3002455    0.1234552    11391.922     1000 
   84000    0.3293458   -2.7865926   0.49352469   -2.2930679   0.12952894    11296.402     1000 
   86000   0.35073291   -2.7340075   0.52557326   -2.2084342   0.12601191    11304.751     1000 
   88000   0.33643744   -2.7653125   0.50415151    -2.261161    0.1348151    11259.459     1000 
   90000   0.35224433   -2.7872082   0.52783813   -2.2593701   0.13450194    11320.563     1000 
   92000   0.34902333   -2.7140959   0.52301146   -2.1910844   0.14135637     11221.99     1000 
   94000   0.33988237   -2.7679335   0.50931373   -2.2586197   0.13827651    11227.748     1000 
   96000   0.33714033   -2.7955825   0.50520478   -2.2903777   0.12523815    11429.469     1000 
   98000   0.34082562   -2.8053301    0.5107272   -2.2946029    0.1149374    11505.022     1000 
  100000   0.34391544   -2.7869158   0.51535729   -2.2715585   0.12405729    11392.697     1000 
  102000   0.34067764   -2.7810725   0.51050544    -2.270567   0.13857626    11242.494     1000 
  104000   0.33741672   -2.8042342   0.50561896   -2.2986153   0.12295575    11333.679     1000 
  106000   0.33006466   -2.7768072   0.49460189   -2.2822053   0.12572478     11233.65     1000 
  108000   0.34723224   -2.7782325   0.52032751   -2.2579049   0.12113694    11373.231     1000 
  110000   0.33053249   -2.7817649   0.49530294   -2.2864619   0.12708532    11199.233     1000 
  112000   0.33565608   -2.7706461   0.50298064   -2.2676655    0.1225678    11323.245     1000 
  114000   0.34695737   -2.7707676   0.51991562    -2.250852   0.12572098      11321.4     1000 
  116000   0.33585186   -2.7674515   0.50327401   -2.2641775   0.14001595    11225.079     1000 
  118000   0.33206132   -2.7683333   0.49759388   -2.2707394   0.14330072     11178.11     1000 
  120000   0.34592402   -2.7409273   0.51836714   -2.2225601    0.1370409    11203.916     1000 
  122000   0.34602888   -2.7573671   0.51852427   -2.2388428   0.13283873    11360.705     1000 
  124000   0.33127289   -2.7753527   0.49641243   -2.2789402     0.136163    11174.009     1000 
  126000   0.33745815   -2.8044936   0.50568103   -2.2988126   0.13185329    11322.316     1000 
  128000    0.3359264   -2.7425741   0.50338572   -2.2391884   0.13140578    11331.726     1000 
  130000   0.32089026   -2.7860452   0.48085405   -2.3051911   0.12349687    11347.593     1000 
  132000   0.33654809   -2.7562061   0.50431731   -2.2518888   0.15013509    11227.692     1000 
  134000   0.33465705   -2.7691955   0.50148359   -2.2677119   0.12695732    11340.775     1000 
  136000   0.33928823   -2.7625881   0.50842341   -2.2541647   0.12318152    11296.874     1000 
  138000   0.33586526   -2.7533105   0.50329409   -2.2500164   0.13834405    11220.866     1000 
  140000   0.33807054   -2.7747461    0.5065987   -2.2681474   0.12087157    11432.245     1000 
  142000   0.33490273   -2.7909199   0.50185174   -2.2890682   0.12977502    11317.222     1000 
  144000   0.34357376   -2.7868065   0.51484528   -2.2719612   0.13912466    11278.989     1000 
  146000   0.34823531   -2.8090507   0.52183061   -2.2872201   0.13033894    11333.228     1000 
  148000   0.34850736   -2.7992744   0.52223828   -2.2770361   0.11523116    11391.595     1000 
  150000   0.33655252   -2.7703077   0.50432396   -2.2659837   0.14210025    11234.953     1000 
  152000   0.33827785   -2.7883706   0.50690935   -2.2814612   0.11880393    11331.025     1000 
  154000   0.34416914   -2.7857413   0.51573746   -2.2700039   0.13464668    11346.665     1000 
  156000   0.35305444   -2.7709507   0.52905208   -2.2418986   0.13931773    11223.125     1000 
  158000   0.33281097   -2.7872224   0.49871723   -2.2885052    0.1170982    11328.992     1000 
  160000   0.34283146   -2.7440029   0.51373294     -2.23027   0.12321803    11302.752     1000 
  162000   0.34177227   -2.7746905   0.51214575   -2.2625448   0.12556434    11385.172     1000 
  164000   0.34526407   -2.7961476    0.5173782   -2.2787694   0.12064211    11426.133     1000 
  166000   0.33523881   -2.7523478   0.50235535   -2.2499924   0.13756531    11216.851     1000 
  168000   0.35394082   -2.7652356   0.53038032   -2.2348553   0.12554827    11295.298     1000 
  170000   0.32959833   -2.7616646    0.4939031   -2.2677615   0.12212317    11334.619     1000 
  172000   0.33456129   -2.8078973   0.50134009   -2.3065572   0.11881353    11390.172     1000 
  174000   0.34206415   -2.7693175   0.51258312   -2.2567344   0.12887563    11358.623     1000 
  176000   0.33863387   -2.8105285   0.50744286   -2.3030857   0.11910808    11407.422     1000 
  178000   0.33016145   -2.7762644   0.49474693   -2.2815174   0.13316721    11355.793     1000 
  180000   0.34132819    -2.806854   0.51148029   -2.2953737   0.12207905    11405.552     1000 
  182000   0.33092174   -2.7730894   0.49588622   -2.2772032   0.11434259    11333.875     1000 
  184000   0.33141293    -2.803662   0.49662228   -2.3070398   0.12673537     11301.61     1000 
  186000   0.34825929   -2.7785807   0.52186655   -2.2567141    0.1378189    11265.269     1000 
  188000   0.34300824   -2.7625564   0.51399785   -2.2485586   0.12546184    11297.402     1000 
  190000   0.33325593   -2.7681463   0.49938401   -2.2687623   0.12586629     11307.62     1000 
  192000   0.33721415   -2.8014691   0.50531541   -2.2961537   0.13146178    11249.547     1000 
  194000   0.32864309   -2.7943936   0.49247167    -2.301922   0.11879785    11443.009     1000 
  196000   0.33604556   -2.7980899   0.50356427   -2.2945256   0.14058965    11254.747     1000 
  198000   0.34399156   -2.7931631   0.51547135   -2.2776917   0.13167573    11322.352     1000 
  200000   0.34502139   -2.7968876   0.51701455    -2.279873   0.13599987     11218.35     1000 
  202000    0.3563395    -2.772468   0.53397474   -2.2384932   0.10935823    11530.426     1000 
  204000   0.33175338   -2.8008125   0.49713243     -2.30368   0.12515323    11323.476     1000 
  206000   0.32273835   -2.7576785   0.48362342   -2.2740551   0.13732872    11282.599     1000 
  208000    0.3400033   -2.7519646   0.50949495   -2.2424697   0.12633401    11342.295     1000 
  210000   0.33528482   -2.7899345    0.5024243   -2.2875102   0.13851466    11295.028     1000 
  212000   0.32319508   -2.8340695   0.48430783   -2.3497617   0.12807849    11333.954     1000 
  214000    0.3444852   -2.8153703   0.51621107   -2.2991592   0.12997002    11347.035     1000 
  216000    0.3346778   -2.7648853   0.50151469   -2.2633706   0.11174973    11409.468     1000 
  218000   0.33764426   -2.7862258   0.50595993   -2.2802659   0.13241519    11280.269     1000 
  220000   0.34807276   -2.7684999   0.52158703   -2.2469129   0.12662616    11374.789     1000 
  222000   0.33642848   -2.7912445   0.50413807   -2.2871064   0.12864678    11299.474     1000 
  224000   0.33386473   -2.7906305    0.5002963   -2.2903342   0.13306996    11302.322     1000 
  226000   0.33838716   -2.8007531   0.50707315   -2.2936799   0.12946816    11314.927     1000 
  228000   0.32469258   -2.7908261   0.48655183   -2.3042742   0.12053255    11318.224     1000 
  230000   0.32857054   -2.8325739   0.49236295    -2.340211   0.13025425    11333.147     1000 
  232000   0.33192804   -2.7933005   0.49739417   -2.2959064   0.14031247    11217.912     1000 
  234000   0.35941124   -2.8002986   0.53857775   -2.2617208    0.1260036    11410.399     1000 
  236000   0.34031895   -2.7817096   0.50996794   -2.2717416   0.13465985    11310.368     1000 
  238000   0.34943561    -2.771783   0.52362927   -2.2481538   0.13274866    11330.436     1000 
  240000   0.33146093   -2.7803138   0.49669421   -2.2836196   0.13333318    11286.664     1000 
  242000   0.33329421   -2.8005277   0.49944138   -2.3010863   0.13672991     11253.46     1000 
  244000   0.34645422   -2.7768452   0.51916166   -2.2576836   0.13447913    11328.059     1000 
  246000   0.32730953    -2.785407   0.49047333   -2.2949336   0.11806109    11412.974     1000 
  248000   0.35970198   -2.7988719   0.53901341   -2.2598585   0.13443722    11376.495     1000 
  250000   0.34079055   -2.7474896   0.51067463   -2.2368149   0.12939885    11222.547     1000 
  252000   0.33531464   -2.7685094   0.50246899   -2.2660405   0.12534112    11372.814     1000 
  254000   0.33401458   -2.7795756   0.50052086   -2.2790547    0.1140966    11343.214     1000 
  256000   0.35017025   -2.7908407   0.52473012   -2.2661106   0.13452862    11218.427     1000 
  258000   0.34314073   -2.7892161   0.51419639   -2.2750197   0.11906408    11280.779     1000 
  260000   0.32495612   -2.7769697   0.48694674    -2.290023   0.13275275    11265.614     1000 
  262000   0.34683563   -2.7557209   0.51973319   -2.2359877   0.13433254    11237.489     1000 
  264000   0.31983177   -2.7928892   0.47926791   -2.3136213   0.13225252    11325.624     1000 
  266000   0.33484716   -2.8139037   0.50176847   -2.3121352   0.13014444    11373.642     1000 
  268000   0.33837664   -2.7689567    0.5070574   -2.2618993   0.13432171    11256.927     1000 
  270000   0.34354385    -2.779296   0.51480046   -2.2644955   0.13661047    11262.808     1000 
  272000   0.34324913   -2.7740647   0.51435882   -2.2597059   0.13500029    11197.804     1000 
  274000   0.34323484   -2.7573111   0.51433741   -2.2429737   0.13147954    11278.475     1000 
  276000   0.33813361   -2.7467383   0.50669321   -2.2400451    0.1348196    11176.318     1000 
  278000   0.35485241    -2.788632   0.53174633   -2.2568857   0.12157655    11451.656     1000 
  280000   0.33153074   -2.7829623   0.49679882   -2.2861635   0.13350307    11298.159     1000 
  282000   0.35382645   -2.7627325   0.53020894   -2.2325235   0.13846792    11190.207     1000 
  284000    0.3440358   -2.8388912   0.51553765   -2.3233535   0.12447457    11392.997     1000 
  286000   0.33924817   -2.8082318   0.50836338   -2.2998685   0.13255808    11270.639     1000 
  288000   0.34138703   -2.7927933   0.51156847   -2.2812248     0.131477    11317.028     1000 
  290000   0.34810955    -2.781093   0.52164216   -2.2594509   0.14549331    11149.327     1000 
  292000   0.33714854   -2.7468106   0.50521708   -2.2415935   0.13726428    11206.154     1000 
  294000   0.34574073   -2.7623283   0.51809249   -2.2442358   0.14112139    11244.465     1000 
  296000    0.3334286    -2.794608   0.49964276   -2.2949652   0.13113032    11252.542     1000 
  298000   0.34238361   -2.8095605   0.51306184   -2.2964987   0.10798427    11459.853     1000 
  300000   0.35427428   -2.8212857   0.53088001   -2.2904057    0.1260154    11419.215     1000 
  302000   0.33860096   -2.7491216   0.50739354   -2.2417281   0.12295799    11353.234     1000 
  304000     0.341074   -2.7816526   0.51109939   -2.2705532    0.1281024    11328.732     1000 
  306000    0.3357885   -2.7645162   0.50317907   -2.2613371   0.12038265     11342.39     1000 
  308000   0.34135002   -2.7584828     0.511513   -2.2469698   0.13398027    11289.458     1000 
  310000   0.33393354   -2.7738841   0.50039942   -2.2734847   0.13136215    11306.151     1000 
  312000   0.34444411   -2.7584566    0.5161495   -2.2423071   0.14265883    11252.107     1000 
  314000   0.33304988   -2.7543914   0.49907524   -2.2553161   0.14073173     11231.32     1000 
  316000   0.34927713   -2.7879914   0.52339177   -2.2645996   0.12816476    11340.227     1000 
  318000   0.34408255    -2.750741    0.5156077   -2.2351333   0.12355792    11290.799     1000 
  320000   0.33923957   -2.7299669   0.50835049   -2.2216164   0.13372274    11250.524     1000 
  322000   0.34763148   -2.7296248   0.52092578    -2.208699   0.13422088    11288.754     1000 
  324000   0.34852948    -2.784573   0.52227142   -2.2623016   0.12336685     11360.49     1000 
  326000   0.33965962   -2.7388843   0.50897994   -2.2299043   0.15102435    11193.564     1000 
  328000   0.33049167   -2.7780474   0.49524177   -2.2828056   0.12816591    11299.606     1000 
  330000    0.3332126   -2.7308323   0.49931907   -2.2315132   0.12841557    11328.739     1000 
  332000   0.35058499   -2.7489053    0.5253516   -2.2235537   0.13019368    11267.923     1000 
  334000   0.34192841   -2.7626941   0.51237973   -2.2503143   0.12830069    11331.664     1000 
  336000   0.34639858   -2.8031959   0.51907827   -2.2841176   0.12397557    11324.623     1000 
  338000   0.34341632   -2.7326812   0.51460935   -2.2180718    0.1394006    11216.351     1000 
  340000   0.33577566   -2.7684279   0.50315983   -2.2652681   0.12329079    11294.251     1000 
  342000   0.32784922   -2.8300391   0.49128206    -2.338757    0.1206679    11381.765     1000 
  344000   0.33413731   -2.7692686   0.50070476   -2.2685638   0.13456193    11321.068     1000 
  346000   0.33563342   -2.8066411   0.50294668   -2.3036945    0.1336585    11370.982     1000 
  348000   0.35248006   -2.7652425   0.52819137   -2.2370512   0.12901471    11353.404     1000 
  350000   0.33019262   -2.7562625   0.49479363   -2.2614689   0.12972824    11328.139     1000 
  352000   0.34879376   -2.8133601   0.52266745   -2.2906926   0.13162772    11346.271     1000 
  354000   0.33537875   -2.8047783   0.50256505   -2.3022133   0.11362128    11417.451     1000 
  356000    0.3361318   -2.7978922    0.5036935   -2.2941987   0.13559523     11327.01     1000 
  358000   0.34997806   -2.7972348   0.52444213   -2.2727926   0.13434403    11338.193     1000 
  360000   0.33813178   -2.8056982   0.50669047   -2.2990077   0.14015498    11297.192     1000 
  362000   0.31285377   -2.7805673   0.46881137    -2.311756   0.12471104    11393.617     1000 
  364000   0.33676795   -2.7676039   0.50464677   -2.2629571   0.15059843    11204.223     1000 
  366000   0.33749506   -2.7929048   0.50573634   -2.2871684   0.12742857    11384.428     1000 
  368000   0.34234092   -2.7850695   0.51299788   -2.2720717   0.12679296    11286.302     1000 
  370000   0.34796414   -2.7473903   0.52142426   -2.2259661   0.13397458    11270.174     1000 
  372000   0.33528295   -2.8072997    0.5024215   -2.3048782   0.13742538    11339.194     1000 
  374000   0.33756442   -2.7963771   0.50584028   -2.2905368   0.12615749    11305.492     1000 
  376000   0.35034095    -2.804536   0.52498591   -2.2795501   0.13403891     11279.93     1000 
  378000   0.33394251     -2.74701   0.50041285   -2.2465972   0.14130043    11266.974     1000 
  380000   0.32875536   -2.7546351   0.49263991   -2.2619951   0.13401464    11289.522     1000 
  382000   0.33655148   -2.7991317   0.50432239   -2.2948093   0.12982493    11346.289     1000 
  384000   0.34747439   -2.7803467   0.52069037   -2.2596563   0.14198951      11187.2     1000 
  386000   0.33823417    -2.786566   0.50684391   -2.2797221   0.13252987    11299.666     1000 
  388000   0.33435435   -2.8032398   0.50102999   -2.3022099   0.13343246    11258.643     1000 
  390000   0.34060829   -2.8019238   0.51040152   -2.2915223   0.13094658    11325.494     1000 
  392000   0.34394153   -2.7796337   0.51539638   -2.2642373   0.13278733    11333.581     1000 
  394000   0.34558628   -2.7772542   0.51786104   -2.2593931   0.12483957     11325.77     1000 
  396000   0.34209701    -2.788351   0.51263237   -2.2757186   0.14065937    11254.169     1000 
  398000   0.33323296   -2.7515658   0.49934959   -2.2522162    0.1266041    11293.128     1000 
  400000    0.3448921   -2.7380847   0.51682081   -2.2212639   0.12958412     11211.48     1000 
  402000   0.33603139   -2.7740154   0.50354303   -2.2704724   0.13074582    11338.752     1000 
  404000   0.34983676   -2.7533778   0.52423039   -2.2291474    0.1359153    11276.711     1000 
  406000   0.34622941   -2.8249433   0.51882478   -2.3061185   0.13960084    11298.812     1000 
  408000   0.33139221   -2.7877609   0.49659122   -2.2911697   0.12000566    11340.911     1000 
  410000   0.33640101   -2.7443832   0.50409691   -2.2402863   0.13200828    11258.912     1000 
  412000   0.32140066   -2.7353825    0.4816189   -2.2537636   0.14255253    11124.444     1000 
  414000   0.34095764   -2.7812856   0.51092503   -2.2703606   0.13079389    11325.842     1000 
  416000   0.33327644   -2.7619011   0.49941475   -2.2624863   0.13173687    11310.892     1000 
  418000   0.34725405   -2.7610716    0.5203602   -2.2407114   0.12238377    11334.407     1000 
  420000   0.33335654   -2.7824544   0.49953478   -2.2829196    0.1212532    11294.783     1000 
  422000   0.32114125    -2.782884   0.48123016   -2.3016538   0.13453604    11295.989     1000 
  424000   0.34068881   -2.7623442   0.51052218    -2.251822   0.13558912    11265.595     1000 
  426000    0.3395143   -2.7790676   0.50876219   -2.2703054   0.12937686    11388.232     1000 
  428000   0.36385387    -2.786775   0.54523502     -2.24154   0.12851743    11288.918     1000 
  430000   0.34988539   -2.7615329   0.52430325   -2.2372297   0.13206195    11250.014     1000 
  432000   0.32832237   -2.7959887   0.49199107   -2.3039976   0.13209075    11327.344     1000 
  434000    0.3380229   -2.8007427   0.50652732   -2.2942154    0.1233779    11380.179     1000 
  436000   0.32721608    -2.817098    0.4903333   -2.3267647   0.12269753    11319.558     1000 
  438000   0.34417125   -2.7893082   0.51574062   -2.2735675   0.12244723    11337.731     1000 
  440000   0.32767828   -2.7561988   0.49102591   -2.2651729   0.12390954    11300.585     1000 
  442000   0.34149528   -2.7841077   0.51173068    -2.272377   0.13657131    11229.918     1000 
  444000   0.33556691   -2.7550217   0.50284701   -2.2521747   0.12555361    11297.277     1000 
  446000   0.35237907   -2.7836446   0.52804003   -2.2556046   0.12876511    11408.311     1000 
  448000   0.34639239   -2.7806972     0.519069   -2.2616282   0.12765073    11304.624     1000 
  450000   0.32845779   -2.7827152     0.492194   -2.2905212   0.11827215    11468.135     1000 
  452000   0.34876829   -2.7521749   0.52262928   -2.2295456   0.12188251    11302.411     1000 
  454000   0.34600102   -2.7983013   0.51848253   -2.2798188    0.1279341    11368.075     1000 
  456000   0.34024735   -2.7716185   0.50986065   -2.2617578   0.12728725    11359.902     1000 
  458000   0.34466848   -2.7288532   0.51648571   -2.2123675   0.12403235    11280.967     1000 
  460000   0.34949968   -2.7732504   0.52372527   -2.2495251   0.12045237     11400.18     1000 
  462000   0.32940934    -2.779702    0.4936199   -2.2860821   0.12497851     11295.14     1000 
  464000    0.3386842   -2.7450856   0.50751827   -2.2375673   0.13335923     11215.79     1000 
  466000   0.33234877   -2.7732633   0.49802463   -2.2752386   0.13011406    11344.303     1000 
  468000   0.34485392   -2.7803012    0.5167636   -2.2635376   0.12552201    11275.877     1000 
  470000    0.3322001   -2.8094421   0.49780186   -2.3116403   0.11955432    11336.296     1000 
  472000   0.34016051   -2.7765132   0.50973053   -2.2667827   0.13031776     11312.99     1000 
  474000   0.34442323   -2.7899533   0.51611821   -2.2738351   0.13535444    11246.373     1000 
  476000   0.33786094   -2.7746887   0.50628462   -2.2684041   0.12871446    11384.046     1000 
  478000   0.34305509   -2.8100076   0.51406805   -2.2959396   0.12731144    11372.959     1000 
  480000   0.33595992     -2.82138   0.50343594   -2.3179441   0.12567896    11380.105     1000 
  482000   0.33462331   -2.8128787   0.50143303   -2.3114457   0.12824182    11379.018     1000 
  484000    0.3500374   -2.7752133   0.52453105   -2.2506823   0.13475118    11324.748     1000 
  486000   0.33635516   -2.7767874   0.50402821   -2.2727592   0.12680251    11328.716     1000 
  488000   0.33828661   -2.7712554   0.50692248   -2.2643329   0.11552747     11430.89     1000 
  490000   0.33998864   -2.7650169   0.50947298   -2.2555439   0.14494972    11253.196     1000 
  492000   0.34891581   -2.7818323   0.52285034   -2.2589819   0.13719289    11332.923     1000 
  494000    0.3490936   -2.8223992   0.52311677   -2.2992825   0.14887747    11249.471     1000 
  496000   0.33520299   -2.7473908   0.50230168   -2.2450891   0.13014792    11354.341     1000 
  498000   0.33030069   -2.7640202   0.49495558   -2.2690646   0.12712132    11279.178     1000 
  500000   0.33817718    -2.804498    0.5067585   -2.2977395   0.12835443    11302.094     1000 
  502000   0.32338911    -2.797233   0.48459858   -2.3126344   0.12033188    11354.929     1000 
  504000   0.31821912   -2.7877144   0.47685135    -2.310863   0.12451337    11289.146     1000 
  506000   0.33297536   -2.7605226   0.49896357   -2.2615591   0.13575693    11250.569     1000 
  508000   0.33260793   -2.7962996   0.49841299   -2.2978866    0.1251814    11304.773     1000 
  510000   0.34219255   -2.7676742   0.51277553   -2.2548987   0.14250269    11208.265     1000 
  512000   0.34723364    -2.752667    0.5203296   -2.2323373   0.13627554    11295.115     1000 
  514000   0.34902696   -2.7674667    0.5230169   -2.2444498   0.14048023    11222.739     1000 
  516000   0.32609594   -2.8107116   0.48865477   -2.3220568   0.12469926    11309.818     1000 
  518000   0.33605678   -2.7862162   0.50358109   -2.2826351   0.13138242    11292.047     1000 
  520000   0.35167109     -2.79232   0.52697913   -2.2653409   0.12668233    11323.536     1000 
  522000   0.33505798   -2.8077256   0.50208438   -2.3056412   0.13311635    11233.908     1000 
  524000   0.32996507   -2.8076072   0.49445266   -2.3131545   0.12456444    11348.068     1000 
  526000    0.3461851   -2.7788814   0.51875838    -2.260123   0.12563319    11329.523     1000 
  528000   0.34482387   -2.7577276   0.51671857    -2.241009   0.14408664    11201.918     1000 
  530000   0.33661612   -2.8075928   0.50441926   -2.3031736   0.14690474    11163.728     1000 
  532000   0.33161324   -2.7981073   0.49692245   -2.3011848   0.13379227     11285.15     1000 
  534000   0.35117945   -2.7876332    0.5262424   -2.2613908   0.13051849    11332.879     1000 
  536000   0.33352358   -2.8135258   0.49978508   -2.3137408   0.13127425    11327.573     1000 
  538000   0.35719333   -2.7667485   0.53525421   -2.2314943   0.14027073    11293.544     1000 
  540000   0.34547691   -2.7745169   0.51769716   -2.2568198   0.12494352    11365.892     1000 
  542000   0.33656553   -2.7454947   0.50434344   -2.2411513   0.12744772    11363.701     1000 
  544000   0.34521311    -2.773839   0.51730184   -2.2565371   0.13091612    11256.444     1000 
  546000   0.34091216   -2.7608834   0.51085687   -2.2500266   0.13742592    11282.576     1000 
  548000   0.34297094   -2.7928143   0.51394195   -2.2788723   0.12406939    11343.624     1000 
  550000   0.32706718   -2.7891496   0.49011017   -2.2990394   0.13115886    11350.571     1000 
  552000   0.33911937    -2.784744   0.50817037   -2.2765736   0.13009398    11355.082     1000 
  554000   0.33276334   -2.7861549   0.49864587    -2.287509   0.13686637    11232.553     1000 
  556000   0.35489911   -2.8186183   0.53181631    -2.286802   0.13105501    11450.721     1000 
  558000   0.33416451   -2.8020848   0.50074551   -2.3013393   0.12072577    11371.058     1000 
  560000   0.34842883   -2.7872921   0.52212061   -2.2651715   0.12595851    11339.076     1000 
  562000   0.33165101   -2.8420213   0.49697904   -2.3450422   0.11908394    11355.966     1000 
  564000   0.33402478    -2.766375   0.50053613   -2.2658389   0.12636474    11222.112     1000 
  566000   0.32849991   -2.8411502   0.49225711   -2.3488931   0.11948235    11388.835     1000 
  568000   0.33828597   -2.7760774   0.50692153   -2.2691558   0.13219972    11278.254     1000 
  570000   0.34841605   -2.7766079   0.52210146   -2.2545065   0.13013156    11351.005     1000 
  572000   0.34635453   -2.8093096   0.51901226   -2.2902973   0.13033704    11401.962     1000 
  574000   0.35117752   -2.7940476   0.52623951   -2.2678081   0.13685494    11176.578     1000 
  576000   0.32988523    -2.782967   0.49433302   -2.2886339    0.1219492    11383.435     1000 
  578000   0.36804662   -2.7592903   0.55151786   -2.2077725    0.1372114    11256.463     1000 
  580000    0.3564381   -2.8009794   0.53412249   -2.2668569   0.13478752    11336.803     1000 
  582000   0.33292896   -2.7882384   0.49889404   -2.2893443   0.13608429     11253.02     1000 
  584000    0.3457539   -2.7875417   0.51811222   -2.2694295   0.14222334    11139.587     1000 
  586000   0.33105594   -2.7548899   0.49608733   -2.2588025   0.13204366    11257.025     1000 
  588000   0.35795923   -2.8009742   0.53640191   -2.2645723   0.13832825    11231.145     1000 
  590000   0.33533649   -2.7889126   0.50250174   -2.2864109   0.13579933    11267.465     1000 
  592000   0.34356942   -2.7952485   0.51483877   -2.2804097   0.12933476     11303.61     1000 
  594000   0.34678827   -2.8040093   0.51966223   -2.2843471   0.14074176    11380.744     1000 
  596000   0.33365917   -2.7464797   0.49998827   -2.2464914   0.11586791    11355.272     1000 
  598000   0.33751089   -2.7632527   0.50576007   -2.2574926   0.13297388    11368.516     1000 
  600000   0.33844617   -2.8105113   0.50716159   -2.3033498   0.12020922    11461.708     1000 
  602000   0.33381172    -2.809661   0.50021687   -2.3094441   0.12473949    11323.811     1000 
  604000   0.33883823   -2.7952255   0.50774908   -2.2874764   0.11645531    11428.241     1000 
  606000   0.33623037   -2.8058485    0.5038412   -2.3020073   0.13239119    11319.245     1000 
  608000   0.34244041   -2.7949743   0.51314696   -2.2818273   0.11820677    11360.906     1000 
  610000   0.33587437    -2.789221   0.50330774   -2.2859132   0.12250983    11410.189     1000 
  612000   0.34131741   -2.7911067   0.51146414   -2.2796425   0.12642648    11330.092     1000 
  614000   0.34012909   -2.7827413   0.50968344   -2.2730578   0.13063157    11258.746     1000 
  616000   0.33494562   -2.7923935     0.501916   -2.2904775   0.13999728    11187.875     1000 
  618000   0.34321266   -2.7940493   0.51430417   -2.2797451   0.12661306    11412.972     1000 
  620000   0.34100876   -2.7747538   0.51100162   -2.2637521   0.14177413    11266.326     1000 
  622000   0.34293106   -2.7776152   0.51388219    -2.263733   0.12642018    11429.577     1000 
  624000    0.3484437   -2.7300843   0.52214288   -2.2079414   0.14942786    11150.347     1000 
  626000   0.33710541   -2.7749314   0.50515246    -2.269779   0.12132515    11386.316     1000 
  628000   0.33582065   -2.7953728   0.50322724   -2.2921456   0.12963305    11356.423     1000 
  630000   0.34540494   -2.7484576    0.5175893   -2.2308683   0.13448997    11240.006     1000 
  632000   0.34612287   -2.7896948   0.51866513   -2.2710297   0.14143127    11274.974     1000 
  634000   0.34343692   -2.7843327   0.51464023   -2.2696925   0.12713379    11360.136     1000 
  636000   0.33447945   -2.7774542   0.50121746   -2.2762368   0.12834863    11361.711     1000 
  638000   0.35021507   -2.8073011   0.52479729   -2.2825038   0.12623428    11332.763     1000 
  640000    0.3266066    -2.822766   0.48941999    -2.333346   0.12684522    11358.714     1000 
  642000   0.33999661   -2.7952763   0.50948492   -2.2857914   0.11589978    11349.693     1000 
  644000   0.35274844   -2.7914282   0.52859354   -2.2628347   0.13350045    11364.199     1000 
  646000   0.33438368   -2.7978837   0.50107395   -2.2968098   0.11927773    11293.351     1000 
  648000   0.33419222   -2.7566899   0.50078704   -2.2559029   0.13177908    11202.903     1000 
  650000   0.33671679   -2.7808709   0.50457011   -2.2763008   0.12582571    11374.761     1000 
  652000   0.33095385   -2.7944633   0.49593435   -2.2985289   0.13180617     11338.97     1000 
  654000   0.34342627   -2.7972235   0.51462426   -2.2825992   0.12240135     11356.54     1000 
  656000   0.35101012   -2.8014041   0.52598867   -2.2754154   0.12443391    11333.387     1000 
  658000   0.33618721   -2.7741393   0.50377653   -2.2703628   0.14047476    11327.873     1000 
  660000   0.34551837   -2.7988272   0.51775928    -2.281068   0.12683979    11320.648     1000 
  662000   0.33773153   -2.8310528    0.5060907   -2.3249621   0.12677629    11339.487     1000 
  664000   0.33673436   -2.8334237   0.50459645   -2.3288272   0.13335489     11381.88     1000 
  666000   0.34473707   -2.8086858   0.51658851   -2.2920973   0.13243765    11303.951     1000 
  668000   0.33577333   -2.7858413   0.50315633    -2.282685   0.12160466    11345.386     1000 
  670000    0.3377273   -2.7545367   0.50608436   -2.2484524   0.12603575    11369.472     1000 
  672000   0.34459471   -2.7035702   0.51637518    -2.187195   0.12950337      11260.2     1000 
  674000   0.35122806   -2.7780866   0.52631524   -2.2517714    0.1354942    11278.077     1000 
  676000   0.33637313   -2.7990486   0.50405514   -2.2949934   0.12986766     11340.25     1000 
  678000   0.34324374   -2.7800684   0.51435075   -2.2657177   0.14126648    11237.872     1000 
  680000   0.35106197   -2.7525777   0.52606637   -2.2265113   0.13391148    11275.392     1000 
  682000   0.33615645   -2.8106934   0.50373045   -2.3069629   0.13318693    11340.584     1000 
  684000   0.34134143   -2.7738093   0.51150014   -2.2623092   0.13723519    11286.435     1000 
  686000   0.34814309   -2.8243072   0.52169242   -2.3026147   0.13417783    11332.018     1000 
  688000   0.33599641   -2.7882522   0.50349062   -2.2847616   0.12307912     11376.15     1000 
  690000   0.34409112   -2.7651463   0.51562055   -2.2495258   0.13205924    11295.398     1000 
  692000   0.34423241   -2.7943429   0.51583226   -2.2785106   0.11681514    11532.861     1000 
  694000   0.34774799   -2.8124799   0.52110036   -2.2913796   0.12144157    11416.119     1000 
  696000   0.34528644   -2.7926409   0.51741174   -2.2752292   0.13469009    11248.523     1000 
  698000   0.33311625   -2.8138841    0.4991747   -2.3147093   0.11678005        11505     1000 
  700000   0.33326993   -2.7856698   0.49940498   -2.2862648   0.12726427    11394.136     1000 
  702000   0.33706036   -2.7939686   0.50508494   -2.2888837   0.11678022    11365.666     1000 
  704000   0.34725513   -2.8215513   0.52036181   -2.3011895   0.13213241    11278.599     1000 
  706000   0.33697707   -2.7888337   0.50496014   -2.2838735   0.13416452    11293.814     1000 
  708000   0.33305155   -2.7870918   0.49907775    -2.288014   0.13390752    11262.201     1000 
  710000   0.34784833   -2.8459858   0.52125072   -2.3247351   0.13949046    11332.441     1000 
  712000   0.31924194   -2.8320237   0.47838405   -2.3536396   0.12215353    11383.515     1000 
  714000   0.35151255   -2.8086114   0.52674156   -2.2818698    0.1182741    11429.906     1000 
  716000   0.33832742   -2.7814526   0.50698363    -2.274469   0.12983791    11337.404     1000 
  718000   0.34402449    -2.756151   0.51552069   -2.2406303   0.13010679    11280.982     1000 
  720000    0.3458162   -2.7930561   0.51820558   -2.2748505   0.14370747    11248.994     1000 
  722000   0.33672088   -2.8124736   0.50457625   -2.3078974   0.13319333    11248.399     1000 
  724000   0.33355748    -2.820629   0.49983588   -2.3207931   0.12801336    11373.844     1000 
  726000   0.33889618   -2.7742485   0.50783592   -2.2664126   0.12647826    11304.641     1000 
  728000   0.33639608   -2.7335578   0.50408953   -2.2294683   0.14059398     11189.39     1000 
  730000   0.34793372   -2.7601987   0.52137868     -2.23882    0.1231495    11287.224     1000 
  732000   0.33965784   -2.8069384   0.50897728   -2.2979611   0.11950656    11445.404     1000 
  734000   0.33960782   -2.7844507   0.50890232   -2.2755484   0.12538298    11305.805     1000 
  736000   0.35128476   -2.8010151   0.52640021   -2.2746149   0.13631461    11276.641     1000 
  738000   0.34490718   -2.7966685    0.5168434   -2.2798251   0.13600529    11332.672     1000 
  740000   0.34002969   -2.7813785   0.50953449    -2.271844   0.14133867    11256.401     1000 
  742000   0.34859938   -2.7727467   0.52237616   -2.2503705   0.14667181    11256.593     1000 
  744000    0.3397779   -2.7679202   0.50915718    -2.258763   0.13955882    11224.728     1000 
  746000   0.33980261   -2.7672889   0.50919421   -2.2580947   0.13351947     11304.34     1000 
  748000   0.34034855    -2.761596    0.5100123   -2.2515837   0.12836744    11262.284     1000 
  750000   0.33642525   -2.7825589   0.50413324   -2.2784256   0.12834979    11248.911     1000 
  752000   0.32020568   -2.7791508   0.47982822   -2.2993226   0.13586112    11296.976     1000 
  754000   0.33887913   -2.7767102   0.50781038   -2.2688998   0.12270666     11338.87     1000 
  756000   0.33748089   -2.8102563   0.50571511   -2.3045412   0.11339473    11404.505     1000 
  758000   0.34087789   -2.7653816   0.51080552   -2.2545761   0.13018575    11231.475     1000 
  760000   0.33746751   -2.7909348   0.50569506   -2.2852398   0.12163795    11368.587     1000 
  762000   0.33425589    -2.762289   0.50088245   -2.2614066   0.12956672    11341.149     1000 
  764000   0.33208723   -2.8376832   0.49763271   -2.3400505   0.12571359    11373.957     1000 
  766000   0.34690856   -2.7732504   0.51984247    -2.253408   0.13280714    11186.307     1000 
  768000   0.33442883   -2.7778273   0.50114161   -2.2766857   0.11494917     11466.62     1000 
  770000   0.32860111   -2.8029636   0.49240876   -2.3105548   0.12756526    11349.127     1000 
  772000   0.34498399   -2.7976817    0.5169585   -2.2807232    0.1378976    11331.358     1000 
  774000   0.34543379   -2.7875534   0.51763254   -2.2699208   0.13202219    11311.641     1000 
  776000   0.34222241   -2.7623415   0.51282027   -2.2495212   0.13304181    11291.512     1000 
  778000   0.35737115   -2.7338296   0.53552067    -2.198309    0.1372047    11229.588     1000 
  780000   0.33582004   -2.7978759   0.50322634   -2.2946496   0.13174064     11231.99     1000 
  782000   0.34554375   -2.7628311    0.5177973   -2.2450338   0.13588394     11290.63     1000 
  784000   0.35844469   -2.8089804   0.53712937    -2.271851   0.13251268    11364.071     1000 
  786000   0.35049469   -2.7912733    0.5252163    -2.266057   0.13259377    11328.859     1000 
  788000   0.32416312   -2.8129815   0.48575844   -2.3272231   0.12806372    11409.474     1000 
  790000   0.32211282   -2.8059848   0.48268606   -2.3232988   0.13629806    11245.934     1000 
  792000   0.34635343    -2.787626   0.51901062   -2.2686154   0.14804302    11254.366     1000 
  794000   0.35696151   -2.8085623   0.53490682   -2.2736555    0.1306994    11314.405     1000 
  796000    0.3359211   -2.7969614   0.50337777   -2.2935836   0.12120479     11380.16     1000 
  798000   0.34173339   -2.7796097   0.51208749   -2.2675222   0.14665929     11259.53     1000 
  800000   0.33828703   -2.7996312   0.50692312   -2.2927081   0.13695687    11313.447     1000 
  802000    0.3509056    -2.833962   0.52583204   -2.3081299   0.13180944    11382.444     1000 
  804000   0.32962499   -2.7863582   0.49394304   -2.2924152   0.12785063     11308.99     1000 
  806000   0.35081881   -2.7715186   0.52570199   -2.2458166   0.13958179    11176.582     1000 
  808000   0.33720866   -2.7862199   0.50530717   -2.2809127   0.13276459    11364.192     1000 
  810000   0.34166353   -2.7722882    0.5119828   -2.2603054   0.12905102    11303.896     1000 
  812000   0.33039526   -2.7971571    0.4950973   -2.3020598   0.13108075    11321.741     1000 
  814000   0.33038149   -2.7756245   0.49507666   -2.2805479   0.13893903    11221.371     1000 
  816000   0.33780686   -2.7575552   0.50620358   -2.2513516   0.13326293    11285.544     1000 
  818000   0.34687788   -2.7361434   0.51979651   -2.2163469   0.11878222     11337.21     1000 
  820000   0.34369364   -2.7578339   0.51502492    -2.242809   0.12810103    11291.622     1000 
  822000   0.33797274   -2.7729729   0.50645216   -2.2665208   0.12620276    11286.948     1000 
  824000   0.33060188   -2.7254797   0.49540692   -2.2300728   0.13192873    11287.191     1000 
  826000   0.34375624   -2.7924492   0.51511872   -2.2773305   0.12944036    11277.699     1000 
  828000   0.34522172   -2.7817565   0.51731474   -2.2644418   0.12504092    11349.579     1000 
  830000   0.34067706    -2.793154   0.51050457   -2.2826494   0.13623464    11264.797     1000 
  832000   0.35493415   -2.8050841   0.53186882   -2.2732153   0.13710862    11279.487     1000 
  834000   0.33394775   -2.8024961   0.50042071   -2.3020754   0.12401012    11386.474     1000 
  836000   0.32525862   -2.7858801   0.48740004     -2.29848   0.12392697    11366.593     1000 
  838000   0.32830467   -2.7886828   0.49196455   -2.2967183   0.13904069    11232.855     1000 
  840000   0.35098896   -2.7677799   0.52595696    -2.241823   0.13633396    11227.195     1000 
  842000   0.33826846    -2.794961   0.50689529   -2.2880657    0.1238239    11387.434     1000 
  844000   0.33865582   -2.7951935   0.50747575   -2.2877177    0.1231632    11348.765     1000 
  846000   0.34221613   -2.7626635   0.51281088   -2.2498526   0.13198874     11277.94     1000 
  848000   0.33592099   -2.7610934    0.5033776   -2.2577158   0.13343159     11301.05     1000 
  850000   0.34325248   -2.7994467   0.51436385   -2.2850829   0.13431591    11280.983     1000 
  852000   0.33145447   -2.7945611   0.49668452   -2.2978766   0.12555612    11383.386     1000 
  854000   0.33361345   -2.7775555   0.49991976   -2.2776358   0.13693641    11264.245     1000 
  856000   0.34136318   -2.7952712   0.51153273   -2.2837385   0.13145666    11278.947     1000 
  858000   0.34948617   -2.7665072   0.52370503   -2.2428022    0.1199478    11414.494     1000 
  860000   0.34527986   -2.7644916   0.51740187   -2.2470897   0.13691042    11250.398     1000 
  862000   0.35030862   -2.7656103   0.52493747   -2.2406728   0.12041001    11388.742     1000 
  864000   0.34054856   -2.7527788   0.51031202   -2.2424668   0.13413383    11252.128     1000 
  866000   0.35909178   -2.7813887   0.53809903   -2.2432897   0.12286136    11375.451     1000 
  868000   0.33346554   -2.7676661   0.49969812    -2.267968   0.11825326     11389.11     1000 
  870000   0.33683399   -2.7981927   0.50474573    -2.293447   0.13946269    11209.555     1000 
  872000   0.34714658   -2.7622423   0.52019914   -2.2420431   0.12758786     11314.52     1000 
  874000   0.34309252   -2.7942375   0.51412414   -2.2801133   0.12024849    11345.104     1000 
  876000    0.3360898   -2.7961811   0.50363056   -2.2925506   0.13640702    11280.285     1000 
  878000   0.33560676   -2.8069782   0.50290673   -2.3040714    0.1247905    11330.399     1000 
  880000   0.33340727   -2.7571294   0.49961079   -2.2575186   0.12427086    11309.979     1000 
  882000   0.32254021   -2.7574307    0.4833265   -2.2741042   0.12759337    11284.973     1000 
  884000   0.32762141   -2.7654718   0.49094069   -2.2745312   0.13232401    11287.921     1000 
  886000   0.34101164   -2.7988107   0.51100594   -2.2878047   0.12101085    11341.504     1000 
  888000   0.33719664     -2.77354   0.50528916   -2.2682508   0.14990506    11147.289     1000 
  890000   0.31783781   -2.7916591   0.47627995   -2.3153791   0.12533657    11376.333     1000 
  892000   0.32178085   -2.7486616    0.4821886    -2.266473   0.13930841     11295.68     1000 
  894000   0.33181569   -2.7650709    0.4972258   -2.2678451   0.12484145    11372.339     1000 
  896000   0.33741178   -2.8041921   0.50561155   -2.2985806   0.13519824    11298.585     1000 
  898000   0.34366049   -2.7732858   0.51497524   -2.2583106   0.13590919    11210.926     1000 
  900000   0.34266234   -2.7722677   0.51347952   -2.2587882   0.12525097    11225.643     1000 
  902000   0.34563208    -2.737587   0.51792967   -2.2196573   0.13426953    11235.328     1000 
  904000   0.33744905   -2.7486612    0.5056674   -2.2429938   0.12934381    11242.107     1000 
  906000   0.33509714   -2.8078778   0.50214307   -2.3057347   0.12429952    11384.306     1000 
  908000   0.35583311   -2.8066037   0.53321591   -2.2733878   0.13894477     11269.66     1000 
  910000   0.34360371    -2.778499   0.51489016   -2.2636089   0.12248216    11319.226     1000 
  912000   0.34253189   -2.7615806   0.51328403   -2.2482966   0.12808376    11327.037     1000 
  914000   0.34929828   -2.7775584   0.52342348   -2.2541349   0.13426327    11253.669     1000 
  916000   0.33065487   -2.7622696   0.49548633   -2.2667833   0.12832933    11258.932     1000 
  918000   0.34212219   -2.7985853    0.5126701   -2.2859152   0.12610512      11326.6     1000 
  920000   0.33999992   -2.7875876   0.50948988   -2.2780977   0.11998571    11380.938     1000 
  922000   0.33554458   -2.7614213   0.50281355   -2.2586078   0.12819081    11302.002     1000 
  924000   0.32681466   -2.8037356   0.48973177   -2.3140038    0.1304047    11355.876     1000 
  926000   0.33049736   -2.7819752    0.4952503   -2.2867249   0.13899125    11311.683     1000 
  928000   0.32596812   -2.8002817   0.48846323   -2.3118184   0.13259178    11318.893     1000 
  930000   0.34181934   -2.7839442   0.51221627   -2.2717279   0.14014588    11225.019     1000 
  932000   0.34019864   -2.7620979   0.50978766   -2.2523103   0.12325871    11398.413     1000 
  934000   0.34336251   -2.7770041   0.51452872   -2.2624754   0.13735219    11351.089     1000 
  936000   0.34713717   -2.7978153   0.52018505   -2.2776302   0.13133352    11292.071     1000 
  938000   0.32837499   -2.7820637   0.49206992   -2.2899938    0.1365792    11312.694     1000 
  940000   0.33653308   -2.8101912   0.50429482   -2.3058964   0.12555782    11295.721     1000 
  942000   0.34328828   -2.7670739   0.51441748   -2.2526564   0.14857939    11150.666     1000 
  944000   0.32928775   -2.8038703   0.49343769   -2.3104326   0.12329317    11416.062     1000 
  946000    0.3396957   -2.7900717   0.50903401   -2.2810377   0.14095884    11327.999     1000 
  948000   0.34539783   -2.7824224   0.51757865   -2.2648437   0.12312319    11325.393     1000 
  950000   0.34881961   -2.7818262   0.52270618     -2.25912   0.11818188     11410.57     1000 
  952000   0.35425422   -2.8091023   0.53084995   -2.2782523   0.12377998    11319.195     1000 
  954000   0.34397142   -2.8159873   0.51544118   -2.3005461   0.12909867    11402.053     1000 
  956000   0.35175679    -2.782079   0.52710755   -2.2549715   0.11417996    11396.813     1000 
  958000   0.34522379   -2.7955688   0.51731785   -2.2782509     0.139522    11266.983     1000 
  960000   0.33747923    -2.758125   0.50571263   -2.2524123   0.13658825     11238.16     1000 
  962000    0.3394294    -2.747194   0.50863496    -2.238559   0.14137815    11178.098     1000 
  964000   0.33353531    -2.775207   0.49980265   -2.2754044   0.13927565    11131.482     1000 
  966000   0.33169133   -2.7780411   0.49703947   -2.2810017   0.12998477    11294.213     1000 
  968000   0.33209799   -2.7853535   0.49764883   -2.2877047   0.12863196    11256.204     1000 
  970000   0.34253848    -2.781657   0.51329391   -2.2683631   0.11742915    11347.549     1000 
  972000   0.33253004   -2.7380382   0.49829626   -2.2397419   0.13787988     11232.79     1000 
  974000   0.34958293   -2.7597773   0.52385003   -2.2359273   0.12662685    11321.726     1000 
  976000   0.34606922   -2.7540091   0.51858473   -2.2354243   0.13349788    11287.237     1000 
  978000   0.32227827   -2.7791279   0.48293398   -2.2961939   0.14244093    11310.915     1000 
  980000   0.34589968   -2.7720879   0.51833066   -2.2537572   0.12078358    11414.213     1000 
  982000   0.35117079   -2.7950774   0.52622942    -2.268848   0.12437976    11378.859     1000 
  984000   0.34288773   -2.7828776   0.51381727   -2.2690604   0.12670663    11431.188     1000 
  986000   0.32986224   -2.8089361   0.49429856   -2.3146376   0.13040838    11285.546     1000 
  988000   0.34187829   -2.8040169   0.51230462   -2.2917123   0.12418729    11415.178     1000 
  990000   0.35675347   -2.8085826   0.53459508   -2.2739875   0.12474666     11432.25     1000 
  992000   0.34039954   -2.7652979    0.5100887   -2.2552092   0.13564869     11240.39     1000 
  994000   0.34067189   -2.7342956   0.51049683   -2.2237988   0.13523112    11193.277     1000 
  996000   0.33294373   -2.7952153   0.49891618   -2.2962991    0.1256979    11315.355     1000 
  998000   0.33479395   -2.7827591   0.50168873   -2.2810704    0.1339005    11320.248     1000 
 1000000   0.34391405   -2.7821656    0.5153552   -2.2668104   0.12234855    11388.322     1000 
 1002000   0.34193236   -2.7824309   0.51238564   -2.2700453   0.14340072     11214.99     1000 
 1004000   0.34634652   -2.7877534   0.51900027   -2.2687531   0.12382704    11310.477     1000 
 1006000   0.33609476   -2.7884034     0.503638   -2.2847654   0.14169801    11218.925     1000 
 1008000   0.34110469    -2.796265   0.51114538   -2.2851197    0.1303432    11310.603     1000 
 1010000   0.34198954   -2.8047616   0.51247132   -2.2922902   0.12742401     11322.79     1000 
 1012000   0.32185765   -2.7689367   0.48230368    -2.286633    0.1313062    11248.969     1000 
 1014000   0.33810963   -2.8034972   0.50665728     -2.29684   0.13948926    11265.768     1000 
 1016000   0.34399805   -2.7816243   0.51548107   -2.2661432   0.11865424    11432.357     1000 
 1018000   0.33302018   -2.7819218   0.49903074    -2.282891   0.13378361    11339.073     1000 
 1020000    0.3573546   -2.7882053   0.53549587   -2.2527094   0.12946351    11356.358     1000 
 1022000    0.3510944   -2.8208818   0.52611495   -2.2947669   0.12145043    11368.137     1000 
 1024000   0.33988294   -2.7987881   0.50931459   -2.2894735   0.13256295    11313.042     1000 
 1026000   0.31953687   -2.7495149   0.47882601   -2.2706889   0.13491399    11228.318     1000 
 1028000   0.34365732   -2.7716962   0.51497049   -2.2567257   0.13063514    11232.264     1000 
 1030000   0.34692933   -2.7420383    0.5198736   -2.2221647   0.12616281    11254.097     1000 
 1032000   0.35070057   -2.7287906    0.5255248   -2.2032658   0.13335805    11238.285     1000 
 1034000   0.34157397   -2.7517134   0.51184859   -2.2398648   0.14861745    11213.086     1000 
 1036000   0.33848576   -2.7831712   0.50722091   -2.2759503   0.13142839    11333.369     1000 
 1038000   0.35427954   -2.7736635   0.53088788   -2.2427757   0.12419714    11263.197     1000 
 1040000   0.35336172   -2.8000143   0.52951254   -2.2705018    0.1280066    11329.439     1000 
 1042000   0.34781161   -2.7845268    0.5211957   -2.2633311   0.12825953      11227.9     1000 
 1044000   0.35936649   -2.7810995   0.53851069   -2.2425888   0.13403783     11292.28     1000 
 1046000   0.33666319   -2.7484989   0.50448979   -2.2440091     0.116925     11307.48     1000 
 1048000   0.34145447   -2.7954108   0.51166952   -2.2837412   0.12384528    11309.701     1000 
 1050000   0.35778377   -2.7680875   0.53613899   -2.2319485   0.14441947    11160.401     1000 
 1052000   0.33720388   -2.7706938   0.50530001   -2.2653938   0.13662566    11296.119     1000 
 1054000   0.33875922   -2.7943855   0.50763069   -2.2867548   0.12880992    11321.024     1000 
 1056000   0.33918741   -2.7824358   0.50827233   -2.2741634   0.14781101    11212.709     1000 
 1058000   0.32988599   -2.7792636   0.49433416   -2.2849295   0.12624913    11352.275     1000 
 1060000   0.32976796   -2.7770526   0.49415729   -2.2828953   0.12836042    11267.812     1000 
 1062000   0.32615719   -2.7815274   0.48874655   -2.2927808   0.13154552    11290.255     1000 
 1064000    0.3363202    -2.772908   0.50397582   -2.2689321   0.13027489    11279.314     1000 
 1066000   0.33422105    -2.787492   0.50083025   -2.2866617   0.11672252    11346.254     1000 
 1068000   0.36325042   -2.7680821   0.54433075   -2.2237514   0.15477413    11149.175     1000 
 1070000   0.33615298   -2.7836745   0.50372523   -2.2799492   0.13379246    11320.306     1000 
 1072000   0.33780851    -2.768504   0.50620605   -2.2622979   0.11914648     11440.97     1000 
 1074000   0.31968332   -2.7906562   0.47904545   -2.3116108   0.12220525    11338.979     1000 
 1076000   0.35302271   -2.7943453   0.52900453   -2.2653408   0.13576943    11273.151     1000 
 1078000   0.33064018    -2.783865   0.49546431   -2.2884007   0.13512873    11303.811     1000 
 1080000   0.34989269   -2.8060115    0.5243142   -2.2816973   0.13059784     11379.22     1000 
 1082000   0.33321152    -2.777006   0.49931747   -2.2776886   0.12896916    11320.445     1000 
 1084000   0.34963128   -2.8298427   0.52392247   -2.3059202   0.13088893    11390.883     1000 
 1086000   0.35026996   -2.8177882   0.52487954   -2.2929087   0.12827775     11364.12     1000 
 1088000   0.34890093   -2.7876437   0.52282804   -2.2648156   0.13014043    11321.382     1000 
 1090000   0.34088132   -2.7762758   0.51081065   -2.2654651   0.13126653    11317.921     1000 
 1092000   0.36239849   -2.7857457   0.54305413   -2.2426915   0.13602205    11325.118     1000 
 1094000   0.34212782   -2.8029917   0.51267854   -2.2903131   0.13103983    11346.477     1000 
 1096000   0.33766957   -2.8185876   0.50599786   -2.3125898    0.1287692    11356.124     1000 
 1098000   0.33581781   -2.7942699   0.50322298    -2.291047   0.11551985    11386.111     1000 
 1100000   0.32731967   -2.8077503   0.49048853   -2.3172618   0.11281233    11401.327     1000 
 1102000   0.33781281   -2.7830614    0.5062125   -2.2768489   0.12092566    11335.306     1000 
 1104000   0.32679216   -2.7819721   0.48969806    -2.292274   0.13092487    11255.257     1000 
 1106000   0.33770049   -2.7953098   0.50604418   -2.2892656   0.12581797    11375.235     1000 
 1108000   0.34138329   -2.8219635   0.51156285   -2.3104006    0.1243204    11316.336     1000 
 1110000   0.32997556   -2.7802189   0.49446838   -2.2857506    0.1301143    11313.643     1000 
 1112000   0.34689249   -2.7421386    0.5198184   -2.2223202   0.13450943    11330.253     1000 
 1114000    0.3493342   -2.7721833    0.5234773    -2.248706    0.1253816    11274.404     1000 
 1116000   0.34052343   -2.7705025   0.51027435   -2.2602282   0.13647745    11322.316     1000 
 1118000    0.3538386   -2.7350177   0.53022715   -2.2047906   0.12617762    11345.278     1000 
 1120000   0.33591775   -2.7749298   0.50337275    -2.271557    0.1403931    11349.478     1000 
 1122000   0.33024172   -2.7691736   0.49486722   -2.2743064   0.13566056     11297.05     1000 
 1124000   0.34229888    -2.750501   0.51293487   -2.2375662    0.1270297    11207.322     1000 
 1126000   0.33630842   -2.7673617   0.50395817   -2.2634035   0.13085283    11292.215     1000 
 1128000   0.34047434    -2.762419   0.51020079   -2.2522182   0.14281722    11198.857     1000 
 1130000   0.34441144   -2.7909543   0.51610055   -2.2748537    0.1289883    11310.692     1000 
 1132000   0.34393037   -2.7991075   0.51537967   -2.2837279   0.12837358    11326.216     1000 
 1134000   0.35196071   -2.7983717   0.52741312   -2.2709586   0.12967411    11334.302     1000 
 1136000   0.34356807   -2.7522592   0.51483675   -2.2374224   0.12056072    11331.611     1000 
 1138000   0.34534033   -2.7844377   0.51749248   -2.2669452    0.1319769    11338.876     1000 
 1140000   0.34501258   -2.7598667   0.51700136   -2.2428654   0.13552508    11239.096     1000 
 1142000   0.32582143   -2.7774025   0.48824341   -2.2891591   0.11166034    11366.908     1000 
 1144000    0.3456426   -2.7827986   0.51794544   -2.2648531   0.12382253    11249.422     1000 
 1146000   0.34766143   -2.7770419   0.52097065   -2.2560712   0.13733733    11333.936     1000 
 1148000   0.34206587   -2.7860453    0.5125857   -2.2734596   0.12858229    11401.542     1000 
 1150000   0.33595977   -2.7935078   0.50343571   -2.2900721   0.12250887    11310.289     1000 
 1152000   0.34764363   -2.7885566   0.52094399   -2.2676126   0.13186599    11325.748     1000 
 1154000   0.34460671   -2.7812105   0.51639315   -2.2648174   0.14032949    11145.712     1000 
 1156000   0.34391614   -2.7994529   0.51535834   -2.2840946   0.12565751    11304.281     1000 
 1158000   0.32406444   -2.7702043   0.48561057   -2.2845937   0.12466546    11365.136     1000 
 1160000   0.35163433   -2.8022297   0.52692404   -2.2753057   0.13442043    11315.517     1000 
 1162000   0.33123517   -2.7904432    0.4963559   -2.2940873   0.12668762    11280.749     1000 
 1164000   0.34181318   -2.7806672   0.51220704   -2.2684602    0.1239644    11359.636     1000 
 1166000   0.34494229   -2.7946562   0.51689603   -2.2777601   0.11748611    11408.636     1000 
 1168000   0.34634082   -2.7242745   0.51899172   -2.2052828   0.12975352    11230.018     1000 
 1170000   0.34668662   -2.8124781   0.51950991   -2.2929682   0.12391366    11390.931     1000 
 1172000   0.33955636   -2.7626014   0.50882521   -2.2537762   0.12216661    11363.007     1000 
 1174000   0.34649559   -2.7659914   0.51922364   -2.2467678   0.14090799    11242.107     1000 
 1176000   0.33605093   -2.7887781   0.50357231   -2.2852057   0.13239465    11309.427     1000 
 1178000   0.33124206   -2.8085085   0.49636622   -2.3121423   0.12757479    11309.195     1000 
 1180000    0.3361404   -2.8230656   0.50370639   -2.3193592   0.12149666    11394.405     1000 
 1182000   0.33078802   -2.7667813   0.49568586   -2.2710955   0.13687564    11266.129     1000 
 1184000   0.34118918   -2.7620957   0.51127198   -2.2508238   0.13414931    11268.531     1000 
 1186000   0.34008509   -2.7699479   0.50961751   -2.2603304   0.11811539    11343.212     1000 
 1188000   0.33631491   -2.8033456    0.5039679   -2.2993777   0.12942577    11345.794     1000 
 1190000   0.35038988   -2.7948079   0.52505923   -2.2697487   0.12581669    11307.987     1000 
 1192000   0.35140373   -2.7973288   0.52657849   -2.2707504   0.12790684    11356.601     1000 
 1194000   0.33145605   -2.8066455   0.49668689   -2.3099586   0.12974472    11304.755     1000 
 1196000    0.3437393    -2.787572   0.51509335   -2.2724787   0.12902553    11326.076     1000 
 1198000   0.33336207   -2.8049244   0.49954306   -2.3053813   0.12558094     11436.14     1000 
 1200000   0.34219867   -2.8022261   0.51278471   -2.2894414   0.13137212    11343.511     1000 
 1202000   0.34153972   -2.8186061   0.51179727   -2.3068088     0.116818    11390.133     1000 
 1204000   0.34118948   -2.7673953   0.51127243   -2.2561228   0.12897795     11326.81     1000 
 1206000    0.3444404   -2.7836142   0.51614394   -2.2674702   0.12939592    11348.788     1000 
 1208000   0.34264983   -2.7798801   0.51346077   -2.2664193   0.12211941    11460.515     1000 
 1210000    0.3342131   -2.8419152   0.50081833   -2.3410969   0.13154327    11285.858     1000 
 1212000   0.32864691   -2.7962066    0.4924774   -2.3037292    0.1259934    11369.739     1000 
 1214000   0.33256977   -2.8219321   0.49835581   -2.3235763   0.13349665    11323.676     1000 
 1216000   0.34715907   -2.7815494   0.52021787   -2.2613315    0.1257577    11353.607     1000 
 1218000   0.33449252    -2.757279   0.50123705    -2.256042   0.12359184    11292.191     1000 
 1220000   0.33570719   -2.7534446   0.50305722   -2.2503874   0.13623319    11170.688     1000 
 1222000   0.34336574   -2.7808422   0.51453356   -2.2663087   0.11514442    11401.085     1000 
 1224000   0.33721689   -2.8101002   0.50531951   -2.3047807   0.12465331    11311.772     1000 
 1226000   0.33298929   -2.8348229   0.49898446   -2.3358385   0.13224325    11362.125     1000 
 1228000   0.34825325   -2.7889132   0.52185749   -2.2670557   0.12514873    11368.194     1000 
 1230000   0.33681696   -2.7997744   0.50472021   -2.2950542   0.13039969    11319.213     1000 
 1232000    0.3535304   -2.7826286   0.52976531   -2.2528633   0.12688979    11395.873     1000 
 1234000   0.35539374   -2.8215588   0.53255752   -2.2890013   0.12146007     11375.64     1000 
 1236000   0.34903228   -2.7951359   0.52302487    -2.272111   0.13087094    11356.447     1000 
 1238000   0.32493574   -2.7652018    0.4869162   -2.2782856   0.12537812    11287.169     1000 
 1240000    0.3452995   -2.7941922   0.51743131   -2.2767609   0.12822652    11308.014     1000 
 1242000   0.34842443   -2.7624285     0.522114   -2.2403145   0.13997028      11336.1     1000 
 1244000   0.36063312   -2.7647989   0.54040872   -2.2243902   0.14123992    11259.718     1000 
 1246000   0.34712341   -2.7683022   0.52016443   -2.2481378   0.12011082    11394.947     1000 
 1248000   0.33459068   -2.8089767   0.50138413   -2.3075926   0.12893231    11307.337     1000 
 1250000   0.35614732   -2.7728883   0.53368675   -2.2392015   0.13988604    11242.343     1000 
 1252000   0.34158959   -2.8130178     0.511872   -2.3011458   0.12433114    11425.747     1000 
 1254000   0.33621142   -2.8062961   0.50381282   -2.3024833   0.12087452    11414.424     1000 
 1256000   0.31935903   -2.7503113    0.4785595   -2.2717518   0.12933757    11274.223     1000 
 1258000   0.33827253   -2.7971184   0.50690139    -2.290217   0.13690465    11257.748     1000 
 1260000   0.35032927   -2.7817591   0.52496841   -2.2567907   0.12607765    11417.892     1000 
 1262000   0.34848113   -2.7590746   0.52219897   -2.2368757   0.13091172    11331.881     1000 
 1264000   0.34313708    -2.819511   0.51419092   -2.3053201   0.12436184    11417.113     1000 
 1266000   0.35415538    -2.811544   0.53070184   -2.2808421   0.12330299    11374.278     1000 
 1268000   0.34673575   -2.7750069   0.51958353   -2.2554234   0.13041995    11343.268     1000 
 1270000   0.34695822   -2.8137653   0.51991689   -2.2938484   0.12099257    11455.757     1000 
 1272000   0.34629841   -2.7841796   0.51892817   -2.2652515    0.1198072    11361.182     1000 
 1274000   0.33920406   -2.7988824   0.50829728   -2.2905851   0.13422829    11182.363     1000 
 1276000   0.34019644   -2.7964502   0.50978436   -2.2866659   0.12520443    11329.908     1000 
 1278000   0.33332043   -2.8031736   0.49948066   -2.3036929   0.12006283    11398.838     1000 
 1280000   0.34916746   -2.7644415   0.52322745    -2.241214   0.12312706    11351.627     1000 
 1282000   0.32950261   -2.7661844   0.49375966   -2.2724248   0.13319666    11257.316     1000 
 1284000   0.33965935   -2.8086998   0.50897953   -2.2997203   0.12633589    11375.673     1000 
 1286000   0.33611746   -2.8011876   0.50367202   -2.2975156   0.13349419    11338.123     1000 
 1288000   0.34903863   -2.7569725   0.52303439   -2.2339381   0.13129188     11319.82     1000 
 1290000   0.33329522   -2.7757595   0.49944288   -2.2763166   0.12465708    11336.838     1000 
 1292000   0.33470035   -2.7803292   0.50154847   -2.2787807   0.13674235    11246.958     1000 
 1294000   0.32705265   -2.7193017   0.49008839   -2.2292133   0.12550385    11308.088     1000 
 1296000   0.35613619    -2.775627   0.53367008   -2.2419569    0.1294377    11372.092     1000 
 1298000   0.32714798   -2.7588964   0.49023125   -2.2686652   0.12891855    11325.373     1000 
 1300000   0.34455648   -2.7331465   0.51631788   -2.2168286   0.12229891    11279.531     1000 
 1302000   0.34190925   -2.7425147     0.512351   -2.2301637   0.12705441    11277.691     1000 
 1304000   0.32890667   -2.7838126   0.49286665    -2.290946     0.122408    11245.531     1000 
 1306000   0.34381507   -2.8021074   0.51520688   -2.2869005   0.13376655    11335.784     1000 
 1308000   0.33685075   -2.8003264   0.50477085   -2.2955555   0.12991211     11334.36     1000 
 1310000   0.34184087   -2.8032738   0.51224855   -2.2910253   0.12915256    11313.942     1000 
 1312000   0.33736505   -2.8140332   0.50554153   -2.3084916   0.12666954    11383.891     1000 
 1314000   0.33337382   -2.7901927   0.49956067    -2.290632   0.11487761    11360.532     1000 
 1316000   0.33445673   -2.7538496   0.50118341   -2.2526662    0.1317296     11194.23     1000 
 1318000   0.33379385   -2.7397205   0.50019009   -2.2395304   0.13408388    11230.332     1000 
 1320000   0.34735534   -2.8337485   0.52051197   -2.3132365   0.12679135    11337.974     1000 
 1322000   0.32627336   -2.7611002   0.48892063   -2.2721795   0.13295256     11327.12     1000 
 1324000    0.3472833   -2.7901354   0.52040403   -2.2697314   0.12461864    11336.807     1000 
 1326000   0.34502313   -2.7953051   0.51701717   -2.2782879   0.12607127    11393.025     1000 
 1328000   0.33467395    -2.730387   0.50150891   -2.2288781   0.12927343    11292.416     1000 
 1330000    0.3371637   -2.7813194    0.5052398   -2.2760796   0.12363514     11238.37     1000 
 1332000   0.33094773   -2.7677512   0.49592518    -2.271826   0.11643968    11295.913     1000 
 1334000   0.33395137    -2.735868   0.50042613   -2.2354418   0.13392021    11251.297     1000 
 1336000   0.33876158   -2.7875861   0.50763423   -2.2799518   0.12889825    11323.554     1000 
 1338000    0.3454103   -2.7971116   0.51759734   -2.2795143   0.11975724    11373.522     1000 
 1340000   0.33294878   -2.7614047   0.49892374    -2.262481   0.12110787    11311.113     1000 
 1342000   0.35097019   -2.7484084   0.52592883   -2.2224796   0.13768769     11279.78     1000 
 1344000   0.34249724   -2.8210804   0.51323211   -2.3078483   0.11741695    11435.258     1000 
 1346000   0.33082059   -2.7963926   0.49573466   -2.3006579   0.12547353    11281.853     1000 
 1348000   0.33299115   -2.7856425   0.49898724   -2.2866553   0.13426912    11306.639     1000 
 1350000   0.34350649   -2.7682523   0.51474448   -2.2535078   0.14337113    11162.957     1000 
 1352000   0.34469613   -2.7506307   0.51652715   -2.2341035   0.14650702    11218.968     1000 
 1354000   0.34159352   -2.7215286   0.51187789   -2.2096507   0.12478441    11350.599     1000 
 1356000   0.32837706   -2.7893793   0.49207303   -2.2973063   0.12784904     11255.94     1000 
 1358000   0.34300376   -2.8015708   0.51399113   -2.2875796    0.1298588    11334.895     1000 
 1360000    0.3430696   -2.7739819    0.5140898   -2.2598921   0.11912056    11472.862     1000 
 1362000   0.34047752   -2.7870073   0.51020557   -2.2768017   0.11817276     11386.74     1000 
 1364000   0.31984184   -2.7584775     0.479283   -2.2791945   0.12289219     11323.93     1000 
 1366000   0.33106339    -2.796296    0.4960985   -2.3001975   0.12037494    11355.922     1000 
 1368000   0.34512385   -2.8105257   0.51716808   -2.2933576    0.1323762    11335.148     1000 
 1370000    0.3403401   -2.7737172   0.50999965   -2.2637175   0.12997379    11315.739     1000 
 1372000    0.3593158   -2.7743016   0.53843472   -2.2358669   0.13180496    11331.154     1000 
 1374000   0.34504986   -2.7802682   0.51705722    -2.263211   0.13020869    11309.346     1000 
 1376000   0.33297063   -2.7746673   0.49895649   -2.2757109   0.12957318      11282.8     1000 
 1378000   0.33844563    -2.810577   0.50716077   -2.3034162   0.12979467    11377.319     1000 
 1380000   0.32149382   -2.7689512   0.48175848   -2.2871927   0.12617691    11372.179     1000 
 1382000    0.3344985   -2.7536699   0.50124601   -2.2524239   0.13697052    11231.752     1000 
 1384000   0.32750929   -2.7825025   0.49077267   -2.2917298   0.13844901    11315.381     1000 
 1386000   0.33629263    -2.809313    0.5039345   -2.3053785   0.11859016    11351.418     1000 
 1388000   0.34629856   -2.8200553   0.51892839   -2.3011269   0.12626064      11375.5     1000 
 1390000    0.3520388   -2.7911102   0.52753014   -2.2635801   0.13103922    11280.021     1000 
 1392000    0.3355326   -2.7846583   0.50279559   -2.2818627   0.12473926    11332.185     1000 
 1394000   0.33382769   -2.7839253   0.50024079   -2.2836846    0.1401007    11256.178     1000 
 1396000   0.33897578   -2.8069711    0.5079552   -2.2990159   0.14118903    11270.696     1000 
 1398000   0.33831404   -2.7814452   0.50696358   -2.2744816   0.13298666    11262.522     1000 
 1400000   0.34890059   -2.8115386   0.52282753   -2.2887111   0.12993436    11326.258     1000 
 1402000   0.33178868   -2.7761737   0.49718533   -2.2789884   0.11773269    11352.517     1000 
 1404000   0.35079579   -2.7874063    0.5256675   -2.2617388   0.13392885     11270.01     1000 
 1406000   0.34511539   -2.7561922   0.51715541   -2.2390368   0.12729284    11303.643     1000 
 1408000   0.34492862   -2.7966763   0.51687553   -2.2798008   0.12595283    11313.937     1000 
 1410000   0.34354509   -2.7569511   0.51480232   -2.2421488   0.14402587    11189.691     1000 
 1412000    0.3460264   -2.7823879   0.51852057   -2.2638673   0.13497136    11277.473     1000 
 1414000   0.33392933   -2.7710979   0.50039311   -2.2707048   0.13943775    11180.876     1000 
 1416000   0.34187282   -2.7780732   0.51229642   -2.2657768   0.13380045     11377.16     1000 
 1418000   0.34220083   -2.7782016   0.51278795   -2.2654137   0.13195448    11301.322     1000 
 1420000    0.3488281   -2.7797272    0.5227189   -2.2570083   0.13675535     11237.84     1000 
 1422000   0.34790481    -2.776864   0.52133535   -2.2555287   0.12854603    11306.438     1000 
 1424000   0.33881434   -2.7804195   0.50771329   -2.2727062   0.13386379    11314.556     1000 
 1426000   0.35373173   -2.7861209     0.530067   -2.2560539   0.13349059    11278.544     1000 
 1428000   0.34686182   -2.7879945   0.51977243    -2.268222   0.12526177    11317.528     1000 
 1430000   0.33239118   -2.8207208   0.49808818   -2.3226326   0.12256603    11354.591     1000 
 1432000   0.33572707    -2.782589   0.50308702    -2.279502   0.11648262    11392.382     1000 
 1434000    0.3583156   -2.8053492   0.53693593   -2.2684133   0.13929983    11365.292     1000 
 1436000   0.33094215   -2.7834539   0.49591681   -2.2875371   0.12206491    11397.874     1000 
 1438000   0.33370374   -2.7753139   0.50005505   -2.2752589   0.13731099    11269.425     1000 
 1440000   0.34712788   -2.7938325   0.52017113   -2.2736613   0.13455835    11309.985     1000 
 1442000   0.35285883   -2.7946157   0.52875895   -2.2658568   0.12395049    11369.672     1000 
 1444000   0.32401416    -2.768485   0.48553522   -2.2829498   0.13241337    11317.065     1000 
 1446000   0.34536193   -2.8123057   0.51752485   -2.2947808   0.13628391    11308.938     1000 
 1448000   0.33431896   -2.7707011   0.50097697   -2.2697241   0.12768913    11394.643     1000 
 1450000   0.33026584   -2.7741439   0.49490336   -2.2792405   0.13093422    11258.863     1000 
 1452000   0.35296725    -2.778694   0.52892142   -2.2497726   0.13128948    11305.491     1000 
 1454000   0.34869771   -2.7825537   0.52252351   -2.2600301   0.13642896    11310.875     1000 
 1456000   0.35756174   -2.7389298   0.53580627   -2.2031236   0.14902078    11146.639     1000 
 1458000    0.3483404   -2.8094275   0.52198809   -2.2874394    0.1183016    11381.162     1000 
 1460000    0.3440498   -2.7388522   0.51555862   -2.2232936   0.12679781    11318.001     1000 
 1462000   0.34877198   -2.7887988   0.52263481    -2.266164   0.13393699    11427.848     1000 
 1464000   0.32789598    -2.814219   0.49135213   -2.3228668   0.13778767    11252.293     1000 
 1466000   0.35803644   -2.8016555   0.53651761   -2.2651379   0.13166032    11356.478     1000 
 1468000   0.33813589   -2.7781436   0.50669663    -2.271447   0.12763993    11402.622     1000 
 1470000   0.33349193   -2.8126864   0.49973766   -2.3129487   0.12812406    11285.269     1000 
 1472000   0.33360689   -2.8074084   0.49990992   -2.3074985   0.13239519    11293.042     1000 
 1474000   0.35788147   -2.7856867   0.53628538   -2.2494013   0.12394977    11345.802     1000 
 1476000   0.34888771   -2.7831289   0.52280824   -2.2603207   0.13197141    11311.537     1000 
 1478000   0.33530225   -2.7739401   0.50245042   -2.2714897   0.14222501    11287.383     1000 
 1480000   0.32154663   -2.7636052   0.48183762   -2.2817676   0.12513017    11258.722     1000 
 1482000   0.35003401   -2.7893368   0.52452596   -2.2648109   0.13358884    11268.593     1000 
 1484000   0.33620625   -2.7534018   0.50380507   -2.2495968   0.12012517    11426.619     1000 
 1486000   0.34807311   -2.7207097   0.52158755   -2.1991221   0.14694993    11194.395     1000 
 1488000   0.33489042   -2.7694827    0.5018333   -2.2676494   0.12582194    11325.774     1000 
 1490000   0.33403637   -2.7525376   0.50055349   -2.2519841   0.13047443    11276.574     1000 
 1492000   0.33904868   -2.8092008   0.50806444   -2.3011364   0.13244891    11273.953     1000 
 1494000   0.35488031   -2.7755483   0.53178815   -2.2437601   0.14049008    11281.664     1000 
 1496000   0.34153233   -2.7807835   0.51178619   -2.2689973   0.13525979    11366.687     1000 
 1498000   0.33204944   -2.7471876   0.49757608   -2.2496115   0.13151089    11322.617     1000 
 1500000   0.33185361   -2.7794502   0.49728263   -2.2821676   0.12216105    11353.086     1000 
 1502000   0.32546018   -2.7386542   0.48770208   -2.2509522   0.13349913    11228.279     1000 
 1504000   0.34891257   -2.8043419   0.52284549   -2.2814964    0.1272663      11381.2     1000 
 1506000   0.32827302   -2.7845826   0.49191712   -2.2926655   0.13244954    11302.675     1000 
 1508000   0.33091606   -2.8124565   0.49587772   -2.3165788   0.12226762    11455.133     1000 
 1510000   0.33769781    -2.777794   0.50604017   -2.2717538   0.13948336    11279.911     1000 
 1512000   0.33652759   -2.7866515   0.50428659   -2.2823649    0.1373141    11304.159     1000 
 1514000   0.33707166   -2.7512753   0.50510189   -2.2461734   0.12259041     11323.24     1000 
 1516000   0.33523102   -2.7705148   0.50234368   -2.2681711   0.13216728    11349.006     1000 
 1518000    0.3459928   -2.8007421   0.51847021   -2.2822719   0.12677697    11302.496     1000 
 1520000    0.3513198   -2.7529711   0.52645272   -2.2265184   0.12711217    11348.729     1000 
 1522000   0.32548952   -2.7886233   0.48774605   -2.3008772   0.12751896    11297.349     1000 
 1524000   0.34411152   -2.7780936   0.51565111   -2.2624424   0.12809106    11351.408     1000 
 1526000   0.32415065   -2.7835383   0.48573974   -2.2977985   0.13067603    11372.065     1000 
 1528000   0.33699873   -2.7544783   0.50499259   -2.2494857   0.13481296    11237.564     1000 
 1530000   0.33342694   -2.7777549   0.49964027   -2.2781147   0.12984103    11320.792     1000 
 1532000    0.3461991   -2.7634958   0.51877935   -2.2447164   0.11851815    11342.852     1000 
 1534000   0.33277485    -2.761019   0.49866312   -2.2623559   0.13201503    11213.456     1000 
 1536000   0.33661446   -2.8110037   0.50441677    -2.306587   0.12528629    11410.769     1000 
 1538000    0.3452407   -2.7861041   0.51734319   -2.2687609   0.12789687    11417.539     1000 
 1540000   0.33359639   -2.7814557    0.4998942   -2.2815615   0.13305678    11329.665     1000 
 1542000   0.34052987   -2.7886362   0.51028401   -2.2783521   0.12475601    11359.997     1000 
 1544000   0.35135191   -2.7605304   0.52650084   -2.2340296   0.12926062    11329.204     1000 
 1546000   0.34830527   -2.7722704   0.52193545    -2.250335   0.14711955    11177.551     1000 
 1548000   0.34148098     -2.81458   0.51170925   -2.3028707   0.12767685    11351.274     1000 
 1550000   0.33772789   -2.7856923   0.50608525    -2.279607   0.12403417    11402.624     1000 
 1552000    0.3469858   -2.7913153   0.51995822   -2.2713571   0.13334697    11270.333     1000 
 1554000   0.32116967   -2.7783688   0.48127275    -2.297096   0.12676665      11329.5     1000 
 1556000   0.32243472   -2.7627663   0.48316842   -2.2795979   0.13662851     11287.98     1000 
 1558000   0.32091245   -2.7953543   0.48088731    -2.314467    0.1300337    11268.538     1000 
 1560000   0.34317295   -2.7726707   0.51424466    -2.258426   0.11539198     11310.67     1000 
 1562000   0.34206539   -2.7642613   0.51258499   -2.2516763   0.14600361    11207.138     1000 
 1564000   0.32711782   -2.7659687   0.49018605   -2.2757826   0.11389342    11380.987     1000 
 1566000    0.3582999   -2.7868141    0.5369124   -2.2499017   0.13800834    11289.249     1000 
 1568000   0.34266035   -2.7814612   0.51347654   -2.2679847   0.12044871    11360.279     1000 
 1570000   0.32795282    -2.765091    0.4914373   -2.2736537   0.14163231    11243.752     1000 
 1572000   0.34729782    -2.751369   0.52042579   -2.2309433   0.13944246    11312.835     1000 
 1574000   0.36030668   -2.7730291   0.53991956   -2.2331095   0.12696064    11384.563     1000 
 1576000   0.31792442    -2.784083   0.47640975   -2.3076733   0.11168931    11365.501     1000 
[...]
 2614000   0.33751736   -2.7609599   0.50576977   -2.2551902   0.13129212    11356.465     1000 
 2616000   0.33930065   -2.7836314   0.50844203   -2.2751893   0.12938752    11235.129     1000 
 2618000   0.32737478   -2.8089422    0.4905711   -2.3183711    0.1245152     11355.28     1000 
 2620000   0.34274867   -2.7790115   0.51360889   -2.2654027   0.13550562    11220.776     1000 
 2622000   0.34499983   -2.7384009   0.51698225   -2.2214187   0.13104766      11232.5     1000 
 2624000   0.34945829   -2.7534886   0.52366325   -2.2298254   0.13001253    11203.323     1000 
 2626000   0.33240155    -2.781305   0.49810372   -2.2832012   0.13641354    11307.983     1000 
 2628000   0.33227625   -2.7640378   0.49791596   -2.2661219   0.13563492    11290.542     1000 
 2630000   0.34274873   -2.7565837   0.51360897   -2.2429747   0.12875948    11284.089     1000 
 2632000   0.33543717    -2.747823   0.50265259   -2.2451704   0.12181277     11325.04     1000 
 2634000   0.33147695   -2.7607858   0.49671822   -2.2640676   0.12916595    11205.248     1000 
 2636000    0.3429825   -2.7586739   0.51395928   -2.2447147   0.13455317    11264.675     1000 
 2638000    0.3481218   -2.7725354   0.52166052   -2.2508749   0.13283477    11274.016     1000 
 2640000   0.34658554   -2.8119867   0.51935843   -2.2926282   0.15117128    11261.533     1000 
 2642000    0.3469979   -2.8431705   0.51997635   -2.3231941   0.13492192    11312.429     1000 
 2644000   0.32637846   -2.7709759   0.48907812   -2.2818978   0.12584149    11391.902     1000 
 2646000    0.3462168   -2.7653395   0.51880588   -2.2465336   0.11950836    11439.202     1000 
 2648000   0.34589553   -2.7812638   0.51832445   -2.2629394    0.1126925    11413.521     1000 
 2650000   0.33858849    -2.795087   0.50737485   -2.2877121   0.13693158    11247.533     1000 
 2652000   0.33873835   -2.8196038   0.50759942   -2.3120043   0.13711243    11299.865     1000 
 2654000   0.33778411   -2.7698247   0.50616948   -2.2636552   0.12559691    11381.831     1000 
 2656000   0.33870362   -2.7930994   0.50754737    -2.285552   0.12829513    11367.939     1000 
 2658000   0.34156909   -2.7823762   0.51184128   -2.2705349   0.12504361    11341.233     1000 
 2660000   0.34390152   -2.7903205   0.51533643   -2.2749841    0.1235588    11431.021     1000 
 2662000   0.33429126   -2.7723545   0.50093545   -2.2714191   0.13086081    11262.904     1000 
 2664000   0.34925104    -2.774032   0.52335269   -2.2506793   0.13280118    11339.929     1000 
 2666000   0.32305517   -2.7181537   0.48409817   -2.2340555   0.11239936    11314.639     1000 
 2668000   0.32392028   -2.8009603   0.48539454   -2.3155658   0.13223863    11254.938     1000 
 2670000    0.3343465   -2.7330823   0.50101823   -2.2320641   0.13620402    11166.059     1000 
 2672000   0.32655299   -2.8192477   0.48933966   -2.3299081   0.11825954    11460.134     1000 
 2674000   0.32714561   -2.7544574   0.49022769   -2.2642297   0.13675209    11285.287     1000 
 2676000   0.33406335   -2.7709628   0.50059393   -2.2703689   0.13037228    11249.505     1000 
 2678000    0.3414722   -2.7724223    0.5116961   -2.2607262   0.12330241    11316.023     1000 
 2680000   0.34128566   -2.7874905   0.51141656    -2.276074   0.13242726    11347.412     1000 
 2682000   0.33527064    -2.798034   0.50240305    -2.295631   0.14198568    11259.429     1000 
 2684000    0.3349281   -2.7874077   0.50188976   -2.2855179   0.12788169    11387.518     1000 
 2686000   0.32713177   -2.7658749   0.49020696    -2.275668   0.12393683    11411.532     1000 
 2688000   0.32998209   -2.8374016   0.49447816   -2.3429234   0.12600009    11407.228     1000 
 2690000   0.32618596   -2.7456016   0.48878966    -2.256812   0.13128122     11284.08     1000 
 2692000    0.3445592    -2.787206   0.51632196    -2.270884   0.12550956    11302.963     1000 
 2694000   0.34459686   -2.8052939    0.5163784   -2.2889155   0.11661294     11390.45     1000 
 2696000   0.34542222   -2.7834366    0.5176152   -2.2658214   0.11946138    11381.192     1000 
 2698000   0.34121196   -2.7603413   0.51130613   -2.2490352   0.11297989    11431.782     1000 
 2700000   0.33171094   -2.7598212   0.49706884   -2.2627523   0.13204031    11317.445     1000 
 2702000   0.35917451   -2.7450261   0.53822301    -2.206803   0.13540073    11243.658     1000 
 2704000   0.33384891   -2.8325428    0.5002726   -2.3322702   0.12131946     11335.47     1000 
 2706000   0.34538161   -2.7733771   0.51755435   -2.2558228   0.13236833    11225.951     1000 
 2708000   0.34351051   -2.7732169    0.5147505   -2.2584664   0.12060165    11270.927     1000 
 2710000   0.33574736   -2.7705372   0.50311742   -2.2674198   0.13961325    11216.451     1000 
 2712000   0.34640284   -2.7608998   0.51908466   -2.2418152   0.13740027    11225.349     1000 
 2714000   0.33894118   -2.7724468   0.50790335   -2.2645434   0.12238512    11381.625     1000 
 2716000   0.34397587   -2.7783865   0.51544784   -2.2629387   0.13588649    11263.733     1000 
 2718000   0.35021865    -2.761344   0.52480265   -2.2365414   0.12788843    11260.749     1000 
 2720000   0.34670729   -2.8314986   0.51954087   -2.3119577   0.12676145    11368.534     1000 
 2722000   0.33729612   -2.8075808   0.50543823   -2.3021425   0.12081943    11315.667     1000 
 2724000   0.33854127   -2.8117586   0.50730409   -2.3044545   0.12069544    11328.695     1000 
 2726000   0.34535128   -2.7979513    0.5175089   -2.2804424   0.12241456    11429.348     1000 
 2728000   0.32722965   -2.8028663   0.49035363   -2.3125127   0.13749478    11313.042     1000 
 2730000   0.33936473   -2.7585515   0.50853805   -2.2500134   0.13131345    11220.493     1000 
 2732000   0.33704335   -2.7962733   0.50505946   -2.2912139   0.12410449    11336.495     1000 
 2734000   0.34942161   -2.7736196   0.52360829   -2.2500113   0.13417631    11355.696     1000 
 2736000   0.34543698   -2.7750131   0.51763731   -2.2573758   0.13676692    11353.554     1000 
 2738000   0.35225133   -2.7606078   0.52784862   -2.2327591   0.13692934    11291.364     1000 
 2740000   0.34912241   -2.7837515   0.52315993   -2.2605916   0.12501087    11368.041     1000 
 2742000   0.35224924   -2.7688442   0.52784548   -2.2409987   0.13063502    11278.611     1000 
 2744000   0.34937358   -2.7812975   0.52353631   -2.2577612   0.12599479    11307.078     1000 
 2746000   0.33498677   -2.8119421   0.50197767   -2.3099645    0.1254195    11392.131     1000 
 2748000   0.34126379   -2.7532823   0.51138379   -2.2418985   0.13894007    11244.303     1000 
 2750000   0.36480452   -2.7642944   0.54665957   -2.2176349    0.1220742    11431.604     1000 
 2752000   0.34398364   -2.7797662   0.51545949   -2.2643067   0.12964872    11263.846     1000 
 2754000   0.33991516   -2.7781032   0.50936286   -2.2687404    0.1212181    11415.931     1000 
 2756000    0.3450696    -2.785056   0.51708679   -2.2679692   0.12814953    11325.058     1000 
 2758000   0.33052733   -2.8131407   0.49529521   -2.3178455   0.12339212    11392.179     1000 
 2760000    0.3319128   -2.7796004   0.49737134    -2.282229   0.13381046    11379.744     1000 
 2762000   0.34504178   -2.7819429   0.51704511   -2.2648978   0.12976999    11293.422     1000 
 2764000   0.35032309   -2.7831442   0.52495915    -2.258185   0.13024068     11294.14     1000 
 2766000   0.33226066    -2.784957    0.4978926   -2.2870644   0.13380019    11255.024     1000 
 2768000   0.33544215   -2.7636227   0.50266006   -2.2609626   0.12898717    11285.812     1000 
 2770000   0.34537688    -2.800802   0.51754725   -2.2832548   0.14080622    11243.281     1000 
 2772000   0.33599087    -2.778854   0.50348232   -2.2753717    0.1311055    11239.186     1000 
 2774000   0.35551194   -2.7560536   0.53273464    -2.223319   0.13246477    11217.437     1000 
 2776000   0.33193713   -2.7962768   0.49740779    -2.298869   0.11246918    11398.338     1000 
 2778000   0.34377567   -2.7869231   0.51514785   -2.2717752   0.13313214    11284.887     1000 
 2780000   0.33860493   -2.7804665   0.50739949   -2.2730671   0.13870268    11287.456     1000 
 2782000   0.32500732   -2.8151466   0.48702346   -2.3281231   0.12158747    11389.871     1000 
 2784000   0.34027923   -2.7901335   0.50990842   -2.2802251   0.12868461    11332.526     1000 
 2786000     0.344269    -2.781349    0.5158871   -2.2654619   0.14114002    11249.947     1000 
 2788000   0.33231106    -2.723854   0.49796812   -2.2258859   0.13299055    11280.228     1000 
 2790000   0.35150335   -2.7478463   0.52672778   -2.2211185    0.1326409    11251.679     1000 
 2792000    0.3381013   -2.7798611    0.5066448   -2.2732163   0.12559922    11333.997     1000 
 2794000   0.33649845   -2.7843394   0.50424292   -2.2800965    0.1106848    11439.757     1000 
 2796000   0.33698312   -2.7801886   0.50496921   -2.2752194   0.13037916    11303.177     1000 
 2798000   0.33530686   -2.7810469   0.50245733   -2.2785895   0.12484946    11253.087     1000 
 2800000   0.34061654   -2.7734996   0.51041389   -2.2630857   0.12763152    11395.974     1000 
 2802000   0.33492107   -2.7756454   0.50187922   -2.2737662   0.12322608    11399.181     1000 
 2804000   0.32670033   -2.7378867   0.48956044   -2.2483263   0.13264873    11254.189     1000 
 2806000   0.33012994   -2.7390192   0.49469971   -2.2443195    0.1399989    11214.831     1000 
 2808000   0.33979902   -2.7577836   0.50918883   -2.2485948   0.13116776    11306.008     1000 
 2810000   0.32477334   -2.7813312   0.48667285   -2.2946583   0.13158891    11324.555     1000 
 2812000    0.3422817   -2.8153575   0.51290912   -2.3024483   0.13124794    11326.784     1000 
 2814000   0.33933715   -2.7977516   0.50849672   -2.2892549   0.12405443    11366.589     1000 
 2816000   0.36335337   -2.7610302   0.54448503   -2.2165452   0.12851572    11319.559     1000 
 2818000   0.33574784   -2.7636817   0.50311814   -2.2605635   0.12255321    11305.637     1000 
 2820000    0.3471227   -2.8106936   0.52016337   -2.2905302   0.13207446    11340.693     1000 
 2822000   0.33818863   -2.7674221   0.50677567   -2.2606465   0.12259153     11429.15     1000 
 2824000   0.33108792   -2.7837094   0.49613525   -2.2875741   0.13381672     11321.38     1000 
 2826000   0.35020613   -2.7485583   0.52478388   -2.2237744   0.13524406    11253.236     1000 
 2828000    0.3304724   -2.7564506   0.49521289   -2.2612377   0.12567084    11342.946     1000 
 2830000   0.32778002   -2.7482437   0.49117836   -2.2570654   0.12543732     11309.63     1000 
 2832000   0.32506894    -2.790702   0.48711581   -2.3035862   0.13735754    11351.899     1000 
 2834000    0.3486568   -2.8227039   0.52246222   -2.3002416   0.12741363    11337.113     1000 
 2836000   0.33706146   -2.7672393   0.50508659   -2.2621528   0.13437937    11202.172     1000 
 2838000   0.34109425    -2.788934   0.51112973   -2.2778043   0.13978788    11260.131     1000 
 2840000   0.35207414   -2.7852729    0.5275831   -2.2576898   0.11671248    11364.285     1000 
 2842000   0.32710332   -2.7808068   0.49016432   -2.2906424   0.12965642    11335.404     1000 
 2844000   0.34133878   -2.7990934   0.51149616   -2.2875972   0.12941784    11340.603     1000 
 2846000   0.35031271   -2.8083677    0.5249436   -2.2834241   0.12786518    11347.955     1000 
 2848000   0.32063249   -2.8112623   0.48046778   -2.3307945   0.12628422     11311.99     1000 
 2850000   0.33187497   -2.7834962   0.49731464   -2.2861816   0.14139732     11184.91     1000 
 2852000   0.33574874   -2.7538865   0.50311948    -2.250767   0.12323709    11376.526     1000 
 2854000    0.3435473   -2.7473055   0.51480563   -2.2324999   0.13488577    11249.616     1000 
 2856000   0.35055696    -2.782105   0.52530961   -2.2567954   0.12915442    11307.839     1000 
 2858000    0.3585667   -2.8188402    0.5373122    -2.281528   0.13010934    11338.451     1000 
 2860000   0.32937367   -2.7630639   0.49356645   -2.2694975    0.1202826    11330.476     1000 
 2862000   0.33538884    -2.794024   0.50258018   -2.2914438   0.11907281    11381.175     1000 
 2864000   0.35866446    -2.778904    0.5374587   -2.2414453   0.12181244    11461.571     1000 
 2866000   0.34804974   -2.7542387   0.52155254   -2.2326861   0.13083341    11295.018     1000 
 2868000    0.3417388   -2.7993441   0.51209559   -2.2872485   0.14407686    11292.212     1000 
 2870000   0.33975176   -2.8108278   0.50911802   -2.3017098   0.12853708    11383.487     1000 
 2872000   0.32337399   -2.8125079   0.48457592    -2.327932   0.12398846    11439.315     1000 
 2874000   0.33775851   -2.8079959   0.50613113   -2.3018648   0.11853391    11426.088     1000 
 2876000   0.33406202   -2.7585173   0.50059194   -2.2579253   0.13187643    11225.821     1000 
 2878000   0.33916355   -2.7500939   0.50823658   -2.2418573   0.13756394    11232.995     1000 
 2880000   0.33035482   -2.7839138    0.4950367   -2.2888771   0.12950456    11309.823     1000 
 2882000    0.3281373   -2.7940145   0.49171374   -2.3023007   0.12338013    11387.975     1000 
 2884000   0.33780776   -2.7749103   0.50620493   -2.2687054   0.12462587     11358.76     1000 
 2886000   0.34883496   -2.7987105   0.52272918   -2.2759813    0.1325282     11326.09     1000 
 2888000   0.34273779   -2.7535497   0.51359259   -2.2399571   0.14430242    11185.317     1000 
 2890000   0.34642297   -2.7591683   0.51911483   -2.2400535    0.1328025    11304.992     1000 
 2892000   0.35532296   -2.7729168   0.53245145   -2.2404653   0.12233239    11331.556     1000 
 2894000   0.35107843   -2.8046661   0.52609102   -2.2785751   0.12290756    11310.489     1000 
 2896000   0.32307512   -2.8185449   0.48412807   -2.3344169   0.13923609    11232.645     1000 
 2898000   0.33384114       -2.825   0.50026095    -2.324739   0.13275386    11263.752     1000 
 2900000   0.35810809   -2.7712663   0.53662497   -2.2346413    0.1468849    11178.968     1000 
 2902000    0.3304177   -2.7735747   0.49513092   -2.2784438   0.13533382    11231.199     1000 
 2904000   0.32525186   -2.7503649   0.48738991    -2.262975   0.13234241    11300.629     1000 
 2906000   0.33967622   -2.8199165   0.50900481   -2.3109117   0.13216693    11299.807     1000 
 2908000   0.33158017   -2.7639985   0.49687288   -2.2671256   0.15188019      11200.7     1000 
 2910000    0.3276324   -2.7815872   0.49095715     -2.29063   0.13582965    11261.271     1000 
 2912000   0.35333199   -2.7900624   0.52946799   -2.2605944     0.119044    11314.355     1000 
 2914000   0.33555676    -2.801665    0.5028318   -2.2988332   0.12829028    11391.903     1000 
 2916000   0.32547408   -2.8178751   0.48772291   -2.3301522   0.11197228    11487.575     1000 
 2918000   0.34261595   -2.7768586      0.51341   -2.2634486   0.13137645    11301.517     1000 
 2920000   0.33247864    -2.752389   0.49821924   -2.2541698   0.12651966    11297.556     1000 
 2922000   0.33299669   -2.8037629   0.49899555   -2.3047674   0.14004017    11331.886     1000 
 2924000   0.33364743   -2.8090705   0.49997068   -2.3090998   0.12343515    11322.121     1000 
 2926000    0.3255598   -2.7595065   0.48785136   -2.2716552   0.12718571    11334.104     1000 
 2928000    0.3444687   -2.8102731   0.51618635   -2.2940868    0.1267168    11275.565     1000 
 2930000   0.34377745   -2.7546766   0.51515052   -2.2395261   0.13121669    11259.427     1000 
 2932000    0.3501556   -2.8210172   0.52470816   -2.2963091   0.12846809    11331.281     1000 
 2934000   0.33372368   -2.7434005   0.50008493   -2.2433156   0.13638662    11246.457     1000 
 2936000   0.34277655   -2.8075057   0.51365066    -2.293855   0.13533888    11263.105     1000 
 2938000   0.34814827   -2.7923627   0.52170018   -2.2706625   0.13762169    11224.872     1000 
 2940000   0.32986217   -2.8210946   0.49429846   -2.3267961   0.12583425    11363.655     1000 
 2942000   0.33414182   -2.7622064   0.50071152   -2.2614949   0.12866316    11292.726     1000 
 2944000   0.35016976   -2.7739804   0.52472939    -2.249251   0.13860438    11323.392     1000 
 2946000   0.33624295   -2.7609765   0.50386005   -2.2571164   0.12138899    11323.361     1000 
 2948000   0.34944965   -2.7647468   0.52365031   -2.2410965   0.12557463    11386.112     1000 
 2950000   0.34597855   -2.7883562   0.51844886   -2.2699073   0.14217301    11237.211     1000 
 2952000   0.33613105   -2.7914699   0.50369238   -2.2877775   0.12347147    11403.423     1000 
 2954000   0.34255316   -2.7745854   0.51331592   -2.2612695   0.12063292    11327.508     1000 
 2956000    0.3351542   -2.7568717   0.50222857   -2.2546431   0.11588118    11400.254     1000 
 2958000   0.34791448   -2.7862713   0.52134985   -2.2649214   0.12836286    11282.673     1000 
 2960000   0.34214442   -2.7742718   0.51270342   -2.2615684   0.12524544    11244.052     1000 
 2962000   0.32858082   -2.7932464   0.49237836   -2.3008681   0.13808831    11344.342     1000 
 2964000   0.33660139   -2.7715202   0.50439718   -2.2671231   0.14259419     11256.43     1000 
 2966000    0.3390996   -2.7707968   0.50814076   -2.2626561   0.12658077    11361.047     1000 
 2968000   0.32942956   -2.7608542    0.4936502    -2.267204   0.11967516    11348.205     1000 
 2970000   0.35213423   -2.7749704   0.52767314   -2.2472973    0.1357942    11277.202     1000 
 2972000   0.33248267   -2.7445558   0.49822528   -2.2463305   0.13089588    11359.845     1000 
 2974000   0.35240266   -2.7687644   0.52807538   -2.2406891   0.13164166    11365.846     1000 
 2976000   0.34304199   -2.7753437   0.51404842   -2.2612952   0.12533232    11303.625     1000 
 2978000   0.34579348   -2.8207051   0.51817153   -2.3025336   0.13480118    11354.515     1000 
 2980000   0.34647506   -2.8291235   0.51919287   -2.3099306   0.13008361    11366.634     1000 
 2982000   0.33944775   -2.7594101   0.50866246   -2.2507477   0.12947333    11325.532     1000 
 2984000   0.34633668   -2.8011859   0.51898551   -2.2822003   0.13534277     11375.92     1000 
 2986000    0.3317587   -2.8085624   0.49714042    -2.311422   0.13092461    11313.849     1000 
 2988000   0.33035657   -2.7849126   0.49503931   -2.2898733   0.12690848    11388.098     1000 
 2990000   0.34444215   -2.7230552   0.51614656   -2.2069087   0.14173449    11211.513     1000 
 2992000   0.35167745   -2.7857538   0.52698866   -2.2587651   0.11617198    11390.828     1000 
 2994000   0.32546909   -2.7557052   0.48771544   -2.2679897   0.13294065    11316.475     1000 
 2996000   0.33531143   -2.8007007   0.50246418   -2.2982365   0.12294077    11420.295     1000 
 2998000    0.3383228   -2.7702601   0.50697672   -2.2632834   0.13477451    11207.555     1000 
 3000000   0.34481518    -2.797503   0.51670554   -2.2807974   0.13032159    11319.157     1000 
Loop time of 1485.87 on 4 procs for 3000000 steps with 1000 atoms

Performance: 872216.834 tau/day, 2019.020 timesteps/s
95.0% CPU use with 4 MPI tasks x 1 OpenMP threads

MPI task timing breakdown:
Section |  min time  |  avg time  |  max time  |%varavg| %total
---------------------------------------------------------------
Pair    | 504.3      | 508.72     | 512.84     |  13.8 | 34.24
Neigh   | 59.994     | 60.123     | 60.219     |   1.2 |  4.05
Comm    | 108.69     | 112.65     | 116.91     |  28.3 |  7.58
Output  | 0.033525   | 3.7088     | 4.9376     | 110.2 |  0.25
Modify  | 794.14     | 795.54     | 798.95     |   7.0 | 53.54
Other   |            | 5.133      |            |       |  0.35

Nlocal:        250.000 ave         255 max         247 min
Histogram: 2 0 0 0 0 1 0 0 0 1
Nghost:        1736.75 ave        1755 max        1716 min
Histogram: 1 0 0 0 1 0 1 0 0 1
Neighs:        14640.5 ave       15007 max       14362 min
Histogram: 1 0 0 1 1 0 0 0 0 1

Total # of neighbors = 58562
Ave neighs/atom = 58.562000
Neighbor list builds = 150000
Dangerous builds not checked

Total wall time: 0:24:45
