LAMMPS (29 Sep 2021 - Update 2)
OMP_NUM_THREADS environment is not set. Defaulting to 1 thread. (src/comm.cpp:98)
  using 1 OpenMP thread(s) per MPI task
# ----------------------- Inicialização -----------------------

units			lj
atom_style 		atomic
dimension 		3
boundary 		p p p

# -------------------- Criação dos Átomos ---------------------

read_data 		topologia.txt
Reading data file ...
  orthogonal box = (0.0000000 0.0000000 0.0000000) to (21.540000 21.540000 21.540000)
  1 by 1 by 1 MPI processor grid
  reading atoms ...
  1000 atoms
  read_data CPU = 0.005 seconds

velocity 		all create ${temp} 87287 rot yes dist gaussian
velocity 		all create 0.64 87287 rot yes dist gaussian

# ------------------ Interação Interatômica -------------------

pair_style		table linear 1000
pair_coeff		1 1 force.table AA 5.0
WARNING: 2 of 1000 force values in table AA are inconsistent with -dE/dr.
WARNING:  Should only be flagged at inflection points (src/pair_table.cpp:465)
pair_coeff		1 2 force.table AB 5.0
WARNING: 1 of 1000 force values in table AB are inconsistent with -dE/dr.
WARNING:  Should only be flagged at inflection points (src/pair_table.cpp:465)
pair_coeff		2 2 force.table BB 5.0
pair_write		1 1 1000 r 0.008 5.0 table.check AA
Appending to table file table.check with DATE: 2023-07-13
Neighbor list info ...
  update every 1 steps, delay 10 steps, check yes
  max neighbors/atom: 2000, page size: 100000
  master list distance cutoff = 5.3
  ghost atom cutoff = 5.3
  binsize = 2.65, bins = 9 9 9
  1 neighbor lists, perpetual/occasional/extra = 1 0 0
  (1) pair table, perpetual
      attributes: half, newton on
      pair build: half/bin/atomonly/newton
      stencil: half/bin/3d
      bin: standard
pair_write		1 2 1000 r 0.008 5.0 table.check AB
Appending to table file table.check with DATE: 2023-07-13
pair_write		2 2 1000 r 0.008 5.0 table.check BB
Appending to table file table.check with DATE: 2023-07-13

neighbor 		0.3 bin
neigh_modify		every 20 delay 0 check no

# ------------------------- Ensemble --------------------------------------

fix 1			all npt temp ${temp} ${temp} 0.5 iso ${press} ${press} 5
fix 1			all npt temp 0.64 ${temp} 0.5 iso ${press} ${press} 5
fix 1			all npt temp 0.64 0.64 0.5 iso ${press} ${press} 5
fix 1			all npt temp 0.64 0.64 0.5 iso 0.13 ${press} 5
fix 1			all npt temp 0.64 0.64 0.5 iso 0.13 0.13 5

# ---------------------- Função de Distribuição Radial -----------------------

#compute RDF 		all rdf 2000 1 1 1 2 2 2
#fix 2 			all ave/time 1 2000 2000 c_RDF[*] file rdf.data mode vector

# ------------------------- Execução ---------------------------

timestep 		0.005
thermo_style		custom step temp pe ke etotal press vol atoms
thermo			2000
run			3000000
Per MPI rank memory allocation (min/avg/max) = 2.670 | 2.670 | 2.670 Mbytes
Step Temp PotEng KinEng TotEng Press Volume Atoms 
       0         0.64    1.3897466      0.95904    2.3487866    1.5469657    9993.9483     1000 
    2000   0.61649343   -1.9827702   0.92381541   -1.0589548   0.14150208    11831.633     1000 
    4000   0.63777693   -2.0186065   0.95570873   -1.0628977   0.13337326    11878.924     1000 
    6000   0.67303438   -1.9676155     1.008542  -0.95907344   0.13052175    11844.492     1000 
    8000   0.63347745    -2.083006   0.94926595   -1.1337401   0.12350376    11904.708     1000 
   10000   0.63162323    -1.982782   0.94648741   -1.0362946   0.13460251    11625.743     1000 
   12000   0.63984483    -2.051921   0.95880748   -1.0931135   0.13562226     11872.55     1000 
   14000   0.64469691   -2.0547119   0.96607833   -1.0886336   0.13168544    11849.285     1000 
   16000   0.63030693   -2.0354433   0.94451494   -1.0909283   0.13147963    11849.026     1000 
   18000   0.62836641   -1.9957446   0.94160707   -1.0541375   0.13115039    11506.384     1000 
   20000   0.62671335   -2.0461744   0.93912995   -1.1070444   0.12703423    11927.713     1000 
   22000   0.62791479    -2.019938   0.94093032   -1.0790076   0.12815329    11800.441     1000 
   24000   0.62504055   -2.0481856   0.93662327   -1.1115623   0.12569468    11707.259     1000 
   26000   0.63361326   -2.0705665   0.94946947    -1.121097    0.1289547    11610.758     1000 
   28000   0.63502624   -2.0440831   0.95158683   -1.0924962   0.11101175    12143.596     1000 
   30000   0.64891699   -2.0142288    0.9724021   -1.0418267   0.13005346    11869.699     1000 
   32000    0.6434492   -2.1227364   0.96420862   -1.1585278     0.133806    11834.296     1000 
   34000   0.63245011   -2.0834777   0.94772649   -1.1357512   0.13262431    11833.628     1000 
   36000   0.63069611    -2.026707   0.94509813   -1.0816088   0.14662442    11677.859     1000 
   38000    0.6058902   -2.0298383   0.90792647   -1.1219118   0.13447064    11659.999     1000 
   40000   0.60646903   -2.0805912   0.90879384   -1.1717974   0.12182054     11909.53     1000 
   42000   0.62962921   -2.0150571   0.94349937   -1.0715577    0.1165604    11821.494     1000 
   44000   0.63767777   -2.0790728   0.95556013   -1.1235126   0.13493911    11794.853     1000 
   46000   0.63987786   -2.0627229   0.95885697   -1.1038659   0.12780994    11743.225     1000 
   48000   0.62196376   -2.0226622   0.93201269   -1.0906495   0.12953024    11821.718     1000 
   50000   0.67820736   -2.0509583    1.0162937   -1.0346646   0.14058268        11881     1000 
   52000   0.65881497   -2.0799823   0.98723424    -1.092748   0.13823984    11887.112     1000 
   54000   0.62543014   -2.0851124   0.93720706   -1.1479053   0.12401418    11715.018     1000 
   56000   0.62999874   -2.0600641    0.9440531   -1.1160109      0.13808    11764.893     1000 
   58000   0.66041117   -2.0052762   0.98962615     -1.01565   0.14156837    11766.558     1000 
   60000   0.64672706   -2.0520562    0.9691205   -1.0829357   0.12668995    11870.571     1000 
   62000   0.63558622   -2.1068439   0.95242596   -1.1544179   0.10359544    12131.648     1000 
   64000   0.65043167   -2.0528597   0.97467186   -1.0781878   0.12945977    11815.637     1000 
   66000   0.62369566   -2.0273365   0.93460794   -1.0927286   0.13082715     11801.83     1000 
   68000     0.610365   -2.0773997   0.91463196   -1.1627677   0.11741674    11761.485     1000 
   70000   0.63360804   -2.0677929   0.94946165   -1.1183312   0.12618551    11778.502     1000 
   72000   0.63526135   -2.0948905   0.95193913   -1.1429514   0.12264716     11997.23     1000 
   74000   0.64222898   -2.0629871   0.96238012    -1.100607   0.13890999    11547.301     1000 
   76000   0.65142241   -2.0331854   0.97615648   -1.0570289   0.13575809    11809.981     1000 
   78000    0.6348049   -2.0398421   0.95125514    -1.088587    0.1223276    11893.963     1000 
   80000   0.65334693   -2.0540273   0.97904038   -1.0749869   0.12401136    12084.897     1000 
   82000   0.62112364   -2.0320624   0.93075378   -1.1013086   0.12791637     11825.21     1000 
   84000   0.63160651   -2.0365204   0.94646235    -1.090058   0.12760241    11606.132     1000 
   86000   0.60536296   -2.0190381   0.90713639   -1.1119017    0.1156117    11916.353     1000 
   88000   0.63531578    -2.062841    0.9520207   -1.1108203   0.13033301    11857.394     1000 
   90000   0.64340787   -2.0744846   0.96414669   -1.1103379   0.12797592    11817.853     1000 
   92000   0.67775434   -2.0452087    1.0156149   -1.0295939   0.13011162    11565.223     1000 
   94000   0.64130105   -2.0373556   0.96098962    -1.076366   0.11903495    11877.246     1000 
   96000   0.62992146   -2.0214333   0.94393731    -1.077496   0.12799889    11687.355     1000 
   98000   0.64983938   -2.0434293   0.97378432    -1.069645   0.12569007    11846.001     1000 
  100000   0.63904639   -2.0054329   0.95761101   -1.0478219    0.1361798      11728.5     1000 
  102000   0.66438879   -2.0139094    0.9955866   -1.0183229   0.12177056    11754.671     1000 
  104000   0.65530072   -2.0744138   0.98196813   -1.0924456   0.14212523    11628.348     1000 
  106000    0.6500845    -2.033433   0.97415163   -1.0592814   0.13112268    11943.881     1000 
  108000   0.65508375   -2.0311685     0.981643   -1.0495255   0.13214666    11953.741     1000 
  110000    0.6135253   -2.0551332   0.91936767   -1.1357656   0.13208025    11844.939     1000 
  112000   0.64736834    -2.052804   0.97008145   -1.0827226   0.12249862    11958.652     1000 
  114000   0.67062678    -2.056338    1.0049342   -1.0514038   0.14447431    11662.767     1000 
  116000   0.64503416   -2.0688545    0.9665837   -1.1022708   0.13435913    11845.279     1000 
  118000    0.6222625   -2.0914893   0.93246036    -1.159029   0.11641627    11938.326     1000 
  120000   0.63608912   -2.1000674   0.95317954   -1.1468879   0.12222983    11877.851     1000 
  122000    0.6641132   -2.0525641   0.99517363   -1.0573905   0.13540484    11844.077     1000 
  124000   0.63892205   -2.0332701   0.95742469   -1.0758454   0.12280492    11859.098     1000 
  126000   0.62907764   -2.0476398   0.94267284    -1.104967   0.11656142    11850.325     1000 
  128000   0.63921056   -2.0744407   0.95785702   -1.1165837   0.12558563    11925.165     1000 
  130000   0.64919591   -2.0059425   0.97282007   -1.0331224   0.12907886    11924.285     1000 
  132000   0.62362402   -2.0119323    0.9345006   -1.0774317   0.13645416    11771.009     1000 
  134000   0.61456526    -2.074315   0.92092604   -1.1533889   0.11960165    11897.042     1000 
  136000   0.65249006   -2.0264755   0.97775636   -1.0487192   0.12887346    11762.322     1000 
  138000   0.63160553   -2.0987129   0.94646088    -1.152252    0.1236143    11717.953     1000 
  140000   0.62286976   -2.0800132   0.93337034   -1.1466429   0.11482715     12101.05     1000 
  142000   0.64828904   -2.0606956   0.97146112   -1.0892345    0.1270977    11803.266     1000 
  144000   0.62930285   -2.0558695   0.94301032   -1.1128592   0.13005914    11832.439     1000 
  146000   0.62558376   -2.0722111   0.93743727   -1.1347738   0.13505395    11852.602     1000 
  148000   0.63829228   -2.0625362   0.95648098   -1.1060553   0.13804157    11668.321     1000 
  150000   0.65368959   -2.0007103   0.97955385   -1.0211565   0.11009449    12057.782     1000 
  152000   0.64718492   -1.9979429   0.96980661   -1.0281363    0.1369872    11737.083     1000 
  154000   0.63759171   -2.0316664   0.95543118   -1.0762352     0.120136     11882.71     1000 
  156000   0.64640796   -2.0847587   0.96864233   -1.1161164   0.14177868    11925.378     1000 
  158000   0.65565808   -2.0562306   0.98250363    -1.073727   0.12884564    11798.068     1000 
  160000   0.63627044   -2.0361616   0.95345125   -1.0827104   0.12681299    11870.396     1000 
  162000   0.61691436   -2.0503841   0.92444617   -1.1259379   0.12559603    11795.167     1000 
  164000   0.63225649   -2.0792543   0.94743636    -1.131818   0.13482809    11636.566     1000 
  166000   0.65733598   -2.0552279   0.98501797   -1.0702099   0.14238235    11728.441     1000 
  168000   0.64282196   -2.0290328    0.9632687   -1.0657641   0.13749785    11732.466     1000 
  170000   0.61929201   -2.0602533   0.92800908   -1.1322442   0.13283732    11659.204     1000 
  172000   0.63805475   -2.0423391   0.95612504    -1.086214   0.12876863    11792.433     1000 
  174000   0.64429608   -2.0064954   0.96547767   -1.0410177   0.14436038    11662.282     1000 
  176000   0.62626535   -2.0553822   0.93845862   -1.1169235   0.12871487    11623.858     1000 
  178000   0.64752807   -2.0325153   0.97032081   -1.0621945   0.11727727    11846.514     1000 
  180000   0.66687668   -2.0710481    0.9993147   -1.0717334   0.12966108    11825.916     1000 
  182000   0.63024666   -2.0430783   0.94442462   -1.0986537   0.12810755    11746.579     1000 
  184000    0.6329308   -2.0465773    0.9484468   -1.0981305   0.13473212    11687.588     1000 
  186000   0.64751824   -2.0881324   0.97030608   -1.1178263   0.12999973    11896.382     1000 
  188000   0.62372378   -2.0348931   0.93465009   -1.1002431   0.12327482    11793.123     1000 
  190000   0.66068577   -2.0430601   0.99003763   -1.0530225   0.13529265    11528.515     1000 
  192000   0.60121008   -2.0260812   0.90091331   -1.1251679   0.11936483     11782.65     1000 
  194000   0.63264072   -2.0180762   0.94801212   -1.0700641   0.13147414    11794.588     1000 
  196000   0.63267169   -2.0582262   0.94805852   -1.1101677   0.14227643    11600.227     1000 
  198000   0.63540947   -2.0264785   0.95216109   -1.0743174    0.1401436    11735.672     1000 
  200000   0.62033695    -2.058632   0.92957492   -1.1290571   0.12390158    11742.493     1000 
  202000   0.64182699   -2.0165459   0.96177774   -1.0547682   0.12123047     11925.85     1000 
  204000   0.63169361   -2.0118583   0.94659287   -1.0652654   0.14534406     11537.44     1000 
  206000   0.64479975   -2.0774202   0.96623243   -1.1111878   0.12335931    11964.999     1000 
  208000   0.65606403   -2.0664729   0.98311194    -1.083361   0.12734279    11852.935     1000 
  210000   0.65422943   -2.0898524    0.9803628   -1.1094896   0.13861013    11772.188     1000 
  212000   0.62364484   -2.1108294   0.93453179   -1.1762976   0.11394152    12039.586     1000 
  214000   0.64353491   -2.0339952   0.96433706   -1.0696582    0.1344683    11686.129     1000 
  216000   0.62855582   -2.0530161    0.9418909   -1.1111252   0.12512603    11877.199     1000 
  218000   0.62012718   -2.0212024   0.92926058   -1.0919418   0.12152221    11863.994     1000 
  220000   0.65794342   -2.0424685   0.98592821   -1.0565403   0.12990372     11690.67     1000 
  222000   0.63594739   -1.9948477   0.95296716   -1.0418806   0.12214625    11758.927     1000 
  224000   0.64113614   -2.0483822   0.96074251   -1.0876396   0.12936111    11873.244     1000 
  226000   0.62635222    -2.104067    0.9385888   -1.1654782   0.11623123    11970.786     1000 
  228000   0.65994181   -2.0824443   0.98892281   -1.0935215   0.13597921    11697.117     1000 
  230000   0.66490893   -2.0472845   0.99636604   -1.0509185   0.13115659    11786.358     1000 
  232000   0.64257593   -2.0450639   0.96290004   -1.0821639   0.13094835    11794.607     1000 
  234000   0.66674117    -2.018885   0.99911165   -1.0197733   0.12851455     11825.05     1000 
  236000    0.6580451   -2.0415827   0.98608058   -1.0555021   0.14133193    11769.162     1000 
  238000   0.63499231    -2.022339   0.95153598    -1.070803   0.13918439    11628.111     1000 
  240000   0.64138124   -2.0233004   0.96110979   -1.0621907   0.12274169    11731.083     1000 
  242000   0.64279157   -2.0216071   0.96322316    -1.058384   0.12181846    12003.369     1000 
  244000   0.63240162   -2.0768302   0.94765383   -1.1291764    0.1268257    11880.093     1000 
  246000   0.64412149   -2.0367507   0.96521606   -1.0715346    0.1321415    11883.403     1000 
  248000   0.63837105   -2.0272825   0.95659902   -1.0706835   0.14124116    11536.532     1000 
  250000   0.65836813   -1.9840815   0.98656465  -0.99751684   0.10699602    11809.663     1000 
  252000   0.65765869   -2.0522255   0.98550155   -1.0667239   0.13809036      11717.8     1000 
  254000    0.6326298   -2.0525062   0.94799575   -1.1045104   0.13091281    11729.772     1000 
  256000   0.63791139   -2.0873885   0.95591022   -1.1314783   0.11978944    11975.448     1000 
  258000   0.63507974   -2.0517618   0.95166699   -1.1000948    0.1318642    11976.752     1000 
  260000    0.6528389    -2.032471   0.97827909   -1.0541919   0.14446701    11551.365     1000 
  262000   0.63379047   -2.0269874   0.94973501   -1.0772524   0.12850181    11826.803     1000 
  264000   0.64997023   -2.0741598   0.97398039   -1.1001794   0.11953445    12010.396     1000 
  266000   0.62565964   -2.0443285   0.93755096   -1.1067775    0.1216542    11795.646     1000 
  268000   0.62914573   -2.0700057   0.94277488   -1.1272308   0.12365357    11730.151     1000 
  270000   0.62923698   -2.0742529   0.94291161   -1.1313413   0.13004458    11745.664     1000 
  272000   0.62993711   -2.0726309   0.94396076   -1.1286701   0.12306502    11851.059     1000 
  274000   0.67117512   -2.0697888    1.0057559   -1.0640329   0.13897602    11866.526     1000 
  276000   0.64434791   -2.0178786   0.96555535   -1.0523233   0.12997494    11839.901     1000 
  278000   0.63941836   -2.0128928   0.95816841   -1.0547244    0.1350502    11775.231     1000 
  280000   0.63157118   -2.0890718   0.94640942   -1.1426624   0.12410144    11946.325     1000 
  282000   0.66119381   -2.1165777   0.99079893   -1.1257788   0.11436293    11823.686     1000 
  284000   0.62969488   -2.0530268   0.94359778    -1.109429   0.12012341    11905.931     1000 
  286000   0.64671191   -2.0799624   0.96909779   -1.1108646   0.13078584     11913.52     1000 
  288000   0.63945865   -2.0603983   0.95822878   -1.1021695   0.12299704    11917.265     1000 
  290000   0.64635189   -2.0053147    0.9685583   -1.0367564   0.13347571    11854.712     1000 
  292000   0.64264367   -2.0635985   0.96300154    -1.100597   0.12902857    11786.248     1000 
  294000   0.62753642   -2.0711219   0.94036333   -1.1307586   0.12541405    11838.235     1000 
  296000   0.64704302   -2.0714166   0.96959396   -1.1018226   0.11969364    11980.318     1000 
  298000    0.6210316   -2.0834556   0.93061585   -1.1528397    0.1292408    11662.358     1000 
  300000   0.60286343   -2.0722236   0.90339084   -1.1688327   0.13585295    11752.552     1000 
  302000   0.60956035   -1.9905391   0.91342618   -1.0771129   0.13394231    11632.836     1000 
  304000   0.62750861   -2.0531506   0.94032166    -1.112829   0.13785149    11826.466     1000 
  306000   0.64598071   -2.0008806    0.9680021   -1.0328785   0.13433979    11719.845     1000 
  308000   0.67755865   -2.0378601    1.0153216   -1.0225385   0.12425721     11796.85     1000 
  310000   0.63600676   -2.0155872   0.95305612   -1.0625311   0.14183341    11859.948     1000 
  312000   0.63556209   -2.0204498   0.95238979     -1.06806   0.12707522    11819.816     1000 
  314000    0.6280091   -2.0640381   0.94107164   -1.1229664   0.13316771    11875.412     1000 
  316000   0.60617367   -2.0484089   0.90835125   -1.1400576   0.13357287    11722.599     1000 
  318000   0.64853084   -2.0187306   0.97182346   -1.0469071   0.14232769    11813.636     1000 
  320000   0.61524946   -2.0398407   0.92195131   -1.1178894   0.12814267    11757.945     1000 
  322000   0.65144895    -2.083778   0.97619625   -1.1075817   0.12376319    11882.244     1000 
  324000   0.62209417   -2.0422127   0.93220811   -1.1100046   0.13739885    11872.745     1000 
  326000   0.63044562   -2.0536941   0.94472277   -1.1089713   0.13313158    11877.467     1000 
  328000   0.63006454   -2.0492829   0.94415171   -1.1051312   0.12767374    11664.495     1000 
  330000   0.67268423   -2.0616638    1.0080173   -1.0536465   0.13108089    11707.622     1000 
  332000   0.61875109   -2.0912257   0.92719851   -1.1640271   0.13097466    11768.249     1000 
  334000   0.65109601   -1.9998703   0.97566737   -1.0242029   0.13683029    11790.823     1000 
  336000   0.61913998   -2.0326805   0.92778126   -1.1048993   0.12172788     11840.77     1000 
  338000   0.63737831   -2.0352073    0.9551114   -1.0800959    0.1256323     11726.69     1000 
  340000   0.65087128   -2.0321368   0.97533062   -1.0568062    0.1225498    11878.395     1000 
  342000   0.65350446   -2.0871304   0.97927643    -1.107854   0.13941478    11627.531     1000 
  344000   0.65529955   -2.0120546   0.98196638   -1.0300882   0.12167879    11824.142     1000 
  346000   0.65286392   -1.9921767   0.97831658   -1.0138601   0.15105749    11554.309     1000 
  348000   0.62908376   -1.9647328   0.94268202   -1.0220508   0.13712024    11556.011     1000 
  350000   0.63528826   -2.0292799   0.95197946   -1.0773004   0.12762428    11769.682     1000 
  352000   0.63704571   -2.0148866   0.95461299   -1.0602737    0.1275282    11809.623     1000 
  354000   0.63436352   -2.0819921   0.95059373   -1.1313983   0.13706552    11612.732     1000 
  356000   0.63480091   -2.0505846   0.95124917   -1.0993355   0.13426091    11693.077     1000 
  358000    0.6468337   -2.0687597    0.9692803   -1.0994794   0.13930287    11796.789     1000 
  360000   0.62672749   -2.0802352   0.93915115   -1.1410841   0.13308962    11608.156     1000 
  362000   0.62967146   -2.0336975   0.94356269   -1.0901348    0.1369905     11682.11     1000 
  364000   0.65631015    -2.063937   0.98348076   -1.0804562   0.13286134     11909.28     1000 
  366000   0.63582456   -1.9844573    0.9527831   -1.0316742   0.14180296    11693.848     1000 
  368000   0.64047722   -2.0338598   0.95975511   -1.0741047   0.12159743    11980.992     1000 
  370000   0.64909807   -2.0195612   0.97267345   -1.0468878   0.12644112    11823.973     1000 
  372000   0.63612688   -2.0568333   0.95323613   -1.1035972   0.14254511    11553.598     1000 
  374000    0.6489332    -2.071727    0.9724264   -1.0993006     0.138747    11615.898     1000 
  376000   0.65493775   -2.0178662   0.98142422   -1.0364419    0.1337013     11708.61     1000 
  378000   0.64917837   -2.0126086   0.97279378   -1.0398148   0.12685897    11901.768     1000 
  380000   0.63940228   -2.1008997   0.95814432   -1.1427553   0.13217553    11860.898     1000 
  382000   0.65054855   -2.0451749     0.974847   -1.0703279   0.13331978    11755.921     1000 
  384000   0.62485964   -2.0463279   0.93635217   -1.1099757   0.13304383     11755.74     1000 
  386000   0.63965154    -2.070849   0.95851783   -1.1123311   0.12317382    11944.733     1000 
  388000   0.64861386   -2.0653596   0.97194786   -1.0934118    0.1304392    11775.426     1000 
  390000    0.6491669   -2.0630867    0.9727766   -1.0903102   0.13007148    11701.684     1000 
  392000    0.6598006   -2.0003964   0.98871119   -1.0116853   0.13308856    11784.511     1000 
  394000   0.66082964   -2.0729005   0.99025322   -1.0826473   0.13446208    11776.921     1000 
  396000    0.6187197   -2.0567706   0.92715147   -1.1296191   0.12054413    11806.427     1000 
  398000   0.64390768   -2.0193992   0.96489567   -1.0545036   0.13568971    11781.321     1000 
  400000   0.62927097    -2.033898   0.94296255   -1.0909354   0.12050949    11803.279     1000 
  402000   0.62381212   -2.0319747   0.93478245   -1.0971923   0.12918374    11893.635     1000 
  404000   0.66905788   -2.0448623    1.0025832   -1.0422791   0.12665861    11827.599     1000 
  406000   0.64075022   -2.0587909    0.9601642   -1.0986267   0.12881539    11920.587     1000 
  408000   0.64199196   -2.0314699   0.96202495    -1.069445    0.1265024    11837.991     1000 
  410000   0.64100053   -2.0371362   0.96053929   -1.0765969   0.12872903    11836.215     1000 
  412000   0.64207645    -2.067772   0.96215155   -1.1056204   0.13394308     11791.17     1000 
  414000   0.62813205   -2.0184574   0.94125588   -1.0772015   0.13574946     11611.28     1000 
  416000   0.66177951   -2.0801387    0.9916766   -1.0884621   0.13743476    11781.022     1000 
  418000   0.64871242   -2.0369918   0.97209557   -1.0648962   0.13877786    11842.389     1000 
  420000    0.6399604   -2.0543359   0.95898066   -1.0953553   0.13120214    11827.237     1000 
  422000   0.63695252   -2.0620526   0.95447335   -1.1075793   0.13089939    11885.662     1000 
  424000   0.67286504   -2.0655095    1.0082883   -1.0572213   0.12683332     11659.16     1000 
  426000    0.6404454   -2.1201933   0.95970744   -1.1604859   0.12763043    11852.541     1000 
  428000   0.63835097   -2.0743729   0.95656893    -1.117804   0.13053943    11732.747     1000 
  430000   0.63066069   -2.0453233   0.94504504   -1.1002782    0.1158873     12024.79     1000 
  432000   0.65052675   -2.0545389   0.97481434   -1.0797246   0.12322547    11892.454     1000 
  434000   0.65734518   -2.0442168   0.98503176    -1.059185   0.13074821    11825.503     1000 
  436000   0.63562393   -2.0523598   0.95248246   -1.0998773   0.12441051    11706.621     1000 
  438000   0.63658504   -2.0411207   0.95392268    -1.087198   0.13175956    11713.054     1000 
  440000   0.63319051   -2.0967711   0.94883598   -1.1479351   0.12173336    11897.623     1000 
  442000    0.6512755   -2.0092742   0.97593634   -1.0333379   0.13548234    11675.726     1000 
  444000   0.65642741   -2.0585028   0.98365648   -1.0748464   0.11568403     12004.22     1000 
  446000   0.64621772   -2.0349838   0.96835725   -1.0666266   0.11880124    11846.958     1000 
  448000   0.60952448   -2.0727609   0.91337243   -1.1593885   0.12590738    11797.246     1000 
  450000   0.63827522   -1.9863747   0.95645542   -1.0299193    0.1291104    11668.702     1000 
  452000   0.64957002    -1.977368   0.97338068   -1.0039873   0.14728626    11688.509     1000 
  454000   0.63977434   -2.0000978   0.95870185    -1.041396   0.13846473    11739.869     1000 
  456000   0.60416661   -2.0403667   0.90534367    -1.135023   0.12959003    11881.801     1000 
  458000   0.63082637   -2.0069157   0.94529331   -1.0616224   0.13835149    11713.937     1000 
  460000   0.63051441   -1.9997183   0.94482584   -1.0548924   0.12621315    11686.348     1000 
  462000   0.62423599   -2.0066078   0.93541764   -1.0711902   0.11849484    11796.953     1000 
  464000    0.6166856   -2.1340493   0.92410336   -1.2099459    0.1244802    11771.683     1000 
  466000   0.64440517   -2.0607877   0.96564114   -1.0951465   0.13308669    11795.303     1000 
  468000   0.65850485   -1.9994608   0.98676952   -1.0126913   0.13243761     11728.73     1000 
  470000   0.61233105   -2.0340785   0.91757808   -1.1165004   0.14146414     11650.48     1000 
  472000   0.64730481   -1.9935743   0.96998626    -1.023588   0.14393063    11523.256     1000 
  474000   0.59924788   -2.0434557   0.89797294   -1.1454827   0.12895692    11729.943     1000 
  476000   0.66956246   -2.0836607    1.0033394   -1.0803213   0.13227122    11908.392     1000 
  478000   0.64237445   -2.0896156   0.96259812   -1.1270175    0.1312069    11631.311     1000 
  480000   0.65046738   -2.0540608   0.97472537   -1.0793354   0.12213117      11729.3     1000 
  482000   0.65437375   -2.0026036   0.98057907   -1.0220245   0.12096981    11939.603     1000 
  484000   0.66992743   -2.0539974    1.0038863   -1.0501112   0.13064907    11608.851     1000 
  486000   0.65437675    -2.044148   0.98058357   -1.0635644   0.13481472    11771.831     1000 
  488000    0.6222671   -2.0868067   0.93246725   -1.1543395   0.13213875    11719.687     1000 
  490000   0.62910709   -2.0451151   0.94271698   -1.1023982   0.12384394     11728.78     1000 
  492000   0.65398855    -2.076088   0.98000184   -1.0960861   0.13939171    11878.747     1000 
  494000   0.64414532   -2.0472131   0.96525176   -1.0819614   0.13365147    11718.909     1000 
  496000   0.63250816   -2.0304972   0.94781347   -1.0826837   0.13448593    11629.029     1000 
  498000   0.64483758   -2.0468553   0.96628912   -1.0805662    0.1290116    11688.049     1000 
  500000   0.64080501    -2.049347    0.9602463   -1.0891007    0.1304143    11601.281     1000 
  502000   0.61480472   -2.0912834   0.92128487   -1.1699985   0.13554626     11649.62     1000 
  504000   0.66579785   -2.0260132   0.99769808   -1.0283152    0.1351754    11975.859     1000 
  506000   0.63097562    -2.020177   0.94551697   -1.0746601   0.12703616     11841.23     1000 
  508000    0.6650359   -2.0264178   0.99655629   -1.0298615   0.14010727    11782.585     1000 
  510000   0.64150409   -2.0687381   0.96129389   -1.1074442   0.14967413    11577.381     1000 
  512000   0.63018165   -2.0880555   0.94432721   -1.1437283   0.12217237    11770.388     1000 
  514000   0.64674209   -2.0587395   0.96914302   -1.0895965   0.11536547    12039.448     1000 
  516000   0.64755297   -2.0033575   0.97035813   -1.0329993   0.14438792    11525.023     1000 
  518000   0.60807729   -2.0774321   0.91120382   -1.1662283   0.11856775    12025.114     1000 
  520000   0.64120774   -2.1001358   0.96084981   -1.1392859   0.12276851    11988.805     1000 
  522000    0.6310037   -2.0353375   0.94555904   -1.0897785   0.12290152    11751.166     1000 
  524000   0.64843351   -2.0615897   0.97167761   -1.0899121   0.13241304    11816.226     1000 
  526000   0.65656742   -2.1304648   0.98386627   -1.1465986    0.1264432    11990.188     1000 
  528000   0.60628593   -2.0300677   0.90851947   -1.1215483   0.11520506    11815.724     1000 
  530000   0.68614754   -2.0246922    1.0281921  -0.99650011   0.13497277    11675.681     1000 
  532000   0.64213744   -2.0507572   0.96224295   -1.0885142   0.12914673    11805.151     1000 
  534000   0.61869923   -2.0690247    0.9271208   -1.1419039   0.12550445    11772.386     1000 
  536000   0.62222859   -2.0970955   0.93240954   -1.1646859   0.12498342    11757.011     1000 
  538000   0.62887626   -2.0421686   0.94237108   -1.0997976    0.1209566    12008.285     1000 
  540000   0.63254431   -2.0311448   0.94786765   -1.0832771   0.12112919    12022.107     1000 
  542000   0.68104829    -2.108605    1.0205509   -1.0880542   0.13196033    12008.001     1000 
  544000   0.66543852   -2.0479889   0.99715962   -1.0508293   0.12418076     11908.79     1000 
  546000   0.62804899   -2.0653349   0.94113141   -1.1242035   0.14205373    11632.197     1000 
  548000   0.65562516    -2.074165   0.98245431   -1.0917107   0.11839289    11916.881     1000 
  550000   0.64673944   -2.0830709   0.96913905   -1.1139318   0.12362262    11926.912     1000 
  552000   0.64619863   -2.0783816   0.96832865   -1.1100529   0.12745691    11859.161     1000 
  554000   0.67267498   -2.0447432    1.0080035   -1.0367398   0.12539259    11822.317     1000 
  556000    0.6507187   -2.0640136   0.97510197   -1.0889116   0.13499591    11695.644     1000 
  558000   0.63191948    -2.089436   0.94693133   -1.1425047   0.11543361    12034.007     1000 
  560000   0.64042517    -2.057642   0.95967712   -1.0979649   0.10755566    12109.636     1000 
  562000   0.61351656   -2.0493867   0.91935456   -1.1300322   0.13030153    11814.881     1000 
  564000   0.62635047   -2.0173522   0.93858619    -1.078766   0.12262241    11821.006     1000 
  566000   0.65488238   -2.0651225   0.98134125   -1.0837813   0.11917471     11927.39     1000 
  568000   0.65285603   -2.0540156   0.97830476   -1.0757108   0.12948496     11817.76     1000 
  570000   0.64091835   -2.0828923   0.96041615   -1.1224762   0.12643639     11958.72     1000 
  572000   0.63892628   -2.0313472   0.95743102   -1.0739161   0.11751735    12098.485     1000 
  574000   0.64805722   -2.0495343   0.97111375   -1.0784205   0.11432253    12091.313     1000 
  576000   0.64258964   -2.0717765   0.96292058   -1.1088559   0.11775422    11943.067     1000 
  578000   0.64364578   -2.0798413   0.96450321   -1.1153381   0.13084396    11824.875     1000 
  580000   0.63893333   -1.9977183    0.9574416   -1.0402767   0.14540171    11757.557     1000 
  582000   0.65552793   -2.0302329    0.9823086   -1.0479243   0.11044791    12114.462     1000 
  584000   0.64177913    -2.010375   0.96170602    -1.048669   0.13973804    11646.479     1000 
  586000   0.65936212   -2.0280649   0.98805413   -1.0400108    0.1397587    11651.204     1000 
  588000   0.63234175   -2.0153288   0.94756412   -1.0677647   0.13026224    11852.745     1000 
  590000   0.61005743   -2.0485704   0.91417105   -1.1343993   0.13845823    11702.498     1000 
  592000    0.6398702   -2.0232841    0.9588455   -1.0644386   0.13293828    11542.001     1000 
  594000   0.63949837   -2.0624627    0.9582883   -1.1041744   0.12568833    11891.852     1000 
  596000   0.61148898   -2.0161053   0.91631624   -1.0997891    0.1195407    11862.716     1000 
  598000   0.62085544   -2.0277606   0.93035188   -1.0974087   0.13117131    11679.326     1000 
  600000   0.64873522   -2.0494968   0.97212973   -1.0773671   0.13462951    11813.014     1000 
  602000   0.64015453   -2.0000942   0.95927157   -1.0408226     0.124204    11661.916     1000 
  604000   0.63341923   -2.0802259   0.94917871   -1.1310472   0.13297831    11719.344     1000 
  606000   0.62028515   -2.0445953   0.92949729    -1.115098   0.13547515     11913.36     1000 
  608000   0.63257449   -2.0495095   0.94791288   -1.1015966   0.13266404    11666.426     1000 
  610000   0.66326992   -2.0371831   0.99390997   -1.0432731   0.13764075    11599.816     1000 
  612000   0.65085233   -2.0893662   0.97530222    -1.114064   0.13235056    11980.039     1000 
  614000   0.63684116   -2.0937327   0.95430648   -1.1394263   0.13438081    11776.989     1000 
  616000   0.63934074   -1.9974957   0.95805209   -1.0394436   0.13145363     11615.28     1000 
  618000   0.63282784   -2.0483029   0.94829253   -1.1000104   0.13407581     11690.41     1000 
  620000   0.62613289   -2.0383454   0.93826013   -1.1000853   0.12863827    11657.998     1000 
  622000   0.65569457   -2.0237869   0.98255831   -1.0412286    0.1316641    11734.197     1000 
  624000    0.6436292   -2.0519136   0.96447835   -1.0874353   0.11417813    11971.723     1000 
  626000   0.61859047   -1.9843187   0.92695781   -1.0573609   0.13560921    11644.748     1000 
  628000   0.62997731   -2.0657125     0.944021   -1.1216915   0.12943489    11863.463     1000 
  630000   0.64912132   -2.0089024    0.9727083   -1.0361941   0.13352623    11910.179     1000 
  632000   0.60878941    -2.066024   0.91227093   -1.1537531   0.13884775    11659.819     1000 
  634000   0.64803709   -2.0919744   0.97108358   -1.1208908   0.12177389    11810.306     1000 
  636000   0.65135768   -2.0609098   0.97605948   -1.0848503   0.12126659    11990.089     1000 
  638000   0.64738337   -2.1184023   0.97010399   -1.1482983   0.13179831    11846.189     1000 
  640000    0.6204626   -2.0529749   0.92976321   -1.1232116   0.14271339    11787.954     1000 
  642000   0.64520111   -1.9971898   0.96683386   -1.0303559   0.13007088    11875.926     1000 
  644000   0.65046018   -2.0477363   0.97471458   -1.0730217   0.14026795    11681.884     1000 
  646000   0.64125087   -2.0468946   0.96091442   -1.0859801   0.14683964    11618.374     1000 
  648000    0.6246059   -2.1086012   0.93597193   -1.1726293   0.11774595    11879.545     1000 
  650000   0.62514817   -2.0672875   0.93678454    -1.130503    0.1338259    11754.358     1000 
  652000   0.63336757   -2.0675375    0.9491013   -1.1184362   0.13841598    11688.459     1000 
  654000   0.62778469   -2.0739019   0.94073536   -1.1331666   0.12512744    11857.737     1000 
  656000    0.6452414   -2.0424022   0.96689423    -1.075508   0.12826597    11679.968     1000 
  658000   0.63893492   -2.0133113   0.95744398   -1.0558674   0.13073163     11910.94     1000 
  660000   0.62666425   -2.0213166   0.93905638   -1.0822602   0.13001419    11890.553     1000 
  662000   0.65623924   -2.0579287   0.98337451   -1.0745542   0.13197923     11817.73     1000 
  664000   0.64951522   -2.0480518   0.97329855   -1.0747533   0.13168852    11601.183     1000 
  666000   0.62190135   -2.1074349   0.93191917   -1.1755158   0.12378079    11993.404     1000 
  668000   0.63532084   -2.0808771   0.95202828   -1.1288488   0.13730905    11525.016     1000 
  670000   0.63131876    -2.039571   0.94603116   -1.0935399   0.11722636    11918.649     1000 
  672000   0.60810909   -2.0266643   0.91125148   -1.1154128   0.13829776    11674.535     1000 
  674000   0.63546143   -2.0456278   0.95223895   -1.0933889   0.13416586    11761.051     1000 
  676000   0.62217567   -2.0557019   0.93233024   -1.1233716   0.12650299    11930.964     1000 
  678000   0.64035904   -2.0489267   0.95957802   -1.0893487   0.12699846    11871.418     1000 
  680000   0.66317845   -2.0928175   0.99377291   -1.0990446   0.11507776    12005.489     1000 
  682000   0.67750161   -1.9976281    1.0152362  -0.98239195   0.13432181    11782.779     1000 
  684000   0.64586259    -2.007566    0.9678251   -1.0397409   0.14192921    11594.207     1000 
  686000   0.63070107   -2.0640161   0.94510555   -1.1189106   0.11756845    11735.073     1000 
  688000   0.63720894   -2.0627785   0.95485759   -1.1079209   0.13732798    11827.635     1000 
  690000   0.65611523   -2.0527194   0.98318867   -1.0695307   0.12977269    11892.127     1000 
  692000   0.60055917   -2.0423437   0.89993791   -1.1424058   0.13595581    11810.983     1000 
  694000   0.63587864   -2.0190835   0.95286414   -1.0662193   0.12486511    11975.535     1000 
  696000   0.66675696   -2.0958849   0.99913531   -1.0967496   0.11903136    11933.191     1000 
  698000   0.65039661   -1.9941544   0.97461931   -1.0195351    0.1346815    11798.314     1000 
  700000   0.66746392   -2.0771471    1.0001947   -1.0769524   0.13118598     11836.84     1000 
  702000   0.64032298   -2.0291891   0.95952399   -1.0696651   0.12077843    11783.186     1000 
  704000   0.61173886   -2.0373458   0.91669068   -1.1206551   0.11920706    11794.054     1000 
  706000   0.64421618    -2.029391   0.96535794   -1.0640331   0.13141465    11784.019     1000 
  708000   0.62551892    -1.989488    0.9373401   -1.0521479   0.12359976    11734.155     1000 
  710000   0.65044954   -2.0143143   0.97469863   -1.0396157   0.13223919    11675.447     1000 
  712000   0.66254265   -2.0293075   0.99282016   -1.0364873   0.12862241    11881.488     1000 
  714000   0.65579907    -2.136121    0.9827149   -1.1534061   0.12721647    11799.482     1000 
  716000   0.61712564   -2.0034772   0.92476277   -1.0787144   0.11569554    11870.668     1000 
  718000   0.66461427   -2.0408628   0.99592449   -1.0449384   0.14357405     11801.94     1000 
  720000     0.651185    -2.056095   0.97580072   -1.0802943   0.12616389    12062.431     1000 
  722000   0.64285318   -2.0585747   0.96331549   -1.0952592   0.11496308    12128.106     1000 
  724000   0.63492906   -1.9978715    0.9514412   -1.0464303   0.12333095    11916.612     1000 
  726000   0.65754856   -2.0763537   0.98533652   -1.0910172   0.12858942    11916.046     1000 
  728000   0.64450847   -2.0218347   0.96579594   -1.0560388   0.14256463    11715.606     1000 
  730000    0.6409966   -2.0315251   0.96053341   -1.0709917   0.12737848    11836.932     1000 
  732000   0.64208444   -2.0069818   0.96216354   -1.0448182   0.11424484     11861.68     1000 
  734000   0.61042292   -2.0115679   0.91471875   -1.0968491   0.12994293    11656.783     1000 
  736000    0.6729409   -2.0415708    1.0084019   -1.0331689   0.12994897    11836.586     1000 
  738000   0.62298217     -2.01699   0.93353878   -1.0834512    0.1131002    11894.761     1000 
  740000   0.69155362   -2.0485792    1.0362931   -1.0122861   0.12052797    11896.936     1000 
  742000   0.67535698   -2.1023119    1.0120224   -1.0902895   0.13923217    11872.969     1000 
  744000   0.64578932   -2.0283874    0.9677153   -1.0606721   0.13270477    11838.488     1000 
  746000   0.66941971   -2.0598975    1.0031254    -1.056772   0.13976581     11823.12     1000 
  748000   0.62143816   -2.0577187   0.93122508   -1.1264936   0.13356996    11677.436     1000 
  750000   0.64848736   -2.1031361    0.9717583   -1.1313778   0.12947249    11919.859     1000 
  752000   0.61440156   -2.0277107   0.92068074     -1.10703   0.12345191    11698.641     1000 
  754000   0.65271723   -2.0512049   0.97809677   -1.0731082    0.1321546    11792.674     1000 
  756000   0.62888951   -2.0493319   0.94239093    -1.106941   0.13404701    11618.846     1000 
  758000   0.66659493    -2.025287    0.9988925   -1.0263945   0.12501515    11945.603     1000 
  760000   0.61872805   -2.0365443   0.92716398   -1.1093803   0.13727017    11723.126     1000 
  762000   0.61866589   -2.1066404   0.92707083   -1.1795696   0.12496636      12103.2     1000 
  764000   0.63608276   -1.9973362   0.95317002   -1.0441662   0.13282573    11677.857     1000 
  766000   0.63633821   -2.0262612   0.95355281   -1.0727084   0.11735883    11882.468     1000 
  768000   0.67412843   -2.0037144    1.0101815  -0.99353299    0.1566446    11471.893     1000 
  770000   0.64329115   -2.0373435   0.96397179   -1.0733717   0.12557671    11909.325     1000 
  772000   0.63838394   -2.0331416   0.95661834   -1.0765233   0.12400287    11685.102     1000 
  774000   0.59113972    -2.038149   0.88582287   -1.1523261   0.11173649    11899.183     1000 
  776000   0.67112772   -2.0767039    1.0056849    -1.071019   0.14125082    11892.299     1000 
  778000   0.65944168    -2.043396   0.98817336   -1.0552227   0.12801778    11833.757     1000 
  780000   0.61293722   -1.9753547   0.91848642   -1.0568683   0.13069349    11698.924     1000 
  782000   0.65527167   -2.0773435   0.98192459   -1.0954189   0.12617231    11921.652     1000 
  784000   0.64564073   -2.0217855   0.96749263   -1.0542929   0.13393369    11723.904     1000 
  786000   0.63221644   -2.0927875   0.94737634   -1.1454111   0.12613764    11839.974     1000 
  788000   0.63458111   -2.0179083    0.9509198   -1.0669885   0.12129246    11860.487     1000 
  790000   0.63362371   -2.0520959   0.94948512   -1.1026108   0.11931205    11715.816     1000 
  792000   0.61616865   -1.9643278   0.92332873    -1.040999   0.12947073    11797.475     1000 
  794000   0.62071349   -2.0866444   0.93013916   -1.1565052   0.11279806     12037.27     1000 
  796000   0.67739059   -2.0064062    1.0150698  -0.99133636   0.12505151     11746.26     1000 
  798000    0.6401138   -1.9870498   0.95921054   -1.0278393   0.14258428     11613.29     1000 
  800000   0.64696604   -2.0462401    0.9694786   -1.0767615   0.13659008    11609.628     1000 
  802000   0.63551532   -2.0407492   0.95231971   -1.0884294   0.12837077    11818.252     1000 
  804000   0.64418261   -2.0374821   0.96530764   -1.0721745   0.13148404    11697.452     1000 
  806000   0.64416982   -2.0341539   0.96528848   -1.0688655    0.1432688    11701.775     1000 
  808000   0.64486925   -2.0429423   0.96633658   -1.0766057     0.136435    11801.589     1000 
  810000    0.6299828   -2.0350615   0.94402922   -1.0910322   0.12505974    11704.168     1000 
  812000     0.659776   -2.0732189   0.98867433   -1.0845445   0.14056164    11797.954     1000 
  814000   0.63238396   -2.0380243   0.94762736   -1.0903969   0.13088228    11898.875     1000 
  816000   0.64947983   -1.9938463   0.97324552   -1.0206007   0.13093685    11729.953     1000 
  818000   0.63958641    -2.085432   0.95842024   -1.1270118   0.12493634    11848.203     1000 
  820000   0.63317034   -2.0794173   0.94880575   -1.1306115   0.14058152    11797.055     1000 
  822000   0.65115039   -2.0271585   0.97574886   -1.0514096   0.14099083    11601.776     1000 
  824000   0.64548687   -2.0715382   0.96726207   -1.1042761   0.12282887    11826.584     1000 
  826000   0.69367337   -2.0335823    1.0394695  -0.99411276   0.13490247    11817.675     1000 
  828000   0.64092298   -2.0481039   0.96042308   -1.0876808    0.1271459    11868.765     1000 
  830000   0.62905653   -2.1104507   0.94264121   -1.1678095   0.11243438    12135.577     1000 
  832000   0.62610351   -2.0968207   0.93821611   -1.1586046   0.12454938    11901.352     1000 
  834000   0.62888974   -2.0665026   0.94239128   -1.1241113   0.12554092    11785.886     1000 
  836000   0.64710508   -2.0107424   0.96968696   -1.0410554   0.12953353    12002.909     1000 
  838000   0.63286775   -2.0859712   0.94835233   -1.1376188   0.11885735    11843.498     1000 
  840000    0.6102703   -2.0814008   0.91449005   -1.1669107    0.1217634     11671.78     1000 
  842000   0.64004339   -2.1004014   0.95910503   -1.1412964   0.13505983    11739.477     1000 
  844000   0.65562549   -2.1044136   0.98245479   -1.1219588   0.11921513    11932.654     1000 
  846000   0.63301517   -2.0698293   0.94857323    -1.121256   0.13050213     11842.62     1000 
  848000    0.6288451   -1.9923247   0.94232438   -1.0500003   0.13801359    11664.191     1000 
  850000   0.70202648   -2.0736927    1.0519867    -1.021706   0.14802093    11710.503     1000 
  852000   0.62909264   -2.0077329   0.94269532   -1.0650376    0.1201919    11879.234     1000 
  854000   0.63725584   -2.0791658   0.95492787    -1.124238    0.1262067    11851.321     1000 
  856000   0.65005346   -2.0644823   0.97410511   -1.0903772   0.13472328    11847.047     1000 
  858000   0.63787352   -2.0622159   0.95585347   -1.1063624   0.14348556    11631.728     1000 
  860000   0.64127447   -2.0337403    0.9609498   -1.0727905   0.11517778     11921.85     1000 
  862000   0.64392075   -2.0321014   0.96491524   -1.0671861   0.15127938     11752.62     1000 
  864000   0.65914257   -2.0473366   0.98772514   -1.0596114   0.12631023    11680.294     1000 
  866000   0.60246766   -2.0540712   0.90279779   -1.1512734   0.12708885     11815.62     1000 
  868000   0.64446633   -2.0390826    0.9657328   -1.0733498   0.14484585    11719.106     1000 
  870000   0.62125652   -2.0424988   0.93095289   -1.1115459   0.11517284    11912.906     1000 
  872000   0.64374562   -2.0213847   0.96465282   -1.0567319   0.15360495    11634.607     1000 
  874000   0.62219181   -2.0585667   0.93235443   -1.1262123   0.12874315    11668.726     1000 
  876000   0.67432155   -2.0730056    1.0104708   -1.0625348   0.15170477    11538.634     1000 
  878000   0.66548392   -2.0274036   0.99722766    -1.030176   0.13089511    11833.921     1000 
  880000   0.61608752    -2.056795   0.92320715   -1.1335879   0.12542669    11860.088     1000 
  882000   0.61884632   -2.0564495   0.92734122   -1.1291083   0.12531772    11737.505     1000 
  884000   0.66666048   -2.0398607   0.99899073     -1.04087   0.14489518    11624.993     1000 
  886000   0.64344734   -2.0104201   0.96420584   -1.0462142   0.13846329    11647.322     1000 
  888000   0.62301078   -2.0822136   0.93358166   -1.1486319   0.14107331    11625.053     1000 
  890000   0.64664189   -2.0147967   0.96899286   -1.0458038   0.13888354      11519.4     1000 
  892000   0.63976308   -2.0285504   0.95868497   -1.0698654   0.12666472    11731.189     1000 
  894000   0.64978688   -2.0907492   0.97370564   -1.1170435   0.12384113    11906.704     1000 
  896000   0.63278185   -2.0112956   0.94822361    -1.063072   0.13418866    11818.774     1000 
  898000   0.65705317   -2.0157288   0.98459417   -1.0311347   0.13573283    11732.198     1000 
  900000   0.62924374   -2.0681573   0.94292175   -1.1252356   0.11489196    12174.149     1000 
  902000   0.67317238   -2.0454912    1.0087488   -1.0367423    0.1394159    11844.558     1000 
  904000    0.6542302   -2.0591485   0.98036395   -1.0787845   0.14887658    11667.085     1000 
  906000   0.62328484   -2.0703662   0.93399234   -1.1363739   0.12771068    11840.572     1000 
  908000   0.65970828   -2.0365999   0.98857285   -1.0480271   0.13341205    11667.167     1000 
  910000   0.63117772    -2.067834   0.94581982   -1.1220142   0.12730635     12015.43     1000 
  912000   0.65181677   -1.9626221   0.97674743  -0.98587468    0.1315384    11833.029     1000 
  914000   0.63359489     -2.04866   0.94944195   -1.0992181   0.13697196    11797.549     1000 
  916000   0.64322113   -2.1102294   0.96386686   -1.1463625   0.11591079    12025.024     1000 
  918000   0.61739253   -2.0611295    0.9251627   -1.1359668   0.12129619    11680.653     1000 
  920000   0.60462449   -2.0746501    0.9060298   -1.1686203   0.11811389    11903.223     1000 
  922000   0.66957585   -2.0744033    1.0033594   -1.0710439    0.1312354    11783.574     1000 
  924000   0.66653443   -2.0502966   0.99880184   -1.0514948   0.13718154    11774.451     1000 
  926000   0.60262842   -1.9979926   0.90303869   -1.0949539   0.13116965    11826.897     1000 
  928000    0.6167185   -2.0325392   0.92415267   -1.1083865   0.13587388    11647.788     1000 
  930000   0.61852951   -2.0634127   0.92686647   -1.1365462   0.12725265    11741.843     1000 
  932000   0.64831008    -2.056612   0.97149266   -1.0851194   0.12526682    12028.855     1000 
  934000   0.64495021   -2.1162295   0.96645789   -1.1497716   0.13804733    11853.999     1000 
  936000   0.61799153   -2.0404953   0.92606031    -1.114435   0.12682391    11848.472     1000 
  938000   0.63002444   -2.1116091   0.94409162   -1.1675174   0.13489731     11730.62     1000 
  940000   0.64414497   -2.0730326   0.96525124   -1.1077814   0.12495643    11784.892     1000 
  942000   0.65019743   -2.0341702   0.97432085   -1.0598494   0.11984389    11813.278     1000 
  944000   0.61777275   -2.0747304   0.92573247   -1.1489979   0.13500173    11634.194     1000 
  946000   0.63935365   -2.0754679   0.95807144   -1.1173965   0.12139293    12067.105     1000 
  948000   0.64890746   -1.9728167   0.97238783   -1.0004289   0.13916712    11636.895     1000 
  950000   0.66470064   -2.0888383    0.9960539   -1.0927844    0.1509749    11630.823     1000 
  952000   0.64034091   -2.0750148   0.95955085   -1.1154639   0.11263452    11911.417     1000 
  954000   0.63752648   -2.0978385   0.95533343   -1.1425051    0.1365035     11641.64     1000 
  956000   0.65893463     -2.02792   0.98741354   -1.0405065   0.14001112     11723.31     1000 
  958000   0.63110026    -2.068025   0.94570375   -1.1223213   0.13993612    11673.716     1000 
  960000   0.65299586   -2.0751351   0.97851429   -1.0966208   0.11544064    11937.892     1000 
  962000   0.65208465   -2.0284657   0.97714885   -1.0513168   0.12232467     11873.92     1000 
  964000   0.62833865   -2.0344087   0.94156547   -1.0928432   0.13167239    11846.025     1000 
  966000   0.65342555   -2.0154121   0.97915819   -1.0362539   0.12961962    11869.415     1000 
  968000   0.61851819   -2.0672358   0.92684951   -1.1403863   0.14235506    11560.593     1000 
  970000   0.64384667   -2.0857805   0.96480423   -1.1209762   0.13563928    11886.384     1000 
  972000   0.66434757   -2.0054691   0.99552483   -1.0099443    0.1388829    11820.328     1000 
  974000   0.64204762   -2.0644291   0.96210837   -1.1023207   0.13698892    11702.327     1000 
  976000   0.64939753   -2.0118335    0.9731222   -1.0387113    0.1366676    11704.388     1000 
  978000    0.6461688   -2.0664337   0.96828395   -1.0981498   0.13291565    11907.631     1000 
  980000   0.62215042   -2.0457423   0.93229241   -1.1134499   0.13379289     11794.75     1000 
  982000   0.65664091   -2.0640218    0.9839764   -1.0800454   0.13423804    11627.248     1000 
  984000   0.66380992   -2.0535368   0.99471917   -1.0588177   0.12399199    11863.321     1000 
  986000   0.65270472    -2.031864   0.97807803    -1.053786   0.13620997    11922.649     1000 
  988000   0.67170883   -2.0394069    1.0065557   -1.0328512   0.14358985    11723.513     1000 
  990000   0.64333518   -2.0655853   0.96403777   -1.1015475   0.12151528    11927.103     1000 
  992000   0.61483017   -2.0658907   0.92132301   -1.1445677    0.1295612    11775.461     1000 
  994000   0.62840428   -2.0808768   0.94166382    -1.139213   0.12322723    11786.015     1000 
  996000   0.63321064   -2.0317593   0.94886614   -1.0828932    0.1299308    11817.731     1000 
  998000   0.61543354   -2.0476079   0.92222715   -1.1253807   0.12488587    11899.575     1000 
 1000000   0.62971664   -2.0102544   0.94363038    -1.066624    0.1198129    11846.553     1000 
 1002000   0.64232743   -2.0415622   0.96252765   -1.0790345   0.12193672     11811.31     1000 
 1004000   0.64291234   -2.0301997   0.96340414   -1.0667955    0.1446418    11675.299     1000 
 1006000   0.65910107   -2.0291791   0.98766295   -1.0415162    0.1372991    11721.489     1000 
 1008000   0.62107022   -2.0602069   0.93067372   -1.1295332   0.14263484    11580.929     1000 
 1010000   0.64499347   -2.0893042   0.96652272   -1.1227815    0.1393158    11746.078     1000 
 1012000   0.66519465   -2.0276891   0.99679419   -1.0308949   0.12599066    11890.008     1000 
 1014000   0.61386123   -2.0183367   0.91987105   -1.0984656     0.134453    11716.278     1000 
 1016000   0.63820999   -2.0337947   0.95635767    -1.077437   0.12219329    11857.956     1000 
 1018000   0.64335112   -2.0683074   0.96406165   -1.1042458   0.13570547    11846.512     1000 
 1020000   0.62421647   -2.0669934   0.93538838    -1.131605   0.12039945    12056.674     1000 
 1022000   0.64000397   -1.9690106   0.95904594   -1.0099647    0.1458478    11723.156     1000 
 1024000   0.63217123   -2.0383346   0.94730859    -1.091026   0.14151448    11779.958     1000 
 1026000   0.61891278    -2.024856   0.92744081   -1.0974152   0.14251506    11571.471     1000 
 1028000   0.64020208   -2.0417259   0.95934282   -1.0823831   0.12831238    11688.487     1000 
 1030000   0.65805724    -2.019518   0.98609878   -1.0334192   0.14225071    11785.104     1000 
 1032000   0.64263463   -2.0061753   0.96298799   -1.0431873   0.14290162    11763.001     1000 
 1034000   0.65633668    -2.048852   0.98352052   -1.0653315   0.13218315    11773.755     1000 
 1036000   0.64950701   -2.0545142   0.97328625   -1.0812279   0.13725562    11869.803     1000 
 1038000   0.61424293   -2.0088831   0.92044303   -1.0884401   0.12844799    11814.763     1000 
 1040000   0.60781851      -2.0586   0.91081604    -1.147784   0.11437486    12031.737     1000 
 1042000   0.64108339    -2.037351   0.96066346   -1.0766875   0.12426718    11659.027     1000 
 1044000   0.65031067   -2.0650135   0.97449054    -1.090523   0.11942987     11806.08     1000 
 1046000   0.64918431   -2.0302539   0.97280269   -1.0574512    0.1371866    11740.958     1000 
 1048000   0.66567382   -2.0701398   0.99751222   -1.0726275   0.13967471    11738.846     1000 
 1050000   0.61902764   -2.0865056   0.92761292   -1.1588927   0.13897274     11796.05     1000 
 1052000   0.64466636   -2.0552798   0.96603254   -1.0892473    0.1307951    12123.006     1000 
 1054000   0.64901965   -2.0582677   0.97255595   -1.0857117   0.12736248    11818.562     1000 
 1056000   0.65659408   -1.9555284   0.98390623  -0.97162215   0.13610075    11721.987     1000 
 1058000    0.6697306   -2.0292724    1.0035913   -1.0256811   0.13565616    11817.125     1000 
 1060000   0.61570364   -2.0626066    0.9226319   -1.1399747   0.12919902    11915.743     1000 
 1062000   0.63684128   -2.0481056   0.95430666   -1.0937989   0.12796278    11750.043     1000 
 1064000   0.62595225   -2.0534499   0.93798945   -1.1154604   0.14187926    11797.157     1000 
 1066000   0.66586295   -2.0095291   0.99779563   -1.0117334    0.1267232    11771.115     1000 
 1068000   0.64602701   -2.0300329   0.96807148   -1.0619614   0.13774227    11684.702     1000 
 1070000   0.63098681   -2.0337395   0.94553374   -1.0882058   0.14484803    11676.389     1000 
 1072000   0.65492158   -2.0673158   0.98139999   -1.0859158   0.12867163    11944.899     1000 
 1074000   0.63521012   -2.0212763   0.95186237   -1.0694139     0.130396    11710.373     1000 
 1076000   0.61722478   -2.0590818   0.92491133   -1.1341705   0.12249685    11928.424     1000 
 1078000   0.63721553   -2.0421036   0.95486747   -1.0872361    0.1231179    11919.506     1000 
 1080000   0.62979163   -2.0761138   0.94374276    -1.132371   0.12254966     11749.15     1000 
 1082000   0.61778665    -2.054875   0.92575329   -1.1291217   0.12014069    11907.689     1000 
 1084000   0.62600194   -2.0459287    0.9380639   -1.1078648   0.11656544    11870.704     1000 
 1086000   0.64803776   -2.0422808   0.97108458   -1.0711963   0.14056344    11583.341     1000 
 1088000   0.65226909   -2.1099396   0.97742523   -1.1325143    0.1287528     11812.98     1000 
 1090000      0.64133    -2.025549   0.96103301    -1.064516   0.12694768    11883.089     1000 
 1092000   0.65506088   -2.0477801   0.98160873   -1.0661714   0.12130261    11814.595     1000 
 1094000   0.63917068   -2.0407748   0.95779726   -1.0829776   0.13774324    11645.836     1000 
 1096000   0.65522468   -2.0762587   0.98185419   -1.0944045   0.12758675    11761.261     1000 
 1098000   0.64034133   -2.0446283   0.95955149   -1.0850768   0.13590031     11664.83     1000 
 1100000   0.63571885   -2.0357007    0.9526247    -1.083076   0.13255279    11810.923     1000 
 1102000   0.64314577   -2.0595542   0.96375393   -1.0958003   0.12721494    11660.901     1000 
 1104000    0.6401998   -2.0777768    0.9593394   -1.1184374   0.13100417    11788.709     1000 
 1106000   0.62152584   -1.9956049   0.93135647   -1.0642484    0.1569534    11533.072     1000 
 1108000   0.64307439   -2.0954773   0.96364697   -1.1318304   0.12730676    11912.938     1000 
 1110000   0.63029259   -2.0541716   0.94449345   -1.1096782   0.13385618    11773.419     1000 
 1112000   0.62312896   -2.0471376   0.93375874   -1.1133788   0.13616903    11764.517     1000 
 1114000   0.64952258   -2.0246574   0.97330958   -1.0513478   0.12971185    11745.559     1000 
 1116000   0.66821562   -2.0276104    1.0013211   -1.0262893   0.11370637    11856.683     1000 
 1118000    0.6507486   -2.0048547   0.97514677   -1.0297079   0.12411862    11772.711     1000 
 1120000   0.64044305   -2.0668685   0.95970391   -1.1071646   0.13194664    11772.834     1000 
 1122000   0.66159263   -1.9769423   0.99139655  -0.98554572   0.13766378    11674.028     1000 
 1124000   0.62811606   -1.9963733   0.94123191   -1.0551413   0.13741999    11993.624     1000 
 1126000   0.61310629   -2.0380548   0.91873978    -1.119315   0.12346018     11783.33     1000 
 1128000   0.64060928    -2.053542     0.959953    -1.093589   0.13272669    11713.954     1000 
 1130000   0.65658921    -2.072428   0.98389893   -1.0885291   0.13037455    11740.031     1000 
 1132000    0.6235571   -2.0824299   0.93440032   -1.1480296   0.12463452    11942.223     1000 
 1134000   0.62400421   -2.0886311   0.93507031   -1.1535608   0.12473682    11809.978     1000 
 1136000   0.66119828   -2.0869391   0.99080563   -1.0961335   0.12927879    11871.232     1000 
 1138000   0.63342439   -2.0581323   0.94918645   -1.1089459   0.13122181    11892.941     1000 
 1140000   0.60413501   -2.0398829   0.90529632   -1.1345865   0.13685521    11696.961     1000 
 1142000   0.64489561   -2.0781215   0.96637608   -1.1117454   0.12731547    11800.432     1000 
 1144000   0.67727129   -2.0324204     1.014891   -1.0175294   0.13562497    11697.552     1000 
 1146000   0.62589032   -2.1001724   0.93789665   -1.1622757   0.12318814    11854.668     1000 
 1148000   0.61964761   -2.0616564   0.92854195   -1.1331145    0.1301803    11855.272     1000 
 1150000   0.63414383     -2.07524   0.95026453   -1.1249755   0.13131459    11756.593     1000 
 1152000   0.62679526   -2.0499423    0.9392527   -1.1106896   0.12088741     11866.43     1000 
 1154000   0.63248135   -2.0467342   0.94777331   -1.0989609   0.11781291    11953.187     1000 
 1156000   0.64457495   -2.0472309   0.96589556   -1.0813353   0.13761162    11653.807     1000 
 1158000    0.6471181    -2.048921   0.96970647   -1.0792146   0.15060889      11671.4     1000 
 1160000   0.62690562   -2.0629404   0.93941808   -1.1235223   0.12477145     11771.52     1000 
 1162000   0.66446996    -1.989461   0.99570823   -0.9937528   0.13398884    11795.402     1000 
 1164000   0.64140289   -2.0638769   0.96114224   -1.1027347    0.1018514     11877.95     1000 
 1166000   0.63010338   -1.9968121   0.94420991   -1.0526022   0.12616883     11748.48     1000 
 1168000   0.63839797   -2.0551187   0.95663936   -1.0984793   0.13277786    11850.603     1000 
 1170000   0.61515052   -2.0769863   0.92180306   -1.1551832   0.12251114     11723.02     1000 
 1172000   0.65609821    -2.039113   0.98316317   -1.0559498   0.12956313    11722.929     1000 
 1174000   0.64424696   -2.0818249   0.96540407   -1.1164209   0.12609079    11744.057     1000 
 1176000   0.64102592   -2.0263964   0.96057733    -1.065819   0.13325277    11873.381     1000 
 1178000   0.64329024    -2.017596   0.96397042   -1.0536256   0.12381647    11770.968     1000 
 1180000   0.61910221   -2.0947961   0.92772467   -1.1670715   0.12031905     11878.34     1000 
 1182000   0.63918378   -2.0314075    0.9578169   -1.0735906   0.13559942    11812.933     1000 
 1184000   0.63591648   -2.0473572   0.95292084   -1.0944364   0.13721552    11556.123     1000 
 1186000   0.61596447   -2.0361454   0.92302276   -1.1131227   0.13102067    11739.988     1000 
 1188000   0.67585396   -2.0267997    1.0127672   -1.0140325   0.11869035    11943.854     1000 
 1190000   0.61177381   -2.0874432   0.91674306   -1.1707001   0.13473702    11709.999     1000 
 1192000   0.66839046   -2.0138651    1.0015831    -1.012282   0.13057877    11848.685     1000 
 1194000   0.63672514   -2.0568617   0.95413262    -1.102729   0.12377101    11817.851     1000 
 1196000   0.65067181   -2.0850248    0.9750317   -1.1099931   0.12658136    11747.756     1000 
 1198000   0.66477375   -2.0188181   0.99616346   -1.0226546   0.14514587    11569.126     1000 
 1200000   0.62099664   -2.1158313   0.93056346   -1.1852679   0.12926482     11786.76     1000 
 1202000   0.63027594   -2.0054175    0.9444685    -1.060949   0.13597787    11753.501     1000 
 1204000   0.66081021   -2.0780951    0.9902241    -1.087871   0.12325104    11963.585     1000 
 1206000   0.64143468   -2.0346152   0.96118986   -1.0734254   0.11593721    11863.362     1000 
 1208000   0.64481691   -2.0446419   0.96625814   -1.0783838   0.12643847    11872.644     1000 
 1210000   0.62498752   -2.0054016    0.9365438   -1.0688578     0.118774    11902.104     1000 
 1212000   0.65405414   -1.9971981   0.98010012   -1.0170979   0.13935788    11776.286     1000 
 1214000   0.63824002   -2.0624737   0.95640267    -1.106071    0.1272622    11686.197     1000 
 1216000    0.6480228   -2.0437085   0.97106216   -1.0726463   0.13653241    11758.617     1000 
 1218000   0.64613626   -2.0382911   0.96823518   -1.0700559   0.14360143    11857.723     1000 
 1220000   0.63413635   -2.0776758   0.95025332   -1.1274225   0.11566883    12089.205     1000 
 1222000    0.6498304   -2.0316319   0.97377085   -1.0578611   0.12748644    11823.356     1000 
 1224000   0.63095386   -2.0650828   0.94548436   -1.1195985   0.13133687    11752.767     1000 
 1226000   0.63976495   -1.9643215   0.95868777   -1.0056338   0.14728786    11660.487     1000 
 1228000   0.63538261   -2.0811721   0.95212084   -1.1290513   0.13725887    11761.084     1000 
 1230000   0.63946792   -2.0567083   0.95824268   -1.0984656   0.13962394    11764.568     1000 
 1232000   0.63010587   -2.1068967   0.94421364    -1.162683   0.10616426    12003.241     1000 
 1234000   0.64311993   -2.0347277   0.96371522   -1.0710125   0.12455459    11876.593     1000 
 1236000   0.61489069   -2.0514456   0.92141369   -1.1300319   0.13219193    11671.205     1000 
 1238000   0.62804259   -2.0540395   0.94112182   -1.1129176   0.13503549    11613.484     1000 
 1240000   0.62165285   -2.0675648   0.93154679    -1.136018   0.12684541    11802.052     1000 
 1242000   0.64723068   -2.0275915   0.96987518   -1.0577164   0.13650978    11677.754     1000 
 1244000   0.64896723   -2.0273967    0.9724774   -1.0549194   0.11662865    11964.062     1000 
 1246000    0.6578226   -2.0345195   0.98574717   -1.0487724   0.13446861    11805.628     1000 
 1248000   0.67577243      -2.0106     1.012645  -0.99795504   0.12702051    11701.573     1000 
 1250000   0.62048967   -1.9896171   0.92980377   -1.0598133   0.13298801    11751.566     1000 
 1252000   0.61659496   -2.0554757   0.92396755   -1.1315082   0.12933614    11709.325     1000 
 1254000    0.6392632   -2.0367548    0.9579359   -1.0788189   0.14599433    11399.425     1000 
 1256000   0.65294577   -2.0253221   0.97843924   -1.0468829   0.13932122    11693.364     1000 
 1258000   0.65420677   -2.0699397   0.98032884   -1.0896108   0.12988839    12007.955     1000 
 1260000   0.62073048   -2.0171843   0.93016462   -1.0870197   0.11834226    11641.971     1000 
 1262000   0.62160487    -2.028268    0.9314749   -1.0967931   0.13709114    11722.433     1000 
 1264000   0.62710568   -2.0325887   0.93971785   -1.0928708   0.12799253    11935.352     1000 
 1266000   0.63931979   -1.9934669    0.9580207   -1.0354462   0.12401489    11725.563     1000 
 1268000   0.63944063   -2.0251263   0.95820178   -1.0669245   0.11706275    11909.936     1000 
 1270000   0.61224578   -2.0493758    0.9174503   -1.1319255    0.1219977    11904.839     1000 
 1272000   0.66171395   -2.0327457   0.99157835   -1.0411673   0.12605601    11679.869     1000 
 1274000   0.65746501    -2.039814   0.98521131   -1.0546027   0.13228653    11821.199     1000 
 1276000   0.63164094   -2.0475142   0.94651395   -1.1010003   0.14133568    11637.909     1000 
 1278000   0.62104218   -2.0572265   0.93063171   -1.1265948   0.11908462    11817.714     1000 
 1280000   0.64174449   -2.0371446   0.96165413   -1.0754905    0.1384871    11835.837     1000 
 1282000   0.60618753   -2.0266788   0.90837201   -1.1183068   0.12376737    11778.024     1000 
 1284000   0.62311064   -2.0507785   0.93373129   -1.1170472   0.13313791    11785.062     1000 
 1286000   0.63513442   -2.0778418   0.95174893   -1.1260929   0.12722367    11686.877     1000 
 1288000   0.65813212    -2.033779   0.98621099    -1.047568   0.13415968     11958.79     1000 
 1290000   0.64299666   -2.0474138   0.96353049   -1.0838833    0.1373105    11810.844     1000 
 1292000    0.6257022   -2.0734956   0.93761474   -1.1358809   0.13232065    11730.622     1000 
 1294000   0.64704677   -2.0408788   0.96959959   -1.0712793   0.13199963    11856.208     1000 
 1296000   0.63575248   -2.0223422   0.95267509   -1.0696671   0.13340311    11742.003     1000 
 1298000   0.62710861   -2.0217837   0.93972226   -1.0820615   0.12407844     11854.05     1000 
 1300000   0.65077107   -2.0696437   0.97518045   -1.0944632   0.12204035    11947.051     1000 
 1302000   0.64725106   -2.0168356   0.96990571   -1.0469299   0.12964283    11710.075     1000 
 1304000   0.64576752   -2.0738392   0.96768263   -1.1061566   0.14904392    11705.073     1000 
 1306000   0.66544099    -2.011344   0.99716333   -1.0141807   0.13553453    11620.805     1000 
 1308000   0.63776596   -2.0837039   0.95569229   -1.1280116    0.1282455    11781.242     1000 
 1310000   0.64334537   -2.0491091   0.96405304    -1.085056   0.13037689    12025.798     1000 
 1312000   0.66621541   -2.0588465    0.9983238   -1.0605227   0.13092701    11793.557     1000 
 1314000   0.63883201   -2.0430458   0.95728976    -1.085756   0.12058539    11849.561     1000 
 1316000   0.61163252   -2.0677865   0.91653133   -1.1512551   0.12441237    11974.417     1000 
 1318000   0.63455405   -2.0678782   0.95087925    -1.116999   0.13294595    11738.951     1000 
 1320000   0.62269242   -2.0411654    0.9331046   -1.1080608   0.13107781    11908.149     1000 
 1322000   0.64931196   -2.0336929   0.97299397    -1.060699   0.13669338    11911.093     1000 
 1324000     0.643761   -2.0819411   0.96467585   -1.1172652   0.11835475    11966.522     1000 
 1326000   0.66669833   -2.0679462   0.99904745   -1.0688988   0.13692795    11692.702     1000 
 1328000     0.675365   -2.0633627    1.0120345   -1.0513283   0.13111785    11838.503     1000 
 1330000   0.65072029    -2.053923   0.97510436   -1.0788186   0.12177289     11881.73     1000 
 1332000   0.66110874    -2.082262   0.99067144   -1.0915906   0.12469095    11863.422     1000 
 1334000   0.62808008   -2.0737566   0.94117799   -1.1325786   0.12561144    11856.413     1000 
 1336000   0.64286859   -2.0853772   0.96333859   -1.1220386   0.13251977    11961.751     1000 
 1338000   0.65854869   -1.9990069   0.98683521   -1.0121716   0.12262335    11742.679     1000 
 1340000   0.65771061   -1.9670548   0.98557934  -0.98147544   0.12575688    11925.279     1000 
 1342000   0.63862832   -2.0007588   0.95698454   -1.0437743   0.13386936    11727.569     1000 
 1344000   0.64228263   -1.9978963   0.96246052   -1.0354357   0.12796578    11984.652     1000 
 1346000   0.63901512   -2.0311069   0.95756416   -1.0735427   0.12409251    11949.172     1000 
 1348000   0.64150114   -2.0357778   0.96128946   -1.0744883   0.12330318    11775.012     1000 
 1350000     0.645616   -2.0239094   0.96745558   -1.0564539    0.1375213      11682.7     1000 
 1352000   0.62558227   -2.0603843   0.93743503   -1.1229493   0.12820361    11656.859     1000 
 1354000   0.61919522   -2.1093459   0.92786404   -1.1814819   0.10528426    11968.914     1000 
 1356000   0.61681357   -2.0571114   0.92429514   -1.1328162   0.13438779    11867.096     1000 
 1358000   0.64827083    -2.049467   0.97143385   -1.0780331   0.13123534    11994.388     1000 
 1360000   0.62841616   -2.0750633   0.94168161   -1.1333817   0.13275906    11645.607     1000 
 1362000   0.65210588   -2.0240155   0.97718066   -1.0468349   0.12647013    11855.466     1000 
 1364000   0.63880982   -1.9870772   0.95725651   -1.0298207   0.12882473    11777.766     1000 
 1366000     0.646675   -2.0312029   0.96904248   -1.0621605   0.12529452    11804.195     1000 
 1368000   0.65089853   -1.9771435   0.97537144    -1.001772   0.13634453    11653.392     1000 
 1370000   0.63579218   -2.0313984   0.95273458   -1.0786638   0.13337171    11773.872     1000 
 1372000   0.63044115   -2.0602005   0.94471607   -1.1154844   0.14061904    11661.667     1000 
 1374000   0.64107948   -2.0687968    0.9606576   -1.1081392   0.13897624    11811.432     1000 
 1376000   0.65515012   -2.0456058   0.98174245   -1.0638633   0.13609724    11801.379     1000 
 1378000   0.62285711   -2.0671895   0.93335138   -1.1338381   0.12158036    11791.253     1000 
 1380000   0.62896475   -2.0311482   0.94250368   -1.0886445   0.12183763    11888.228     1000 
 1382000   0.65540992     -2.09029   0.98213176   -1.1081583   0.11824791    11885.049     1000 
 1384000   0.64274133    -2.063853   0.96314789   -1.1007051   0.12803401    11874.601     1000 
 1386000   0.63088289   -2.0524571   0.94537801   -1.1070791   0.12074442    11768.222     1000 
 1388000   0.62174722   -2.0546968   0.93168822   -1.1230086   0.13689461    11659.272     1000 
 1390000   0.62356486   -2.0943743   0.93441195   -1.1599624   0.13375802    11874.471     1000 
 1392000   0.62432608   -2.1167203   0.93555264   -1.1811677    0.1272464    11698.477     1000 
 1394000   0.62514397   -2.0611141   0.93677824   -1.1243358   0.10386394    11911.787     1000 
 1396000     0.639243   -2.0677336   0.95790564   -1.1098279   0.11029051    12084.031     1000 
 1398000   0.64126636   -2.0547862   0.96093765   -1.0938486   0.12908806    11733.602     1000 
 1400000   0.62180811   -2.0901606   0.93177946   -1.1583812   0.13122255    11792.958     1000 
 1402000   0.64707157   -2.0903562   0.96963675   -1.1207194   0.11735293    11977.314     1000 
 1404000   0.65333126   -2.0817691   0.97901689   -1.1027522   0.14413635    11495.484     1000 
 1406000   0.65475643   -2.0290263   0.98115251   -1.0478738   0.12387804    11755.632     1000 
 1408000   0.61519348   -2.0412432   0.92186743   -1.1193758   0.12147021    11774.889     1000 
 1410000    0.6505154   -1.9956287   0.97479732   -1.0208313   0.13711283    11718.714     1000 
 1412000   0.62828475   -2.0685384    0.9414847   -1.1270537   0.12474749     11820.54     1000 
 1414000   0.61209703   -2.0477166    0.9172274   -1.1304892   0.12323444    11685.875     1000 
 1416000   0.62612901   -2.0154205   0.93825432   -1.0771662   0.13977281    11739.208     1000 
 1418000   0.65172577   -2.0637952   0.97661107   -1.0871841   0.13036972    11808.539     1000 
 1420000   0.64044554   -2.0319716   0.95970764    -1.072264   0.12565076    11813.988     1000 
 1422000   0.63429705   -2.0311216   0.95049413   -1.0806275   0.13790097    11695.083     1000 
 1424000   0.63317598   -2.0461761   0.94881421   -1.0973619   0.14398172    11619.522     1000 
 1426000   0.64148537   -1.9828049   0.96126583   -1.0215391   0.12685679    11869.305     1000 
 1428000   0.63612706   -2.0843206    0.9532364   -1.1310843   0.12380119    11835.867     1000 
 1430000    0.6405808   -2.0450464   0.95991032   -1.0851361   0.13368377    11733.845     1000 
 1432000   0.62501186   -2.0397306   0.93658028   -1.1031503   0.12526829    11787.995     1000 
 1434000   0.61566197   -2.0417875   0.92256946    -1.119218   0.13869078    11742.122     1000 
 1436000   0.65326278   -1.9891459   0.97891427   -1.0102316   0.12803932    12013.848     1000 
 1438000   0.61593514   -2.0778244   0.92297881   -1.1548456   0.12339955     11965.01     1000 
 1440000   0.62886632   -2.0407862   0.94235618     -1.09843   0.12840021    11854.696     1000 
 1442000   0.66761911   -2.0424605    1.0004272   -1.0420332   0.11541383    12055.022     1000 
 1444000   0.64436431   -2.0641256   0.96557992   -1.0985457   0.12887606    11799.074     1000 
 1446000   0.64687579   -2.0774059   0.96934338   -1.1080625   0.13245622     11912.66     1000 
 1448000   0.62853897   -1.9814889   0.94186564   -1.0396232   0.12577671    11863.391     1000 
 1450000   0.63114949   -2.0568187   0.94577752   -1.1110412   0.12127782      11902.3     1000 
 1452000   0.64760353   -2.0260736    0.9704339   -1.0556397   0.13574095    11678.243     1000 
 1454000   0.63320469   -2.0111597   0.94885722   -1.0623025   0.14531591    11573.467     1000 
 1456000   0.64392429   -2.0194773   0.96492055   -1.0545568   0.14602876    11769.806     1000 
 1458000   0.64976858   -2.0440717   0.97367821   -1.0703935   0.12750358    11613.064     1000 
 1460000   0.65497261   -2.1119059   0.98147645   -1.1304295   0.12804566    11823.544     1000 
 1462000   0.65151202   -2.0827637   0.97629077    -1.106473   0.13219304    11882.586     1000 
 1464000    0.6271957   -2.0379812   0.93985276   -1.0981284   0.11037271    11985.346     1000 
 1466000   0.61633165     -2.02758   0.92357298    -1.104007   0.11993789    11872.794     1000 
 1468000   0.62782996   -2.0461975   0.94080319   -1.1053943   0.12996492    11886.229     1000 
 1470000   0.63942781   -2.0467927   0.95818257   -1.0886101   0.11792929    11898.156     1000 
 1472000   0.65536369   -2.0750373   0.98206249   -1.0929748   0.12386535    11925.226     1000 
 1474000   0.62308156   -2.0047925   0.93368772   -1.0711048   0.12942768     11733.84     1000 
 1476000   0.63891418   -2.0546925   0.95741289   -1.0972796   0.11948339    12107.271     1000 
 1478000   0.61714181   -2.0702199   0.92478701   -1.1454329   0.12854823    11818.528     1000 
 1480000   0.65786881   -2.0601092   0.98581641   -1.0742928   0.12995433    11906.283     1000 
 1482000   0.65584751     -2.02614    0.9827875   -1.0433525   0.14184416    11693.017     1000 
 1484000   0.66219343   -2.0492179   0.99229686   -1.0569211   0.13846531    11734.478     1000 
 1486000   0.64820919   -2.0065029   0.97134148   -1.0351614    0.1379078    11777.867     1000 
 1488000   0.65576103   -2.0375725    0.9826579   -1.0549146   0.14150651    11719.024     1000 
 1490000   0.62809277   -1.9901473   0.94119702   -1.0489502   0.14243774    11541.085     1000 
 1492000   0.62707498   -2.0131725   0.93967186   -1.0735006   0.14832135    11730.752     1000 
 1494000   0.64705348   -2.0003726   0.96960963   -1.0307629   0.14042372     11653.07     1000 
 1496000    0.6137483    -2.059983   0.91970183   -1.1402812   0.13333341    11797.137     1000 
 1498000   0.65185486   -2.0601436    0.9768045   -1.0833391   0.11629102    11962.437     1000 
 1500000    0.6356803   -2.0111257   0.95256694   -1.0585588   0.12657293    11666.197     1000 
 1502000   0.63688963    -2.052988   0.95437911   -1.0986089   0.13430247    11622.775     1000 
 1504000   0.64484193   -2.1258606   0.96629563    -1.159565   0.13482311    11990.137     1000 
 1506000   0.65202879   -2.0499251   0.97706514   -1.0728599   0.13320727    11808.636     1000 
 1508000   0.65259493   -2.0119759   0.97791351   -1.0340624   0.15038265    11656.978     1000 
 1510000   0.62894273   -2.0785644   0.94247069   -1.1360937   0.12217186    11757.206     1000 
 1512000   0.63653662   -2.0395059   0.95385012   -1.0856558   0.13345535    11995.659     1000 
 1514000   0.64581066   -2.0836052   0.96774727   -1.1158579   0.13275772    11839.359     1000 
 1516000   0.64258816   -2.0285708   0.96291836   -1.0656525   0.11970146    11830.133     1000 
 1518000     0.614989   -2.0882289   0.92156102   -1.1666679   0.13352599    11809.437     1000 
 1520000   0.63237726   -2.0997235   0.94761732   -1.1521062   0.12667789    11773.959     1000 
 1522000   0.64548512   -1.9765044   0.96725946   -1.0092449   0.13702083    11824.198     1000 
 1524000   0.62888129    -2.023208   0.94237861   -1.0808294   0.12225227    11900.594     1000 
 1526000   0.67454155   -2.0580691    1.0108005   -1.0472686   0.15338359    11688.404     1000 
 1528000    0.6585514   -2.0146437   0.98683927   -1.0278044   0.12768759    11990.343     1000 
 1530000   0.64550189   -2.0433725   0.96728458   -1.0760879   0.13452336    11784.368     1000 
 1532000    0.6365949   -2.0680648   0.95393746   -1.1141273   0.12897535    11868.459     1000 
 1534000   0.64937548   -2.0562944   0.97308916   -1.0832052   0.12134469    11982.776     1000 
 1536000   0.64813867   -2.0572592    0.9712358   -1.0860234   0.11925364    11911.362     1000 
 1538000   0.63003521    -2.030986   0.94410777   -1.0868783   0.13929418    11687.706     1000 
 1540000   0.65899505   -2.0779361   0.98750408    -1.090432   0.14609297    11650.955     1000 
 1542000   0.64269403   -2.0745291     0.963077   -1.1114521   0.13748432    11559.663     1000 
 1544000   0.65645978   -2.0337939   0.98370497   -1.0500889   0.12958426    11674.742     1000 
 1546000   0.62926825    -2.081349   0.94295847   -1.1383905   0.13130738    11805.759     1000 
 1548000   0.62604407   -2.0339494   0.93812705   -1.0958224   0.12984503    11648.732     1000 
 1550000   0.66036106   -1.9993631   0.98955105   -1.0098121   0.13328478    11546.936     1000 
 1552000   0.61064074   -2.0633268   0.91504515   -1.1482817   0.11468904    11935.258     1000 
 1554000   0.63833771   -2.0197062   0.95654906   -1.0631572   0.13674975    11824.621     1000 
 1556000   0.64938985   -2.0315559   0.97311069   -1.0584452   0.12593095    11844.744     1000 
 1558000    0.6171366   -2.0132025    0.9247792   -1.0884233   0.12558146    11836.681     1000 
 1560000   0.61990128   -2.0415574   0.92892207   -1.1126353   0.13055869    11696.361     1000 
 1562000   0.65665666   -2.1164006   0.98400001   -1.1324006   0.13206704    11910.832     1000 
 1564000   0.65450022   -2.0464988   0.98076858   -1.0657303    0.1556717    11761.373     1000 
 1566000   0.64884226   -2.0654747   0.97229012   -1.0931846   0.13322928    11629.517     1000 
 1568000   0.63228073   -2.0836298   0.94747267   -1.1361572   0.13307905    11712.476     1000 
 1570000   0.65977715   -2.0455218   0.98867606   -1.0568457   0.12531128    11836.609     1000 
 1572000   0.65418704    -2.080269   0.98029927   -1.0999698   0.12003827    11968.506     1000 
 1574000    0.6091517   -2.0874196   0.91281382   -1.1746058   0.14890631    11705.975     1000 
 1576000   0.66188387   -2.0435334   0.99183298   -1.0517004   0.14446108    11579.641     1000 
 1578000   0.62491335   -2.0417501   0.93643265   -1.1053175   0.11867281    11835.251     1000 
 1580000   0.64489551   -2.0335822   0.96637593   -1.0672063   0.12147401    11869.685     1000 
 1582000   0.67939381     -1.99284    1.0180716  -0.97476833   0.13234375    11788.266     1000 
 1584000   0.64180821   -1.9799312    0.9617496   -1.0181815   0.13991308    11618.083     1000 
 1586000   0.63184706   -2.0472214   0.94682282   -1.1003986   0.13657755    11606.763     1000 
 1588000   0.66551778   -1.9968064   0.99727839  -0.99952799   0.12792665    11891.754     1000 
[...]
 2614000   0.63046494   -2.0711104   0.94475171   -1.1263587   0.11762827    11913.331     1000 
 2616000    0.6298191   -2.0554377   0.94378392   -1.1116538   0.12988157    11815.987     1000 
 2618000   0.63281161   -2.0218052    0.9482682    -1.073537   0.12672414    11591.433     1000 
 2620000   0.63722759   -2.1290929   0.95488554   -1.1742073   0.12615424    11755.016     1000 
 2622000   0.62447575   -2.1083475   0.93577691   -1.1725706    0.1344736    11843.031     1000 
 2624000   0.65381221   -2.0693718    0.9797376   -1.0896342    0.1300064     11741.18     1000 
 2626000   0.63461513   -2.0208825   0.95097078   -1.0699117   0.13352132    11713.187     1000 
 2628000   0.64380707   -2.0736116    0.9647449   -1.1088667   0.12924996    11878.314     1000 
 2630000   0.63251254   -2.0459004   0.94782004   -1.0980804   0.13099002    11727.067     1000 
 2632000   0.63429697   -2.0552782   0.95049401   -1.1047842    0.1256436    11896.994     1000 
 2634000   0.64669585   -2.0363288   0.96907373    -1.067255   0.15079744    11620.215     1000 
 2636000   0.63412159   -2.0855019    0.9502312   -1.1352707    0.1284144    11788.905     1000 
 2638000   0.63150155   -2.0954671   0.94630507   -1.1491621   0.12588888    11972.296     1000 
 2640000   0.63613908   -2.0929828   0.95325441   -1.1397284   0.12545403    11950.013     1000 
 2642000   0.62726904   -2.0060245   0.93996266   -1.0660618   0.12856543    11529.586     1000 
 2644000   0.63793407   -1.9869243   0.95594421   -1.0309801   0.13178914    11632.957     1000 
 2646000   0.66071096   -2.0073336   0.99007538   -1.0172582   0.13938813    11675.434     1000 
 2648000   0.60774425   -2.0832676   0.91070476   -1.1725628   0.12991544    11735.922     1000 
 2650000   0.67847807     -2.07684    1.0166994   -1.0601406   0.12761287    11700.363     1000 
 2652000   0.65326464   -1.9875281   0.97891706   -1.0086111   0.13022233    11800.071     1000 
 2654000   0.64616129    -2.030873    0.9682727   -1.0626003   0.13523396     11701.22     1000 
 2656000   0.64215334    -2.055144   0.96226678   -1.0928772   0.12371655    11723.663     1000 
 2658000   0.67968687   -2.0811151    1.0185108   -1.0626043   0.14212031     11709.35     1000 
 2660000   0.63321805   -2.0733321   0.94887725   -1.1244549   0.13194276    11960.077     1000 
 2662000   0.62175309   -2.0358986   0.93169701   -1.1042016   0.12644175     11873.75     1000 
 2664000   0.61221372   -2.0443228   0.91740227   -1.1269206   0.12076552    11834.353     1000 
 2666000   0.65378172    -2.011661   0.97969191   -1.0319691   0.13824869    11708.738     1000 
 2668000   0.65017725   -2.0978819   0.97429061   -1.1235913    0.1256931    12025.547     1000 
 2670000   0.65146536   -2.0508879   0.97622084    -1.074667   0.13123584    11818.597     1000 
 2672000   0.60936177   -2.0334946   0.91312862    -1.120366   0.13089574    11922.566     1000 
 2674000   0.63683353    -1.985643   0.95429504   -1.0313479   0.13119277    11777.772     1000 
 2676000   0.68039058   -2.0806609    1.0195653   -1.0610957   0.13768428    11806.309     1000 
 2678000   0.63609268    -2.029262   0.95318487   -1.0760771   0.11268219    11879.395     1000 
 2680000   0.62322698   -2.0172704   0.93390564   -1.0833648   0.13616739    11684.693     1000 
 2682000   0.64008686   -2.1068231   0.95917016   -1.1476529   0.12925083    11719.282     1000 
 2684000   0.64169057   -1.9763719   0.96157332   -1.0147986   0.15203886    11605.869     1000 
 2686000   0.65689602   -1.9808682   0.98435869  -0.99650949   0.14070667    11695.434     1000 
 2688000   0.64300632   -2.0745449   0.96354497   -1.1109999   0.14276152    11738.583     1000 
 2690000   0.64295609   -2.0606447   0.96346969    -1.097175   0.13713322     11754.89     1000 
 2692000   0.62854629   -2.0592128   0.94187661   -1.1173362   0.14281675    11635.082     1000 
 2694000    0.6332777   -2.0507504   0.94896664   -1.1017838   0.14124453    11712.488     1000 
 2696000   0.66925737    -2.101916    1.0028822   -1.0990338    0.1220987     11845.69     1000 
 2698000    0.6219989   -2.0259768   0.93206535   -1.0939115     0.136211    11738.141     1000 
 2700000     0.663732   -2.0361567   0.99460241   -1.0415542   0.13365349    11847.192     1000 
 2702000   0.62562267   -2.0669419   0.93749558   -1.1294463   0.13972311    11818.856     1000 
 2704000   0.64942587   -2.0726939   0.97316466   -1.0995292   0.13421352    11666.678     1000 
 2706000   0.64187831   -2.1061089   0.96185464   -1.1442543    0.1163434    11870.209     1000 
 2708000     0.645466   -2.0520376    0.9672308   -1.0848068   0.13119206    11848.162     1000 
 2710000    0.6340318   -1.9934481   0.95009665   -1.0433515   0.12526559    11934.159     1000 
 2712000   0.64907758   -2.0602048   0.97264276    -1.087562   0.12908082    11981.789     1000 
 2714000   0.62314154   -2.0172341   0.93377759   -1.0834565   0.13529301    11618.949     1000 
 2716000   0.66698311   -1.9945611   0.99947419  -0.99508692    0.1334709    11814.831     1000 
 2718000   0.63778941   -2.0257761   0.95572743   -1.0700487    0.1367076    11819.825     1000 
 2720000   0.63936242   -2.0500827   0.95808459   -1.0919981   0.12262319    11773.557     1000 
 2722000   0.66577852   -2.0587908   0.99766911   -1.0611217   0.13747454    11879.077     1000 
 2724000   0.64279945   -2.0342766   0.96323497   -1.0710417   0.13319399    11851.053     1000 
 2726000   0.65496503   -2.0960213    0.9814651   -1.1145562   0.11964556    11926.901     1000 
 2728000   0.61735415   -2.0445907   0.92510519   -1.1194855   0.13020603     11640.99     1000 
 2730000   0.63151523   -2.0838006   0.94632558    -1.137475   0.13134802     11798.82     1000 
 2732000   0.62420451    -2.100492   0.93537045   -1.1651216   0.11393532    11966.911     1000 
 2734000   0.62459619   -2.0544195   0.93595739   -1.1184621   0.13628312    11784.283     1000 
 2736000   0.63059749    -2.034466   0.94495033   -1.0895157   0.13899296    11662.092     1000 
 2738000   0.63598285   -2.1015331   0.95302031   -1.1485128   0.12669526    11891.121     1000 
 2740000   0.62413274   -2.0971068   0.93526291   -1.1618439   0.12251093    11849.385     1000 
 2742000   0.62644037   -2.0369956    0.9387209   -1.0982747   0.13550476    11823.255     1000 
 2744000   0.64756572   -2.0239799   0.97037723   -1.0536027   0.13190428    11668.449     1000 
 2746000    0.6580398   -2.0639364   0.98607264   -1.0778638   0.12661849    11933.189     1000 
 2748000   0.67678693   -2.0424029    1.0141652   -1.0282377   0.13121341    11716.968     1000 
 2750000   0.64417215    -2.004457   0.96529196    -1.039165   0.13325975    11787.053     1000 
 2752000   0.63560554   -2.0187978    0.9524549   -1.0663429   0.13656292    11645.701     1000 
 2754000   0.65933982   -2.0581201   0.98802073   -1.0700994   0.13960349    11772.031     1000 
 2756000    0.6639151   -2.0569854   0.99487678   -1.0621086   0.14560049    11802.167     1000 
 2758000   0.63682478   -2.0775518   0.95428193   -1.1232699   0.13108865    11697.416     1000 
 2760000    0.6205041    -2.003837    0.9298254   -1.0740116    0.1284762    11781.432     1000 
 2762000   0.62947048   -2.0930372   0.94326151   -1.1497757   0.13333592    11710.336     1000 
 2764000   0.64568431   -2.0280143   0.96755794   -1.0604564    0.1335112    11804.202     1000 
 2766000   0.60884933   -2.0447078   0.91236072   -1.1323471   0.13415249    11691.725     1000 
 2768000   0.63225242   -2.0275876   0.94743025   -1.0801574   0.14097968     11683.88     1000 
 2770000   0.64688723   -2.0312894   0.96936052   -1.0619289   0.11700206    11832.501     1000 
 2772000   0.65518536   -2.0292351   0.98179526   -1.0474398   0.14182414    11702.918     1000 
 2774000   0.63287792   -2.0091034   0.94836757   -1.0607358   0.13069184    11876.549     1000 
 2776000   0.64815278   -2.0659888   0.97125694   -1.0947318    0.1325053    11914.412     1000 
 2778000   0.62354154   -2.0310483     0.934377   -1.0966713   0.14640915    11702.782     1000 
 2780000   0.61754743   -2.0616618   0.92539483    -1.136267   0.12348087    11808.561     1000 
 2782000    0.6426091   -2.0399634   0.96294974   -1.0770137   0.12171417     11852.52     1000 
 2784000   0.63902819   -2.0360012   0.95758375   -1.0784174   0.13656023    11656.447     1000 
 2786000   0.65888689   -2.0847462   0.98734201   -1.0974041   0.11164822    12142.849     1000 
 2788000   0.65544929   -1.9959062   0.98219076   -1.0137155   0.13657152    11734.301     1000 
 2790000   0.65495092   -2.0311772   0.98144395   -1.0497332   0.13484133    11938.483     1000 
 2792000   0.64425762   -2.0303252   0.96542004   -1.0649051   0.12837848    11849.075     1000 
 2794000   0.64653651   -2.0122951   0.96883496   -1.0434602   0.13522418    11863.407     1000 
 2796000   0.65525981   -2.0784916   0.98190682   -1.0965847   0.14357999    11724.308     1000 
 2798000   0.63020749    -2.031037   0.94436592    -1.086671   0.12251316    11878.266     1000 
 2800000   0.63539163   -2.0470809   0.95213436   -1.0949466   0.12219821    12008.553     1000 
 2802000   0.67153669   -2.0691824    1.0062977   -1.0628847   0.13609391    11848.898     1000 
 2804000   0.62987074   -2.0431855    0.9438613   -1.0993242   0.12934587    11678.652     1000 
 2806000   0.64803735   -2.0756696   0.97108397   -1.1045857   0.11663873    11958.789     1000 
 2808000   0.64140913   -2.0344868   0.96115158   -1.0733352   0.13041294    11639.087     1000 
 2810000   0.65645685   -2.0583347   0.98370058   -1.0746341   0.12654926    11745.379     1000 
 2812000   0.63620932   -2.0565605   0.95335966   -1.1032009   0.11747023    12015.504     1000 
 2814000   0.62273682   -2.0588385   0.93317113   -1.1256674   0.13356428    11633.933     1000 
 2816000   0.64525858   -2.0945602   0.96691998   -1.1276402   0.13010908     11835.36     1000 
 2818000   0.63154729   -2.0277352   0.94637362   -1.0813615   0.13026823    11656.926     1000 
 2820000   0.64170693   -1.9930845   0.96159784   -1.0314866   0.12280674    12060.576     1000 
 2822000   0.64606111   -2.0091071   0.96812257   -1.0409846   0.12219914    12075.482     1000 
 2824000   0.64265052   -2.0022233   0.96301181   -1.0392115   0.13377419    11762.494     1000 
 2826000   0.63958551   -2.0665823   0.95841888   -1.1081635   0.13137429    11698.017     1000 
 2828000   0.62651362   -2.0273842   0.93883066   -1.0885536   0.12213861    11835.078     1000 
 2830000   0.63551986   -2.0633583    0.9523265   -1.1110318   0.12805924    11914.827     1000 
 2832000   0.65414738   -2.1050494   0.98023984   -1.1248095    0.1256178    11926.693     1000 
 2834000   0.64208375   -2.0196664    0.9621625   -1.0575039   0.13435244    11686.831     1000 
 2836000   0.64083969   -2.0081769   0.96029827   -1.0478786    0.1072932     12177.07     1000 
 2838000   0.62839792   -2.0415787   0.94165429   -1.0999244     0.144763    11722.755     1000 
 2840000   0.66719142   -2.0125129   0.99978634   -1.0127266   0.12730065    11595.143     1000 
 2842000   0.61574609   -1.9729583   0.92269551   -1.0502628   0.13773069    11670.979     1000 
 2844000   0.67665897   -2.0827151    1.0139735   -1.0687416   0.13249188    11864.585     1000 
 2846000   0.65887828   -2.0515065   0.98732911   -1.0641774   0.14163018    11726.645     1000 
 2848000   0.62031333   -2.0202364   0.92953953   -1.0906969   0.13190087    11623.478     1000 
 2850000   0.63415963   -2.0609465    0.9502882   -1.1106583   0.14721872    11654.311     1000 
 2852000    0.6260063   -2.0168735   0.93807044    -1.078803   0.14989446    11520.243     1000 
 2854000   0.62690996   -2.0334553   0.93942458   -1.0940307    0.1327918     11872.74     1000 
 2856000   0.62970858   -2.0444107   0.94361831   -1.1007924   0.12375986    12031.942     1000 
 2858000   0.63263137   -2.0832146    0.9479981   -1.1352165   0.12142237    11788.062     1000 
 2860000   0.65849925   -2.0607975   0.98676113   -1.0740364   0.11775442    11922.478     1000 
 2862000   0.65066141   -2.0592108   0.97501613   -1.0841946   0.12027541    11818.107     1000 
 2864000   0.62634603   -2.0689085   0.93857953    -1.130329   0.11925312    11891.744     1000 
 2866000   0.63019189   -2.0324618   0.94434254   -1.0881192   0.13443491    11833.619     1000 
 2868000   0.66289931   -2.0746223   0.99335461   -1.0812677   0.14465061     11546.95     1000 
 2870000   0.61975934   -2.0942223   0.92870937    -1.165513   0.13466139    11786.022     1000 
 2872000   0.62011486   -2.0499998   0.92924212   -1.1207576   0.13268518    11890.216     1000 
 2874000   0.65111279   -2.0964938   0.97569252   -1.1208013   0.12746203    11733.533     1000 
 2876000   0.66329664   -2.0411637   0.99395002   -1.0472137   0.13745004    11632.998     1000 
 2878000   0.66028844   -2.0250324   0.98944222   -1.0355902   0.13567805    11751.892     1000 
 2880000     0.658252   -2.0197353   0.98639063   -1.0333447   0.13919094    11818.261     1000 
 2882000   0.62955599   -2.0446199   0.94338965   -1.1012303   0.12558311    11967.853     1000 
 2884000    0.6478234   -2.0606808   0.97076336   -1.0899174   0.14374991    11618.285     1000 
 2886000   0.61395485   -2.0257596   0.92001134   -1.1057482   0.12937629    11788.985     1000 
 2888000   0.59984626   -2.0971859   0.89886962   -1.1983163   0.11741972    11806.891     1000 
 2890000   0.65321219   -2.0865531   0.97883846   -1.1077146   0.15107345    11679.477     1000 
 2892000   0.64333735   -2.0857104   0.96404102   -1.1216694   0.11389542    11982.873     1000 
 2894000   0.64239593   -2.0508928    0.9626303   -1.0882625   0.12976174    11990.634     1000 
 2896000   0.65917651   -2.0913125     0.987776   -1.1035365   0.14193544    11686.095     1000 
 2898000   0.63087699   -2.0163405   0.94536917   -1.0709713   0.11697343    11754.354     1000 
 2900000   0.64548451   -2.0229421   0.96725854   -1.0556836   0.12226517    11989.001     1000 
 2902000    0.6320195   -2.0489739   0.94708122   -1.1018927   0.12977965    11624.249     1000 
 2904000   0.62093154   -2.0174082   0.93046591   -1.0869423   0.13118179    11756.356     1000 
 2906000   0.64294598   -2.0278382   0.96345456   -1.0643836   0.12883642    11821.105     1000 
 2908000   0.63814375    -2.058823   0.95625841   -1.1025646   0.11280565    11924.653     1000 
 2910000    0.6392758   -2.0347959   0.95795478   -1.0768411   0.11365456    12063.445     1000 
 2912000   0.64266575   -2.0804912   0.96303462   -1.1174565    0.1317063    11930.662     1000 
 2914000   0.65587473   -2.0245707   0.98282829   -1.0417424   0.13459731    11916.766     1000 
 2916000   0.65048258   -2.0383868   0.97474815   -1.0636387   0.14616005    11688.167     1000 
 2918000   0.62428296   -2.0763977   0.93548802   -1.1409097   0.13046899    11976.998     1000 
 2920000   0.61083225   -2.0077135   0.91533213   -1.0923814   0.12604889    11915.105     1000 
 2922000   0.63230779   -2.0067336   0.94751323   -1.0592204    0.1223801    11928.538     1000 
 2924000   0.62810835   -2.0530951   0.94122036   -1.1118747   0.13149285    11577.665     1000 
 2926000   0.61501661   -2.0595978   0.92160239   -1.1379954    0.1303838    11928.999     1000 
 2928000   0.63548934   -2.0533803   0.95228077   -1.1010995   0.11881878    11824.345     1000 
 2930000   0.61311139   -2.0392778   0.91874742   -1.1205304   0.11716503    11813.581     1000 
 2932000   0.62594529   -2.0119847   0.93797901   -1.0740057   0.13490989     11672.33     1000 
 2934000   0.62802109   -2.0038533    0.9410896   -1.0627637   0.10847503    11867.634     1000 
 2936000   0.63356151   -2.0823197   0.94939192   -1.1329278   0.12673698     11938.82     1000 
 2938000    0.6404859   -2.0788298   0.95976813   -1.1190616   0.11806709    11830.557     1000 
 2940000   0.65285803   -2.0485561   0.97830776   -1.0702484   0.13467922    11984.804     1000 
 2942000   0.64849059   -2.0245354   0.97176314   -1.0527723   0.13209342    11839.874     1000 
 2944000   0.64549014   -2.0384598   0.96726698   -1.0711928   0.13378779    11572.644     1000 
 2946000   0.61892195   -2.0128885   0.92745454    -1.085434   0.12900931    11772.812     1000 
 2948000   0.63799937    -2.011048   0.95604205    -1.055006   0.12964183    11702.038     1000 
 2950000   0.66289521   -2.0235029   0.99334848   -1.0301544   0.12237999    11992.414     1000 
 2952000   0.62592865   -2.0706347   0.93795408   -1.1326806   0.11929757    11719.609     1000 
 2954000   0.62711067     -2.04068   0.93972534   -1.1009547   0.13120971    11614.708     1000 
 2956000   0.64810868   -2.0800431   0.97119086   -1.1088522   0.11717203    11972.198     1000 
 2958000   0.63153931   -2.0550808   0.94636166   -1.1087192   0.13033598    11711.404     1000 
 2960000   0.63510936   -2.0271287   0.95171138   -1.0754173   0.12736968    11962.427     1000 
 2962000   0.64990625   -2.0724618   0.97388452   -1.0985773    0.1199872    11851.581     1000 
 2964000   0.63947078    -2.106347   0.95824696      -1.1481   0.12171767    11786.797     1000 
 2966000   0.62749077   -2.0572656   0.94029492   -1.1169707   0.13828584    11733.543     1000 
 2968000   0.64514408   -2.0211444   0.96674841    -1.054396   0.13444535     11445.68     1000 
 2970000   0.64658008   -2.0554851   0.96890026   -1.0865848   0.12707653    11778.371     1000 
 2972000   0.64580201    -2.076329   0.96773432   -1.1085947   0.10824077    12217.382     1000 
 2974000    0.6462894   -2.0343098   0.96846467   -1.0658451   0.13129715    11870.172     1000 
 2976000   0.65705976   -2.0455681   0.98460405   -1.0609641   0.13287782    11845.583     1000 
 2978000   0.62747694   -2.0851133    0.9402742   -1.1448391    0.1366301    11861.831     1000 
 2980000   0.64167726   -2.0387733   0.96155338   -1.0772199   0.13148579    11760.317     1000 
 2982000   0.63225534   -2.0086976   0.94743463    -1.061263   0.13872317     11839.65     1000 
 2984000   0.67885769   -2.0524725    1.0172682   -1.0352043     0.120249    11922.657     1000 
 2986000   0.64397572   -2.0025328   0.96499762   -1.0375352   0.12255594    11850.255     1000 
 2988000   0.63712145   -2.0358078   0.95472649   -1.0810813   0.12081227     11893.73     1000 
 2990000    0.6447266   -2.0025272   0.96612281   -1.0364044   0.12178415    11956.487     1000 
 2992000   0.66709972   -2.0452774   0.99964892   -1.0456285   0.14858697    11627.827     1000 
 2994000    0.6493695   -2.0475438   0.97308019   -1.0744636   0.13993331    11909.151     1000 
 2996000    0.6433656   -2.1049779   0.96408335   -1.1408945   0.13730981    11871.526     1000 
 2998000   0.64410578   -2.0640738   0.96519251   -1.0988813    0.1209021    11941.633     1000 
 3000000   0.63373821   -2.0441478   0.94965671   -1.0944911   0.13125477    11690.542     1000 
Loop time of 1143.58 on 1 procs for 3000000 steps with 1000 atoms

Performance: 1133280.278 tau/day, 2623.334 timesteps/s
100.0% CPU use with 1 MPI tasks x 1 OpenMP threads

MPI task timing breakdown:
Section |  min time  |  avg time  |  max time  |%varavg| %total
---------------------------------------------------------------
Pair    | 896.32     | 896.32     | 896.32     |   0.0 | 78.38
Neigh   | 144.23     | 144.23     | 144.23     |   0.0 | 12.61
Comm    | 24.725     | 24.725     | 24.725     |   0.0 |  2.16
Output  | 0.017768   | 0.017768   | 0.017768   |   0.0 |  0.00
Modify  | 72.966     | 72.966     | 72.966     |   0.0 |  6.38
Other   |            | 5.327      |            |       |  0.47

Nlocal:        1000.00 ave        1000 max        1000 min
Histogram: 1 0 0 0 0 0 0 0 0 0
Nghost:        2154.00 ave        2154 max        2154 min
Histogram: 1 0 0 0 0 0 0 0 0 0
Neighs:        26637.0 ave       26637 max       26637 min
Histogram: 1 0 0 0 0 0 0 0 0 0

Total # of neighbors = 26637
Ave neighs/atom = 26.637000
Neighbor list builds = 150000
Dangerous builds not checked

Total wall time: 0:19:03
