LAMMPS (29 Sep 2021 - Update 2)
OMP_NUM_THREADS environment is not set. Defaulting to 1 thread. (src/comm.cpp:98)
  using 1 OpenMP thread(s) per MPI task
# ----------------------- Inicialização -----------------------

units			lj
atom_style 		atomic
dimension 		3
boundary 		p p p

# -------------------- Criação dos Átomos ---------------------

read_data 		topologia.txt
Reading data file ...
  orthogonal box = (0.0000000 0.0000000 0.0000000) to (21.540000 21.540000 21.540000)
  1 by 1 by 1 MPI processor grid
  reading atoms ...
  1000 atoms
  read_data CPU = 0.005 seconds

velocity 		all create ${temp} 87287 rot yes dist gaussian
velocity 		all create 0.43 87287 rot yes dist gaussian

# ------------------ Interação Interatômica -------------------

pair_style		table linear 1000
pair_coeff		1 1 force.table AA 5.0
WARNING: 2 of 1000 force values in table AA are inconsistent with -dE/dr.
WARNING:  Should only be flagged at inflection points (src/pair_table.cpp:465)
pair_coeff		1 2 force.table AB 5.0
WARNING: 1 of 1000 force values in table AB are inconsistent with -dE/dr.
WARNING:  Should only be flagged at inflection points (src/pair_table.cpp:465)
pair_coeff		2 2 force.table BB 5.0
pair_write		1 1 1000 r 0.008 5.0 table.check AA
Appending to table file table.check with DATE: 2023-07-13
Neighbor list info ...
  update every 1 steps, delay 10 steps, check yes
  max neighbors/atom: 2000, page size: 100000
  master list distance cutoff = 5.3
  ghost atom cutoff = 5.3
  binsize = 2.65, bins = 9 9 9
  1 neighbor lists, perpetual/occasional/extra = 1 0 0
  (1) pair table, perpetual
      attributes: half, newton on
      pair build: half/bin/atomonly/newton
      stencil: half/bin/3d
      bin: standard
pair_write		1 2 1000 r 0.008 5.0 table.check AB
Appending to table file table.check with DATE: 2023-07-13
pair_write		2 2 1000 r 0.008 5.0 table.check BB
Appending to table file table.check with DATE: 2023-07-13

neighbor 		0.3 bin
neigh_modify		every 20 delay 0 check no

# ------------------------- Ensemble --------------------------------------

fix 1			all npt temp ${temp} ${temp} 0.5 iso ${press} ${press} 5
fix 1			all npt temp 0.43 ${temp} 0.5 iso ${press} ${press} 5
fix 1			all npt temp 0.43 0.43 0.5 iso ${press} ${press} 5
fix 1			all npt temp 0.43 0.43 0.5 iso 0.13 ${press} 5
fix 1			all npt temp 0.43 0.43 0.5 iso 0.13 0.13 5

# ---------------------- Função de Distribuição Radial -----------------------

#compute RDF 		all rdf 2000 1 1 1 2 2 2
#fix 2 			all ave/time 1 2000 2000 c_RDF[*] file rdf.data mode vector

# ------------------------- Execução ---------------------------

timestep 		0.005
thermo_style		custom step temp pe ke etotal press vol atoms
thermo			2000
run			3000000
Per MPI rank memory allocation (min/avg/max) = 2.670 | 2.670 | 2.670 Mbytes
Step Temp PotEng KinEng TotEng Press Volume Atoms 
       0         0.43    1.3897466     0.644355    2.0341016     1.525974    9993.9483     1000 
    2000   0.42621991   -2.4894374   0.63869054   -1.8507468   0.14006299    11636.154     1000 
    4000   0.41506227    -2.517495   0.62197081   -1.8955242   0.13136991    11585.531     1000 
    6000   0.42634349   -2.5313948   0.63887572    -1.892519   0.14731007    11446.393     1000 
    8000   0.43393389    -2.546198   0.65024993   -1.8959481    0.1324065    11479.237     1000 
   10000   0.41681594   -2.6010215   0.62459868   -1.9764228   0.12068204    11658.067     1000 
   12000   0.43921209   -2.5622595   0.65815931   -1.9041002   0.13450386    11622.848     1000 
   14000   0.42744255   -2.5522878   0.64052267   -1.9117651   0.13495586      11615.6     1000 
   16000   0.41858821   -2.5866286   0.62725444   -1.9593742   0.13245989     11572.44     1000 
   18000   0.42849569   -2.5890484   0.64210079   -1.9469476   0.12818716    11567.432     1000 
   20000   0.41637064   -2.6119641   0.62393141   -1.9880327   0.11841098    11678.682     1000 
   22000   0.42046956   -2.5751685   0.63007363   -1.9450949   0.11494462    11625.631     1000 
   24000   0.41975495   -2.5853341   0.62900279   -1.9563314   0.11546934    11647.084     1000 
   26000   0.42055131    -2.617282   0.63019614   -1.9870858   0.12163411      11600.8     1000 
   28000   0.43347579   -2.5979564   0.64956347   -1.9483929   0.12989581    11674.208     1000 
   30000   0.42536834   -2.5862702   0.63741446   -1.9488557   0.14187129    11499.435     1000 
   32000   0.43759697   -2.5993932   0.65573906   -1.9436542   0.12064043    11655.288     1000 
   34000   0.44541803   -2.5959592   0.66745892   -1.9285002   0.13207221    11557.419     1000 
   36000   0.40471843    -2.591201   0.60647057   -1.9847305    0.1255986    11644.999     1000 
   38000   0.43754245   -2.6149419   0.65565737   -1.9592845   0.12676296    11595.819     1000 
   40000   0.44317579   -2.6020262   0.66409892   -1.9379273   0.13183741    11544.125     1000 
   42000   0.45060875   -2.6010282   0.67523721    -1.925791   0.12624068    11588.685     1000 
   44000   0.42004368    -2.579461   0.62943545   -1.9500256   0.12729194    11517.796     1000 
   46000    0.4333727   -2.5910028     0.649409   -1.9415938   0.12421011    11636.758     1000 
   48000   0.43306382   -2.6193053   0.64894614   -1.9703592   0.12699746    11629.625     1000 
   50000   0.44243104    -2.631062   0.66298292   -1.9680791   0.13248846    11620.528     1000 
   52000   0.41524778    -2.567974   0.62224879   -1.9457252   0.14425455    11426.946     1000 
   54000   0.43707446   -2.5914356   0.65495608   -1.9364795   0.12342686    11619.472     1000 
   56000   0.43316053   -2.5938456   0.64909106   -1.9447546   0.13830851    11535.548     1000 
   58000    0.4399507    -2.582708   0.65926612   -1.9234419   0.13127812    11543.135     1000 
   60000   0.42509211   -2.6117961   0.63700053   -1.9747956   0.13401593    11536.602     1000 
   62000   0.43294321   -2.5913309   0.64876541   -1.9425655   0.14878513    11401.595     1000 
   64000   0.42828684   -2.6045196   0.64178783   -1.9627317   0.12554142    11593.911     1000 
   66000   0.43761819   -2.5906149   0.65577085   -1.9348441   0.13581518    11630.934     1000 
   68000   0.43461861   -2.5822555   0.65127599   -1.9309795   0.15268675    11328.779     1000 
   70000    0.4422585   -2.5740149   0.66272436   -1.9112906   0.13948262    11538.108     1000 
   72000    0.4257211   -2.5924436   0.63794307   -1.9545005   0.11301453    11685.761     1000 
   74000   0.43839887   -2.6146057    0.6569407    -1.957665   0.12741328    11611.303     1000 
   76000   0.41972886   -2.6268397    0.6289637    -1.997876   0.11700524    11672.105     1000 
   78000   0.43375986   -2.5854095   0.64998916   -1.9354203   0.13381707    11617.368     1000 
   80000   0.44551347    -2.611411   0.66760193   -1.9438091   0.13178764    11649.218     1000 
   82000   0.41864407   -2.5791536   0.62733814   -1.9518154   0.14226167    11590.459     1000 
   84000   0.43078341   -2.5856045   0.64552894   -1.9400755   0.14320389    11493.346     1000 
   86000   0.43519701   -2.5191474   0.65214271   -1.8670046   0.13840053    11462.745     1000 
   88000   0.44247157   -2.6212961   0.66304364   -1.9582525   0.13463759    11473.172     1000 
   90000   0.42686013    -2.614094    0.6396499   -1.9744441   0.11856119    11705.056     1000 
   92000   0.42872716   -2.5994552   0.64244765   -1.9570075   0.13984813    11526.717     1000 
   94000   0.42798946   -2.5581465   0.64134221   -1.9168043    0.1298017    11557.466     1000 
   96000   0.43667299   -2.6182313   0.65435448   -1.9638768   0.11972826    11720.014     1000 
   98000   0.42173434   -2.5673262   0.63196891   -1.9353573   0.13057801    11517.233     1000 
  100000   0.43391517   -2.5531498   0.65022188   -1.9029279   0.13985645    11574.375     1000 
  102000    0.4315237   -2.5547249   0.64663827   -1.9080867    0.1231986    11523.071     1000 
  104000   0.41251296    -2.570949   0.61815067   -1.9527983    0.1320452     11421.53     1000 
  106000   0.42721767   -2.6075669   0.64018568   -1.9673812   0.12141443    11679.256     1000 
  108000   0.42972869   -2.6096981   0.64394845   -1.9657496   0.11956463    11622.259     1000 
  110000   0.42588316   -2.6043952   0.63818591   -1.9662092   0.12321584    11560.543     1000 
  112000   0.42510741   -2.5845142   0.63702345   -1.9474907   0.13346589     11596.49     1000 
  114000   0.42629368   -2.5821596   0.63880109   -1.9433585   0.12731641    11525.919     1000 
  116000   0.44209253   -2.5791355   0.66247566   -1.9166599   0.13527071    11630.723     1000 
  118000   0.41972739   -2.5880938    0.6289615   -1.9591323    0.1329173    11442.283     1000 
  120000   0.41931848   -2.5692367   0.62834875    -1.940888   0.12179444    11592.749     1000 
  122000   0.43184974   -2.5970724   0.64712684   -1.9499456   0.11608538    11677.671     1000 
  124000   0.44362387   -2.6144619   0.66477038   -1.9496916   0.13659263    11465.611     1000 
  126000   0.41827196   -2.5671543   0.62678053   -1.9403737    0.1322369     11558.93     1000 
  128000   0.43699478   -2.5729637   0.65483668   -1.9181271    0.1390997    11448.261     1000 
  130000   0.45203289   -2.5801151   0.67737129   -1.9027439   0.13621363    11524.073     1000 
  132000   0.42152553   -2.5901839     0.631656   -1.9585279   0.13225485    11534.816     1000 
  134000   0.42576464    -2.595905   0.63800831   -1.9578967   0.13593096    11625.401     1000 
  136000   0.43617964    -2.628807   0.65361519   -1.9751918   0.12015234     11705.42     1000 
  138000     0.464055   -2.6479612   0.69538641   -1.9525748   0.11285038    11707.375     1000 
  140000   0.42384235   -2.6179071   0.63512776   -1.9827793   0.13367139    11608.422     1000 
  142000   0.42316906    -2.602598   0.63411884   -1.9684791   0.13433932    11548.534     1000 
  144000   0.45181397   -2.5896406   0.67704323   -1.9125974   0.13497235    11552.322     1000 
  146000   0.42135486   -2.6478419   0.63140026   -2.0164417   0.12107833    11649.036     1000 
  148000   0.42430525   -2.6023618   0.63582141   -1.9665404   0.13049115    11542.662     1000 
  150000    0.4124805   -2.6282971   0.61810202    -2.010195   0.13876175     11477.78     1000 
  152000   0.42046226   -2.5866314    0.6300627   -1.9565687   0.13218037    11510.628     1000 
  154000    0.4300864   -2.5741532   0.64448447   -1.9296688   0.12067335    11624.496     1000 
  156000   0.41745865   -2.5620806   0.62556179   -1.9365189   0.13529473    11403.255     1000 
  158000    0.4209267   -2.5723674   0.63075866   -1.9416087   0.12666221    11474.713     1000 
  160000   0.42811254   -2.5934312   0.64152664   -1.9519045   0.14317662     11536.81     1000 
  162000   0.42688925    -2.629234   0.63969354   -1.9895405   0.12416468    11604.911     1000 
  164000   0.43723813    -2.614341   0.65520133   -1.9591396   0.13286759     11663.53     1000 
  166000   0.46362275   -2.5698551   0.69473869   -1.8751164   0.13529469    11431.031     1000 
  168000   0.42804552   -2.5465225   0.64142621   -1.9050963   0.13896881    11444.804     1000 
  170000   0.43787049   -2.6243729   0.65614892    -1.968224   0.12139096      11750.5     1000 
  172000   0.43972999   -2.5695332   0.65893538   -1.9105978   0.13892389    11521.524     1000 
  174000   0.44681175   -2.5982535    0.6695474   -1.9287061    0.1307169    11456.956     1000 
  176000   0.42666584   -2.5643847   0.63935876    -1.925026   0.13681701    11452.203     1000 
  178000   0.45254898   -2.5304545   0.67814465   -1.8523098    0.1454401    11485.005     1000 
  180000   0.42701481   -2.5657651   0.63988169   -1.9258834   0.13193857    11470.388     1000 
  182000   0.42477649   -2.5987609   0.63652757   -1.9622334   0.13741685    11498.167     1000 
  184000   0.42350921   -2.5937019   0.63462855   -1.9590734   0.11408385    11668.938     1000 
  186000    0.4217366   -2.5660788    0.6319723   -1.9341065   0.14076489    11455.873     1000 
  188000   0.42321082     -2.56911   0.63418141   -1.9349286   0.11860592    11550.611     1000 
  190000   0.44035967   -2.5725689   0.65987897   -1.9126899   0.13241868    11606.716     1000 
  192000   0.43355584   -2.5615061   0.64968343   -1.9118226   0.13119935    11506.787     1000 
  194000   0.44298756   -2.5694691   0.66381686   -1.9056523   0.14339594    11480.072     1000 
  196000   0.43498222   -2.5769126   0.65182086   -1.9250917   0.12616109     11605.98     1000 
  198000   0.42901823   -2.5955676   0.64288381   -1.9526838   0.13124138    11594.159     1000 
  200000   0.42643081   -2.6285068   0.63900657   -1.9895002   0.12872208    11595.404     1000 
  202000   0.42119935   -2.5952783   0.63116722   -1.9641111   0.12647566    11586.362     1000 
  204000   0.42220305   -2.5773571   0.63267127   -1.9446858   0.11801988    11533.794     1000 
  206000   0.43532468   -2.5732258   0.65233404   -1.9208917   0.12280974    11604.803     1000 
  208000   0.43450494   -2.6111295   0.65110565   -1.9600238   0.12009941    11668.578     1000 
  210000   0.41747918   -2.5926487   0.62559255   -1.9670561   0.12544981    11637.065     1000 
  212000   0.43497717     -2.62373   0.65181329   -1.9719167   0.11942501    11549.521     1000 
  214000   0.43518017   -2.5623918   0.65211749   -1.9102743   0.13462127    11528.182     1000 
  216000   0.44794619   -2.5930233   0.67124737   -1.9217759   0.13140964     11560.19     1000 
  218000   0.44611099   -2.6256939   0.66849731   -1.9571966   0.12200527    11668.267     1000 
  220000    0.4350831   -2.6134575   0.65197202   -1.9614855   0.13492005    11476.947     1000 
  222000   0.42184228   -2.5895816   0.63213065   -1.9574509   0.14334378    11577.268     1000 
  224000   0.43330697    -2.574423   0.64931049   -1.9251125   0.12013065     11559.54     1000 
  226000   0.43555426   -2.5863864   0.65267806   -1.9337084   0.12479585    11693.707     1000 
  228000   0.41500815   -2.5676298   0.62188971   -1.9457401   0.12256547     11549.37     1000 
  230000   0.44508077   -2.6537209   0.66695353   -1.9867674   0.12885335     11556.88     1000 
  232000   0.44273792   -2.5698595   0.66344277   -1.9064168   0.14764318    11408.816     1000 
  234000   0.44375881   -2.6362412   0.66497258   -1.9712687   0.13105791    11583.421     1000 
  236000   0.44071091   -2.6024411    0.6604053   -1.9420358   0.13160119    11505.007     1000 
  238000   0.40576589   -2.6097565   0.60804019   -2.0017163   0.12175094    11619.802     1000 
  240000    0.4437768   -2.5730459   0.66499954   -1.9080463   0.13064769    11574.952     1000 
  242000   0.42763045   -2.6388817   0.64080423   -1.9980775   0.13031126     11650.52     1000 
  244000   0.41461586    -2.627795   0.62130186   -2.0064931   0.11522014    11696.664     1000 
  246000     0.422631   -2.5878199   0.63331255   -1.9545074    0.1363934    11549.602     1000 
  248000   0.43889722   -2.5722212   0.65768749   -1.9145337   0.13299626    11504.441     1000 
  250000   0.45515093   -2.6115277   0.68204367    -1.929484   0.14930791    11446.587     1000 
  252000   0.43006456   -2.5426838   0.64445174   -1.8982321    0.1329654    11494.332     1000 
  254000   0.42665464   -2.5864889   0.63934197    -1.947147   0.12575355    11572.523     1000 
  256000   0.42706267   -2.5898458   0.63995341   -1.9498924   0.13714928    11580.921     1000 
  258000   0.43250882   -2.5868394   0.64811446   -1.9387249   0.13510886    11573.193     1000 
  260000   0.41886367   -2.5598378   0.62766721   -1.9321706   0.12898683    11601.005     1000 
  262000   0.42001013     -2.60368   0.62938518   -1.9742948   0.12732022    11494.243     1000 
  264000   0.42447898   -2.6445048   0.63608176    -2.008423   0.12108758    11587.103     1000 
  266000   0.40211921   -2.5655446   0.60257563   -1.9629689   0.13132179    11484.241     1000 
  268000   0.42966621   -2.5934395   0.64385482   -1.9495846   0.12184143    11610.595     1000 
  270000   0.42198909   -2.6001008   0.63235066   -1.9677501    0.1228403    11677.452     1000 
  272000   0.44691454   -2.6022087   0.66970144   -1.9325072   0.14530221    11476.002     1000 
  274000   0.44224827   -2.5798151   0.66270903    -1.917106   0.15327251    11376.416     1000 
  276000    0.4183821    -2.576194   0.62694558   -1.9492484   0.11558887    11717.049     1000 
  278000   0.43711732   -2.5738639   0.65502031   -1.9188436   0.13816937    11354.317     1000 
  280000   0.44768754   -2.5805212   0.67085978   -1.9096614   0.13270965    11573.014     1000 
  282000   0.41824764   -2.5640796   0.62674409   -1.9373355   0.12556925     11549.82     1000 
  284000   0.42635715   -2.6165178   0.63889619   -1.9776216   0.12142793    11668.463     1000 
  286000   0.42121712   -2.5865893   0.63119385   -1.9553954   0.13736594    11440.886     1000 
  288000   0.43463272   -2.5947447   0.65129712   -1.9434475   0.13765339    11541.571     1000 
  290000   0.42283521    -2.566604   0.63361856   -1.9329854   0.13657422    11456.096     1000 
  292000   0.43394285   -2.6238186   0.65026336   -1.9735553   0.12772005    11642.532     1000 
  294000   0.43781437   -2.6173776   0.65606483   -1.9613128   0.13244357    11570.765     1000 
  296000   0.42949886   -2.5927564   0.64360405   -1.9491523   0.11842608    11562.403     1000 
  298000   0.41760178   -2.5779802   0.62577626    -1.952204   0.12745516    11655.608     1000 
  300000   0.41599904    -2.599599   0.62337456   -1.9762245   0.12620286     11525.42     1000 
  302000   0.43468192   -2.6077318   0.65137086   -1.9563609   0.12927695      11550.6     1000 
  304000   0.41229562   -2.5754958   0.61782499   -1.9576709   0.14225809    11425.281     1000 
  306000   0.43822611   -2.5924374   0.65668182   -1.9357556   0.12859715    11447.184     1000 
  308000   0.43546214   -2.5721418   0.65254002   -1.9196018   0.13416944    11507.349     1000 
  310000    0.4126039   -2.5769106   0.61828694   -1.9586237   0.13937139    11524.128     1000 
  312000   0.42361062   -2.6020476   0.63478051   -1.9672671   0.13657238     11591.78     1000 
  314000    0.4279742   -2.6493466   0.64131934   -2.0080273   0.12002066     11627.91     1000 
  316000   0.43220468   -2.6247351   0.64765871   -1.9770764   0.12165425    11584.127     1000 
  318000    0.4424619   -2.5901044   0.66302915   -1.9270753   0.13790742    11499.745     1000 
  320000   0.41121485   -2.6096522   0.61620546   -1.9934468   0.14208617    11429.892     1000 
  322000   0.41846981   -2.5790641   0.62707701   -1.9519871   0.12060809    11625.049     1000 
  324000   0.41258116   -2.5813754   0.61825287   -1.9631225   0.12894832    11481.081     1000 
  326000   0.43663754   -2.5876157   0.65430135   -1.9333143   0.14069754    11426.418     1000 
  328000   0.43688537    -2.598969   0.65467272   -1.9442963   0.12030243    11621.215     1000 
  330000   0.43140777   -2.5684472   0.64646454   -1.9219827    0.1284745    11589.533     1000 
  332000   0.43109229   -2.5331941    0.6459918   -1.8872023   0.13195132    11507.085     1000 
  334000   0.44664236   -2.5948144   0.66929358   -1.9255208   0.12312656    11611.825     1000 
  336000   0.42393006   -2.5855793   0.63525919   -1.9503201   0.13028469    11506.467     1000 
  338000   0.42516807   -2.6151068   0.63711435   -1.9779925   0.14369964     11459.56     1000 
  340000   0.45343503   -2.6032473    0.6794724   -1.9237749   0.13396509    11527.199     1000 
  342000   0.43862515    -2.588023   0.65727978   -1.9307433   0.13361869    11550.794     1000 
  344000   0.42982639    -2.593443   0.64409485   -1.9493482   0.12514132    11574.053     1000 
  346000   0.43220838    -2.617471   0.64766426   -1.9698068    0.1312111     11519.09     1000 
  348000   0.44400152   -2.6138802   0.66533628   -1.9485439   0.14080946    11430.769     1000 
  350000   0.42631256   -2.6254337   0.63882937   -1.9866043   0.13538231    11492.149     1000 
  352000   0.42632567   -2.6023295   0.63884902   -1.9634805   0.14185475    11495.927     1000 
  354000   0.42971139   -2.6000179   0.64392252   -1.9560953   0.11930866    11656.221     1000 
  356000   0.42793455   -2.5707062   0.64125992   -1.9294462   0.12555725    11576.831     1000 
  358000   0.41872196   -2.5843321   0.62745486   -1.9568772   0.11988731    11565.598     1000 
  360000   0.43946038   -2.6039206   0.65853138   -1.9453893   0.13603331    11453.104     1000 
  362000   0.42769114   -2.5690559   0.64089518   -1.9281607   0.13159111    11424.933     1000 
  364000   0.45155499   -2.5956172   0.67665516    -1.918962   0.12245537    11545.388     1000 
  366000   0.43154852   -2.6202697   0.64667546   -1.9735942    0.1276558    11573.951     1000 
  368000   0.42681857   -2.5885913   0.63958762   -1.9490036   0.12195137    11565.612     1000 
  370000     0.435642   -2.6086488   0.65280954   -1.9558393   0.13207556    11527.648     1000 
  372000   0.43193921   -2.6042862   0.64726091   -1.9570253   0.13192769    11507.926     1000 
  374000   0.44748417   -2.6148223   0.67055503   -1.9442672   0.12613712    11634.512     1000 
  376000   0.43041936   -2.5646643   0.64498341   -1.9196809     0.119695    11643.249     1000 
  378000   0.42640386   -2.5976814   0.63896618   -1.9587152   0.12334374    11675.769     1000 
  380000   0.44357262   -2.5604575   0.66469357   -1.8957639   0.13415974    11578.289     1000 
  382000   0.42920265   -2.6285065   0.64316017   -1.9853463   0.13227529     11645.96     1000 
  384000   0.42370151   -2.5856031   0.63491671   -1.9506864   0.13797302    11350.903     1000 
  386000   0.42910097   -2.5313898    0.6430078    -1.888382   0.12902234    11584.399     1000 
  388000   0.42413638   -2.6131393   0.63556837   -1.9775709   0.12564284     11578.32     1000 
  390000    0.4330944   -2.5679609   0.64899195    -1.918969   0.12378349    11477.699     1000 
  392000   0.41873828   -2.5833618   0.62747931   -1.9558825   0.14111586    11419.257     1000 
  394000   0.41606669   -2.5570974   0.62347594   -1.9336215   0.12793065    11502.308     1000 
  396000   0.40945641   -2.5806305   0.61357043     -1.96706   0.13836989    11422.949     1000 
  398000   0.42092467   -2.5244989   0.63075562   -1.8937433   0.13942309    11421.706     1000 
  400000   0.42470365   -2.6037672   0.63641842   -1.9673487   0.13287108    11559.066     1000 
  402000   0.42353904   -2.6153756   0.63467325   -1.9807023    0.1339976    11442.546     1000 
  404000   0.42323715   -2.6096613   0.63422088   -1.9754404    0.1384175    11466.912     1000 
  406000   0.43463692   -2.6032258   0.65130342   -1.9519224   0.12111667    11654.135     1000 
  408000   0.41742935   -2.5074779   0.62551788   -1.8819601   0.12100035    11482.665     1000 
  410000    0.4217729   -2.6034201    0.6320267   -1.9713934   0.14317584    11417.806     1000 
  412000    0.4155104   -2.5714269   0.62264234   -1.9487846   0.15447825    11384.534     1000 
  414000   0.43056404   -2.5864439   0.64520021   -1.9412437   0.11376617    11644.424     1000 
  416000   0.41789949   -2.5913697   0.62622239   -1.9651473   0.10916776    11661.629     1000 
  418000   0.45138995   -2.6040133   0.67640785   -1.9276054    0.1221264    11641.881     1000 
  420000   0.43236096   -2.5449959   0.64789289   -1.8971031   0.13331281    11505.959     1000 
  422000   0.44780732    -2.599783   0.67103927   -1.9287438   0.12208188    11549.533     1000 
  424000    0.4236249   -2.6243957   0.63480191   -1.9895938   0.13442427    11637.729     1000 
  426000   0.43683282   -2.6110917   0.65459398   -1.9564977   0.11024278    11684.307     1000 
  428000   0.42949139   -2.5583151   0.64359285   -1.9147223   0.12712571    11642.927     1000 
  430000   0.40760693   -2.5803853   0.61079899   -1.9695863   0.12666905    11531.995     1000 
  432000   0.44169308   -2.5765036   0.66187709   -1.9146265   0.12638624     11568.83     1000 
  434000   0.41054188   -2.5991581     0.615197   -1.9839611   0.12987889    11436.785     1000 
  436000   0.43433858   -2.5876198   0.65085636   -1.9367634   0.12266808    11657.188     1000 
  438000   0.43782654    -2.547219   0.65608307   -1.8911359   0.12865726    11561.991     1000 
  440000   0.44736517   -2.5760957   0.67037671    -1.905719   0.12969646    11522.789     1000 
  442000    0.4348892   -2.6039457   0.65168147   -1.9522642   0.12061526    11517.551     1000 
  444000   0.44021366   -2.5427741   0.65966017   -1.8831139   0.12547684    11518.881     1000 
  446000   0.43519292   -2.5921592   0.65213659   -1.9400226    0.1259962    11579.821     1000 
  448000   0.41619692   -2.5850293   0.62367108   -1.9613582   0.11908529    11702.932     1000 
  450000   0.42209394   -2.5317883   0.63250777   -1.8992806   0.13251763    11403.871     1000 
  452000   0.45417119   -2.6023981   0.68057553   -1.9218225   0.12862307    11554.556     1000 
  454000   0.43428241   -2.6404068   0.65077219   -1.9896346   0.12754503    11521.363     1000 
  456000    0.4457036   -2.5840628   0.66788685    -1.916176   0.13934344    11514.705     1000 
  458000    0.4354245   -2.5690875   0.65248361   -1.9166039   0.13030176    11566.499     1000 
  460000   0.44326927   -2.6015807     0.664239   -1.9373417   0.13276548    11505.736     1000 
  462000   0.43060777   -2.5880582   0.64526575   -1.9427925   0.14713566     11354.36     1000 
  464000    0.4292668   -2.6128784   0.64325629   -1.9696221    0.1264334    11575.382     1000 
  466000   0.43167054   -2.6275969    0.6468583   -1.9807386   0.11965458    11624.584     1000 
  468000   0.42653583   -2.5568415   0.63916394   -1.9176776   0.13847408     11489.91     1000 
  470000    0.4194784   -2.6076731   0.62858838   -1.9790848   0.13928458    11619.127     1000 
  472000    0.4338785   -2.6072182   0.65016694   -1.9570513   0.12913576    11649.818     1000 
  474000   0.43427704   -2.6232145   0.65076415   -1.9724503   0.13649349    11373.562     1000 
  476000   0.43822987   -2.5592443   0.65668746   -1.9025568   0.15145262    11591.689     1000 
  478000   0.44841645   -2.6058972   0.67195205   -1.9339452   0.14210107    11478.333     1000 
  480000   0.44419113   -2.6368908   0.66562041   -1.9712704   0.13370959    11509.766     1000 
  482000   0.42631652   -2.6077262   0.63883531   -1.9688909   0.13216844    11539.616     1000 
  484000   0.44412475   -2.5989455   0.66552094   -1.9334246   0.13145413    11597.573     1000 
  486000    0.4239946   -2.6088566   0.63535591   -1.9735007    0.1440523    11431.387     1000 
  488000    0.4500829    -2.582192   0.67444923   -1.9077427   0.13770191    11524.304     1000 
  490000   0.43520623   -2.6181614   0.65215653   -1.9660048   0.12817472    11656.224     1000 
  492000    0.4449042   -2.6303401   0.66668895   -1.9636512    0.1242126    11601.452     1000 
  494000   0.42055299   -2.5807478   0.63019865   -1.9505491   0.12252062    11573.008     1000 
  496000   0.42271067   -2.5789879   0.63343194    -1.945556   0.13475267    11501.344     1000 
  498000   0.41905267   -2.5946364   0.62795042    -1.966686   0.13144049    11508.466     1000 
  500000   0.42137089   -2.6142371   0.63142429   -1.9828128   0.12489354    11590.462     1000 
  502000    0.4400649   -2.5606035   0.65943725   -1.9011662   0.12632535    11565.694     1000 
  504000   0.44839868   -2.5960994   0.67192543    -1.924174    0.1245253    11576.253     1000 
  506000   0.41472524   -2.5943818   0.62146577    -1.972916   0.13916076    11436.856     1000 
  508000   0.44932395   -2.5587426   0.67331194   -1.8854306   0.13219077    11584.165     1000 
  510000   0.44366615   -2.5752853   0.66483373   -1.9104516   0.12469281    11628.908     1000 
  512000   0.42060709   -2.5864132   0.63027972   -1.9561334    0.1436423    11397.372     1000 
  514000   0.43642278   -2.5985688   0.65397953   -1.9445892   0.13107348    11532.671     1000 
  516000    0.4416753   -2.5943589   0.66185044   -1.9325084   0.13270682    11550.415     1000 
  518000   0.41589098   -2.5586968   0.62321263   -1.9354842   0.13625687    11486.563     1000 
  520000   0.44404011   -2.6206753   0.66539411   -1.9552812   0.13435791    11559.353     1000 
  522000   0.42539847   -2.6317915   0.63745961   -1.9943319    0.1172987    11599.215     1000 
  524000   0.42951375   -2.6085956   0.64362636   -1.9649692   0.13318138    11645.388     1000 
  526000   0.43506595   -2.5575471   0.65194633   -1.9056008   0.12793594    11468.405     1000 
  528000   0.41987318   -2.5982383   0.62917996   -1.9690583    0.1262117    11550.334     1000 
  530000   0.43047113   -2.6118492   0.64506099   -1.9667883   0.15252464    11428.749     1000 
  532000   0.42953872   -2.5884351   0.64366377   -1.9447714   0.13712209    11521.759     1000 
  534000   0.43748566   -2.6254612   0.65557225    -1.969889   0.12285148    11652.987     1000 
  536000   0.43747986   -2.5831791   0.65556356   -1.9276155   0.13873728    11476.263     1000 
  538000   0.44443022   -2.6102341   0.66597869   -1.9442554   0.14828095    11421.595     1000 
  540000    0.4260255   -2.5675278   0.63839922   -1.9291286   0.14121167     11410.39     1000 
  542000   0.44331537   -2.5348049   0.66430809   -1.8704968   0.12382003    11530.316     1000 
  544000   0.42103852   -2.6529522   0.63092621   -2.0220259   0.12688311    11626.577     1000 
  546000   0.43408993   -2.6061072   0.65048377   -1.9556235   0.13443402    11519.178     1000 
  548000   0.43464768   -2.5587272   0.65131955   -1.9074077   0.12720261    11517.145     1000 
  550000   0.44967887   -2.5669945   0.67384379   -1.8931507   0.12860091      11420.8     1000 
  552000   0.43607164   -2.5750662   0.65345336   -1.9216129   0.14122304    11530.509     1000 
  554000   0.41842487    -2.597076   0.62700966   -1.9700663    0.1310377    11477.458     1000 
  556000   0.43100959   -2.6008164   0.64586787   -1.9549485    0.1334309    11559.748     1000 
  558000   0.43892913   -2.5714334    0.6577353   -1.9136981   0.14334988    11445.621     1000 
  560000   0.43677334   -2.5806013   0.65450485   -1.9260965   0.12676228    11532.268     1000 
  562000   0.44337299   -2.6252726   0.66439442   -1.9608782    0.1214958    11723.366     1000 
  564000   0.41331649   -2.6410944   0.61935476   -2.0217397   0.12303254    11595.844     1000 
  566000   0.42770628   -2.5711587   0.64091786   -1.9302408   0.13244068    11479.434     1000 
  568000   0.43148883    -2.635353   0.64658602    -1.988767   0.13686368    11592.214     1000 
  570000   0.43817686   -2.5978626   0.65660802   -1.9412546   0.14204951     11564.52     1000 
  572000   0.41200942   -2.5989279   0.61739612   -1.9815317   0.11851083    11618.888     1000 
  574000   0.43564567    -2.598856   0.65281503    -1.946041   0.13091797    11575.234     1000 
  576000    0.4269037   -2.5685838   0.63971519   -1.9288686   0.13482763    11456.149     1000 
  578000   0.41536134   -2.5989246   0.62241897   -1.9765056    0.1379113    11477.741     1000 
  580000   0.44281542   -2.6173405   0.66355891   -1.9537815   0.12353141    11689.987     1000 
  582000    0.4305382   -2.5980497    0.6451615   -1.9528882   0.12947515    11419.625     1000 
  584000   0.42832756   -2.5423377   0.64184885   -1.9004888   0.12739886    11516.083     1000 
  586000   0.44629527   -2.6132105   0.66877346   -1.9444371   0.12554285    11588.804     1000 
  588000   0.43532786   -2.5841946    0.6523388   -1.9318558   0.12789119     11619.57     1000 
  590000   0.43883068   -2.5686567   0.65758778   -1.9110689   0.12483201    11536.276     1000 
  592000   0.42732731   -2.5757832   0.64034998   -1.9354332   0.14172658    11433.327     1000 
  594000   0.44480159   -2.6022892   0.66653519    -1.935754   0.14569322    11516.185     1000 
  596000    0.4371827   -2.6104547   0.65511828   -1.9553364   0.12573722     11585.67     1000 
  598000   0.41052674   -2.5932776   0.61517432   -1.9781033   0.12552155    11730.763     1000 
  600000   0.43020295   -2.6234218   0.64465913   -1.9787627   0.13163047    11614.292     1000 
  602000   0.42393732   -2.5777634   0.63527007   -1.9424933   0.13372742    11545.686     1000 
  604000   0.42566811   -2.6314748   0.63786366   -1.9936111   0.13053272    11552.269     1000 
  606000   0.41837057   -2.5466864    0.6269283   -1.9197581   0.11852469    11492.872     1000 
  608000   0.43198237   -2.6265688   0.64732558   -1.9792432   0.14239673    11500.877     1000 
  610000   0.42280933   -2.5946685   0.63357978   -1.9610887   0.13385941    11538.433     1000 
  612000   0.42930769    -2.570443   0.64331757   -1.9271255   0.13376258    11440.526     1000 
  614000    0.4146108   -2.5885092   0.62129428   -1.9672149   0.12862714    11476.669     1000 
  616000   0.40557683   -2.6064017   0.60775688   -1.9986448   0.12123512    11640.425     1000 
  618000   0.44756623   -2.6212476   0.67067799   -1.9505696   0.13952493    11463.506     1000 
  620000   0.43052801   -2.6080945   0.64514622   -1.9629483    0.1327761    11576.852     1000 
  622000   0.43713847   -2.5992663     0.655052   -1.9442143   0.15334382    11486.914     1000 
  624000   0.42280845   -2.6105433   0.63357846   -1.9769648   0.13049064    11551.176     1000 
  626000   0.42680055   -2.5785297   0.63956063    -1.938969     0.120084    11583.084     1000 
  628000   0.41366651   -2.6022771   0.61987926   -1.9823978   0.13197151    11604.666     1000 
  630000   0.42967469   -2.6092077   0.64386753   -1.9653402   0.12614833    11528.532     1000 
  632000   0.42261461   -2.6074902   0.63328799   -1.9742022   0.13112959    11550.168     1000 
  634000   0.44752774   -2.5617047   0.67062031   -1.8910844   0.11760127    11626.182     1000 
  636000   0.43489522   -2.6323848   0.65169048   -1.9806943   0.12425808    11577.992     1000 
  638000   0.41792166   -2.5699926   0.62625561    -1.943737    0.1212828    11473.692     1000 
  640000   0.41916131   -2.6182167   0.62811322   -1.9901035   0.13099521    11466.065     1000 
  642000   0.43506164   -2.6053693   0.65193986   -1.9534294   0.12451607     11605.44     1000 
  644000   0.41238401   -2.6120052   0.61795744   -1.9940478   0.12764861    11531.089     1000 
  646000   0.42812556    -2.578187   0.64154615   -1.9366408   0.13089772     11498.37     1000 
  648000   0.42347771    -2.574083   0.63458135   -1.9395016   0.14256482    11478.281     1000 
  650000   0.45349158   -2.6372963   0.67955714   -1.9577392   0.12985944    11586.012     1000 
  652000   0.44248741   -2.5867394   0.66306738    -1.923672   0.12792409    11559.963     1000 
  654000   0.42125507   -2.5946105   0.63125073   -1.9633598   0.13423376    11581.196     1000 
  656000   0.42895627   -2.6066768   0.64279096   -1.9638858   0.11914613    11633.517     1000 
  658000   0.42972756   -2.5956142   0.64394675   -1.9516675   0.12943917    11568.421     1000 
  660000     0.436868   -2.5654067    0.6546467     -1.91076   0.11940409    11575.568     1000 
  662000   0.43325412    -2.604543    0.6492313   -1.9553117   0.12644158    11531.829     1000 
  664000   0.42836431      -2.6309   0.64190392   -1.9889961   0.13620422     11492.69     1000 
  666000   0.43061664    -2.578236   0.64527904    -1.932957   0.12182816    11658.517     1000 
  668000   0.43641615    -2.586993    0.6539696   -1.9330234   0.14575356    11305.387     1000 
  670000   0.42248827   -2.6049897   0.63309867    -1.971891   0.12538238    11517.536     1000 
  672000    0.4282423   -2.5959199   0.64172109   -1.9541988   0.13064505    11547.061     1000 
  674000   0.41445558   -2.6115943   0.62106169   -1.9905326    0.1169269    11516.079     1000 
  676000   0.42834628   -2.5766549   0.64187689    -1.934778   0.12575595    11540.906     1000 
  678000   0.41046529   -2.6191609   0.61508223   -2.0040787   0.10942475    11685.953     1000 
  680000   0.43853698   -2.6148925   0.65714767   -1.9577449   0.11661569     11566.36     1000 
  682000   0.44606747    -2.624001    0.6684321   -1.9555689    0.1360768    11571.266     1000 
  684000   0.42203458   -2.5449359   0.63241882   -1.9125171   0.13817699    11476.136     1000 
  686000   0.42164387    -2.576014   0.63183333   -1.9441806   0.13688238    11546.097     1000 
  688000   0.43705905   -2.6345198   0.65493299   -1.9795868   0.12829744    11610.065     1000 
  690000   0.41578255   -2.5938433   0.62305014   -1.9707932   0.13176347    11416.308     1000 
  692000   0.44539263   -2.5828561   0.66742086   -1.9154352   0.13754181    11478.518     1000 
  694000   0.41640281   -2.5524869    0.6239796   -1.9285073   0.12158464    11554.534     1000 
  696000    0.4430781   -2.6149944   0.66395254   -1.9510419   0.12544147    11594.463     1000 
  698000   0.43648727   -2.5823255   0.65407618   -1.9282493   0.11329453    11648.437     1000 
  700000   0.42730691    -2.604742   0.64031941   -1.9644226    0.1281142    11648.016     1000 
  702000   0.42517881   -2.6048354   0.63713045    -1.967705   0.12524081    11642.544     1000 
  704000   0.44597299   -2.5972725   0.66829052    -1.928982   0.12437281    11547.242     1000 
  706000    0.4423837   -2.5924881   0.66291197   -1.9295761   0.13582987    11627.179     1000 
  708000   0.42956317   -2.6444301   0.64370042   -2.0007297   0.12147833    11710.083     1000 
  710000   0.43275467   -2.6059013   0.64848288   -1.9574184   0.13761805     11393.28     1000 
  712000   0.43401755   -2.5857427   0.65037529   -1.9353675   0.13858302     11571.34     1000 
  714000    0.4447886   -2.6003063   0.66651572   -1.9337906   0.14066462      11539.2     1000 
  716000   0.43396352   -2.5786154   0.65029434    -1.928321   0.12776078     11509.98     1000 
  718000   0.42911693   -2.5753577   0.64303172    -1.932326    0.1330295    11588.291     1000 
  720000   0.41971723   -2.5935099   0.62894627   -1.9645636   0.13583434     11470.12     1000 
  722000    0.4290311   -2.5634498    0.6429031   -1.9205467   0.12854887    11566.182     1000 
  724000   0.41993293   -2.5829211   0.62926949   -1.9536517   0.14009792     11460.24     1000 
  726000   0.41864686   -2.5774553   0.62734231    -1.950113   0.12782534    11483.431     1000 
  728000   0.44206719   -2.6312703   0.66243769   -1.9688326   0.12033215     11579.68     1000 
  730000   0.43189292    -2.611103   0.64719154   -1.9639115   0.12978917     11571.93     1000 
  732000   0.42203147   -2.6283385   0.63241415   -1.9959244   0.14086601    11602.392     1000 
  734000   0.42726465   -2.6188943   0.64025608   -1.9786383   0.13200735    11593.866     1000 
  736000   0.42822676   -2.5992811   0.64169779   -1.9575833   0.13035317    11461.279     1000 
  738000   0.42856614   -2.5883713   0.64220636   -1.9461649   0.14757574    11468.542     1000 
  740000   0.42765218   -2.6331194   0.64083679   -1.9922826   0.13074109    11677.883     1000 
  742000   0.42297555   -2.6187821   0.63382886   -1.9849532    0.1299404    11561.298     1000 
  744000   0.43713029   -2.5995115   0.65503973   -1.9444717   0.13504783    11530.954     1000 
  746000   0.43385646   -2.6166324   0.65013391   -1.9664985   0.12275537    11625.465     1000 
  748000   0.43017319   -2.5489855   0.64461452    -1.904371   0.13686184    11495.718     1000 
  750000   0.42333254    -2.614743    0.6343638   -1.9803792   0.13230196    11497.932     1000 
  752000   0.44280993   -2.5429523   0.66355067   -1.8794016    0.1475367     11476.49     1000 
  754000   0.43279526   -2.6241523    0.6485437   -1.9756086   0.12478032    11667.162     1000 
  756000   0.40797931   -2.5993417   0.61135699   -1.9879847   0.13346237    11463.954     1000 
  758000   0.43718665   -2.6575889   0.65512419   -2.0024647   0.13207021      11603.9     1000 
  760000   0.43092582   -2.5874279   0.64574234   -1.9416856   0.13642285    11439.224     1000 
  762000   0.43215421   -2.6100521   0.64758308    -1.962469   0.12812252     11570.87     1000 
  764000   0.44120456   -2.6127349   0.66114503   -1.9515898   0.12194185    11618.749     1000 
  766000   0.44006098   -2.5590402   0.65943137   -1.8996089   0.13011933    11628.578     1000 
  768000   0.43101537   -2.5902671   0.64587654   -1.9443906   0.13757433    11510.053     1000 
  770000   0.44340598   -2.6183767   0.66444387   -1.9539328   0.13446505    11522.621     1000 
  772000   0.42917425   -2.5886245   0.64311762   -1.9455068   0.12889125    11497.407     1000 
  774000   0.42689343   -2.5883266    0.6396998   -1.9486268   0.14099321     11518.68     1000 
  776000   0.44662262   -2.5988966   0.66926399   -1.9296326   0.12999903    11546.598     1000 
  778000   0.42569556   -2.6031653   0.63790479   -1.9652605    0.1186174    11611.252     1000 
  780000   0.42381403   -2.5541813   0.63508533    -1.919096   0.13547905    11533.112     1000 
  782000   0.41199065   -2.5712609   0.61736799   -1.9538929   0.13072566    11503.424     1000 
  784000   0.43478976   -2.5629541   0.65153246   -1.9114216   0.13235143    11517.616     1000 
  786000   0.41044134   -2.5748568   0.61504634   -1.9598104    0.1351809    11533.691     1000 
  788000   0.42369817   -2.5746813    0.6349117   -1.9397696   0.11991577    11561.009     1000 
  790000   0.43171777   -2.5919697   0.64692908   -1.9450407   0.13410562    11524.318     1000 
  792000   0.42980961   -2.5865857    0.6440697    -1.942516    0.1446762     11488.54     1000 
  794000   0.42449575   -2.6131755   0.63610688   -1.9770686   0.13217278    11610.945     1000 
  796000   0.42793929   -2.6007259   0.64126703   -1.9594589   0.13231123    11493.992     1000 
  798000   0.41998975   -2.5817413   0.62935464   -1.9523867   0.13040635    11527.078     1000 
  800000   0.44661369   -2.5460802   0.66925061   -1.8768295   0.12511848    11574.201     1000 
  802000    0.4389313   -2.6040171   0.65773856   -1.9462786    0.1331497    11550.145     1000 
  804000   0.42484825   -2.5771589    0.6366351   -1.9405238   0.13109278    11598.481     1000 
  806000   0.40607288   -2.5719747   0.60850021   -1.9634745   0.13252679     11502.17     1000 
  808000   0.41640381   -2.5848363   0.62398111   -1.9608552   0.12861869    11641.199     1000 
  810000   0.44021847   -2.5742564   0.65966737    -1.914589   0.13681742    11602.639     1000 
  812000   0.43406643    -2.566749   0.65044855   -1.9163005    0.1252752    11504.997     1000 
  814000   0.42233961   -2.6033262   0.63287591   -1.9704503   0.11256394    11732.982     1000 
  816000   0.43127894   -2.6109948   0.64627149   -1.9647233   0.13156033     11549.15     1000 
  818000   0.40706683   -2.6136623   0.60998964   -2.0036726   0.12650229    11620.387     1000 
  820000   0.41972404   -2.5926456   0.62895647   -1.9636891   0.12896843    11500.623     1000 
  822000    0.4361677   -2.6278804    0.6535973   -1.9742831    0.1168234     11724.64     1000 
  824000   0.43086754   -2.5383487   0.64565501   -1.8926937    0.1286392    11499.569     1000 
  826000   0.41896674   -2.5736299   0.62782166   -1.9458082   0.13346204    11605.205     1000 
  828000   0.43858954   -2.5897725   0.65722643    -1.932546   0.12472109    11552.942     1000 
  830000   0.42629989   -2.5924274   0.63881039    -1.953617   0.12094353    11647.449     1000 
  832000   0.41291687   -2.5383954   0.61875593   -1.9196395   0.14123002    11306.726     1000 
  834000   0.44812811   -2.5699761   0.67151998   -1.8984562   0.12675782    11551.451     1000 
  836000   0.42924255   -2.6029612   0.64321996   -1.9597413   0.12074635    11655.759     1000 
  838000   0.44498516   -2.5622916   0.66681027   -1.8954813   0.13920089    11433.145     1000 
  840000   0.43745654    -2.598594   0.65552862   -1.9430654     0.131649    11481.284     1000 
  842000   0.43624239   -2.6181423   0.65370923    -1.964433   0.14021969    11505.578     1000 
  844000   0.42675218   -2.6104166   0.63948814   -1.9709285   0.13036244    11584.544     1000 
  846000   0.44455641   -2.6312281   0.66616778   -1.9650603   0.13543552    11640.847     1000 
  848000   0.42325124     -2.59466   0.63424199    -1.960418   0.13401903    11524.489     1000 
  850000   0.41089532   -2.6013239   0.61572664   -1.9855973   0.11771534    11562.466     1000 
  852000   0.43665464   -2.5921618   0.65432698   -1.9378348   0.11102409    11621.114     1000 
  854000   0.41687437   -2.6262274   0.62468625   -2.0015411   0.11982128    11625.092     1000 
  856000   0.43153276   -2.5965954   0.64665185   -1.9499436   0.12596713     11629.24     1000 
  858000   0.43284739   -2.5966572   0.64862181   -1.9480354   0.13694201    11499.779     1000 
  860000   0.41479151   -2.5796218   0.62156508   -1.9580567    0.1267265    11498.952     1000 
  862000   0.44271809   -2.5753909   0.66341306   -1.9119778   0.13367961     11578.44     1000 
  864000   0.43733927   -2.5459916   0.65535289   -1.8906387   0.13910887    11478.262     1000 
  866000   0.44318319    -2.606295   0.66411001    -1.942185   0.12479694    11598.209     1000 
  868000   0.42718125   -2.5629532    0.6401311   -1.9228221   0.13431472    11502.515     1000 
  870000   0.44792553   -2.5804757   0.67121641   -1.9092593   0.14059774    11659.438     1000 
  872000   0.42051642   -2.6022509   0.63014386   -1.9721071   0.15065289    11479.614     1000 
  874000   0.42643485   -2.5744727   0.63901263   -1.9354601   0.14185249    11430.166     1000 
  876000   0.42564708   -2.5401105   0.63783215   -1.9022784   0.13277486    11541.808     1000 
  878000   0.43312221   -2.5959195   0.64903363   -1.9468859   0.12498163    11583.044     1000 
  880000   0.43016734   -2.5977591   0.64460576   -1.9531533   0.13486566    11495.108     1000 
  882000   0.42881228   -2.6231356    0.6425752   -1.9805604   0.13680721    11609.048     1000 
  884000   0.42543318     -2.62067   0.63751162   -1.9831584   0.14102935    11430.451     1000 
  886000    0.4145113   -2.6068052   0.62114519     -1.98566   0.12173334    11617.009     1000 
  888000    0.4192618   -2.5653023   0.62826381   -1.9370384   0.12281591     11449.51     1000 
  890000   0.42265698   -2.6482045   0.63335148    -2.014853   0.12003752    11683.831     1000 
  892000   0.42853194   -2.6175568   0.64215511   -1.9754017   0.11829458    11698.608     1000 
  894000   0.44113213   -2.5853856    0.6610365   -1.9243491   0.13077731    11485.839     1000 
  896000   0.41778877   -2.6104913   0.62605648   -1.9844349   0.14592647    11449.814     1000 
  898000   0.42446692   -2.5951304   0.63606367   -1.9590667   0.12875461    11623.555     1000 
  900000   0.41897938   -2.5865183    0.6278406   -1.9586777   0.13102437    11584.201     1000 
  902000   0.43710792   -2.6224294   0.65500622   -1.9674232   0.13309938     11574.18     1000 
  904000   0.41043527   -2.5743293   0.61503726    -1.959292   0.13019341    11542.825     1000 
  906000   0.43086409   -2.6100662   0.64564983   -1.9644164   0.11185576    11657.771     1000 
  908000   0.42202667   -2.5990724   0.63240697   -1.9666654   0.13687936    11531.661     1000 
  910000   0.43774744   -2.6097684   0.65596454   -1.9538039   0.11947497    11632.307     1000 
  912000   0.43697173   -2.5858577   0.65480214   -1.9310556   0.11568939    11716.846     1000 
  914000   0.43697485   -2.5684961   0.65480681   -1.9136893   0.13170283     11525.44     1000 
  916000   0.42699028   -2.6049052   0.63984494   -1.9650602   0.11697953    11691.853     1000 
  918000   0.42902946   -2.6276017   0.64290065    -1.984701    0.1324349    11488.445     1000 
  920000   0.42793021   -2.5584494   0.64125341    -1.917196   0.12977311    11500.682     1000 
  922000   0.43109189   -2.6265754   0.64599119   -1.9805842   0.13617658    11534.876     1000 
  924000   0.44174264   -2.6121925   0.66195134   -1.9502412   0.14563463    11519.406     1000 
  926000   0.44770681   -2.6258893   0.67088866   -1.9550007   0.12864823    11534.015     1000 
  928000   0.43835199   -2.5996355   0.65687046   -1.9427651    0.1357256    11538.723     1000 
  930000   0.43392173   -2.5821576   0.65023172   -1.9319259   0.13814388    11550.276     1000 
  932000   0.43454226     -2.59245   0.65116158   -1.9412885   0.12200386    11564.409     1000 
  934000   0.41008949   -2.6055785   0.61451911   -1.9910594   0.10128031    11694.369     1000 
  936000   0.42369624   -2.6223339   0.63490882   -1.9874251   0.12688098    11625.597     1000 
  938000   0.43195575   -2.5585322    0.6472857   -1.9112465    0.1322749      11583.9     1000 
  940000   0.44277989   -2.6034775   0.66350567   -1.9399718   0.11487499    11687.788     1000 
  942000   0.41367994   -2.5746121   0.61989938   -1.9547127   0.12938372    11440.702     1000 
  944000   0.42425772    -2.607503    0.6357502   -1.9717528   0.12268934    11558.313     1000 
  946000   0.42913981   -2.6282294     0.643066   -1.9851634    0.1208417    11623.204     1000 
  948000   0.42623173   -2.6370798   0.63870825   -1.9983715   0.13128603    11600.537     1000 
  950000   0.42590692   -2.5778877   0.63822152   -1.9396662   0.13147551    11481.426     1000 
  952000   0.43249197   -2.6094188   0.64808921   -1.9613296    0.1352152    11514.313     1000 
  954000   0.41766217   -2.5897719   0.62586676   -1.9639051   0.12903222    11562.529     1000 
  956000   0.42110836   -2.5925583   0.63103088   -1.9615274   0.13242743    11582.606     1000 
  958000   0.42351973   -2.5757238   0.63464432   -1.9410795    0.1288662    11512.757     1000 
  960000   0.43124812   -2.5831654    0.6462253   -1.9369401   0.13660903    11433.942     1000 
  962000   0.44902116   -2.5766668    0.6728582   -1.9038086   0.11640071    11685.323     1000 
  964000   0.45034812   -2.5809197   0.67484665    -1.906073   0.13946499    11437.806     1000 
  966000   0.43414304   -2.5957637   0.65056334   -1.9452003   0.13397238    11540.696     1000 
  968000   0.42743487   -2.5754461   0.64051115    -1.934935   0.11842272    11563.469     1000 
  970000   0.43601517   -2.6307913   0.65336873   -1.9774226   0.12864996    11672.382     1000 
  972000   0.43201605   -2.5747676   0.64737606   -1.9273915   0.13112593      11455.3     1000 
  974000   0.42478373   -2.5765551   0.63653842   -1.9400167    0.1211278    11570.587     1000 
  976000   0.42570862   -2.5758229   0.63792437   -1.9378985   0.12043355     11749.68     1000 
  978000    0.4290937    -2.607642    0.6429969   -1.9646451   0.14206682    11403.378     1000 
  980000   0.43458909   -2.6599696   0.65123175   -2.0087379   0.11092701    11725.524     1000 
  982000   0.42197529   -2.5992455   0.63232998   -1.9669156   0.12594283    11496.816     1000 
  984000   0.42691204    -2.600815    0.6397277   -1.9610873   0.11686152      11614.5     1000 
  986000   0.41921475   -2.6262416    0.6281933   -1.9980483   0.12786166     11524.59     1000 
  988000    0.4522268   -2.5516639   0.67766186    -1.874002   0.15681011    11415.889     1000 
  990000   0.42695467   -2.6373591   0.63979157   -1.9975675   0.11838132    11671.372     1000 
  992000   0.43946876   -2.5740675   0.65854394   -1.9155236   0.13834084    11432.476     1000 
  994000   0.42599569   -2.5560834   0.63835455   -1.9177289   0.13918515    11557.062     1000 
  996000   0.43892922   -2.5832006   0.65773544   -1.9254652   0.13111025    11630.556     1000 
  998000   0.41830887   -2.6128604   0.62683585   -1.9860245   0.11666946    11701.308     1000 
 1000000   0.42969657   -2.5852047   0.64390031   -1.9413044    0.1234731    11631.472     1000 
 1002000   0.44176669   -2.6190325   0.66198739   -1.9570451   0.13105794    11574.165     1000 
 1004000   0.44215872   -2.6200821   0.66257484   -1.9575073   0.12737787    11649.371     1000 
 1006000   0.41341791   -2.6170281   0.61950674   -1.9975214   0.11329758      11726.6     1000 
 1008000   0.43938539   -2.6320277   0.65841901   -1.9736087   0.13263097    11577.675     1000 
 1010000   0.44820828   -2.5548393   0.67164011   -1.8831992   0.11902239     11609.42     1000 
 1012000   0.44231708    -2.567851   0.66281214   -1.9050388    0.1267548     11553.08     1000 
 1014000    0.4163753   -2.6144031   0.62393839   -1.9904647   0.13611134    11583.535     1000 
 1016000   0.44339746    -2.625092    0.6644311   -1.9606609   0.11822647    11699.001     1000 
 1018000   0.42747748   -2.6101494     0.640575   -1.9695744   0.12486431     11682.25     1000 
 1020000   0.43635784   -2.6287149   0.65388223   -1.9748327    0.1341601    11493.564     1000 
 1022000    0.4196456   -2.5927039   0.62883893    -1.963865   0.13562362    11443.036     1000 
 1024000   0.43710709   -2.5799631   0.65500498   -1.9249582   0.13730692    11490.633     1000 
 1026000   0.43266996    -2.598134   0.64835594    -1.949778   0.12419338    11564.333     1000 
 1028000   0.43916754     -2.55106   0.65809255   -1.8929675   0.13667363    11485.402     1000 
 1030000   0.41981502   -2.5757173   0.62909281   -1.9466244   0.12321985    11604.878     1000 
 1032000   0.45218409   -2.5697404   0.67759786   -1.8921426   0.12837972    11518.648     1000 
 1034000    0.4171587   -2.6124236   0.62511231   -1.9873112   0.12812864    11667.797     1000 
 1036000   0.41789806   -2.6051191   0.62622025   -1.9788989    0.1306803    11544.686     1000 
 1038000   0.44604817   -2.5771803   0.66840318   -1.9087771   0.13008801    11451.696     1000 
 1040000   0.43037249   -2.6093432   0.64491317     -1.96443   0.13489766    11451.986     1000 
 1042000   0.41644287   -2.6133551   0.62403965   -1.9893155   0.12252863    11615.308     1000 
 1044000    0.4194097   -2.5970995   0.62848543    -1.968614   0.11876319    11632.396     1000 
 1046000   0.42829244   -2.6127905   0.64179622   -1.9709943    0.1321911    11526.472     1000 
 1048000   0.42275551   -2.5902148   0.63349913   -1.9567157   0.12904116    11465.867     1000 
 1050000   0.40999977   -2.5519088   0.61438465   -1.9375242   0.12666481    11510.904     1000 
 1052000   0.41585286   -2.6025421    0.6231555   -1.9793866   0.12942527    11595.834     1000 
 1054000   0.43192029   -2.6245089   0.64723256   -1.9772764   0.13058839    11632.198     1000 
 1056000   0.41600413   -2.5807707   0.62338219   -1.9573885   0.12328998    11531.271     1000 
 1058000   0.41125609   -2.5765672   0.61626724   -1.9602999   0.13350809    11451.041     1000 
 1060000   0.43066164   -2.5938411   0.64534647   -1.9484946   0.13554648    11531.647     1000 
 1062000   0.41882905   -2.5493273   0.62761533    -1.921712   0.13398121    11504.667     1000 
 1064000   0.42552088   -2.5863209   0.63764303   -1.9486779   0.12093851    11507.287     1000 
 1066000   0.41380321   -2.6155912   0.62008411   -1.9955071   0.12617586    11595.693     1000 
 1068000   0.43384666   -2.5147271   0.65011923   -1.8646079   0.13250415    11548.791     1000 
 1070000   0.42051366   -2.6004448   0.63013972   -1.9703051   0.13383196    11525.065     1000 
 1072000   0.42900701   -2.5704594     0.642867   -1.9275924   0.13302927    11485.845     1000 
 1074000    0.3961766    -2.555214   0.59367063   -1.9615433   0.11744338    11585.116     1000 
 1076000   0.41043606   -2.5902383   0.61503844   -1.9751998   0.12405368    11566.762     1000 
 1078000   0.44044183   -2.6082739   0.66000208   -1.9482718   0.12277097     11563.72     1000 
 1080000   0.43164805   -2.5329723    0.6468246   -1.8861477   0.12846015    11545.064     1000 
 1082000   0.41507052   -2.6388086   0.62198317   -2.0168254   0.13800881    11509.983     1000 
 1084000   0.42555363   -2.6365862   0.63769211   -1.9988941   0.12001751    11767.908     1000 
 1086000   0.43916802   -2.5802867   0.65809328   -1.9221934   0.12580946      11577.5     1000 
 1088000   0.44611704   -2.5673088   0.66850639   -1.8988024   0.11787881     11532.44     1000 
 1090000   0.43361449   -2.5925753   0.64977131    -1.942804   0.12667728    11547.874     1000 
 1092000   0.43022778   -2.6095189   0.64469633   -1.9648225   0.12512455    11591.305     1000 
 1094000   0.42408305   -2.6390154   0.63548845   -2.0035269   0.12012737    11670.321     1000 
 1096000   0.42292572    -2.617619   0.63375418   -1.9838648   0.12524463    11657.518     1000 
 1098000   0.41991166   -2.5735332   0.62923763   -1.9442956   0.13452779    11530.009     1000 
 1100000   0.43440211   -2.5928319   0.65095156   -1.9418804   0.14706144    11488.853     1000 
 1102000   0.41630466   -2.5871311   0.62383254   -1.9632986   0.12109589    11662.383     1000 
 1104000   0.45863456   -2.6037421   0.68726389   -1.9164782   0.13309526    11490.967     1000 
 1106000   0.42508102   -2.5901548   0.63698391   -1.9531709   0.12888146    11623.613     1000 
 1108000   0.43165387   -2.5907738   0.64683333   -1.9439404   0.13043786    11660.848     1000 
 1110000   0.45065038   -2.6165246   0.67529959    -1.941225   0.14441271    11529.804     1000 
 1112000   0.42486925   -2.5593995   0.63666657   -1.9227329   0.12253101    11688.549     1000 
 1114000   0.41731803   -2.6609686   0.62535107   -2.0356175   0.12579843    11632.003     1000 
 1116000   0.42317834   -2.6066602   0.63413275   -1.9725274   0.12415606    11644.281     1000 
 1118000   0.43505902   -2.5902356   0.65193594   -1.9382997   0.11641072     11627.48     1000 
 1120000   0.42612605   -2.5426034   0.63854988   -1.9040536   0.11840921    11511.057     1000 
 1122000   0.40832298   -2.5862135   0.61187199   -1.9743415   0.11647476    11642.201     1000 
 1124000   0.41196749   -2.6053341   0.61733328   -1.9880009   0.12861332    11504.005     1000 
 1126000   0.41714759   -2.6121854   0.62509567   -1.9870897    0.1315964    11519.455     1000 
 1128000    0.4232851   -2.5432849   0.63429272   -1.9089922    0.1396424    11572.954     1000 
 1130000   0.43107737    -2.568024   0.64596944   -1.9220546   0.12378416    11589.145     1000 
 1132000   0.42178172   -2.5882426   0.63203991   -1.9562027   0.11832697    11580.761     1000 
 1134000   0.42460296   -2.5718047   0.63626754   -1.9355372   0.14012495    11519.994     1000 
 1136000   0.43131278   -2.5762476    0.6463222   -1.9299254   0.12318968    11544.695     1000 
 1138000    0.4306029   -2.5701075   0.64525845    -1.924849   0.12908277    11586.648     1000 
 1140000   0.43645081   -2.5955949   0.65402154   -1.9415734    0.1240538    11692.095     1000 
 1142000   0.43018255   -2.6040801   0.64462855   -1.9594516   0.12816378    11629.355     1000 
 1144000   0.43736423    -2.581588   0.65539029   -1.9261977   0.12269214    11562.398     1000 
 1146000   0.43473855   -2.5916186   0.65145571   -1.9401629   0.13106958    11459.736     1000 
 1148000    0.4399545   -2.5575062   0.65927183   -1.8982344   0.12198043    11604.913     1000 
 1150000   0.43749125   -2.5673926   0.65558064    -1.911812   0.11971698    11629.551     1000 
 1152000   0.44247192   -2.6016267   0.66304418   -1.9385825   0.13924231    11458.553     1000 
 1154000   0.41487902   -2.5863546   0.62169622   -1.9646584    0.1255254    11482.587     1000 
 1156000   0.43394627   -2.6122071   0.65026848   -1.9619387   0.13714849    11577.364     1000 
 1158000   0.41452282   -2.5873424   0.62116245     -1.96618   0.13714411    11495.097     1000 
 1160000   0.41544935   -2.6274479   0.62255085   -2.0048971   0.12104558    11611.279     1000 
 1162000   0.41699606   -2.5729583    0.6248686   -1.9480897   0.13139233    11505.194     1000 
 1164000   0.42840729   -2.6017507   0.64196833   -1.9597824   0.12473774    11638.804     1000 
 1166000   0.42497269   -2.6062071   0.63682157   -1.9693855    0.1335613    11529.228     1000 
 1168000   0.43186412   -2.5853302   0.64714839   -1.9381818   0.13591462     11501.14     1000 
 1170000   0.42009863   -2.5808484    0.6295178   -1.9513306   0.12673511    11532.681     1000 
 1172000   0.44010058   -2.5752498   0.65949072   -1.9157591   0.13225112    11590.248     1000 
 1174000   0.43672624   -2.5432269   0.65443426   -1.8887926   0.15247015    11363.572     1000 
 1176000     0.412624   -2.5543989   0.61831707   -1.9360818   0.12382634    11542.907     1000 
 1178000   0.41568098   -2.6057782   0.62289794   -1.9828802   0.12227127    11531.159     1000 
 1180000   0.42882745   -2.5649214   0.64259793   -1.9223235   0.12924834    11550.004     1000 
 1182000   0.41413543   -2.5861979   0.62058194    -1.965616   0.13114282    11489.391     1000 
 1184000   0.43900088   -2.6277506   0.65784281   -1.9699077   0.13916308    11589.126     1000 
 1186000   0.42284546   -2.5802616   0.63363393   -1.9466277   0.12284339    11541.968     1000 
 1188000   0.42291309   -2.5632345   0.63373526   -1.9294992   0.11998484    11585.608     1000 
 1190000   0.43335864   -2.5997742   0.64938792   -1.9503863   0.13839662    11479.672     1000 
 1192000   0.42483202   -2.5908509   0.63661079   -1.9542401   0.13409803    11559.892     1000 
 1194000   0.44424044   -2.5643757    0.6656943   -1.8986814   0.13393532     11473.32     1000 
 1196000   0.42077809   -2.5722046   0.63053597   -1.9416687   0.13094386    11515.926     1000 
 1198000    0.4389761   -2.5795115   0.65780569   -1.9217058   0.11692541     11640.91     1000 
 1200000   0.43050766   -2.6141641   0.64511573   -1.9690484   0.14013592    11501.772     1000 
 1202000   0.40294513   -2.5940205   0.60381328   -1.9902072    0.1356815    11507.042     1000 
 1204000    0.4104611   -2.5806903   0.61507595   -1.9656144   0.12985352    11592.048     1000 
 1206000   0.44079721   -2.5316628   0.66053462   -1.8711282   0.12899682     11581.19     1000 
 1208000   0.44419407   -2.5904422   0.66562482   -1.9248174   0.12094169    11608.273     1000 
 1210000   0.42063853   -2.6014446   0.63032684   -1.9711178   0.13000196    11504.074     1000 
 1212000   0.42436903   -2.5911977   0.63591698   -1.9552807   0.13397393    11581.709     1000 
 1214000   0.41006648   -2.5611405   0.61448463   -1.9466559   0.12775746    11537.731     1000 
 1216000   0.43291745   -2.5819493    0.6487268   -1.9332226   0.13127698    11607.362     1000 
 1218000   0.43510262   -2.5983769   0.65200127   -1.9463756   0.12856617    11603.556     1000 
 1220000   0.44140881   -2.5701706   0.66145109   -1.9087195    0.1284297     11567.24     1000 
 1222000   0.43428567   -2.6060126   0.65077707   -1.9552355   0.12654379    11607.711     1000 
 1224000   0.42555181   -2.6060681   0.63768939   -1.9683787   0.12746766    11650.996     1000 
 1226000    0.4259622   -2.5805232   0.63830435   -1.9422188   0.12019314    11582.225     1000 
 1228000   0.42764564   -2.6220741   0.64082699   -1.9812471   0.13176183    11546.265     1000 
 1230000   0.42966992   -2.6020478   0.64386038   -1.9581874   0.12933174     11550.54     1000 
 1232000    0.4395325   -2.6069308   0.65863945   -1.9482914   0.13183083    11448.382     1000 
 1234000   0.43090014   -2.6539414   0.64570386   -2.0082375   0.12634991    11533.675     1000 
 1236000   0.44888915    -2.597091   0.67266039   -1.9244306   0.13554723    11591.894     1000 
 1238000   0.43414415   -2.6224149   0.65056501   -1.9718499   0.13324407    11606.502     1000 
 1240000   0.42315397   -2.5546134   0.63409622   -1.9205171   0.13692837    11425.527     1000 
 1242000   0.41463071   -2.5876323   0.62132412   -1.9663082   0.13878298    11512.145     1000 
 1244000   0.41494276   -2.5960063   0.62179172   -1.9742146   0.12073223    11704.537     1000 
 1246000   0.43075847   -2.6280471   0.64549157   -1.9825555   0.13286483    11635.784     1000 
 1248000   0.45110563   -2.5492228   0.67598179    -1.873241   0.14185194    11519.353     1000 
 1250000   0.43836017   -2.5939913   0.65688272   -1.9371086   0.12492362    11598.495     1000 
 1252000   0.42832737     -2.63161   0.64184857   -1.9897614   0.13791994      11534.4     1000 
 1254000   0.40861229   -2.6255365   0.61230552    -2.013231   0.13531062    11449.589     1000 
 1256000   0.42653404   -2.5867766   0.63916126   -1.9476153   0.12055633    11582.355     1000 
 1258000   0.43440268   -2.6125907   0.65095242   -1.9616383   0.13673519      11516.4     1000 
 1260000   0.43307516   -2.6547134   0.64896312   -2.0057503   0.12221087    11607.585     1000 
 1262000   0.43043822   -2.5576913   0.64501167   -1.9126796   0.12008381    11516.153     1000 
 1264000   0.41835775    -2.625327   0.62690909    -1.998418   0.12699367    11473.528     1000 
 1266000    0.4263524   -2.5706357   0.63888908   -1.9317467   0.14177837    11605.918     1000 
 1268000    0.4226307   -2.6023971   0.63331211    -1.969085   0.13981994    11352.767     1000 
 1270000   0.41880522   -2.5991432   0.62757962   -1.9715636   0.12695482    11547.357     1000 
 1272000   0.42620044   -2.5852057   0.63866136   -1.9465444   0.13664674    11513.661     1000 
 1274000   0.42846426   -2.6090441   0.64205369   -1.9669904   0.12222209    11731.155     1000 
 1276000   0.43148417   -2.6138567   0.64657903   -1.9672776   0.13223799    11580.799     1000 
 1278000   0.41806578   -2.6081927   0.62647157   -1.9817211   0.12220643    11668.771     1000 
 1280000   0.42951676   -2.6046139   0.64363086   -1.9609831   0.13074287     11549.66     1000 
 1282000   0.42665701    -2.537098   0.63934553   -1.8977525   0.13051821    11482.459     1000 
 1284000   0.42597076   -2.6042677   0.63831719   -1.9659505   0.12434423    11606.141     1000 
 1286000   0.42838079   -2.6244927   0.64192862   -1.9825641   0.13217247    11589.896     1000 
 1288000   0.42811498    -2.559313    0.6415303   -1.9177827   0.12948017    11477.392     1000 
 1290000   0.41925318    -2.615341   0.62825088   -1.9870901   0.12605089    11582.954     1000 
 1292000   0.43815975   -2.5875551   0.65658238   -1.9309727   0.13757386    11543.124     1000 
 1294000   0.40764955   -2.5696412   0.61086285   -1.9587783    0.1278119    11536.929     1000 
 1296000   0.42669219    -2.599982   0.63939824   -1.9605838   0.12264794    11664.268     1000 
 1298000   0.44137066   -2.5821954   0.66139393   -1.9208015   0.13717746     11497.65     1000 
 1300000   0.41600885   -2.5910023   0.62338926    -1.967613   0.11587693    11605.322     1000 
 1302000   0.44032454   -2.5829325   0.65982633   -1.9231062    0.1397403    11496.172     1000 
 1304000   0.44887821   -2.5763032     0.672644   -1.9036592   0.13144495     11585.84     1000 
 1306000   0.42734446   -2.5776425   0.64037567   -1.9372669   0.11719525    11612.735     1000 
 1308000    0.4451216    -2.612874   0.66701471   -1.9458593   0.12864154    11693.415     1000 
 1310000   0.43911348   -2.5703697   0.65801154   -1.9123581   0.12146729    11616.741     1000 
 1312000   0.43034488   -2.6396771    0.6448718   -1.9948053   0.12702291    11619.394     1000 
 1314000   0.42934144    -2.580761   0.64336815   -1.9373929     0.126414    11567.454     1000 
 1316000   0.45065226   -2.6252921   0.67530241   -1.9499897   0.12013341    11624.727     1000 
 1318000   0.44655471   -2.5657411   0.66916224   -1.8965789   0.13439457    11390.026     1000 
 1320000   0.43614309   -2.6118036   0.65356043   -1.9582432   0.13413877    11493.003     1000 
 1322000   0.42578332   -2.5965335   0.63803631   -1.9584972   0.12467181    11669.389     1000 
 1324000   0.42019968   -2.6053067   0.62966922   -1.9756375   0.13407146     11470.82     1000 
 1326000   0.41981843   -2.5798613   0.62909792   -1.9507634   0.14039377    11571.805     1000 
 1328000    0.4300184   -2.5442067   0.64438257   -1.8998241   0.12831996    11607.401     1000 
 1330000   0.42854266   -2.6043194   0.64217118   -1.9621483   0.14160927    11576.319     1000 
 1332000   0.43859216   -2.5764023   0.65723035    -1.919172   0.13468838    11538.128     1000 
 1334000   0.42378253   -2.5821179   0.63503813   -1.9470798   0.12891898    11535.666     1000 
 1336000   0.42090587    -2.540408   0.63072744   -1.9096805   0.13893516    11457.053     1000 
 1338000   0.41610322   -2.5673158   0.62353067   -1.9437851   0.14008715    11573.329     1000 
 1340000   0.42694424   -2.5845993   0.63977595   -1.9448233   0.11953681    11577.833     1000 
 1342000   0.43922799   -2.6324156   0.65818315   -1.9742325   0.12478664    11588.328     1000 
 1344000   0.41669903   -2.5938427    0.6244235   -1.9694192   0.13331629    11571.704     1000 
 1346000   0.44226703   -2.5875773   0.66273714   -1.9248401   0.13482475    11456.849     1000 
 1348000   0.43496691    -2.620702   0.65179791   -1.9689041   0.12892726     11682.75     1000 
 1350000   0.42826322   -2.6213007   0.64175243   -1.9795483   0.13737743    11419.681     1000 
 1352000    0.4253249    -2.628384   0.63734937   -1.9910347    0.1151417    11649.759     1000 
 1354000   0.42975528    -2.629916   0.64398828   -1.9859277   0.11675704    11683.414     1000 
 1356000   0.43963597   -2.6230795   0.65879451    -1.964285   0.13034696    11500.288     1000 
 1358000   0.43197183   -2.5760319   0.64730978   -1.9287221   0.13128249    11440.286     1000 
 1360000   0.42623002   -2.5578949   0.63870569   -1.9191892   0.12856305    11510.367     1000 
 1362000   0.42941168   -2.6422723   0.64347341   -1.9987989   0.12323907    11604.194     1000 
 1364000   0.44351809   -2.6411011   0.66461185   -1.9764892   0.13827037    11578.267     1000 
 1366000    0.4284252   -2.6217013   0.64199516   -1.9797061   0.12764903    11589.473     1000 
 1368000   0.44168792    -2.616028   0.66186934   -1.9541587   0.13258374    11582.203     1000 
 1370000   0.43290858   -2.6026784    0.6487135   -1.9539649   0.12405363    11518.831     1000 
 1372000    0.4288917    -2.562831   0.64269421   -1.9201368    0.1303663    11524.898     1000 
 1374000   0.43697784   -2.6107502    0.6548113   -1.9559389   0.14573632    11465.217     1000 
 1376000   0.43320715    -2.580782   0.64916091   -1.9316211   0.12875692    11573.341     1000 
 1378000   0.41999974   -2.6415638   0.62936962   -2.0121942   0.12916077    11581.989     1000 
 1380000   0.42318703   -2.6159042   0.63414576   -1.9817584   0.12517154    11599.689     1000 
 1382000   0.44518672   -2.6116701    0.6671123   -1.9445578   0.13781466    11571.792     1000 
 1384000   0.42712562   -2.5848749   0.64004775   -1.9448272   0.13229958    11520.268     1000 
 1386000   0.43256379   -2.6227281   0.64819684   -1.9745312   0.14712832    11418.425     1000 
 1388000   0.44420735   -2.5767812   0.66564471   -1.9111365   0.15184446    11426.789     1000 
 1390000   0.42917272   -2.5756276   0.64311532   -1.9325122    0.1307581    11583.633     1000 
 1392000   0.43444839   -2.5735932   0.65102091   -1.9225723   0.12489149    11555.065     1000 
 1394000   0.42594838   -2.5736816   0.63828365   -1.9353979   0.11427551    11594.173     1000 
 1396000   0.43273037   -2.6039541   0.64844646   -1.9555076   0.14121797    11624.987     1000 
 1398000   0.42348716   -2.6100417    0.6345955   -1.9754462   0.11166069    11738.515     1000 
 1400000   0.42126936   -2.6233952   0.63127214   -1.9921231   0.11783265    11615.546     1000 
 1402000   0.42397318   -2.6317813   0.63532381   -1.9964575   0.12028898    11610.635     1000 
 1404000   0.43077783   -2.5912927   0.64552058   -1.9457721    0.1284963    11515.936     1000 
 1406000   0.43262658   -2.6091432   0.64829094   -1.9608523   0.13440887     11539.88     1000 
 1408000   0.42128806   -2.5680878   0.63130015   -1.9367876   0.14570091    11456.207     1000 
 1410000   0.42753403   -2.6467664   0.64065974   -2.0061067   0.12593985    11635.918     1000 
 1412000   0.44909673   -2.6095811   0.67297144   -1.9366096   0.13400003    11579.251     1000 
 1414000    0.4201706   -2.5950277   0.62962564   -1.9654021   0.13418217    11500.694     1000 
 1416000   0.44296562   -2.5860878   0.66378399   -1.9223039   0.14264086    11562.072     1000 
 1418000   0.42693845   -2.5496479   0.63976726   -1.9098807   0.12103095    11530.132     1000 
 1420000    0.4456133   -2.5741064   0.66775152   -1.9063549   0.14264351    11499.469     1000 
 1422000   0.42063059   -2.5701612   0.63031494   -1.9398463   0.13651895    11532.444     1000 
 1424000   0.42856352   -2.6240064   0.64220243   -1.9818039   0.12684494    11667.556     1000 
 1426000   0.42983715   -2.5292397   0.64411097   -1.8851287   0.13197547    11452.023     1000 
 1428000   0.42149548   -2.6110217   0.63161097   -1.9794108   0.12722903    11663.921     1000 
 1430000   0.42590019   -2.5947749   0.63821143   -1.9565634   0.12834732    11556.879     1000 
 1432000     0.417276   -2.5846678   0.62528808   -1.9593798   0.13480005    11543.418     1000 
 1434000   0.43132179   -2.5654664    0.6463357   -1.9191307   0.13895968    11429.213     1000 
 1436000   0.44541257   -2.5968158   0.66745074   -1.9293651   0.13173784    11567.783     1000 
 1438000    0.4196184   -2.6012452   0.62879817    -1.972447   0.13987184    11546.557     1000 
 1440000   0.44310124   -2.6067593   0.66398721   -1.9427721   0.12965608    11513.351     1000 
 1442000   0.43308908   -2.6295219   0.64898399   -1.9805379   0.12322289    11672.782     1000 
 1444000   0.44387615    -2.601195    0.6651484   -1.9360466   0.12398204    11644.285     1000 
 1446000   0.42362613   -2.5605141   0.63480376   -1.9257103   0.12462985    11507.027     1000 
 1448000   0.41877316   -2.6294511   0.62753158   -2.0019195   0.12556792    11604.683     1000 
 1450000   0.42255797   -2.6054779   0.63320312   -1.9722748   0.13692117    11441.724     1000 
 1452000   0.43287236    -2.575975   0.64865923   -1.9273158   0.13060497    11498.008     1000 
 1454000   0.43617554   -2.6252851   0.65360905   -1.9716761   0.12894436    11565.075     1000 
 1456000   0.42437223   -2.6293501   0.63592179   -1.9934283   0.14504648    11541.663     1000 
 1458000   0.42175641   -2.5925035   0.63200198   -1.9605015   0.13193592    11611.042     1000 
 1460000   0.42483377   -2.5583216   0.63661341   -1.9217082   0.14073883    11641.412     1000 
 1462000   0.42245684   -2.5815612   0.63305157   -1.9485096   0.13746513    11468.891     1000 
 1464000   0.41525661   -2.6110274   0.62226203   -1.9887654   0.12815454    11651.305     1000 
 1466000   0.43342929   -2.6251536   0.64949379   -1.9756599   0.12064244    11571.281     1000 
 1468000   0.42379679   -2.5692645   0.63505949    -1.934205   0.13008292    11605.455     1000 
 1470000   0.42241697   -2.5824691   0.63299184   -1.9494773    0.1326156    11653.576     1000 
 1472000   0.44475377   -2.5612476   0.66646353   -1.8947841   0.13213245    11543.682     1000 
 1474000   0.42478478   -2.5820913   0.63653999   -1.9455513   0.11517547    11651.006     1000 
 1476000   0.45461639   -2.6591645   0.68124265   -1.9779219   0.12987407    11589.192     1000 
 1478000   0.41726537   -2.6112118   0.62527216   -1.9859396   0.12887435    11570.382     1000 
 1480000   0.42869319   -2.5425833   0.64239675   -1.9001866   0.13205665    11383.127     1000 
 1482000   0.41109616   -2.6351159    0.6160276   -2.0190883   0.12199875    11579.458     1000 
 1484000   0.42684125   -2.6070522   0.63962161   -1.9674306   0.12905613    11550.381     1000 
 1486000    0.4270375   -2.5643071    0.6399157   -1.9243914   0.12773377    11456.777     1000 
 1488000   0.44008357   -2.5513423   0.65946523   -1.8918771   0.13298976    11440.677     1000 
 1490000   0.43935812   -2.5952014   0.65837814   -1.9368233   0.13940612    11489.949     1000 
 1492000   0.42371124   -2.6172071   0.63493129   -1.9822758   0.11556055    11671.632     1000 
 1494000     0.439379   -2.6451039   0.65840943   -1.9866944   0.13766475    11563.055     1000 
 1496000   0.43219149   -2.5969727   0.64763895   -1.9493338   0.12646751    11581.075     1000 
 1498000   0.43378824   -2.6419922   0.65003168   -1.9919605   0.12542304    11653.789     1000 
 1500000   0.41907182   -2.5816462   0.62797913   -1.9536671   0.12910565     11561.09     1000 
 1502000   0.42808092   -2.5950429   0.64147926   -1.9535637   0.12263357    11613.841     1000 
 1504000   0.43373714   -2.5770671    0.6499551    -1.927112   0.13990875    11495.286     1000 
 1506000   0.42660586   -2.6024343   0.63926888   -1.9631654   0.14164292    11413.924     1000 
 1508000   0.43327852   -2.6332167   0.64926786   -1.9839489   0.13449281    11660.987     1000 
 1510000   0.42461141   -2.6043848    0.6362802   -1.9681046   0.13489943    11564.317     1000 
 1512000   0.43691887   -2.6340638   0.65472293   -1.9793408   0.12085865    11567.189     1000 
 1514000    0.4179667   -2.5864812    0.6263231   -1.9601581   0.12820241    11585.931     1000 
 1516000   0.42071985   -2.5597634    0.6304487   -1.9293147   0.13283232      11553.9     1000 
 1518000   0.44269598   -2.5692055   0.66337993   -1.9058256   0.14396559    11389.228     1000 
 1520000    0.4176152   -2.6139407   0.62579638   -1.9881443   0.11571573    11641.285     1000 
 1522000   0.42210415   -2.5877417   0.63252307   -1.9552186   0.13329777    11479.406     1000 
 1524000   0.43454309   -2.5851479   0.65116282   -1.9339851   0.12015611    11613.119     1000 
 1526000   0.40939181   -2.5687584   0.61347363   -1.9552848   0.11917945    11642.821     1000 
 1528000   0.44430065   -2.6159561   0.66578452   -1.9501715   0.13906911    11506.103     1000 
 1530000   0.43812236   -2.5661002   0.65652636   -1.9095738   0.12185768    11657.299     1000 
 1532000   0.43402064   -2.6190125   0.65037993   -1.9686326   0.12282651    11634.347     1000 
 1534000   0.43707593   -2.5731188   0.65495828   -1.9181605   0.13779918    11356.213     1000 
 1536000   0.45806574   -2.5870569   0.68641152   -1.9006453     0.150477    11432.911     1000 
 1538000   0.43909806   -2.5994401   0.65798844   -1.9414517   0.12694502     11555.29     1000 
 1540000   0.44700251    -2.621988   0.66983326   -1.9521547   0.13126987    11667.811     1000 
 1542000   0.41098553   -2.6126732   0.61586181   -1.9968113   0.12567387    11643.094     1000 
 1544000   0.42858457   -2.5616998   0.64223397   -1.9194658   0.12727886     11615.28     1000 
 1546000   0.43063805   -2.5532119   0.64531112   -1.9079008   0.13259593     11528.22     1000 
 1548000   0.45160382   -2.6255711   0.67672832   -1.9488427   0.13229386    11598.075     1000 
 1550000   0.44884195    -2.604023   0.67258966   -1.9314333   0.12930642    11590.346     1000 
 1552000   0.42110684   -2.6481153    0.6310286   -2.0170867   0.11891871    11604.572     1000 
 1554000   0.43525344   -2.5685979   0.65222728   -1.9163707   0.14549913    11353.183     1000 
 1556000   0.44748295   -2.5933274    0.6705532   -1.9227742   0.11839916    11598.485     1000 
 1558000   0.44563068   -2.5979151   0.66777758   -1.9301375   0.11653438     11714.25     1000 
 1560000   0.41688636   -2.6049023   0.62470421   -1.9801981   0.12583589    11705.357     1000 
 1562000   0.42281248    -2.570464   0.63358451   -1.9368795   0.13715376    11560.174     1000 
 1564000   0.42870157   -2.5897886    0.6424093   -1.9473793   0.13676397    11490.232     1000 
 1566000    0.4555056   -2.5799799   0.68257514   -1.8974047   0.13094697    11643.941     1000 
 1568000   0.43356088   -2.5833962   0.64969098   -1.9337052    0.1241597    11683.574     1000 
 1570000   0.42769898   -2.6367036   0.64090692   -1.9957967   0.11708983    11646.522     1000 
 1572000   0.43131728   -2.6147929   0.64632894    -1.968464   0.13575612    11510.974     1000 
 1574000   0.42794752   -2.5669222   0.64127936   -1.9256429   0.14270685     11445.36     1000 
 1576000   0.43030675   -2.6153285   0.64481466   -1.9705139   0.11596644    11696.645     1000 
 1578000   0.43755392   -2.5805974   0.65567454   -1.9249228   0.13799336    11575.331     1000 
 1580000   0.42354195   -2.5486813   0.63467761   -1.9140037   0.13320259    11459.509     1000 
 1582000   0.43035269   -2.5734193    0.6448835   -1.9285358   0.13621333     11520.46     1000 
 1584000   0.42869329   -2.6176464   0.64239689   -1.9752495   0.13052174    11610.742     1000 
 1586000    0.4271443   -2.6020279   0.64007573   -1.9619522   0.14667586    11376.185     1000 
 1588000   0.44616239   -2.5602549   0.66857435   -1.8916806   0.14343138     11478.66     1000 
[...]
 2614000    0.4248699   -2.5708869   0.63666755   -1.9342194   0.14042984    11442.965     1000 
 2616000   0.40959379   -2.5563098    0.6137763   -1.9425335   0.12319055     11597.95     1000 
 2618000   0.43852516   -2.6418894   0.65712996   -1.9847595   0.12942888    11569.016     1000 
 2620000   0.42020136   -2.6396415   0.62967173   -2.0099697   0.12877578     11630.28     1000 
 2622000   0.42656562   -2.5679833   0.63920858   -1.9287747   0.12528381    11509.406     1000 
 2624000   0.41920417    -2.547579   0.62817745   -1.9194016   0.13166644    11465.631     1000 
 2626000   0.43571494   -2.6400776   0.65291883   -1.9871588   0.13172577    11482.197     1000 
 2628000   0.45782482   -2.6379326   0.68605049   -1.9518821   0.13753622    11526.908     1000 
 2630000   0.44185238   -2.6151925   0.66211579   -1.9530767   0.11270618     11665.66     1000 
 2632000   0.42628913   -2.5309379   0.63879426   -1.8921436   0.14192834    11500.766     1000 
 2634000   0.43146555   -2.5750879   0.64655113   -1.9285367   0.13719383    11496.375     1000 
 2636000   0.43619045   -2.5871886    0.6536314   -1.9335572   0.13417032    11428.156     1000 
 2638000   0.43004544   -2.6129997   0.64442309   -1.9685766   0.12637481    11548.591     1000 
 2640000   0.42922876   -2.5836824    0.6431993   -1.9404831   0.12424214    11558.241     1000 
 2642000   0.44829126   -2.5995221   0.67176445   -1.9277576   0.13573741    11590.039     1000 
 2644000   0.43468915   -2.5730137   0.65138169    -1.921632    0.1370682     11487.34     1000 
 2646000   0.44177036   -2.6150429   0.66199288     -1.95305   0.13066012    11583.629     1000 
 2648000   0.40987507   -2.6187578   0.61419779     -2.00456    0.1237679    11571.429     1000 
 2650000   0.43373128   -2.5580092   0.64994632   -1.9080629    0.1442808    11499.605     1000 
 2652000   0.42820912   -2.5886839   0.64167137   -1.9470125   0.12255217    11623.968     1000 
 2654000   0.43124587   -2.6555349   0.64622193    -2.009313   0.12266651    11724.411     1000 
 2656000   0.44607698    -2.585808   0.66844635   -1.9173617   0.13729539      11527.9     1000 
 2658000   0.42470736   -2.6097813   0.63642398   -1.9733573   0.12721198    11479.502     1000 
 2660000   0.43589183   -2.6292479   0.65318391    -1.976064   0.13536943      11614.4     1000 
 2662000   0.43023449   -2.5854433   0.64470639   -1.9407369    0.1206184    11577.425     1000 
 2664000   0.42985918   -2.6252851   0.64414398   -1.9811411   0.12786715     11531.91     1000 
 2666000    0.4497406   -2.5267458   0.67393629   -1.8528095   0.13206389      11388.9     1000 
 2668000   0.44244381   -2.5347681   0.66300205   -1.8717661    0.1334083    11589.444     1000 
 2670000   0.42486899   -2.5719768   0.63666618   -1.9353107   0.12371964    11578.808     1000 
 2672000   0.40440857   -2.6038814   0.60600625   -1.9978751   0.13349328    11408.759     1000 
 2674000    0.4360787   -2.6424565   0.65346393   -1.9889926   0.13042445      11631.4     1000 
 2676000    0.4411162   -2.6000019   0.66101262   -1.9389893   0.13926235    11455.531     1000 
 2678000    0.4266718   -2.6105631    0.6393677   -1.9711954   0.13491638    11456.024     1000 
 2680000   0.43785107   -2.6085032   0.65611983   -1.9523834   0.12324086    11623.765     1000 
 2682000   0.41402231   -2.5674088   0.62041243   -1.9469963   0.12863824    11519.976     1000 
 2684000   0.42940887    -2.589339   0.64346919   -1.9458698   0.11866712    11583.093     1000 
 2686000   0.44378515   -2.5987282   0.66501205   -1.9337162   0.13527351    11610.148     1000 
 2688000   0.42295488   -2.6218253   0.63379788   -1.9880275   0.11256724    11613.249     1000 
 2690000    0.4287596   -2.5767744   0.64249626   -1.9342781   0.14434055    11411.117     1000 
 2692000   0.44268942   -2.5889623    0.6633701   -1.9255922   0.12327775    11636.042     1000 
 2694000   0.44136227     -2.58452   0.66138136   -1.9231386   0.13094886    11533.515     1000 
 2696000   0.43917468    -2.595238   0.65810325   -1.9371348   0.13029397    11577.824     1000 
 2698000    0.4423308   -2.5930069    0.6628327   -1.9301742    0.1297282    11592.891     1000 
 2700000   0.43878388   -2.6120574   0.65751765   -1.9545397   0.12684005    11557.527     1000 
 2702000   0.43918736   -2.6041981   0.65812226   -1.9460758   0.13192769    11549.251     1000 
 2704000    0.4398821   -2.5753278   0.65916332   -1.9161644   0.12639984     11463.27     1000 
 2706000   0.43687497   -2.5935528   0.65465714   -1.9388956   0.13641124    11405.274     1000 
 2708000   0.44137658   -2.5957017   0.66140281   -1.9342989   0.13090878     11681.56     1000 
 2710000   0.40516124   -2.5301908   0.60713412   -1.9230567   0.12230894    11673.722     1000 
 2712000   0.43114807   -2.6234592   0.64607538   -1.9773838   0.13299741    11614.873     1000 
 2714000   0.44250526   -2.6424603   0.66309413   -1.9793662   0.11814754    11682.296     1000 
 2716000   0.43138085   -2.5678179   0.64642421   -1.9213937   0.13707807    11483.909     1000 
 2718000   0.41985648   -2.5926735   0.62915493   -1.9635186   0.13324037    11419.469     1000 
 2720000   0.42635357   -2.5871237   0.63889082   -1.9482328    0.1287954    11536.252     1000 
 2722000   0.41966677   -2.5707719   0.62887065   -1.9419012    0.1345483    11472.467     1000 
 2724000   0.42344662   -2.5991406   0.63453476   -1.9646059   0.12049795    11547.778     1000 
 2726000   0.41966554    -2.587781   0.62886882   -1.9589122   0.13211806     11409.38     1000 
 2728000   0.42868286   -2.5606505   0.64238126   -1.9182693   0.13493595    11480.447     1000 
 2730000   0.43485382   -2.5779785   0.65162845     -1.92635   0.13676807    11485.046     1000 
 2732000   0.45999326   -2.5839405    0.6892999   -1.8946406   0.13803951    11558.984     1000 
 2734000   0.41350842   -2.6187785   0.61964237   -1.9991362   0.12914821    11577.346     1000 
 2736000    0.4546174   -2.5737583   0.68124417   -1.8925141   0.12735944    11627.334     1000 
 2738000   0.42355225   -2.6147293   0.63469305   -1.9800362   0.12695507    11583.478     1000 
 2740000   0.44717486    -2.584481   0.67009152   -1.9143894   0.13196794    11452.508     1000 
 2742000   0.43106459   -2.5710615   0.64595029   -1.9251112   0.12047196    11571.318     1000 
 2744000    0.4105613   -2.5518138   0.61522611   -1.9365877   0.11974771    11465.761     1000 
 2746000   0.42092051   -2.6598921   0.63074938   -2.0291427   0.11777766    11591.659     1000 
 2748000   0.41569922   -2.5821965   0.62292527   -1.9592712   0.14004236    11427.076     1000 
 2750000   0.43719053   -2.5681989      0.65513   -1.9130689    0.1192541    11676.469     1000 
 2752000   0.43063749   -2.6079634   0.64531028   -1.9626531   0.13581971    11549.328     1000 
 2754000   0.44200108   -2.5599042   0.66233862   -1.8975656   0.13175848    11463.264     1000 
 2756000   0.42379934   -2.6097449   0.63506331   -1.9746816   0.12588117    11684.871     1000 
 2758000   0.41391989   -2.6214963   0.62025895   -2.0012374   0.12314242    11544.343     1000 
 2760000    0.4261808   -2.5634144   0.63863192   -1.9247825   0.13095055    11503.168     1000 
 2762000   0.41137675   -2.5688594   0.61644805   -1.9524114   0.12164365    11603.379     1000 
 2764000   0.44333396    -2.553047   0.66433594   -1.8887111   0.12403588     11516.06     1000 
 2766000   0.42342702   -2.5837603   0.63450538   -1.9492549   0.13982202    11469.087     1000 
 2768000   0.42972595    -2.585378   0.64394434   -1.9414337   0.13734989    11498.892     1000 
 2770000   0.42940368   -2.5798511   0.64346141   -1.9363897   0.14017437    11380.865     1000 
 2772000   0.44469968   -2.5605364   0.66638247   -1.8941539   0.13384012     11559.63     1000 
 2774000     0.432734   -2.5692829   0.64845189    -1.920831    0.1293167    11559.918     1000 
 2776000   0.44278967    -2.510938   0.66352032   -1.8474177   0.13752083    11320.342     1000 
 2778000   0.44028138   -2.6244091   0.65976165   -1.9646474   0.12997434    11531.661     1000 
 2780000   0.43914623   -2.6075529   0.65806062   -1.9494922   0.13924543    11480.187     1000 
 2782000   0.42169035   -2.6211943     0.631903   -1.9892913   0.13968181    11407.487     1000 
 2784000    0.4433717   -2.5374506   0.66439249   -1.8730581   0.13117199    11500.619     1000 
 2786000   0.42424595    -2.594623   0.63573255   -1.9588905   0.13851872    11448.159     1000 
 2788000    0.4130302   -2.5707768   0.61892575    -1.951851   0.13503695    11470.934     1000 
 2790000   0.44621687    -2.615195   0.66865597    -1.946539   0.11651339    11645.452     1000 
 2792000   0.42277457   -2.5778054   0.63352769   -1.9442777   0.13355409    11463.846     1000 
 2794000   0.44011906   -2.5509519   0.65951841   -1.8914335   0.12256443    11602.337     1000 
 2796000   0.42522933   -2.6081134   0.63720615   -1.9709073   0.12673622    11638.806     1000 
 2798000   0.43692988   -2.6133831   0.65473943   -1.9586437   0.13891809     11422.22     1000 
 2800000   0.43666788   -2.6357277   0.65434681   -1.9813809     0.129574    11682.079     1000 
 2802000   0.42005931   -2.5621574   0.62945888   -1.9326986   0.12234812    11527.486     1000 
 2804000   0.42858348   -2.6092884   0.64223235   -1.9670561   0.12319485    11628.165     1000 
 2806000   0.43764665   -2.5845058    0.6558135   -1.9286923   0.14643556    11500.452     1000 
 2808000   0.43505757   -2.5752945   0.65193378   -1.9233608   0.13193986    11552.713     1000 
 2810000    0.4417394   -2.5946263   0.66194649   -1.9326798   0.12594723    11556.426     1000 
 2812000   0.44047547   -2.5695198   0.66005249   -1.9094673   0.12909324     11606.26     1000 
 2814000   0.44413882   -2.5775184   0.66554202   -1.9119764   0.13868781    11423.734     1000 
 2816000   0.42861626   -2.5667031   0.64228146   -1.9244217   0.13342969    11381.698     1000 
 2818000   0.43482992   -2.5649281   0.65159263   -1.9133355    0.1361715    11459.672     1000 
 2820000    0.4171327   -2.5684374   0.62507335    -1.943364    0.1194033    11644.985     1000 
 2822000   0.43662998   -2.5974532   0.65429003   -1.9431631   0.11782909    11656.088     1000 
 2824000   0.41711829   -2.5897917   0.62505176     -1.96474   0.14182075    11471.116     1000 
 2826000   0.43392187   -2.6441518   0.65023192   -1.9939199   0.12022627     11587.84     1000 
 2828000   0.40559667   -2.5948204   0.60778661   -1.9870338   0.11792375     11646.17     1000 
 2830000   0.41882293   -2.5681451   0.62760616    -1.940539   0.12611782    11574.036     1000 
 2832000   0.43472864     -2.57207   0.65144086   -1.9206292     0.127396    11517.023     1000 
 2834000   0.41921351   -2.6077204   0.62819145    -1.979529   0.12366774    11662.466     1000 
 2836000   0.42231111    -2.600023   0.63283319   -1.9671898   0.12210199    11609.141     1000 
 2838000   0.42031305    -2.600778   0.62983911   -1.9709389   0.14046999    11470.356     1000 
 2840000   0.42372898   -2.6056614   0.63495787   -1.9707036   0.13310142    11543.287     1000 
 2842000   0.44334698   -2.6053952   0.66435545   -1.9410398   0.12749363    11530.392     1000 
 2844000   0.41876982   -2.5886251   0.62752657   -1.9610985   0.11049667    11627.357     1000 
 2846000   0.44076915   -2.6239522   0.66049256   -1.9634596   0.12994673    11523.838     1000 
 2848000   0.41187916    -2.552976   0.61720092   -1.9357751   0.11532071    11535.951     1000 
 2850000   0.43228899   -2.5991968   0.64778505   -1.9514118   0.11368987    11677.674     1000 
 2852000   0.42809716   -2.5894127    0.6415036   -1.9479091   0.13255644    11637.677     1000 
 2854000   0.42753397   -2.5587633   0.64065966   -1.9181036   0.14509897    11420.248     1000 
 2856000   0.41963299   -2.5962168   0.62882003   -1.9673968   0.14158639    11468.647     1000 
 2858000   0.42939467   -2.5860089   0.64344792    -1.942561   0.12912201    11581.696     1000 
 2860000   0.42928983     -2.57577   0.64329082   -1.9324791   0.12857117     11451.64     1000 
 2862000   0.43061883    -2.586105   0.64528232   -1.9408227   0.12274321    11618.794     1000 
 2864000   0.44394561   -2.5552152    0.6652525   -1.8899627   0.11871034    11579.556     1000 
 2866000   0.45317089   -2.5499982   0.67907658   -1.8709216   0.14612324    11355.617     1000 
 2868000    0.4457766   -2.5822124   0.66799624   -1.9142162   0.12567549    11535.219     1000 
 2870000   0.43990157   -2.5870034    0.6591925   -1.9278109   0.13671548    11565.016     1000 
 2872000   0.42496222   -2.5895377   0.63680588   -1.9527318   0.11914561    11652.614     1000 
 2874000     0.424239   -2.5927094   0.63572214   -1.9569873   0.12362039    11641.664     1000 
 2876000   0.42886555   -2.5498877   0.64265502   -1.9072327   0.13637969    11512.672     1000 
 2878000   0.42803473   -2.5630728   0.64141005   -1.9216627   0.13222846    11515.471     1000 
 2880000   0.43303768   -2.5821737   0.64890697   -1.9332667    0.1183371    11615.778     1000 
 2882000   0.44940769   -2.6114143   0.67343743   -1.9379769   0.13115366     11585.69     1000 
 2884000   0.43715872   -2.5889998   0.65508234   -1.9339175   0.13836005    11591.902     1000 
 2886000   0.41666984   -2.6335838   0.62437975   -2.0092041   0.13068057    11668.154     1000 
 2888000   0.43736752   -2.6152145   0.65539522   -1.9598193   0.12491307    11548.949     1000 
 2890000   0.42111435   -2.6033757   0.63103985   -1.9723358   0.12919736    11488.578     1000 
 2892000   0.42836681   -2.5753577   0.64190767     -1.93345   0.11433784     11747.08     1000 
 2894000   0.42352796   -2.5680968   0.63465664   -1.9334401   0.12953456    11662.463     1000 
 2896000   0.42574969   -2.5579199   0.63798591   -1.9199339   0.12465848    11530.788     1000 
 2898000   0.42585673   -2.5992172   0.63814631   -1.9610709   0.13863476    11443.954     1000 
 2900000   0.43560571   -2.5721618   0.65275516   -1.9194067   0.11510807    11503.291     1000 
 2902000   0.42660093   -2.6330705   0.63926149    -1.993809   0.13190977    11497.862     1000 
 2904000    0.4122442    -2.593257   0.61774793   -1.9755091   0.13717141    11552.727     1000 
 2906000   0.41691627    -2.558472   0.62474904    -1.933723     0.119839    11542.691     1000 
 2908000   0.44431751   -2.6262429   0.66580979   -1.9604331   0.13168197    11578.311     1000 
 2910000   0.43917932   -2.5927193   0.65811022   -1.9346091   0.13317718    11512.022     1000 
 2912000   0.45369437   -2.5697386   0.67986102   -1.8898776   0.12414612    11474.643     1000 
 2914000   0.42983644   -2.6046693    0.6441099   -1.9605594   0.13222017    11477.939     1000 
 2916000   0.44905537   -2.5629011   0.67290948   -1.8899916   0.15107899    11407.714     1000 
 2918000     0.417108   -2.5572827   0.62503634   -1.9322463   0.12754375    11584.139     1000 
 2920000   0.42614778   -2.6008142   0.63858245   -1.9622317    0.1284847     11572.83     1000 
 2922000   0.41833165   -2.6099216   0.62686997   -1.9830516    0.1225718    11537.365     1000 
 2924000   0.42928882   -2.6065336   0.64328929   -1.9632443   0.13830818    11455.665     1000 
 2926000   0.44397627   -2.5926063   0.66529845   -1.9273079   0.12544679    11614.536     1000 
 2928000   0.41529298   -2.5845966   0.62231654   -1.9622801   0.11823496    11596.126     1000 
 2930000   0.42130478   -2.6168153   0.63132521   -1.9854901   0.12859963    11562.829     1000 
 2932000   0.43238569   -2.5787322   0.64792995   -1.9308023   0.14332541    11550.133     1000 
 2934000   0.43181922   -2.6003283    0.6470811   -1.9532472   0.13369396    11499.911     1000 
 2936000   0.43434973   -2.6052839   0.65087307   -1.9544108   0.13382205    11456.432     1000 
 2938000   0.44501268   -2.5892344    0.6668515   -1.9223829   0.13265474    11499.654     1000 
 2940000   0.44550546   -2.5594767   0.66758993   -1.8918868   0.13702028    11481.368     1000 
 2942000   0.43854316    -2.575148   0.65715692   -1.9179911   0.14887316     11519.35     1000 
 2944000   0.43542644   -2.5897547   0.65248652   -1.9372682    0.1240684    11606.075     1000 
 2946000   0.44051257   -2.5617415   0.66010809   -1.9016334   0.13324387    11463.817     1000 
 2948000   0.40857037   -2.6042738    0.6122427   -1.9920311   0.13463332    11509.984     1000 
 2950000   0.42824348    -2.616116   0.64172286   -1.9743931   0.12575066    11715.381     1000 
 2952000   0.44799837   -2.6418951   0.67132556   -1.9705696   0.13246052    11637.421     1000 
 2954000    0.4305474   -2.6561916   0.64517528   -2.0110163    0.1373972    11604.585     1000 
 2956000   0.43833282    -2.622895   0.65684174   -1.9660533     0.138312    11661.532     1000 
 2958000   0.43371833   -2.6160348   0.64992692   -1.9661079   0.11984167    11715.885     1000 
 2960000    0.4151893   -2.5703713   0.62216116   -1.9482101   0.12481291    11592.132     1000 
 2962000    0.4404209   -2.6111485   0.65997072   -1.9511778   0.12194647    11502.306     1000 
 2964000   0.42821695   -2.5952032    0.6416831   -1.9535201   0.13511577     11543.88     1000 
 2966000   0.43991513    -2.539039   0.65921283   -1.8798262   0.13426704    11459.622     1000 
 2968000   0.41980717    -2.589412   0.62908104    -1.960331   0.13341293    11548.293     1000 
 2970000   0.42708432    -2.579013   0.63998586   -1.9390272   0.13300481    11405.422     1000 
 2972000   0.42022958   -2.5825635   0.62971402   -1.9528495   0.12824981    11454.811     1000 
 2974000    0.4188966   -2.5737845   0.62771656    -1.946068   0.13401893    11574.564     1000 
 2976000   0.43038959   -2.5217175    0.6449388   -1.8767787   0.12560143    11526.221     1000 
 2978000   0.41362691   -2.5610138   0.61981992   -1.9411938   0.12396202    11606.517     1000 
 2980000   0.43358457   -2.5702149   0.64972648   -1.9204884   0.12537635    11413.252     1000 
 2982000   0.42932225   -2.5762939    0.6433394   -1.9329545   0.11557561    11627.262     1000 
 2984000   0.42018028   -2.6030186   0.62964015   -1.9733785   0.11995838    11757.666     1000 
 2986000   0.44329846   -2.5474825   0.66428274   -1.8831997   0.14136174    11359.575     1000 
 2988000   0.42836346   -2.6129815   0.64190264   -1.9710789    0.1447166    11487.909     1000 
 2990000   0.43830077   -2.5971411   0.65679371   -1.9403474   0.14054127    11401.616     1000 
 2992000   0.42754553   -2.5972467   0.64067698   -1.9565698   0.13421712    11593.654     1000 
 2994000   0.42535492   -2.6186133   0.63739435   -1.9812189   0.13122105    11590.292     1000 
 2996000   0.42899933   -2.5897727   0.64285549   -1.9469172   0.13167412    11620.348     1000 
 2998000    0.4405081   -2.5976915   0.66010139   -1.9375901   0.13447742    11501.209     1000 
 3000000   0.40850282    -2.658926   0.61214147   -2.0467845   0.12049332    11550.842     1000 
Loop time of 1150.36 on 1 procs for 3000000 steps with 1000 atoms

Performance: 1126607.420 tau/day, 2607.888 timesteps/s
100.0% CPU use with 1 MPI tasks x 1 OpenMP threads

MPI task timing breakdown:
Section |  min time  |  avg time  |  max time  |%varavg| %total
---------------------------------------------------------------
Pair    | 903.78     | 903.78     | 903.78     |   0.0 | 78.56
Neigh   | 143.94     | 143.94     | 143.94     |   0.0 | 12.51
Comm    | 24.464     | 24.464     | 24.464     |   0.0 |  2.13
Output  | 0.017519   | 0.017519   | 0.017519   |   0.0 |  0.00
Modify  | 72.877     | 72.877     | 72.877     |   0.0 |  6.34
Other   |            | 5.281      |            |       |  0.46

Nlocal:        1000.00 ave        1000 max        1000 min
Histogram: 1 0 0 0 0 0 0 0 0 0
Nghost:        2136.00 ave        2136 max        2136 min
Histogram: 1 0 0 0 0 0 0 0 0 0
Neighs:        27223.0 ave       27223 max       27223 min
Histogram: 1 0 0 0 0 0 0 0 0 0

Total # of neighbors = 27223
Ave neighs/atom = 27.223000
Neighbor list builds = 150000
Dangerous builds not checked

Total wall time: 0:19:10
