LAMMPS (29 Sep 2021 - Update 2)
OMP_NUM_THREADS environment is not set. Defaulting to 1 thread. (src/comm.cpp:98)
  using 1 OpenMP thread(s) per MPI task
# ----------------------- Inicialização -----------------------

units			lj
atom_style 		atomic
dimension 		3
boundary 		p p p

# -------------------- Criação dos Átomos ---------------------

read_data 		topologia.txt
Reading data file ...
  orthogonal box = (0.0000000 0.0000000 0.0000000) to (21.540000 21.540000 21.540000)
  1 by 1 by 1 MPI processor grid
  reading atoms ...
  1000 atoms
  read_data CPU = 0.005 seconds

velocity 		all create ${temp} 87287 rot yes dist gaussian
velocity 		all create 0.38 87287 rot yes dist gaussian

# ------------------ Interação Interatômica -------------------

pair_style		table linear 1000
pair_coeff		1 1 force.table AA 5.0
WARNING: 2 of 1000 force values in table AA are inconsistent with -dE/dr.
WARNING:  Should only be flagged at inflection points (src/pair_table.cpp:465)
pair_coeff		1 2 force.table AB 5.0
WARNING: 1 of 1000 force values in table AB are inconsistent with -dE/dr.
WARNING:  Should only be flagged at inflection points (src/pair_table.cpp:465)
pair_coeff		2 2 force.table BB 5.0
pair_write		1 1 1000 r 0.008 5.0 table.check AA
Appending to table file table.check with DATE: 2023-07-13
Neighbor list info ...
  update every 1 steps, delay 10 steps, check yes
  max neighbors/atom: 2000, page size: 100000
  master list distance cutoff = 5.3
  ghost atom cutoff = 5.3
  binsize = 2.65, bins = 9 9 9
  1 neighbor lists, perpetual/occasional/extra = 1 0 0
  (1) pair table, perpetual
      attributes: half, newton on
      pair build: half/bin/atomonly/newton
      stencil: half/bin/3d
      bin: standard
pair_write		1 2 1000 r 0.008 5.0 table.check AB
Appending to table file table.check with DATE: 2023-07-13
pair_write		2 2 1000 r 0.008 5.0 table.check BB
Appending to table file table.check with DATE: 2023-07-13

neighbor 		0.3 bin
neigh_modify		every 20 delay 0 check no

# ------------------------- Ensemble --------------------------------------

fix 1			all npt temp ${temp} ${temp} 0.5 iso ${press} ${press} 5
fix 1			all npt temp 0.38 ${temp} 0.5 iso ${press} ${press} 5
fix 1			all npt temp 0.38 0.38 0.5 iso ${press} ${press} 5
fix 1			all npt temp 0.38 0.38 0.5 iso 0.13 ${press} 5
fix 1			all npt temp 0.38 0.38 0.5 iso 0.13 0.13 5

# ---------------------- Função de Distribuição Radial -----------------------

#compute RDF 		all rdf 2000 1 1 1 2 2 2
#fix 2 			all ave/time 1 2000 2000 c_RDF[*] file rdf.data mode vector

# ------------------------- Execução ---------------------------

timestep 		0.005
thermo_style		custom step temp pe ke etotal press vol atoms
thermo			2000
run			3000000
Per MPI rank memory allocation (min/avg/max) = 2.670 | 2.670 | 2.670 Mbytes
Step Temp PotEng KinEng TotEng Press Volume Atoms 
       0         0.38    1.3897466      0.56943    1.9591766     1.520976    9993.9483     1000 
    2000    0.3717132   -2.6509057   0.55701223   -2.0938935   0.12574993     11578.54     1000 
    4000   0.37651948   -2.6933343   0.56421444   -2.1291198   0.12456281    11624.623     1000 
    6000   0.37226475   -2.7236913   0.55783873   -2.1658526   0.14088991    11561.485     1000 
    8000   0.36664802   -2.7132789   0.54942206   -2.1638569   0.11882753    11562.402     1000 
   10000   0.40495246   -2.7221578   0.60682127   -2.1153365   0.14050413    11526.014     1000 
   12000   0.38037405   -2.7279272   0.56999051   -2.1579367   0.13891235    11422.094     1000 
   14000    0.3826855   -2.7436418   0.57345422   -2.1701876   0.11897754    11684.325     1000 
   16000   0.38692744   -2.7312218   0.57981077   -2.1514111   0.12177395    11629.952     1000 
   18000   0.38154589   -2.8000272   0.57174652   -2.2282807    0.1365104    11591.668     1000 
   20000   0.37925723   -2.8193225   0.56831696   -2.2510056   0.11622962    11726.318     1000 
   22000   0.39042232   -2.7593372   0.58504785   -2.1742894   0.12692024    11618.539     1000 
   24000     0.383482    -2.773255   0.57464778   -2.1986072   0.13325932    11527.014     1000 
   26000   0.38155832   -2.7840733   0.57176514   -2.2123081    0.1200986    11659.507     1000 
   28000   0.38307643   -2.8068079   0.57404003   -2.2327679   0.12907201    11629.424     1000 
   30000   0.36599915   -2.7570205   0.54844973   -2.2085707   0.12216224    11702.009     1000 
   32000   0.39470191   -2.7744344   0.59146082   -2.1829736   0.13271189    11614.508     1000 
   34000    0.3978964   -2.7329533   0.59624775   -2.1367056   0.14029088    11524.652     1000 
   36000   0.39285994   -2.7446903   0.58870061   -2.1559897   0.15309255    11508.524     1000 
   38000   0.36229751   -2.7979886   0.54290283   -2.2550858   0.12289603    11630.602     1000 
   40000   0.37248705   -2.7254709   0.55817185   -2.1672991   0.11918729    11630.279     1000 
   42000   0.39147632   -2.7571329   0.58662726   -2.1705057   0.14356268     11527.96     1000 
   44000   0.38253213   -2.8036322    0.5732244   -2.2304078   0.12907001    11586.774     1000 
   46000   0.37575647   -2.7149872   0.56307106   -2.1519161   0.12117344    11567.946     1000 
   48000   0.39332252     -2.74917    0.5893938   -2.1597762   0.12960665    11603.884     1000 
   50000    0.3808408    -2.779846   0.57068994    -2.209156   0.12059619    11651.939     1000 
   52000   0.36580472   -2.7606783   0.54815838   -2.2125199   0.13354616    11496.265     1000 
   54000   0.37356133   -2.7540541   0.55978165   -2.1942725   0.12804259    11581.905     1000 
   56000    0.3686637   -2.7369523   0.55244256   -2.1845098   0.13153779    11513.491     1000 
   58000   0.37902539   -2.7886851   0.56796955   -2.2207156   0.13377613    11504.393     1000 
   60000   0.39226533   -2.7645247   0.58780959   -2.1767151   0.12811977    11527.909     1000 
   62000    0.3657066    -2.801462   0.54801134   -2.2534506   0.12252789    11526.367     1000 
   64000   0.37639771   -2.7661032   0.56403197   -2.2020712   0.13979708    11589.351     1000 
   66000    0.3707566   -2.7376056   0.55557876   -2.1820268   0.13160799    11533.673     1000 
   68000    0.3738272   -2.7585634   0.56018006   -2.1983834   0.13152639    11496.094     1000 
   70000   0.39508308   -2.7458471   0.59203199   -2.1538151   0.13959866    11439.664     1000 
   72000   0.37003342   -2.7668449   0.55449508   -2.2123499   0.13468837      11460.7     1000 
   74000   0.38635069   -2.7582364   0.57894651   -2.1792899   0.13528971    11533.104     1000 
   76000   0.37965669    -2.749204   0.56891555   -2.1802885   0.12956558    11564.485     1000 
   78000   0.36795949   -2.7518468    0.5513873   -2.2004595   0.13552753    11530.282     1000 
   80000   0.38137352   -2.7508905   0.57148821   -2.1794023   0.10961414    11746.432     1000 
   82000   0.37528129   -2.7553073   0.56235901   -2.1929483   0.13031459    11549.417     1000 
   84000   0.37936994   -2.7691501   0.56848585   -2.2006643   0.13303129    11620.489     1000 
   86000   0.38643048   -2.7563654   0.57906607   -2.1772994   0.12656721    11587.925     1000 
   88000   0.37031586   -2.7737901   0.55491832   -2.2188718   0.13131645    11520.674     1000 
   90000   0.37486342   -2.7979807   0.56173283   -2.2362479   0.12772981    11565.377     1000 
   92000     0.380087   -2.7721097   0.56956038   -2.2025494   0.12262341     11685.56     1000 
   94000   0.35393625   -2.7988819   0.53037347   -2.2685084   0.13117423    11504.638     1000 
   96000    0.3752692   -2.8105284   0.56234089   -2.2481875   0.12699476    11679.665     1000 
   98000   0.37975943   -2.8031246   0.56906951   -2.2340551   0.12879709    11527.284     1000 
  100000   0.38422987   -2.7662898   0.57576846   -2.1905214   0.12825576    11552.924     1000 
  102000   0.37128196   -2.7798201   0.55636602   -2.2234541   0.12006499    11603.442     1000 
  104000   0.37789687   -2.7360998   0.56627846   -2.1698214   0.13124114    11490.591     1000 
  106000   0.36633556   -2.7590781   0.54895384   -2.2101243    0.1228649    11606.934     1000 
  108000   0.39309854   -2.7470953   0.58905816   -2.1580372   0.13151072    11529.841     1000 
  110000    0.3806366   -2.7685427   0.57038394   -2.1981587   0.13874986    11459.334     1000 
  112000   0.37538865   -2.7774475    0.5625199   -2.2149276   0.12527313    11467.989     1000 
  114000   0.36586892   -2.7905045   0.54825458   -2.2422499   0.13292684    11612.529     1000 
  116000   0.36670926   -2.7849126   0.54951382   -2.2353988    0.1262821    11628.024     1000 
  118000   0.38829243   -2.7773275   0.58185621   -2.1954713   0.13985186    11546.559     1000 
  120000   0.38714376    -2.777536   0.58013492   -2.1974011   0.13549147    11500.084     1000 
  122000    0.3888109   -2.8054835   0.58263313   -2.2228503   0.14305981    11507.297     1000 
  124000   0.37686768   -2.8064773   0.56473622   -2.2417411   0.11185509    11663.193     1000 
  126000   0.38909891   -2.7699543   0.58306471   -2.1868896   0.14285461    11396.597     1000 
  128000   0.38008132   -2.7224755   0.56955185   -2.1529236   0.12104264    11538.541     1000 
  130000   0.38525908   -2.7116764   0.57731073   -2.1343657   0.13492408    11561.621     1000 
  132000   0.38680796   -2.7385738   0.57963172   -2.1589421   0.13327887    11553.959     1000 
  134000   0.39206498    -2.762067   0.58750937   -2.1745577   0.14845977    11472.137     1000 
  136000   0.37762303   -2.7778341   0.56586811    -2.211966   0.12189205    11627.522     1000 
  138000   0.36753564   -2.7462708   0.55075215   -2.1955186   0.12988238    11467.394     1000 
  140000   0.36489021   -2.7619881   0.54678798   -2.2152001   0.13601366    11464.867     1000 
  142000   0.39152139   -2.7504795   0.58669481   -2.1637847   0.12482019    11583.872     1000 
  144000   0.36830932   -2.7839034   0.55191151   -2.2319919   0.13950772    11541.763     1000 
  146000   0.38311747   -2.7837576   0.57410153   -2.2096561   0.12981603    11421.212     1000 
  148000   0.38053559   -2.7681834   0.57023258   -2.1979508   0.12116445    11655.671     1000 
  150000   0.39263848   -2.7638797   0.58836877    -2.175511   0.13120336    11505.846     1000 
  152000   0.38950195    -2.759206   0.58366867   -2.1755373   0.12807063    11640.141     1000 
  154000   0.38918177   -2.8009559   0.58318888    -2.217767   0.13781085    11532.404     1000 
  156000   0.37167723   -2.7783479   0.55695833   -2.2213896   0.12505125    11520.921     1000 
  158000   0.38330935   -2.7864395   0.57438907   -2.2120505   0.12564622    11594.937     1000 
  160000   0.38996351   -2.7670156   0.58436031   -2.1826553   0.13818786    11458.892     1000 
  162000   0.37527462   -2.7663004   0.56234901   -2.2039514   0.13845047    11571.345     1000 
  164000   0.36525326   -2.8216994   0.54733201   -2.2743674   0.12277002    11679.624     1000 
  166000   0.38056281   -2.7502137   0.57027337   -2.1799403   0.12486911    11550.413     1000 
  168000   0.38474518   -2.7532398   0.57654065   -2.1766991   0.12796163    11537.636     1000 
  170000   0.38992678   -2.7825776   0.58430527   -2.1982723    0.1309694    11550.379     1000 
  172000   0.39731769   -2.7704377   0.59538055   -2.1750572   0.15402455    11452.499     1000 
  174000   0.36711344   -2.7611835   0.55011949    -2.211064   0.12408463    11588.235     1000 
  176000    0.3747855   -2.8074385   0.56161607   -2.2458224    0.1215992    11577.251     1000 
  178000   0.38340664   -2.7818375   0.57453485   -2.2073027   0.12760472    11638.216     1000 
  180000   0.37497531   -2.7603104    0.5619005   -2.1984099   0.12561489    11534.419     1000 
  182000   0.37843766    -2.792066   0.56708884   -2.2249772   0.13117022    11611.371     1000 
  184000   0.37400587   -2.7794597   0.56044779   -2.2190119   0.14056022    11458.259     1000 
  186000     0.399379   -2.8053123   0.59846943   -2.2068429   0.12862584     11599.94     1000 
  188000   0.37549847   -2.7778823   0.56268446   -2.2151978   0.12505015    11595.048     1000 
  190000    0.3794078   -2.7555973   0.56854259   -2.1870547   0.13794076    11430.426     1000 
  192000   0.38361706   -2.7404406   0.57485017   -2.1655904    0.1323015    11514.227     1000 
  194000   0.37223745   -2.7664133   0.55779782   -2.2086155   0.14023623    11437.927     1000 
  196000   0.36208263   -2.7971326   0.54258083   -2.2545517   0.12660001    11556.905     1000 
  198000   0.37552508   -2.7742696   0.56272433   -2.2115453   0.13542976    11469.024     1000 
  200000   0.38062403    -2.808496    0.5703651   -2.2381309   0.13569988    11425.593     1000 
  202000   0.37897241   -2.7665297   0.56789015   -2.1986396    0.1409864    11435.414     1000 
  204000   0.37679749   -2.7870403   0.56463104   -2.2224092    0.1266982    11586.166     1000 
  206000   0.37947152     -2.76995   0.56863807   -2.2013119   0.14028874     11372.81     1000 
  208000   0.37216448   -2.8071915   0.55768848    -2.249503   0.14737909    11391.723     1000 
  210000   0.37257885    -2.767091   0.55830941   -2.2087816   0.12845376    11626.252     1000 
  212000   0.38207626   -2.7890122   0.57254128   -2.2164709   0.13111296    11591.094     1000 
  214000   0.37248419   -2.7856137   0.55816756   -2.2274462   0.12539081    11616.918     1000 
  216000    0.3756153   -2.7796833   0.56285953   -2.2168238   0.13828268    11537.555     1000 
  218000   0.38213312   -2.7869662   0.57262649   -2.2143397   0.12268697    11644.539     1000 
  220000   0.39528548   -2.7496681   0.59233528   -2.1573328   0.13061084    11668.508     1000 
  222000   0.36889755   -2.7644184   0.55279297   -2.2116254   0.13406022    11565.949     1000 
  224000   0.37517467   -2.7481366   0.56219924   -2.1859374   0.13252968    11600.562     1000 
  226000   0.39598253   -2.7865735   0.59337982   -2.1931937   0.13051165    11599.694     1000 
  228000    0.3724043   -2.7611934   0.55804785   -2.2031455   0.13080998    11498.147     1000 
  230000    0.3587815   -2.7800525   0.53763407   -2.2424184   0.14299544    11491.531     1000 
  232000    0.3989285   -2.7380235   0.59779436   -2.1402291   0.13924045    11504.444     1000 
  234000   0.38698806   -2.7706502    0.5799016   -2.1907486   0.14240924    11469.432     1000 
  236000    0.3736945   -2.7419754   0.55998121   -2.1819942   0.13496976    11475.149     1000 
  238000   0.37801158    -2.803625   0.56645035   -2.2371747   0.13658402    11575.648     1000 
  240000   0.38698118   -2.7663086   0.57989129   -2.1864173   0.13629937    11536.305     1000 
  242000   0.38675234   -2.7414522   0.57954838   -2.1619038   0.11984694    11766.529     1000 
  244000   0.38192444   -2.7565942   0.57231377   -2.1842804   0.11898291    11691.551     1000 
  246000   0.38028556   -2.7690431   0.56985791   -2.1991852   0.13723747    11496.755     1000 
  248000   0.36963384   -2.7423727   0.55389631   -2.1884764   0.13044537    11558.205     1000 
  250000   0.39456592   -2.7719925   0.59125703   -2.1807354    0.1250778    11649.312     1000 
  252000    0.3811607   -2.7599532    0.5711693   -2.1887839   0.12534481    11575.937     1000 
  254000   0.37341536   -2.7914289   0.55956292    -2.231866   0.13636721    11549.081     1000 
  256000   0.37897585   -2.7654821   0.56789531   -2.1975868   0.14653517    11422.374     1000 
  258000   0.35375118   -2.7458778   0.53009614   -2.2157816    0.1285666    11498.806     1000 
  260000   0.38890934   -2.7798754   0.58278065   -2.1970948   0.14235873     11511.48     1000 
  262000    0.3767134   -2.7714206   0.56450503   -2.2069156    0.1396737    11547.605     1000 
  264000   0.37764874   -2.7476192   0.56590664   -2.1817126   0.13732517    11528.521     1000 
  266000    0.3929879    -2.731796   0.58889236   -2.1429036   0.13655456    11367.074     1000 
  268000   0.38995538   -2.7921592   0.58434814    -2.207811   0.13473903    11529.748     1000 
  270000   0.36663824   -2.7617631   0.54940741   -2.2123557   0.13466363    11475.754     1000 
  272000   0.38531466   -2.7736545   0.57739402   -2.1962604   0.13841576    11555.083     1000 
  274000   0.38266706     -2.79343   0.57342658   -2.2200034   0.11827149    11626.633     1000 
  276000    0.3849778    -2.800746   0.57688923   -2.2238567   0.12707588    11565.749     1000 
  278000   0.38586929   -2.7789342   0.57822513   -2.2007091   0.13018419    11643.549     1000 
  280000   0.38032187   -2.7859818   0.56991233   -2.2160695    0.1188608      11680.9     1000 
  282000   0.36896191   -2.7780041   0.55288943   -2.2251147   0.13691857    11536.914     1000 
  284000   0.37788998   -2.7226756   0.56626813   -2.1564075   0.12324607    11527.031     1000 
  286000    0.3811912   -2.7518033   0.57121502   -2.1805883   0.13864516    11450.713     1000 
  288000   0.38480789   -2.8108093   0.57663462   -2.2341747   0.13503268    11433.764     1000 
  290000   0.36324115   -2.8277179   0.54431687   -2.2834011   0.13854002    11604.273     1000 
  292000   0.37851221   -2.8225958   0.56720055   -2.2553952   0.11600128    11709.142     1000 
  294000   0.37749638   -2.7608842   0.56567832   -2.1952059   0.13012099    11500.933     1000 
  296000   0.37979367    -2.795503   0.56912081   -2.2263822   0.13442497    11537.188     1000 
  298000   0.38004209   -2.7834298   0.56949307   -2.2139367   0.12117693    11596.625     1000 
  300000   0.36379521   -2.8164537   0.54514712   -2.2713066   0.12042799     11682.28     1000 
  302000   0.38685745   -2.8201059   0.57970589      -2.2404   0.12313623    11568.209     1000 
  304000   0.38626735   -2.7580502   0.57882162   -2.1792285   0.13469264    11509.757     1000 
  306000   0.37663487    -2.808804   0.56438735   -2.2444166   0.13754365     11489.57     1000 
  308000   0.36515882   -2.7633658   0.54719049   -2.2161753   0.13119395    11527.965     1000 
  310000   0.37696241   -2.7444804   0.56487818   -2.1796022   0.15186921    11441.132     1000 
  312000   0.37201691   -2.7824284   0.55746734   -2.2249611   0.12616515    11665.171     1000 
  314000   0.37691142   -2.7765047   0.56480176   -2.2117029    0.1173824    11607.671     1000 
  316000   0.38727903   -2.7987945   0.58033762   -2.2184569   0.12427714     11570.19     1000 
  318000   0.36392855   -2.7716064   0.54534693   -2.2262595   0.13511225    11532.735     1000 
  320000   0.37283305   -2.7718487   0.55869032   -2.2131584   0.11718326    11664.074     1000 
  322000   0.37861857   -2.7713125   0.56735992   -2.2039525   0.12646999    11606.465     1000 
  324000   0.37996344    -2.771788   0.56937522   -2.2024127   0.13043951    11510.932     1000 
  326000   0.38137448   -2.7665104   0.57148966   -2.1950208   0.12949776    11594.592     1000 
  328000   0.35765365    -2.792483   0.53594399    -2.256539   0.12331072    11577.218     1000 
  330000   0.37823475   -2.7696493   0.56678478   -2.2028646   0.13160584    11563.973     1000 
  332000   0.37456035   -2.8011478   0.56127868   -2.2398691   0.14880074    11442.014     1000 
  334000   0.37751937   -2.7428147   0.56571277   -2.1771019   0.11959749    11615.804     1000 
  336000   0.38725296   -2.7821818   0.58029857   -2.2018832   0.12174921    11542.204     1000 
  338000   0.37991194   -2.7500492   0.56929804   -2.1807512    0.1394144    11436.888     1000 
  340000   0.40869742   -2.7061086   0.61243308   -2.0936756    0.1292203    11643.554     1000 
  342000   0.39024387   -2.7892828   0.58478043   -2.2045024   0.11775574    11681.613     1000 
  344000   0.36946028   -2.7916565   0.55363623   -2.2380203   0.13634386     11538.06     1000 
  346000   0.37650699   -2.7522975   0.56419573   -2.1881018   0.14008127    11581.523     1000 
  348000   0.37839755   -2.7794856   0.56702873   -2.2124569   0.12295186    11630.571     1000 
  350000   0.38601044   -2.7454963   0.57843664   -2.1670596   0.13381903    11557.039     1000 
  352000   0.37565232   -2.7316585     0.562915   -2.1687435   0.13093573    11426.864     1000 
  354000   0.37410467   -2.8295047   0.56059585   -2.2689089   0.12436398     11572.62     1000 
  356000   0.37485696    -2.796274   0.56172315   -2.2345509   0.13145269    11600.891     1000 
  358000   0.38145137   -2.7364422   0.57160487   -2.1648373   0.13595397    11422.047     1000 
  360000   0.38446315    -2.789271   0.57611803   -2.2131529   0.12779868      11565.4     1000 
  362000    0.3685069   -2.7467214    0.5522076   -2.1945138    0.1355785    11543.002     1000 
  364000   0.38618487   -2.7435452   0.57869803   -2.1648471   0.13322865    11502.223     1000 
  366000   0.39839495   -2.7780376   0.59699483   -2.1810427   0.12946576    11600.302     1000 
  368000   0.38264147   -2.7819936   0.57338824   -2.2086054   0.10846608    11752.574     1000 
  370000   0.39368611   -2.7516078   0.58993864   -2.1616691   0.12150553    11568.864     1000 
  372000   0.38197836   -2.7899182   0.57239458   -2.2175236   0.12621196     11591.56     1000 
  374000   0.37783065   -2.7638409   0.56617923   -2.1976617   0.13461299    11530.036     1000 
  376000   0.37812322   -2.7615377   0.56661765     -2.19492      0.13875    11542.182     1000 
  378000    0.3828289   -2.7839368    0.5736691   -2.2102677   0.11741536    11603.605     1000 
  380000   0.36990132    -2.775813   0.55429712   -2.2215159   0.12417405    11516.615     1000 
  382000   0.38248798   -2.7468007   0.57315824   -2.1736425    0.1278904    11512.571     1000 
  384000   0.39403055   -2.7646672   0.59045478   -2.1742124   0.13267788    11592.204     1000 
  386000   0.36127085   -2.7228173   0.54136437   -2.1814529   0.11410302    11628.379     1000 
  388000   0.39039796   -2.8110547   0.58501135   -2.2260434   0.12729926    11621.007     1000 
  390000   0.38101929   -2.7859815   0.57095741   -2.2150241    0.1313322    11502.557     1000 
  392000   0.37673796    -2.785354   0.56454184   -2.2208122   0.12281209     11576.82     1000 
  394000   0.36746719   -2.7514013   0.55064959   -2.2007517   0.11607501    11619.906     1000 
  396000   0.37918757    -2.783407   0.56821257   -2.2151945   0.12722127    11564.859     1000 
  398000   0.38333428   -2.8143669   0.57442642   -2.2399404   0.12424772    11579.934     1000 
  400000   0.36947908   -2.7671944    0.5536644     -2.21353   0.13215697    11512.491     1000 
  402000   0.37537345   -2.7861134   0.56249711   -2.2236163   0.11979838    11655.045     1000 
  404000   0.38678453   -2.7762808   0.57959661   -2.1966842   0.13024025    11561.117     1000 
  406000   0.36489869   -2.7888146   0.54680068   -2.2420139   0.13116176    11584.236     1000 
  408000   0.36954467   -2.7762413   0.55376269   -2.2224786   0.13103638    11475.954     1000 
  410000   0.37977145   -2.7722858   0.56908751   -2.2031983   0.13283898    11541.862     1000 
  412000   0.38443123   -2.8011734    0.5760702   -2.2251032   0.12508792    11585.981     1000 
  414000   0.38505116   -2.7676217   0.57699916   -2.1906226   0.13691482    11490.645     1000 
  416000   0.38361748    -2.749424    0.5748508   -2.1745732   0.13803197    11459.719     1000 
  418000   0.38682848   -2.7698149   0.57966248   -2.1901524    0.1309915    11629.784     1000 
  420000   0.39002308   -2.7759985   0.58444958    -2.191549   0.13145566    11548.426     1000 
  422000   0.37737553   -2.7657208   0.56549723   -2.2002235   0.13466936    11629.153     1000 
  424000   0.38831655   -2.7438422   0.58189235   -2.1619498   0.14256249    11502.156     1000 
  426000   0.38082911   -2.7597245   0.57067242   -2.1890521   0.12931776    11539.266     1000 
  428000   0.38188272   -2.7638522   0.57225126    -2.191601   0.11422831    11643.699     1000 
  430000   0.37676458   -2.7574354   0.56458172   -2.1928537   0.13742532    11527.103     1000 
  432000   0.38197767   -2.8001462   0.57239354   -2.2277527   0.12579119    11659.399     1000 
  434000   0.36827189    -2.796617   0.55185542   -2.2447616   0.11901432    11588.813     1000 
  436000   0.38887916   -2.7945219   0.58273542   -2.2117865   0.11972513    11606.507     1000 
  438000   0.35937018   -2.7935175   0.53851622   -2.2550013   0.12795184    11546.524     1000 
  440000   0.37052755   -2.7572738   0.55523553   -2.2020383    0.1298989    11494.738     1000 
  442000   0.38602439   -2.7704604   0.57845755   -2.1920029   0.13519075     11530.86     1000 
  444000   0.38420335   -2.7664286   0.57572872   -2.1906998   0.12846497    11600.894     1000 
  446000     0.377744   -2.7118281   0.56604939   -2.1457787   0.12343342    11615.547     1000 
  448000   0.37859305   -2.7890177   0.56732169    -2.221696     0.111131     11661.73     1000 
  450000   0.37193691   -2.7777191   0.55734746   -2.2203717   0.12904087    11558.982     1000 
  452000   0.37265145   -2.8005674    0.5584182   -2.2421492   0.12062297    11609.208     1000 
  454000   0.37574985   -2.7739689   0.56306115   -2.2109077   0.13032451     11499.21     1000 
  456000   0.38677504   -2.7491117    0.5795824   -2.1695293   0.13981557    11504.428     1000 
  458000   0.37674533   -2.8203213   0.56455288   -2.2557684   0.12165612    11706.432     1000 
  460000   0.37032711   -2.7900876   0.55493518   -2.2351524   0.13414438    11548.345     1000 
  462000   0.39036005   -2.7769068   0.58495453   -2.1919523   0.13068325    11647.464     1000 
  464000   0.38765279   -2.7944725    0.5808977   -2.2135748   0.13870683    11513.206     1000 
  466000   0.39466753   -2.7771628   0.59140929   -2.1857535   0.12440014    11585.502     1000 
  468000   0.37396847   -2.7707294   0.56039175   -2.2103377   0.13145928    11474.659     1000 
  470000   0.37713037   -2.7563989   0.56512986    -2.191269   0.11883423    11647.306     1000 
  472000   0.38404622   -2.7451928   0.57549327   -2.1696995   0.12828378    11532.569     1000 
  474000   0.39977359   -2.7302683   0.59906073   -2.1312076   0.14516029    11387.884     1000 
  476000    0.3750256   -2.7310559   0.56197586   -2.1690801   0.14346088    11438.452     1000 
  478000   0.36015426    -2.810691   0.53969117   -2.2709999    0.1295483     11510.24     1000 
  480000   0.38144634   -2.7645032   0.57159734   -2.1929059   0.12506794    11588.792     1000 
  482000    0.3794669   -2.7420472   0.56863115   -2.1734161   0.13379754    11377.312     1000 
  484000   0.38329729   -2.7975881   0.57437099   -2.2232171   0.12629669    11710.109     1000 
  486000   0.36564507   -2.7483933   0.54791913   -2.2004742   0.13065142    11652.281     1000 
  488000   0.40537695   -2.7460344   0.60745736   -2.1385771   0.13881711    11535.403     1000 
  490000   0.38591068   -2.7634277   0.57828715   -2.1851406   0.11521031    11637.841     1000 
  492000   0.38348957    -2.778071   0.57465911   -2.2034119   0.11623349    11708.957     1000 
  494000    0.3844181   -2.7766986   0.57605052   -2.2006481    0.1220894    11666.531     1000 
  496000   0.36757948   -2.7612687   0.55081786   -2.2104508   0.12837608    11546.224     1000 
  498000   0.37552361   -2.7561703   0.56272213   -2.1934481   0.13213522    11589.695     1000 
  500000   0.37009517   -2.7902862   0.55458761   -2.2356986    0.1196318    11695.361     1000 
  502000   0.36165449   -2.7656819   0.54193925   -2.2237426    0.1265421    11602.382     1000 
  504000   0.38472248   -2.7624405   0.57650663   -2.1859339   0.11826966    11550.165     1000 
  506000   0.37100275   -2.7564797   0.55594762   -2.2005321   0.13132776    11604.954     1000 
  508000   0.37210573   -2.7559565   0.55760043   -2.1983561   0.13436309    11521.603     1000 
  510000   0.39825284   -2.7500097   0.59678188   -2.1532278   0.12417906    11595.885     1000 
  512000    0.3878379   -2.8107096   0.58117509   -2.2295345   0.13558456    11487.774     1000 
  514000    0.3837988   -2.7799354   0.57512251   -2.2048129   0.13066804    11606.866     1000 
  516000   0.38055228    -2.772363   0.57025759   -2.2021054   0.13598593    11501.565     1000 
  518000   0.37760946    -2.749451   0.56584777   -2.1836032   0.14008665    11480.232     1000 
  520000   0.38131873   -2.7828181   0.57140612    -2.211412   0.13093606    11550.652     1000 
  522000   0.37942569   -2.7744075    0.5685694   -2.2058381   0.12020486    11606.288     1000 
  524000   0.37955677   -2.7682775   0.56876582   -2.1995117   0.13685785    11509.236     1000 
  526000   0.37961998   -2.7258362   0.56886054   -2.1569756   0.14129959    11446.164     1000 
  528000   0.36750447   -2.8005715   0.55070545    -2.249866   0.13056668     11644.16     1000 
  530000   0.38152719   -2.7799325    0.5717185    -2.208214   0.11861906    11605.582     1000 
  532000   0.36674342    -2.744021   0.54956501    -2.194456   0.11493187    11523.119     1000 
  534000   0.38298342   -2.7551668   0.57390066   -2.1812662   0.12550918    11626.514     1000 
  536000   0.37494746   -2.7696304   0.56185877   -2.2077716   0.12609899    11555.778     1000 
  538000   0.35670697   -2.7592313   0.53452539   -2.2247059   0.11690682    11673.567     1000 
  540000    0.3671355   -2.7524012   0.55015254   -2.2022487   0.13111126    11501.225     1000 
  542000   0.37723753   -2.8183347   0.56529043   -2.2530443   0.12298353    11633.865     1000 
  544000    0.3801571   -2.7530959   0.56966542   -2.1834305   0.13121095    11575.003     1000 
  546000    0.3842888   -2.8051402   0.57585677   -2.2292835   0.12149426    11553.327     1000 
  548000    0.4113327   -2.7594486   0.61638204   -2.1430666   0.13984189    11539.945     1000 
  550000   0.40154611   -2.7969313   0.60171685   -2.1952144   0.13721292    11593.107     1000 
  552000   0.37833607   -2.7947182    0.5669366   -2.2277816   0.11135742    11607.461     1000 
  554000   0.37004398   -2.7250537    0.5545109   -2.1705428   0.14696386    11369.615     1000 
  556000   0.38368394   -2.7371629   0.57495039   -2.1622126   0.13281878    11523.018     1000 
  558000   0.39289301   -2.7613146   0.58875018   -2.1725644    0.1288493    11479.998     1000 
  560000   0.37977523   -2.8001236   0.56909319   -2.2310304   0.12753463    11620.081     1000 
  562000   0.38782149   -2.7823787    0.5811505   -2.2012282   0.12674271    11600.538     1000 
  564000   0.37274069   -2.7756007   0.55855192   -2.2170488   0.12214889    11592.889     1000 
  566000   0.37433718   -2.7720347   0.56094426   -2.2110905   0.14014664    11496.244     1000 
  568000    0.3761621   -2.7732926   0.56367891   -2.2096136   0.12849325    11604.093     1000 
  570000   0.35977318    -2.769413   0.53912012   -2.2302929   0.13258822     11478.07     1000 
  572000   0.38618048   -2.7750844   0.57869146   -2.1963929   0.13252965    11531.102     1000 
  574000   0.37427903   -2.7413295   0.56085713   -2.1804723   0.12490156    11585.702     1000 
  576000   0.37661532    -2.784398   0.56435806     -2.22004    0.1329952    11515.537     1000 
  578000   0.39442518   -2.7514988   0.59104614   -2.1604527   0.12480307    11546.233     1000 
  580000   0.36706256   -2.7580757   0.55004324   -2.2080325   0.13682145    11523.927     1000 
  582000   0.38927863   -2.8013943   0.58333403   -2.2180603   0.13529086    11579.802     1000 
  584000   0.38663727   -2.7447833   0.57937595   -2.1654073   0.13221354    11522.101     1000 
  586000   0.37606347   -2.7658826    0.5635311   -2.2023515   0.13608555    11446.024     1000 
  588000   0.37204688   -2.7865981   0.55751225   -2.2290858   0.12574864    11660.136     1000 
  590000   0.37324108   -2.7433588   0.55930176    -2.184057   0.12091422    11604.739     1000 
  592000   0.39147968   -2.7616467   0.58663231   -2.1750144   0.11919033    11657.463     1000 
  594000   0.38456738   -2.7942716   0.57627423   -2.2179973    0.1285144    11567.491     1000 
  596000   0.38991327   -2.8134657   0.58428503   -2.2291806   0.11870606    11697.051     1000 
  598000   0.37439991   -2.7655385   0.56103827   -2.2045002   0.14310094    11499.816     1000 
  600000   0.37755234   -2.7990762   0.56576219    -2.233314   0.13409015    11524.772     1000 
  602000   0.38958133   -2.7949234   0.58378762   -2.2111358   0.12348185    11640.932     1000 
  604000   0.38368747   -2.7585998   0.57495568   -2.1836441   0.12562262    11632.294     1000 
  606000   0.38448198   -2.7684323   0.57614624    -2.192286   0.14097398    11423.882     1000 
  608000   0.39176083   -2.7862955    0.5870536   -2.1992419   0.13652248    11536.456     1000 
  610000   0.38490215   -2.7865358   0.57677587   -2.2097599   0.12456969    11626.747     1000 
  612000   0.37460867   -2.7767214   0.56135109   -2.2153703   0.13535538    11565.778     1000 
  614000   0.38466518   -2.8109715   0.57642078   -2.2345508   0.11856859    11648.116     1000 
  616000   0.37382351   -2.7661013   0.56017453   -2.2059268   0.13636877    11579.059     1000 
  618000   0.37565967   -2.7665396   0.56292601   -2.2036136   0.12460106    11529.331     1000 
  620000   0.39011844   -2.7770463   0.58459248   -2.1924538   0.12632386    11599.102     1000 
  622000   0.39182426   -2.7597713   0.58714865   -2.1726227   0.12234759    11626.034     1000 
  624000   0.37016932   -2.8162032   0.55469873   -2.2615045   0.13244623    11519.663     1000 
  626000   0.37996741   -2.7410488   0.56938117   -2.1716677     0.128112    11554.701     1000 
  628000   0.36298173   -2.7300484   0.54392813   -2.1861202   0.13381365    11541.573     1000 
  630000    0.4041241   -2.7678202   0.60557996   -2.1622402   0.12942679    11521.661     1000 
  632000   0.39504139   -2.7823091   0.59196952   -2.1903396   0.13814482    11486.984     1000 
  634000    0.3781818   -2.7616137   0.56670543   -2.1949082   0.13340047     11466.78     1000 
  636000   0.38500921   -2.7504535    0.5769363   -2.1735172   0.12260247    11576.275     1000 
  638000   0.39392175   -2.7906997   0.59029174   -2.2004079   0.13229166    11446.064     1000 
  640000   0.39834463   -2.7767523   0.59691943   -2.1798329   0.12946094    11594.087     1000 
  642000   0.37375319   -2.7439126   0.56006916   -2.1838434   0.12510109    11518.692     1000 
  644000   0.39423412   -2.7482739   0.59075983   -2.1575141   0.13526458     11467.05     1000 
  646000   0.38007591   -2.7681126   0.56954375   -2.1985688   0.12245882    11609.061     1000 
  648000   0.37835487   -2.7354938   0.56696477   -2.1685291   0.12953326    11573.845     1000 
  650000    0.3796281   -2.7460618   0.56887271   -2.1771891   0.13109478    11485.714     1000 
  652000   0.38805171   -2.7707522   0.58149548   -2.1892567   0.12834109    11623.278     1000 
  654000    0.3886173   -2.7640168   0.58234302   -2.1816737   0.11979889    11664.666     1000 
  656000   0.38733817   -2.7924927   0.58042625   -2.2120664   0.14439482    11590.869     1000 
  658000   0.38085231   -2.7643244   0.57070719   -2.1936172   0.12831239    11479.058     1000 
  660000   0.38332903   -2.7504972   0.57441855   -2.1760786   0.13888029    11486.603     1000 
  662000   0.38965385   -2.7470316    0.5838963   -2.1631353   0.13309242    11558.118     1000 
  664000   0.37586226   -2.7681332   0.56322959   -2.2049036   0.14193425    11464.715     1000 
  666000   0.37773218    -2.809661   0.56603168   -2.2436293   0.13193338    11541.201     1000 
  668000   0.39235873    -2.761753   0.58794956   -2.1738035   0.13510889    11519.043     1000 
  670000   0.39525336   -2.7574053   0.59228716   -2.1651181   0.13561687    11512.711     1000 
  672000   0.38858651   -2.7626409   0.58229688    -2.180344   0.14182921    11422.958     1000 
  674000   0.38143864   -2.7193731    0.5715858   -2.1477873   0.14047062    11430.242     1000 
  676000   0.38505865   -2.7834126   0.57701039   -2.2064022   0.14163703    11522.309     1000 
  678000   0.36590877   -2.7567738   0.54831429   -2.2084595   0.12759361    11575.977     1000 
  680000    0.3643386   -2.7309022    0.5459614   -2.1849408    0.1354782    11531.807     1000 
  682000   0.37060647   -2.7951408    0.5553538    -2.239787   0.13628481    11573.665     1000 
  684000   0.37301631   -2.7695177   0.55896494   -2.2105527     0.139418    11533.683     1000 
  686000    0.3866421   -2.7505823   0.57938319   -2.1711991   0.13295649    11530.891     1000 
  688000   0.38323138   -2.7764109   0.57427223   -2.2021387   0.13145597    11531.755     1000 
  690000   0.37464456   -2.7556444   0.56140488   -2.1942395   0.12757852    11593.158     1000 
  692000     0.372156   -2.7294281   0.55767577   -2.1717524   0.12615899    11519.532     1000 
  694000   0.37467639   -2.7890168   0.56145257   -2.2275642   0.13077681    11560.805     1000 
  696000   0.37521449   -2.7879525   0.56225892   -2.2256936    0.1281063    11570.314     1000 
  698000   0.36722443   -2.7523923   0.55028581   -2.2021065   0.12282349    11504.666     1000 
  700000   0.38469168   -2.7839195   0.57646049   -2.2074591   0.11875689    11570.985     1000 
  702000   0.37434432   -2.7628201   0.56095497   -2.2018652   0.13346902    11536.442     1000 
  704000   0.39443298   -2.7814647   0.59105782   -2.1904069   0.13222252    11646.896     1000 
  706000   0.38529258   -2.8219222   0.57736093   -2.2445612   0.11796783    11571.605     1000 
  708000   0.36941095   -2.7530344   0.55356231   -2.1994721    0.1190232    11657.685     1000 
  710000   0.38929538   -2.7924043   0.58335913   -2.2090452   0.13388945    11583.614     1000 
  712000   0.36918953     -2.76589   0.55323051   -2.2126595   0.12894494    11583.288     1000 
  714000   0.39080284   -2.7520837   0.58561805   -2.1664656   0.13714146    11522.615     1000 
  716000   0.35923696   -2.7714029   0.53831658   -2.2330863   0.12597271    11586.063     1000 
  718000   0.36969417   -2.7519714   0.55398671   -2.1979847   0.14061071    11454.048     1000 
  720000   0.37409527   -2.7516111   0.56058177   -2.1910293   0.14914081     11349.53     1000 
  722000   0.39451012   -2.7842431   0.59117342   -2.1930696   0.11972345    11566.146     1000 
  724000   0.37920554   -2.7286009    0.5682395   -2.1603614   0.13038353    11582.677     1000 
  726000   0.39091281   -2.7547449   0.58578284   -2.1689621   0.12410281    11583.622     1000 
  728000   0.37416999   -2.7720069   0.56069372   -2.2113132   0.12453585    11616.368     1000 
  730000   0.39844194   -2.7565538   0.59706525   -2.1594885   0.13456939      11538.6     1000 
  732000   0.38632664   -2.8043789   0.57891046   -2.2254684   0.14488881    11472.349     1000 
  734000   0.39350696        -2.79   0.58967019   -2.2003298   0.13432927    11466.895     1000 
  736000   0.36984822   -2.7629874   0.55421756   -2.2087698   0.12940353    11512.638     1000 
  738000   0.37566774   -2.7786685   0.56293811   -2.2157304   0.12809736    11556.307     1000 
  740000   0.36969574   -2.7901429   0.55398906   -2.2361538    0.1500536    11527.752     1000 
  742000   0.38403345   -2.7547746   0.57547412   -2.1793005   0.12508372    11524.487     1000 
  744000   0.36950032   -2.7589569   0.55369623   -2.2052607   0.13641894    11454.149     1000 
  746000    0.3766374   -2.7442359   0.56439115   -2.1798447   0.13037963    11498.086     1000 
  748000   0.38426208   -2.7883894   0.57581673   -2.2125727   0.13018613    11593.104     1000 
  750000   0.38512578   -2.7718009   0.57711098     -2.19469   0.12899388    11472.332     1000 
  752000   0.37990758   -2.7398798   0.56929151   -2.1705883   0.12924215    11443.516     1000 
  754000    0.3764124   -2.7420151   0.56405399   -2.1779611   0.13703174    11511.309     1000 
  756000   0.37440722   -2.7753524   0.56104922   -2.2143032   0.12736624    11519.734     1000 
  758000     0.369736    -2.818284    0.5540494   -2.2642346   0.12776358    11609.415     1000 
  760000   0.38429162   -2.7785199     0.575861   -2.2026589   0.12550709    11600.592     1000 
  762000   0.38834257   -2.7946261   0.58193134   -2.2126948   0.13778985    11483.189     1000 
  764000    0.3775567   -2.7755941   0.56576871   -2.2098254   0.13626833    11431.059     1000 
  766000   0.37625403   -2.7553731   0.56381666   -2.1915564    0.1290666    11472.761     1000 
  768000   0.38282259   -2.7963806   0.57365965   -2.2227209   0.11693417    11701.439     1000 
  770000   0.36309317   -2.7801242   0.54409512   -2.2360291   0.11134322     11728.35     1000 
  772000   0.36901955   -2.7734274   0.55297579   -2.2204516   0.12172126    11607.508     1000 
  774000   0.37689769   -2.7418504   0.56478119   -2.1770692   0.13779899    11500.658     1000 
  776000   0.38141247   -2.7420327   0.57154659   -2.1704862   0.12840163    11477.215     1000 
  778000   0.38679905   -2.7903459   0.57961837   -2.2107275   0.13763997    11478.651     1000 
  780000   0.38373417   -2.7495919   0.57502566   -2.1745663   0.12233299     11564.77     1000 
  782000   0.38206257   -2.7713077   0.57252076   -2.1987869   0.11763724    11604.772     1000 
  784000   0.39389688   -2.7850543   0.59025447   -2.1947999    0.1297648    11598.556     1000 
  786000   0.38405585   -2.8106398    0.5755077   -2.2351321   0.12192974    11613.067     1000 
  788000   0.37950757   -2.7555648    0.5686921   -2.1868727   0.14963536    11390.446     1000 
  790000   0.38804358   -2.8035199    0.5814833   -2.2220366   0.13671519    11577.062     1000 
  792000   0.36541363   -2.7513143   0.54757232    -2.203742   0.14604609    11499.407     1000 
  794000   0.38640443    -2.791679   0.57902703    -2.212652   0.11584522     11656.11     1000 
  796000   0.37126058   -2.7259562   0.55633398   -2.1696222   0.13593887    11495.708     1000 
  798000   0.38939068   -2.7310572   0.58350194   -2.1475553   0.12315366    11520.979     1000 
  800000   0.38242054   -2.7679911   0.57305717   -2.1949339   0.13184594     11522.07     1000 
  802000   0.37475191   -2.7646069   0.56156574   -2.2030412   0.11782486    11612.994     1000 
  804000   0.39711133   -2.7404836   0.59507133   -2.1454123   0.12523185    11594.916     1000 
  806000   0.37651391   -2.8018361   0.56420609     -2.23763     0.129135    11571.473     1000 
  808000   0.38157423   -2.7878589   0.57178899     -2.21607   0.11066454    11596.724     1000 
  810000   0.37093014   -2.7490892   0.55583881   -2.1932504   0.11954766    11627.978     1000 
  812000   0.37169126   -2.7791247   0.55697935   -2.2221454   0.13764536    11507.235     1000 
  814000   0.38188453   -2.7662421   0.57225397   -2.1939881   0.11923091    11666.183     1000 
  816000   0.37726416   -2.7753738   0.56533034   -2.2100435   0.12569093    11541.177     1000 
  818000   0.39360937   -2.7997618   0.58982364   -2.2099381   0.13371892    11483.149     1000 
  820000   0.38757658   -2.7907534   0.58078351   -2.2099699   0.13963818     11545.15     1000 
  822000   0.37980831   -2.7494131   0.56914276   -2.1802704   0.12026371    11505.588     1000 
  824000   0.37442819    -2.729965   0.56108064   -2.1688844   0.12044185    11581.795     1000 
  826000   0.38019379   -2.7759315    0.5697204   -2.2062111   0.14030163    11527.953     1000 
  828000   0.37477575   -2.7621531   0.56160147   -2.2005516   0.11568159    11691.582     1000 
  830000   0.38489043   -2.7351136   0.57675832   -2.1583553   0.12578443     11552.48     1000 
  832000   0.38819913   -2.7735599    0.5817164   -2.1918435   0.12904192    11570.779     1000 
  834000   0.38543726   -2.7629197   0.57757774   -2.1853419   0.12768972    11492.864     1000 
  836000    0.3860871   -2.7489176   0.57855151   -2.1703661   0.13497527    11607.214     1000 
  838000   0.39522448    -2.777452   0.59224388   -2.1852081   0.14045937    11510.678     1000 
  840000   0.38562794   -2.7964765   0.57786347    -2.218613   0.13038355    11571.373     1000 
  842000   0.36216497    -2.797193    0.5427042   -2.2544888   0.11571709    11650.664     1000 
  844000   0.37043879   -2.7851335   0.55510252    -2.230031   0.12147728    11577.986     1000 
  846000   0.37309968   -2.7514332   0.55908988   -2.1923433    0.1415519     11468.03     1000 
  848000   0.35635445   -2.7707117   0.53399714   -2.2367146   0.14735849    11373.116     1000 
  850000   0.39025096   -2.7819756   0.58479107   -2.1971846   0.12504592    11689.501     1000 
  852000   0.38633778   -2.7453047   0.57892716   -2.1663776   0.15040376    11443.331     1000 
  854000   0.39362306   -2.7889407   0.58984416   -2.1990965    0.1341584     11557.75     1000 
  856000   0.37386681   -2.8191817   0.56023941   -2.2589423   0.13022714    11633.489     1000 
  858000   0.37741484   -2.7433187   0.56555613   -2.1777625   0.12142317    11652.604     1000 
  860000   0.37381158   -2.7662961   0.56015665   -2.2061394   0.13604387    11470.115     1000 
  862000   0.37388535    -2.817685    0.5602672   -2.2574178   0.11898217    11635.674     1000 
  864000   0.37987565   -2.7624674   0.56924366   -2.1932237   0.14968365    11453.929     1000 
  866000   0.37746051   -2.7443705   0.56562457    -2.178746   0.13082294    11544.457     1000 
  868000   0.38236737   -2.7794291    0.5729775   -2.2064516   0.12516909    11602.164     1000 
  870000    0.3731449   -2.7758675   0.55915764   -2.2167098    0.1319378    11503.909     1000 
  872000   0.39044717   -2.7701933   0.58508509   -2.1851082   0.12389581     11651.07     1000 
  874000   0.37860193   -2.7774707   0.56733499   -2.2101357   0.12337579    11600.661     1000 
  876000   0.38167389   -2.7701833   0.57193832   -2.1982449   0.12169812    11577.023     1000 
  878000   0.38014753   -2.8185848   0.56965107   -2.2489337   0.11958674    11601.912     1000 
  880000    0.3780304   -2.8069187   0.56647855   -2.2404402   0.13726876    11649.528     1000 
  882000   0.38371777   -2.7751199   0.57500108   -2.2001188   0.12775012    11686.127     1000 
  884000    0.3812437    -2.759449   0.57129368   -2.1881553   0.13476762    11537.591     1000 
  886000   0.37750018    -2.737904   0.56568402   -2.1722199   0.13353772    11528.414     1000 
  888000   0.37254189   -2.7412949   0.55825402   -2.1830409   0.11791071     11618.47     1000 
  890000   0.37618347   -2.7742192   0.56371093   -2.2105083   0.13456135    11536.948     1000 
  892000   0.37317926    -2.769672   0.55920911   -2.2104629   0.13844244    11532.762     1000 
  894000   0.38773543   -2.7505091   0.58102155   -2.1694876   0.13075795     11549.28     1000 
  896000   0.36970241   -2.7650827   0.55399906   -2.2110836   0.12494948    11575.861     1000 
  898000   0.38617924   -2.7903336   0.57868959    -2.211644    0.1252567    11642.682     1000 
  900000   0.38075111   -2.7514466   0.57055554    -2.180891   0.13967619    11596.771     1000 
  902000   0.37923838   -2.7439092   0.56828871   -2.1756205   0.13603674    11561.372     1000 
  904000    0.3824236   -2.7695076   0.57306176   -2.1964459    0.1267703    11652.908     1000 
  906000   0.38207641   -2.8073598    0.5725415   -2.2348183   0.12669551    11510.413     1000 
  908000   0.38602711   -2.7601201   0.57846162   -2.1816585   0.13189884     11512.48     1000 
  910000   0.37456232   -2.7806675   0.56128164   -2.2193859   0.13049493    11482.341     1000 
  912000   0.38561469   -2.7160161   0.57784361   -2.1381725   0.13617245     11519.11     1000 
  914000   0.38593491   -2.7632289   0.57832347   -2.1849054    0.1403243    11519.269     1000 
  916000   0.36951024   -2.7774166    0.5537111   -2.2237056   0.12423925    11614.458     1000 
  918000   0.36824468   -2.7890982   0.55181465   -2.2372835   0.12500766    11643.571     1000 
  920000   0.37554504   -2.7438428   0.56275425   -2.1810885   0.12722576    11507.513     1000 
  922000   0.38472123   -2.7590354   0.57650477   -2.1825307   0.12973369    11499.998     1000 
  924000   0.38063564   -2.7683244    0.5703825   -2.1979419   0.13501945    11573.467     1000 
  926000   0.38039604   -2.7543782   0.57002346   -2.1843548   0.13628898    11427.696     1000 
  928000   0.37441364    -2.824203   0.56105884   -2.2631441   0.13495713    11548.414     1000 
  930000    0.3759154   -2.7999856   0.56330922   -2.2366763   0.12378643    11604.044     1000 
  932000   0.39170662   -2.7905413   0.58697238    -2.203569   0.12818602    11678.064     1000 
  934000   0.37728096   -2.7821399   0.56535552   -2.2167844   0.13448919    11502.425     1000 
  936000   0.37205743    -2.749328   0.55752806   -2.1917999   0.12851806    11477.634     1000 
  938000     0.377142   -2.8010631   0.56514729   -2.2359158   0.11179202    11760.227     1000 
  940000   0.37492215   -2.7324106   0.56182084   -2.1705898   0.13528297    11535.294     1000 
  942000   0.37153476    -2.766227   0.55674483   -2.2094821   0.12305819    11593.026     1000 
  944000   0.37721919   -2.8340438   0.56526295   -2.2687808   0.13242764    11626.851     1000 
  946000   0.38102682   -2.7655851   0.57096869   -2.1946164   0.13681678    11538.031     1000 
  948000   0.40078855   -2.7918268   0.60058164   -2.1912452   0.12472529    11488.611     1000 
  950000   0.38801306   -2.7784002   0.58143757   -2.1969627    0.1324702    11539.001     1000 
  952000    0.3708774   -2.7216512   0.55575979   -2.1658915   0.11822253    11573.077     1000 
  954000   0.37889338    -2.744963   0.56777173   -2.1771913   0.11919102    11557.467     1000 
  956000   0.39098294    -2.746529   0.58588794   -2.1606411    0.1338164    11470.956     1000 
  958000    0.3729842   -2.7951241   0.55891683   -2.2362073   0.12139776    11606.951     1000 
  960000   0.40008401    -2.804519   0.59952589   -2.2049931   0.11511232    11678.183     1000 
  962000   0.36786545    -2.775957   0.55124638   -2.2247106   0.14063132    11539.657     1000 
  964000   0.38902586   -2.7396423   0.58295524   -2.1566871   0.13542566    11521.448     1000 
  966000   0.38535161   -2.7606726   0.57744939   -2.1832232   0.12561186     11525.43     1000 
  968000   0.36721121   -2.7766296     0.550266   -2.2263636   0.11520098    11718.235     1000 
  970000   0.36845201   -2.8039682   0.55212533   -2.2518428    0.1199952    11685.714     1000 
  972000    0.3719713   -2.7523106   0.55739899   -2.1949116   0.12837846    11443.495     1000 
  974000   0.38713079   -2.7909866   0.58011548   -2.2108711    0.1442814    11500.895     1000 
  976000   0.38531473   -2.7704901   0.57739412    -2.193096   0.12029293    11632.072     1000 
  978000   0.38930567   -2.7900228   0.58337455   -2.2066482   0.13208591    11592.406     1000 
  980000   0.35564517   -2.7686909   0.53293429   -2.2357566   0.13606351    11418.953     1000 
  982000   0.37089555   -2.7467366   0.55578698   -2.1909496   0.12724689    11602.041     1000 
  984000   0.39334261   -2.7451532    0.5894239   -2.1557293   0.13367636    11511.768     1000 
  986000   0.36844071   -2.7777741    0.5521084   -2.2256657   0.13509423    11452.304     1000 
  988000   0.38768069   -2.7672101   0.58093952   -2.1862706   0.14193658    11474.092     1000 
  990000   0.38022843   -2.7983379   0.56977231   -2.2285656   0.13291594    11536.692     1000 
  992000   0.38080628   -2.7702186   0.57063821   -2.1995804   0.13060485    11546.697     1000 
  994000   0.37662646   -2.7787418   0.56437475   -2.2143671   0.11952367    11533.703     1000 
  996000   0.39648872   -2.7785334   0.59413835    -2.184395   0.13475551    11550.195     1000 
  998000   0.38843004   -2.7630527   0.58206241   -2.1809903    0.1410792    11433.656     1000 
 1000000    0.3932152   -2.7506496   0.58923298   -2.1614166   0.12865479     11631.55     1000 
 1002000   0.37255016   -2.7983348   0.55826641   -2.2400684    0.1292988    11618.446     1000 
 1004000    0.3760277   -2.7837956    0.5634775   -2.2203181   0.12030053     11636.45     1000 
 1006000   0.38036889   -2.7279992   0.56998278   -2.1580165    0.1275378    11503.033     1000 
 1008000   0.37039583   -2.7371728   0.55503815   -2.1821346   0.14529975    11435.048     1000 
 1010000    0.3753162   -2.7729688   0.56241133   -2.2105575   0.14292626    11501.731     1000 
 1012000   0.38086402   -2.7594514   0.57072473   -2.1887267   0.12374768    11660.466     1000 
 1014000   0.37025206   -2.7523493   0.55482271   -2.1975266   0.12077324    11563.386     1000 
 1016000   0.38873983   -2.7626264   0.58252663   -2.1800998   0.13628716    11516.319     1000 
 1018000   0.37487685   -2.7950322   0.56175296   -2.2332792   0.12021436    11681.457     1000 
 1020000   0.38420787   -2.7832604    0.5757355   -2.2075249    0.1141664    11738.713     1000 
 1022000   0.38434729    -2.772304   0.57594441   -2.1963596   0.12764546    11597.345     1000 
 1024000   0.36504551   -2.7787859    0.5470207   -2.2317652   0.13569681    11499.095     1000 
 1026000   0.38001234   -2.7815331   0.56944849   -2.2120846    0.1275451    11645.731     1000 
 1028000   0.37047662    -2.728432   0.55515922   -2.1732728   0.12761643     11585.73     1000 
 1030000   0.39052081   -2.7391559   0.58519543   -2.1539605   0.13315335    11449.122     1000 
 1032000   0.37844746    -2.742646   0.56710352   -2.1755425   0.11910709    11575.474     1000 
 1034000   0.37362916   -2.7391387    0.5598833   -2.1792554   0.12289254    11591.156     1000 
 1036000   0.38083791   -2.8198143   0.57068561   -2.2491287   0.14372965    11542.006     1000 
 1038000   0.39458608    -2.777891   0.59128724   -2.1866038     0.138345    11522.437     1000 
 1040000   0.37651154   -2.7919269   0.56420255   -2.2277243   0.12416876    11587.948     1000 
 1042000    0.3954847   -2.7670155   0.59263382   -2.1743816   0.13246225    11515.544     1000 
 1044000   0.37019181   -2.7368893   0.55473243   -2.1821568   0.12660828    11582.025     1000 
 1046000   0.37083478    -2.785245   0.55569592    -2.229549   0.14800802    11504.103     1000 
 1048000   0.38242115   -2.7888402   0.57305809   -2.2157822   0.12438136    11594.509     1000 
 1050000   0.36560354   -2.7310133    0.5478569   -2.1831564   0.12542533    11476.437     1000 
 1052000   0.37841043   -2.7947012   0.56704803   -2.2276532   0.12489208    11628.188     1000 
 1054000   0.39769578   -2.7697698   0.59594712   -2.1738227   0.13862001    11500.469     1000 
 1056000   0.38258144   -2.7785517   0.57329829   -2.2052534   0.13974109     11490.91     1000 
 1058000   0.39178089   -2.7624731   0.58708366   -2.1753895   0.13172343    11585.876     1000 
 1060000   0.36348935   -2.7346036   0.54468879   -2.1899148   0.12333162    11461.188     1000 
 1062000   0.38201069   -2.7994199   0.57244302   -2.2269769   0.11909429    11629.674     1000 
 1064000    0.3767091   -2.7823256   0.56449859    -2.217827   0.12372375    11518.619     1000 
 1066000   0.38070485   -2.7630026   0.57048622   -2.1925164   0.13007899    11573.786     1000 
 1068000   0.39340341   -2.8046045   0.58951501   -2.2150895   0.12834217    11598.147     1000 
 1070000   0.38650233   -2.7862246   0.57917373   -2.2070508   0.13161015    11486.414     1000 
 1072000   0.38837488    -2.774409   0.58197976   -2.1924293   0.12623776    11622.109     1000 
 1074000   0.37143939   -2.7790391   0.55660192   -2.2224372   0.13372568    11575.234     1000 
 1076000   0.37906652   -2.7704252   0.56803118    -2.202394   0.13031694    11567.729     1000 
 1078000   0.37121025    -2.807995   0.55625855   -2.2517365   0.11931469    11570.986     1000 
 1080000    0.3731398   -2.7734938   0.55914999   -2.2143438   0.13603014    11577.522     1000 
 1082000   0.38769025   -2.7731363   0.58095384   -2.1921824   0.11649523    11618.927     1000 
 1084000   0.37109256     -2.77074   0.55608221   -2.2146578   0.13030262    11521.445     1000 
 1086000   0.38375662   -2.7834748    0.5750593   -2.2084155   0.13023187    11564.134     1000 
 1088000   0.39376626   -2.7675379   0.59005875   -2.1774792   0.13406992    11562.361     1000 
 1090000   0.37278627   -2.7967769   0.55862023   -2.2381566   0.11902796    11616.242     1000 
 1092000   0.38621437   -2.7652944   0.57874224   -2.1865521   0.13818609    11498.376     1000 
 1094000   0.38677186   -2.7314482   0.57957763   -2.1518705   0.12788982    11496.526     1000 
 1096000   0.37173146   -2.7779354   0.55703959   -2.2208958   0.12403565     11625.14     1000 
 1098000   0.38007715   -2.8083603    0.5695456   -2.2388147   0.12457849    11665.833     1000 
 1100000   0.37977103    -2.760506    0.5690869   -2.1914191   0.13328945    11498.556     1000 
 1102000   0.37976571   -2.7637197   0.56907891   -2.1946408   0.12090731    11664.974     1000 
 1104000   0.37593739   -2.7646993   0.56334218   -2.2013571   0.12759826    11684.887     1000 
 1106000   0.37930415   -2.7795447   0.56838727   -2.2111575   0.12216984    11562.322     1000 
 1108000   0.37881802   -2.7557832    0.5676588   -2.1881244   0.14570517    11417.951     1000 
 1110000   0.38556942   -2.7542696   0.57777577   -2.1764938   0.13923134    11502.075     1000 
 1112000   0.37790433   -2.7707745   0.56628964   -2.2044848   0.12813624     11602.37     1000 
 1114000   0.37938144   -2.7716516   0.56850309   -2.2031485   0.13681335    11457.926     1000 
 1116000   0.38521319   -2.7757339   0.57724196    -2.198492   0.11932845     11630.52     1000 
 1118000   0.37582816   -2.7563393    0.5631785   -2.1931608   0.12553718    11494.355     1000 
 1120000   0.36716783   -2.7565386     0.550201   -2.2063376   0.13834806     11494.37     1000 
 1122000   0.39962924   -2.7510507   0.59884441   -2.1522063   0.12344884    11588.364     1000 
 1124000    0.3800999    -2.768542   0.56957971   -2.1989623   0.11719355    11602.608     1000 
 1126000     0.393421   -2.7220534   0.58954137   -2.1325121   0.14104325    11438.094     1000 
 1128000   0.35764842   -2.7519237   0.53593616   -2.2159876   0.12802974    11631.333     1000 
 1130000   0.40661686   -2.7864171   0.60931536   -2.1771018   0.12601046    11613.412     1000 
 1132000   0.37442812   -2.7669365   0.56108053    -2.205856   0.11485577     11637.53     1000 
 1134000   0.38719983   -2.7902847   0.58021895   -2.2100657   0.13168816     11576.17     1000 
 1136000   0.38509777   -2.8019945   0.57706901   -2.2249254   0.13426067    11554.473     1000 
 1138000   0.36227468   -2.8029351   0.54286861   -2.2600665   0.11891534    11604.218     1000 
 1140000   0.39325734   -2.7759696   0.58929613   -2.1866735   0.13006009    11497.147     1000 
 1142000   0.38499593   -2.8198067    0.5769164   -2.2428903   0.13461043    11611.665     1000 
 1144000    0.3753837   -2.7317371   0.56251247   -2.1692246   0.13309136    11445.373     1000 
 1146000   0.37076178   -2.7561027   0.55558652   -2.2005162   0.13128989      11481.7     1000 
 1148000   0.37282437   -2.7631635   0.55867731   -2.2044862   0.13394157    11475.336     1000 
 1150000    0.3657184   -2.7938771   0.54802902   -2.2458481   0.12844534    11567.882     1000 
 1152000   0.38546815   -2.7960526   0.57762402   -2.2184286   0.11190462    11667.799     1000 
 1154000    0.3852785   -2.7514574   0.57733983   -2.1741175   0.12672699    11536.229     1000 
 1156000   0.40008817   -2.7761627   0.59953212   -2.1766306   0.13239673    11659.343     1000 
 1158000   0.38037885   -2.7835753   0.56999771   -2.2135776   0.13131041    11604.097     1000 
 1160000   0.38924431   -2.7725881    0.5832826   -2.1893055   0.12746741    11586.133     1000 
 1162000     0.393304   -2.7555073   0.58936604   -2.1661412   0.13972529    11518.427     1000 
 1164000   0.38004603   -2.7465264   0.56949897   -2.1770274   0.13779827    11339.799     1000 
 1166000   0.37951863   -2.7592624   0.56870867   -2.1905537    0.1195698    11593.211     1000 
 1168000   0.37686819   -2.7730632   0.56473698   -2.2083262   0.12489646    11515.912     1000 
 1170000   0.37506738   -2.7898831   0.56203846   -2.2278446   0.13203973     11570.05     1000 
 1172000   0.37268293   -2.7479529   0.55846536   -2.1894875   0.13048518    11541.069     1000 
 1174000   0.39870328   -2.8004815   0.59745687   -2.2030246   0.11983653    11569.944     1000 
 1176000   0.37381522   -2.7464944    0.5601621   -2.1863323   0.12187893    11686.633     1000 
 1178000   0.38124397   -2.8110591   0.57129409    -2.239765   0.12022046    11637.485     1000 
 1180000   0.39146598   -2.7952096   0.58661177   -2.2085978   0.13425965    11529.976     1000 
 1182000   0.38843916   -2.7979115   0.58207608   -2.2158355   0.12505288    11619.419     1000 
 1184000   0.38385386   -2.7744201   0.57520502   -2.1992151   0.11356345    11654.694     1000 
 1186000    0.3769044   -2.8127496   0.56479124   -2.2479584   0.13109648    11566.216     1000 
 1188000    0.3651865   -2.7823266   0.54723198   -2.2350946   0.13496627    11529.203     1000 
 1190000   0.39605169   -2.7602491   0.59348346   -2.1667656   0.13137134    11521.711     1000 
 1192000   0.37260003   -2.7603095   0.55834115   -2.2019683   0.12022885    11579.223     1000 
 1194000   0.37767685   -2.7691944   0.56594876   -2.2032456   0.13745863    11505.368     1000 
 1196000   0.37044231   -2.7608436    0.5551078   -2.2057358   0.11899217    11616.246     1000 
 1198000   0.37768164   -2.7594473   0.56595594   -2.1934914   0.13001983    11554.532     1000 
 1200000   0.39009434   -2.7778854   0.58455636    -2.193329    0.1227252    11693.075     1000 
 1202000   0.38595772   -2.7809993   0.57835764   -2.2026416   0.13885528    11489.608     1000 
 1204000   0.39617962    -2.761717   0.59367516   -2.1680418   0.12525963    11560.999     1000 
 1206000   0.36057682   -2.8064052   0.54032436   -2.2660809   0.11997249    11584.302     1000 
 1208000   0.37312351   -2.7789265   0.55912558   -2.2198009   0.12843669    11601.135     1000 
 1210000   0.36301171   -2.7972398   0.54397305   -2.2532667   0.12313188    11625.565     1000 
 1212000   0.36990144   -2.7457364   0.55429731   -2.1914391   0.13456781    11495.563     1000 
 1214000   0.38572921   -2.7850208   0.57801522   -2.2070055   0.13992688    11485.469     1000 
 1216000   0.36046441   -2.7696014   0.54015592   -2.2294455   0.13329933    11504.745     1000 
 1218000   0.39145441   -2.7311307   0.58659443   -2.1445363   0.13616524    11470.474     1000 
 1220000   0.38760748   -2.7899168   0.58082981    -2.209087   0.13259294    11528.467     1000 
 1222000   0.37124005   -2.7716227   0.55630321   -2.2153195   0.12559308    11633.929     1000 
 1224000   0.39617515   -2.7827463   0.59366846   -2.1890778   0.14778312    11392.096     1000 
 1226000   0.37983918   -2.7817714   0.56918902   -2.2125824   0.14182895    11517.584     1000 
 1228000   0.36442558   -2.7887333   0.54609174   -2.2426415   0.13196786    11550.248     1000 
 1230000   0.37085538   -2.7556797   0.55572678   -2.1999529   0.13590028    11542.529     1000 
 1232000   0.37134531   -2.7646498   0.55646094   -2.2081888   0.13062899    11548.975     1000 
 1234000   0.37301683   -2.7557225   0.55896573   -2.1967568   0.12425746    11595.801     1000 
 1236000   0.36998907   -2.7548497   0.55442862   -2.2004211   0.13649204    11511.562     1000 
 1238000   0.39900009   -2.7632179   0.59790164   -2.1653162   0.13982374    11570.307     1000 
 1240000   0.38925027   -2.7421199   0.58329152   -2.1588284   0.12643472    11571.254     1000 
 1242000   0.37716245   -2.7864912   0.56517793   -2.2213132   0.13428037    11523.449     1000 
 1244000   0.37773687   -2.7778215    0.5660387   -2.2117828   0.12905812    11567.198     1000 
 1246000   0.39618019   -2.7094514   0.59367601   -2.1157754   0.13468096    11428.336     1000 
 1248000   0.37716365   -2.7818563   0.56517973   -2.2166766   0.12388154    11632.065     1000 
 1250000   0.37852047   -2.7643081   0.56721292   -2.1970952   0.14493027    11469.559     1000 
 1252000   0.36833341   -2.7576205   0.55194762   -2.2056729   0.12492839     11511.87     1000 
 1254000   0.35963271   -2.7511681   0.53890962   -2.2122585   0.13357501    11440.865     1000 
 1256000   0.37630537   -2.7608851    0.5638936   -2.1969915   0.13441284    11583.204     1000 
 1258000   0.38212377   -2.7829725   0.57261247   -2.2103601     0.112234    11630.089     1000 
 1260000   0.39888864     -2.79673   0.59773463   -2.1989954    0.1270138    11491.366     1000 
 1262000   0.38554759    -2.758559   0.57774306   -2.1808159   0.12766819     11625.44     1000 
 1264000   0.37600522   -2.7983264   0.56344382   -2.2348826   0.12709419    11567.304     1000 
 1266000   0.38204456   -2.7617437   0.57249378   -2.1892499   0.12049508    11675.339     1000 
 1268000    0.3854809    -2.725361   0.57764313   -2.1477179   0.14046487    11471.059     1000 
 1270000   0.36490166   -2.7800618   0.54680513   -2.2332567   0.12557121    11633.189     1000 
 1272000    0.3917661   -2.7604478    0.5870615   -2.1733863    0.1283209    11534.024     1000 
 1274000   0.39245895   -2.7546238   0.58809974   -2.1665241   0.11492793     11608.84     1000 
 1276000    0.3941947   -2.7794281   0.59070076   -2.1887273   0.13691104    11558.087     1000 
 1278000   0.39409768   -2.8201969   0.59055537   -2.2296416   0.14422185    11445.213     1000 
 1280000   0.37010129   -2.7498737   0.55459678   -2.1952769   0.13004934    11544.028     1000 
 1282000   0.38714804   -2.7455987   0.58014134   -2.1654574   0.12586572    11667.807     1000 
 1284000   0.37970757   -2.8000097   0.56899179   -2.2310179   0.12907736    11679.062     1000 
 1286000   0.39712217   -2.7564139   0.59508757   -2.1613264   0.14158718    11448.505     1000 
 1288000   0.38411058    -2.784621    0.5755897   -2.2090313    0.1264436    11576.025     1000 
 1290000   0.39154073   -2.7440031   0.58672378   -2.1572793   0.13232991    11559.155     1000 
 1292000   0.36027426   -2.7811479   0.53987098   -2.2412769   0.12755509    11590.897     1000 
 1294000   0.39203579   -2.7754274   0.58746563   -2.1879617   0.13608827    11494.878     1000 
 1296000   0.38028451   -2.7580982   0.56985635   -2.1882418   0.12663313    11559.231     1000 
 1298000   0.39234137   -2.7770666   0.58792354   -2.1891431   0.13222068    11535.022     1000 
 1300000   0.38048745    -2.765901   0.57016045   -2.1957405   0.14534167    11450.888     1000 
 1302000    0.3697153   -2.7285244   0.55401838    -2.174506   0.13888312    11423.219     1000 
 1304000   0.37099969   -2.7861912   0.55594304   -2.2302481   0.12309242     11672.97     1000 
 1306000   0.38711395   -2.7992863   0.58009026    -2.219196   0.12398946    11658.602     1000 
 1308000   0.37046236   -2.7641429   0.55513785   -2.2090051   0.13754577    11521.038     1000 
 1310000   0.39863316   -2.7448357   0.59735178    -2.147484   0.13932395    11451.824     1000 
 1312000   0.38567402   -2.8490147   0.57793251   -2.2710822   0.11933742    11699.226     1000 
 1314000   0.35887711   -2.7645507   0.53777734   -2.2267734   0.12921283    11562.852     1000 
 1316000   0.37118714   -2.8011354   0.55622394   -2.2449115   0.13772303     11509.04     1000 
 1318000   0.38629238   -2.7663664   0.57885914   -2.1875073   0.14333274    11468.114     1000 
 1320000   0.37927937   -2.7770698   0.56835013   -2.2087196   0.11992002    11611.813     1000 
 1322000    0.3956746   -2.7819914   0.59291839    -2.189073   0.13063981    11504.925     1000 
 1324000   0.37694099    -2.756807   0.56484608    -2.191961   0.12999428    11595.812     1000 
 1326000   0.38129818   -2.7616047   0.57137532   -2.1902294    0.1306615     11539.26     1000 
 1328000   0.38253457    -2.791975   0.57322806   -2.2187469   0.12418744    11576.607     1000 
 1330000   0.37942669   -2.7484434   0.56857089   -2.1798725   0.11358817    11803.567     1000 
 1332000   0.37108769   -2.7935256   0.55607491   -2.2374507   0.12338082    11609.662     1000 
 1334000   0.38611377   -2.7077348   0.57859149   -2.1291433   0.12877772    11448.084     1000 
 1336000   0.39951503   -2.7400668   0.59867327   -2.1413935   0.14101757    11430.896     1000 
 1338000   0.37509188   -2.7650281   0.56207519   -2.2029529   0.13360251    11562.713     1000 
 1340000   0.37850212   -2.7889701   0.56718543   -2.2217847   0.14571378    11437.901     1000 
 1342000    0.3915756   -2.7853492   0.58677604   -2.1985731   0.12657738     11485.41     1000 
 1344000   0.37671183   -2.8097381   0.56450268   -2.2452354   0.11791848    11726.161     1000 
 1346000   0.37395441   -2.7875907   0.56037069     -2.22722   0.12686355    11620.664     1000 
 1348000   0.38282315   -2.8209838   0.57366049   -2.2473233   0.12021623    11623.319     1000 
 1350000   0.37440984    -2.812711   0.56105314   -2.2516579    0.1267212    11606.041     1000 
 1352000   0.37713024   -2.7707102   0.56512966   -2.2055805   0.12932338    11569.196     1000 
 1354000   0.38702285   -2.7557778   0.57995374    -2.175824    0.1322118    11583.072     1000 
 1356000   0.38312851   -2.7106192   0.57411808   -2.1365011   0.13700318    11397.367     1000 
 1358000   0.37454172   -2.8051657   0.56125077   -2.2439149   0.12899707     11662.14     1000 
 1360000    0.3624807   -2.8199803   0.54317733   -2.2768029   0.11023455    11670.406     1000 
 1362000    0.3960339   -2.7432763    0.5934568   -2.1498195   0.13323207    11567.707     1000 
 1364000   0.39544894   -2.7514722   0.59258024    -2.158892   0.13155311    11450.387     1000 
 1366000   0.38770159   -2.7689558   0.58097084    -2.187985   0.13510169    11483.866     1000 
 1368000   0.38274494   -2.7869251    0.5735433   -2.2133818   0.13153551     11639.27     1000 
 1370000    0.3747752   -2.7570212   0.56160063   -2.1954206   0.12791585    11429.554     1000 
 1372000   0.36651583   -2.7867333   0.54922397   -2.2375093   0.14767458    11406.347     1000 
 1374000   0.38666428   -2.7933041   0.57941643   -2.2138876     0.131409    11512.845     1000 
 1376000   0.38326101   -2.7671844   0.57431663   -2.1928678    0.1153617    11638.672     1000 
 1378000   0.38817699      -2.7289   0.58168322   -2.1472167   0.13196695    11454.385     1000 
 1380000   0.36499982   -2.7739908   0.54695223   -2.2270386   0.12224261      11622.1     1000 
 1382000   0.38958791    -2.756528   0.58379749   -2.1727305   0.14785247    11487.758     1000 
 1384000   0.38637252   -2.7514794   0.57897923   -2.1725002   0.12998893    11622.455     1000 
 1386000   0.38767239   -2.8065083   0.58092707   -2.2255812   0.12063391    11627.692     1000 
 1388000   0.38843367   -2.7712838   0.58206785   -2.1892159    0.1337117    11546.152     1000 
 1390000   0.37936449     -2.76602    0.5684777   -2.1975423   0.12982331    11547.421     1000 
 1392000   0.37558378     -2.80753    0.5628123   -2.2447177   0.13176175    11594.053     1000 
 1394000   0.37212411    -2.787497   0.55762798    -2.229869   0.12863975    11537.929     1000 
 1396000   0.39302501   -2.7477416   0.58894798   -2.1587936   0.13688676    11492.782     1000 
 1398000   0.37498114   -2.7591111   0.56190924   -2.1972019   0.13497964    11512.423     1000 
 1400000   0.38289018   -2.7686123   0.57376093   -2.1948514   0.13312555     11506.57     1000 
 1402000   0.37825115   -2.7839924   0.56680935    -2.217183   0.13187142     11543.18     1000 
 1404000   0.38067918   -2.7226083   0.57044776   -2.1521606   0.14597295    11365.121     1000 
 1406000   0.38612299   -2.7471345    0.5786053   -2.1685292    0.1462151    11521.595     1000 
 1408000   0.38170249   -2.7840385   0.57198118   -2.2120574    0.1422989     11476.25     1000 
 1410000   0.39777197   -2.7803751    0.5960613   -2.1843138   0.13261489    11658.935     1000 
 1412000   0.38034545   -2.7672401   0.56994765   -2.1972925   0.12843154    11498.377     1000 
 1414000   0.39167053   -2.7853059   0.58691828   -2.1983876    0.1270881    11621.047     1000 
 1416000     0.401847   -2.7399941   0.60216773   -2.1378263   0.13315509    11510.647     1000 
 1418000   0.38267565   -2.7509683   0.57343947   -2.1775288   0.13521536    11494.027     1000 
 1420000   0.38312555   -2.7604958   0.57411363   -2.1863821   0.11704054    11622.693     1000 
 1422000   0.36476856   -2.7887715   0.54660569   -2.2421658   0.13213404    11562.267     1000 
 1424000   0.38763172   -2.7440494   0.58086614   -2.1631833   0.13914684     11470.11     1000 
 1426000    0.3817062   -2.7484077   0.57198673   -2.1764209   0.13909925    11507.932     1000 
 1428000   0.38066932   -2.8075459   0.57043297    -2.237113   0.12534965    11638.162     1000 
 1430000   0.38779922   -2.7548189   0.58111713   -2.1737018   0.13856918    11550.674     1000 
 1432000   0.37874722   -2.7452671    0.5675527   -2.1777144   0.11832093    11677.931     1000 
 1434000   0.37203065   -2.8039067   0.55748792   -2.2464188   0.12967469    11539.965     1000 
 1436000   0.36092541   -2.7983176   0.54084673   -2.2574709   0.13258379    11564.105     1000 
 1438000   0.39244353   -2.7588062   0.58807663   -2.1707296   0.12601515    11608.441     1000 
 1440000   0.37683011    -2.771759   0.56467992    -2.207079   0.12840521    11629.986     1000 
 1442000   0.37893418   -2.7943151   0.56783287   -2.2264823   0.12780896    11623.083     1000 
 1444000   0.38256815   -2.7617357   0.57327837   -2.1884573   0.12222722    11639.061     1000 
 1446000   0.38518315   -2.7785742   0.57719695   -2.2013772   0.13517446    11548.711     1000 
 1448000   0.38354927    -2.788832   0.57474858   -2.2140834    0.1152114    11665.332     1000 
 1450000   0.38138072    -2.777071     0.571499    -2.205572   0.13426826    11528.671     1000 
 1452000   0.37805352   -2.7613193    0.5665132   -2.1948061   0.13560781    11510.572     1000 
 1454000   0.37565058   -2.7836173   0.56291239   -2.2207049   0.13476713     11494.23     1000 
 1456000    0.3818401   -2.7336101   0.57218739   -2.1614227   0.12748708    11656.131     1000 
 1458000   0.36876701   -2.7479515   0.55259737   -2.1953541   0.12756037    11468.438     1000 
 1460000   0.36077875   -2.7542993   0.54062695   -2.2136723   0.12622482    11587.785     1000 
 1462000    0.3813379   -2.7781515   0.57143484   -2.2067167   0.12517716    11555.427     1000 
 1464000   0.37471183   -2.7370019   0.56150568   -2.1754962   0.13271037    11537.724     1000 
 1466000   0.37874851   -2.7470879   0.56755465   -2.1795333   0.12466311    11555.095     1000 
 1468000   0.38471451   -2.8083073   0.57649469   -2.2318126   0.12448054    11577.385     1000 
 1470000     0.371845   -2.7728754   0.55720973   -2.2156657   0.12220175    11613.349     1000 
 1472000   0.37235835   -2.7754546   0.55797899   -2.2174756   0.13095794    11593.125     1000 
 1474000   0.37391487   -2.8061021   0.56031144   -2.2457906   0.12640889    11667.536     1000 
 1476000   0.38004855   -2.7515549   0.56950275   -2.1820522   0.13370204    11474.558     1000 
 1478000   0.39105447    -2.782229   0.58599513   -2.1962339   0.13466148    11627.893     1000 
 1480000   0.37034331    -2.788365   0.55495945   -2.2334056    0.1268446    11621.095     1000 
 1482000   0.39348492   -2.7692144   0.58963715   -2.1795773   0.13859044    11451.114     1000 
 1484000   0.37900257   -2.7731122   0.56793535   -2.2051769   0.13537235    11478.228     1000 
 1486000   0.36248711   -2.7139566   0.54318693   -2.1707697   0.12128167    11503.249     1000 
 1488000   0.37722592   -2.7252242   0.56527304   -2.1599512   0.13119085    11391.988     1000 
 1490000   0.36242009   -2.7615699   0.54308651   -2.2184834   0.12995251    11593.713     1000 
 1492000   0.38990524   -2.7893111     0.584273   -2.2050381   0.12832302    11634.339     1000 
 1494000     0.380646    -2.784146   0.57039804    -2.213748   0.13066474    11580.281     1000 
 1496000   0.37209666   -2.7819768   0.55758685     -2.22439   0.12304603     11532.48     1000 
 1498000   0.40262477   -2.7410462   0.60333322    -2.137713   0.12021345    11554.727     1000 
 1500000   0.36788743   -2.7863077   0.55127931   -2.2350284   0.12152224    11635.516     1000 
 1502000   0.39051616    -2.779572   0.58518846   -2.1943835   0.13345124    11530.473     1000 
 1504000   0.38828459   -2.7864334   0.58184446    -2.204589   0.14592614    11472.573     1000 
 1506000   0.39019051   -2.8069056   0.58470049   -2.2222051   0.13714715    11576.733     1000 
 1508000   0.38935648   -2.7529688   0.58345069   -2.1695181   0.12621317    11573.474     1000 
 1510000   0.38697693   -2.7415148   0.57988493   -2.1616299   0.13011451    11553.479     1000 
 1512000   0.36640791   -2.7573429   0.54906225   -2.2082807   0.12074294    11494.206     1000 
 1514000   0.38452755   -2.7954719   0.57621453   -2.2192573     0.138687    11574.236     1000 
 1516000   0.37443133   -2.7771217   0.56108535   -2.2160364   0.13296261    11498.174     1000 
 1518000   0.36616223   -2.7698981    0.5486941    -2.221204   0.13303976    11515.933     1000 
 1520000   0.37597685   -2.7992475   0.56340131   -2.2358462   0.12457461    11560.605     1000 
 1522000    0.3783899   -2.7426827   0.56701726   -2.1756654   0.14069947    11385.807     1000 
 1524000   0.38834967   -2.7949364   0.58194197   -2.2129944   0.11909855    11686.533     1000 
 1526000   0.38146146   -2.7879843      0.57162   -2.2163643   0.14341773    11479.413     1000 
 1528000   0.38105273   -2.7561419   0.57100752   -2.1851344   0.12946632    11480.401     1000 
 1530000   0.38064997   -2.7688302   0.57040398   -2.1984263   0.13669865    11569.381     1000 
 1532000   0.38023766   -2.8129291   0.56978613    -2.243143   0.12030824    11600.187     1000 
 1534000   0.37402258   -2.7732832   0.56047284   -2.2128103   0.13559121    11575.909     1000 
 1536000   0.38249973   -2.7437571   0.57317584   -2.1705813   0.12611047    11589.798     1000 
 1538000   0.38076917   -2.7561769   0.57058261   -2.1855943   0.12808761     11481.62     1000 
 1540000   0.37726205   -2.8046994   0.56532719   -2.2393722   0.13076629    11558.007     1000 
 1542000   0.37560648   -2.8035166   0.56284631   -2.2406703   0.12537772    11525.238     1000 
 1544000   0.38945556   -2.7532238   0.58359916   -2.1696246   0.13700909    11459.761     1000 
 1546000    0.3695988   -2.7843882   0.55384381   -2.2305444   0.12078983    11575.741     1000 
 1548000   0.37940123   -2.7547891   0.56853275   -2.1862564   0.13053443    11488.688     1000 
 1550000   0.38318439    -2.765103   0.57420181   -2.1909012   0.12661677    11608.521     1000 
 1552000   0.37326234   -2.7652601   0.55933361   -2.2059265    0.1336621    11527.178     1000 
 1554000   0.37663772   -2.8070138   0.56439162   -2.2426222   0.13105325    11532.943     1000 
 1556000   0.36530786   -2.7802032   0.54741383   -2.2327893    0.1408111    11504.432     1000 
 1558000   0.36111785   -2.7905912   0.54113509   -2.2494561   0.12226291    11606.287     1000 
 1560000   0.39996066   -2.7805441   0.59934106   -2.1812031   0.12338021    11525.347     1000 
 1562000   0.37500502   -2.7584963   0.56194502   -2.1965512   0.13342726    11486.368     1000 
 1564000   0.38347622    -2.784705   0.57463911   -2.2100659    0.1215748    11628.406     1000 
 1566000   0.39068068   -2.7458078     0.585435   -2.1603728   0.13727571    11519.616     1000 
 1568000    0.3606227   -2.7780186   0.54039311   -2.2376254   0.12253704    11446.841     1000 
 1570000   0.38813215     -2.79101   0.58161603    -2.209394   0.12975068    11447.431     1000 
 1572000   0.36785459   -2.7369116    0.5512301   -2.1856815   0.12886489    11540.413     1000 
 1574000   0.38642597   -2.7960026   0.57905931   -2.2169433   0.13017069    11587.142     1000 
 1576000    0.3869954   -2.7730028   0.57991261   -2.1930902   0.13001979    11507.917     1000 
 1578000   0.38328813     -2.80078   0.57435726   -2.2264227   0.14098915    11486.936     1000 
 1580000   0.37304383   -2.7923159   0.55900618   -2.2333097   0.13227714    11513.651     1000 
 1582000   0.37168274   -2.8085113   0.55696658   -2.2515447    0.1241921    11623.948     1000 
 1584000   0.36054085   -2.8106503   0.54027046   -2.2703799   0.11335738    11687.696     1000 
 1586000   0.39978012   -2.7840826   0.59907052   -2.1850121    0.1303755    11570.713     1000 
 1588000   0.37536427   -2.7582269   0.56248336   -2.1957435   0.12625167    11500.934     1000 
[...]
 2614000   0.39117496   -2.7819294   0.58617568   -2.1957538   0.13690296    11567.709     1000 
 2616000   0.37973081   -2.7454409   0.56902661   -2.1764143   0.13274322    11581.791     1000 
 2618000   0.37674608   -2.7593465     0.564554   -2.1947925   0.11563266    11593.767     1000 
 2620000   0.35872392   -2.7756332    0.5375478   -2.2380854   0.12637964    11568.443     1000 
 2622000    0.3778735    -2.727882   0.56624344   -2.1616386    0.1312882     11489.53     1000 
 2624000   0.38068485   -2.7623162   0.57045624     -2.19186   0.12934738    11650.111     1000 
 2626000   0.39906451   -2.8019132   0.59799817   -2.2039151   0.13122702    11646.963     1000 
 2628000   0.38393415     -2.73891   0.57532533   -2.1635846    0.1416622    11442.882     1000 
 2630000   0.37911518   -2.7330889   0.56810409   -2.1649848   0.12606205    11517.998     1000 
 2632000   0.39952436   -2.7910234   0.59868726   -2.1923361   0.14198009    11514.632     1000 
 2634000   0.39369991   -2.7537813   0.58995932    -2.163822   0.12055523    11609.528     1000 
 2636000   0.37156407   -2.7400674   0.55678876   -2.1832787   0.12827865    11533.115     1000 
 2638000    0.3826846   -2.7935156   0.57345288   -2.2200627   0.12682764    11506.204     1000 
 2640000   0.37937592   -2.7676177   0.56849482   -2.1991228   0.14708879    11588.487     1000 
 2642000   0.38572357   -2.7915151   0.57800677   -2.2135083   0.13177974    11501.486     1000 
 2644000    0.3947367   -2.7601694   0.59151294   -2.1686565   0.12830782    11470.087     1000 
 2646000   0.37444796   -2.8201215   0.56111027   -2.2590112   0.11901688     11700.83     1000 
 2648000   0.37683777   -2.7950029   0.56469139   -2.2303115   0.12765884    11545.887     1000 
 2650000   0.38030975   -2.7630555   0.56989417   -2.1931613   0.13069891    11479.076     1000 
 2652000   0.37787918   -2.7882447   0.56625195   -2.2219927   0.14148144    11531.707     1000 
 2654000   0.36768552    -2.785899   0.55097676   -2.2349222   0.12658851    11601.401     1000 
 2656000   0.38440155    -2.765223   0.57602573   -2.1891973   0.13109807    11608.025     1000 
 2658000   0.37326575   -2.7780775   0.55933873   -2.2187388   0.13000723    11508.077     1000 
 2660000   0.39380866   -2.8320694   0.59012228   -2.2419471   0.13193644    11606.505     1000 
 2662000   0.37229103   -2.7729288   0.55787811   -2.2150507   0.13374491    11496.908     1000 
 2664000    0.3699676   -2.7730922   0.55439645   -2.2186957   0.14833275    11357.629     1000 
 2666000   0.38327771   -2.8081606   0.57434164    -2.233819   0.12416611    11649.838     1000 
 2668000    0.3976865   -2.7578867   0.59593323   -2.1619535   0.14000818    11465.933     1000 
 2670000   0.37070697   -2.7751132   0.55550439   -2.2196088   0.12748699     11732.96     1000 
 2672000   0.38619642   -2.7580383   0.57871534    -2.179323   0.12302334    11606.278     1000 
 2674000   0.38704664   -2.7633027    0.5799894   -2.1833133   0.12052226    11598.859     1000 
 2676000   0.39254682   -2.7444842   0.58823141   -2.1562528   0.15652877    11458.998     1000 
 2678000   0.37993803   -2.7394931   0.56933714    -2.170156   0.12485269    11552.477     1000 
 2680000   0.37546925   -2.7458478   0.56264067   -2.1832071   0.13359172    11507.471     1000 
 2682000   0.37969873   -2.7577588   0.56897854   -2.1887803   0.12875109    11625.303     1000 
 2684000   0.38802003    -2.724522   0.58144801    -2.143074   0.13296342    11502.692     1000 
 2686000    0.3750745   -2.8247272   0.56204913   -2.2626781   0.13267521    11605.223     1000 
 2688000   0.39463435   -2.7581133   0.59135957   -2.1667537    0.1361587    11558.714     1000 
 2690000   0.37665458   -2.7389337   0.56441689   -2.1745168    0.1504309    11438.697     1000 
 2692000   0.37349967   -2.7461607   0.55968926   -2.1864715   0.13442529     11459.15     1000 
 2694000   0.38078513   -2.7768607   0.57060652   -2.2062541    0.1487589    11439.006     1000 
 2696000   0.38711665    -2.768009    0.5800943   -2.1879147    0.1458536    11415.852     1000 
 2698000   0.37421536   -2.7721229   0.56076172   -2.2113612   0.13154058    11584.929     1000 
 2700000   0.37178859   -2.7752741   0.55712521   -2.2181489   0.12129117    11556.086     1000 
 2702000   0.37370679    -2.766329   0.55999962   -2.2063294    0.1315874    11615.506     1000 
 2704000   0.36936067   -2.7750284   0.55348696   -2.2215414   0.12453084     11603.66     1000 
 2706000   0.36544789   -2.7646499   0.54762367   -2.2170263   0.14596136    11462.226     1000 
 2708000   0.38819017   -2.7620483   0.58170297   -2.1803453   0.15394359    11500.265     1000 
 2710000   0.38251784   -2.7627012   0.57320298   -2.1894982   0.12190946    11654.641     1000 
 2712000   0.39345203   -2.7709344   0.58958786   -2.1813465   0.13083058    11524.969     1000 
 2714000   0.37585759   -2.7776891    0.5632226   -2.2144665   0.13334669    11606.495     1000 
 2716000   0.37751006   -2.7591943   0.56569882   -2.1934955   0.13987759    11407.994     1000 
 2718000   0.37786793   -2.7612144   0.56623509   -2.1949793   0.12414184    11574.123     1000 
 2720000   0.38511387   -2.7766449   0.57709314   -2.1995517   0.11510074    11674.022     1000 
 2722000   0.38288023   -2.7838289   0.57374602   -2.2100829   0.13042996     11604.88     1000 
 2724000   0.38586704   -2.7657349   0.57822177   -2.1875131   0.13675348    11517.774     1000 
 2726000    0.3654773   -2.7811062   0.54766773   -2.2334384    0.1297896    11460.587     1000 
 2728000   0.38652658   -2.7460674   0.57921008   -2.1668573   0.13328445    11502.618     1000 
 2730000   0.38689313   -2.7853472   0.57975936   -2.2055879   0.12613762    11626.836     1000 
 2732000   0.39261664   -2.7280794   0.58833603   -2.1397434   0.13523518    11521.459     1000 
 2734000   0.37219272   -2.7576141   0.55773078   -2.1998833   0.12766542    11539.999     1000 
 2736000   0.37650361   -2.7776674   0.56419066   -2.2134767   0.12758501    11605.338     1000 
 2738000   0.36609905   -2.7563295   0.54859942   -2.2077301   0.12774236    11621.054     1000 
 2740000   0.39204736    -2.817023   0.58748297   -2.2295401   0.12158668     11661.46     1000 
 2742000   0.38233812   -2.7726921   0.57293367   -2.1997584   0.13348046    11547.903     1000 
 2744000   0.37917861   -2.7610271   0.56819915   -2.1928279   0.13159318    11618.147     1000 
 2746000   0.38284431    -2.744963    0.5736922   -2.1712708   0.12321084    11524.576     1000 
 2748000   0.38441663   -2.7978041   0.57604832   -2.2217558   0.12060403    11729.216     1000 
 2750000   0.39506142   -2.7535255   0.59199954    -2.161526   0.12485618     11626.52     1000 
 2752000   0.35963078   -2.7899262   0.53890672   -2.2510195   0.12938408    11616.804     1000 
 2754000    0.3760467   -2.7779405   0.56350598   -2.2144345   0.12024766    11624.236     1000 
 2756000   0.39476698   -2.7221227   0.59155832   -2.1305644   0.13035823    11556.269     1000 
 2758000   0.39372763   -2.7760025   0.59000085   -2.1860017   0.13028328    11568.364     1000 
 2760000   0.38041406   -2.7903257   0.57005047   -2.2202752   0.12512024    11604.537     1000 
 2762000   0.37804633   -2.7508769   0.56650242   -2.1843745   0.13453243    11498.198     1000 
 2764000   0.37953224    -2.759892   0.56872906    -2.191163   0.13391056    11557.887     1000 
 2766000   0.38560117    -2.748076   0.57782336   -2.1702527   0.13283808    11528.897     1000 
 2768000    0.3906013   -2.7910824   0.58531605   -2.2057664   0.11325668    11546.021     1000 
 2770000   0.37294754   -2.7530923   0.55886189   -2.1942304   0.13345734    11465.652     1000 
 2772000   0.37912965    -2.802648   0.56812579   -2.2345222   0.12773709    11604.089     1000 
 2774000    0.3952924   -2.7451667   0.59234566   -2.1528211   0.13988097     11438.01     1000 
 2776000   0.38157934   -2.8126694   0.57179664   -2.2408728   0.13020217    11424.765     1000 
 2778000   0.38206405   -2.7515422   0.57252298   -2.1790192   0.12674505     11556.88     1000 
 2780000   0.37353803   -2.7375983   0.55974674   -2.1778516   0.13491694    11359.301     1000 
 2782000   0.37618138   -2.7560012    0.5637078   -2.1922934   0.14008711    11482.646     1000 
 2784000   0.37440031   -2.7488493   0.56103886   -2.1878104    0.1262753    11645.763     1000 
 2786000   0.38920381   -2.8211073   0.58322191   -2.2378854   0.13297184    11558.798     1000 
 2788000   0.37398888   -2.7769164   0.56042233   -2.2164941   0.11239183    11662.342     1000 
 2790000   0.36480002   -2.7342817   0.54665283   -2.1876289   0.12035421    11543.771     1000 
 2792000   0.38019793   -2.7343317    0.5697266   -2.1646051   0.12487263    11475.901     1000 
 2794000   0.38440782   -2.7348472   0.57603512   -2.1588121   0.12363626    11524.869     1000 
 2796000   0.36888324   -2.7748356   0.55277154    -2.222064   0.11953012    11610.051     1000 
 2798000      0.38143   -2.7693847   0.57157285   -2.1978119   0.14011899    11532.967     1000 
 2800000   0.38952276   -2.7737587   0.58369986   -2.1900589   0.13165256    11611.457     1000 
 2802000   0.37121885   -2.8102217   0.55627145   -2.2539502   0.12260509    11530.467     1000 
 2804000   0.38697716   -2.7848372   0.57988527   -2.2049519   0.12456754    11562.831     1000 
 2806000   0.38457522   -2.7617537   0.57628597   -2.1854677   0.12982938    11616.841     1000 
 2808000   0.38135027   -2.8063242   0.57145338   -2.2348708   0.13721881    11639.157     1000 
 2810000   0.38596916   -2.7975797   0.57837479   -2.2192049   0.12603981    11613.597     1000 
 2812000   0.38168085   -2.7710605   0.57194876   -2.1991117   0.12852506    11566.972     1000 
 2814000   0.37216685   -2.7696729   0.55769202   -2.2119809   0.14008926    11485.796     1000 
 2816000   0.37346769   -2.8096861   0.55964134   -2.2500448   0.13167465    11572.141     1000 
 2818000   0.36913832   -2.7775646   0.55315378   -2.2244108   0.13354963    11599.675     1000 
 2820000   0.38638184   -2.7556868   0.57899318   -2.1766936   0.11947936    11631.528     1000 
 2822000   0.38422021   -2.7607441   0.57575399   -2.1849901   0.13191329    11555.139     1000 
 2824000   0.37135656   -2.7766635    0.5564778   -2.2201857   0.13990204    11479.014     1000 
 2826000   0.36908055   -2.7851019   0.55306721   -2.2320347   0.11476198    11777.798     1000 
 2828000   0.37477091   -2.8112215   0.56159421   -2.2496273   0.11880989    11722.439     1000 
 2830000    0.3853038   -2.8012335   0.57737774   -2.2238558   0.11864009    11736.225     1000 
 2832000    0.3631977   -2.7765402   0.54425175   -2.2322885   0.12617413    11531.538     1000 
 2834000   0.38297069    -2.758788   0.57388158   -2.1849064   0.12186485    11631.743     1000 
 2836000   0.39454873   -2.7464119   0.59123127   -2.1551806   0.12393425    11632.869     1000 
 2838000   0.37694876   -2.8147824   0.56485772   -2.2499247   0.13493464    11553.887     1000 
 2840000   0.38596531   -2.7941589   0.57836902   -2.2157899   0.13629269     11557.41     1000 
 2842000   0.39349886   -2.7658202   0.58965804   -2.1761622   0.13184089    11600.301     1000 
 2844000    0.3732385   -2.8014305   0.55929789   -2.2421326   0.11854851    11612.765     1000 
 2846000   0.37965998   -2.7304638   0.56892049   -2.1615433   0.12321717    11600.612     1000 
 2848000    0.3738556   -2.7680221   0.56022261   -2.2077995   0.13568471    11468.179     1000 
 2850000   0.39116081   -2.7665367   0.58615448   -2.1803822    0.1328745    11541.878     1000 
 2852000   0.37868568    -2.745962   0.56746048   -2.1785015   0.13987588    11465.709     1000 
 2854000   0.39218831    -2.733475   0.58769419   -2.1457808   0.13798865    11429.451     1000 
 2856000   0.37453874   -2.7643424   0.56124631   -2.2030961   0.13493779    11543.281     1000 
 2858000   0.38160807    -2.769169   0.57183969   -2.1973293   0.14828151    11486.119     1000 
 2860000   0.38358021   -2.7642445   0.57479495   -2.1894496   0.13471276    11516.396     1000 
 2862000    0.3581105    -2.780174   0.53662859   -2.2435454    0.1441217    11539.848     1000 
 2864000   0.37453701   -2.7822854   0.56124372   -2.2210417   0.12338906    11695.158     1000 
 2866000   0.37609661   -2.7679542   0.56358077   -2.2043734   0.12276849    11649.444     1000 
 2868000   0.38328068   -2.7284069    0.5743461   -2.1540608   0.12844029    11646.305     1000 
 2870000   0.39569187   -2.7213159   0.59294426   -2.1283716   0.12973134    11525.499     1000 
 2872000   0.37471356   -2.7597504   0.56150827   -2.1982421   0.13490285    11541.129     1000 
 2874000   0.37492336   -2.7637031   0.56182266   -2.2018804   0.12597378    11594.297     1000 
 2876000   0.37804524   -2.7994881   0.56650079   -2.2329873   0.12574597     11585.33     1000 
 2878000   0.36846926   -2.7330521   0.55215118   -2.1809009   0.14143696    11502.887     1000 
 2880000   0.38672767   -2.8041672   0.57951142   -2.2246558   0.14140872    11524.489     1000 
 2882000   0.38819217   -2.8006901   0.58170597   -2.2189842   0.12863534    11527.011     1000 
 2884000   0.37372399   -2.7764172    0.5600254   -2.2163918   0.12841505    11559.827     1000 
 2886000   0.37182106   -2.7659186   0.55717386   -2.2087447    0.1325451    11534.994     1000 
 2888000   0.38760885     -2.78845   0.58083186   -2.2076181   0.13139725    11632.996     1000 
 2890000   0.37173576   -2.7159495   0.55704603   -2.1589035   0.12853412    11408.595     1000 
 2892000   0.38922492   -2.7921275   0.58325354   -2.2088739   0.13627253    11534.592     1000 
 2894000   0.38074657   -2.7414489   0.57054873   -2.1709002   0.13278256    11470.245     1000 
 2896000   0.40087936    -2.789712   0.60071773   -2.1889942   0.13043258    11567.835     1000 
 2898000   0.37282166   -2.7778547   0.55867325   -2.2191814   0.11892444    11536.693     1000 
 2900000   0.39117833     -2.78413   0.58618073   -2.1979493   0.13611806    11525.621     1000 
 2902000   0.37530525   -2.7651003   0.56239491   -2.2027054   0.13731261    11526.079     1000 
 2904000   0.39113247   -2.8103996   0.58611201   -2.2242876   0.12772546    11655.539     1000 
 2906000   0.37378042   -2.8029025   0.56010996   -2.2427925   0.12429133    11681.863     1000 
 2908000   0.38751645   -2.7966471    0.5806934   -2.2159537   0.11987783    11633.759     1000 
 2910000   0.37675604   -2.8039881   0.56456892   -2.2394192   0.12923828    11602.414     1000 
 2912000   0.37014033   -2.8019117   0.55465528   -2.2472564   0.11543027    11671.109     1000 
 2914000   0.38520713   -2.7806013   0.57723289   -2.2033684    0.1234945    11620.732     1000 
 2916000   0.38438424   -2.7730061   0.57599978   -2.1970063   0.13384705    11484.273     1000 
 2918000   0.38765669   -2.7642424   0.58090354   -2.1833389   0.13107007     11515.21     1000 
 2920000   0.37595661   -2.7701861   0.56337098   -2.2068151   0.13833136    11476.267     1000 
 2922000   0.38072069   -2.7789935   0.57050995   -2.2084836   0.14371451    11481.676     1000 
 2924000   0.37817275   -2.7892374   0.56669186   -2.2225455   0.13688785    11561.487     1000 
 2926000   0.37433866   -2.7605333   0.56094649   -2.1995868   0.13473354    11461.977     1000 
 2928000    0.3712003   -2.7905335   0.55624365   -2.2342898   0.11436649    11718.421     1000 
 2930000   0.37517556   -2.7809907   0.56220058   -2.2187901   0.12798106    11560.352     1000 
 2932000   0.36876266   -2.7609171   0.55259085   -2.2083262   0.12455303    11588.742     1000 
 2934000   0.38833698   -2.7896372   0.58192297   -2.2077142   0.12478911     11576.63     1000 
 2936000   0.37537459   -2.8172711   0.56249882   -2.2547723   0.13351114    11618.331     1000 
 2938000   0.38175486    -2.772833   0.57205965   -2.2007733   0.12659216    11505.573     1000 
 2940000   0.39302155   -2.7432513   0.58894279   -2.1543085   0.12961012    11521.761     1000 
 2942000   0.37454316   -2.7935973   0.56125292   -2.2323444   0.12160107    11489.932     1000 
 2944000   0.39554359     -2.74238   0.59272206    -2.149658   0.12942184    11527.822     1000 
 2946000   0.37269784   -2.7797783   0.55848771   -2.2212906   0.12365735    11685.743     1000 
 2948000   0.38453418   -2.7449518   0.57622447   -2.1687273   0.13254638    11482.174     1000 
 2950000   0.38280704   -2.7188489   0.57363635   -2.1452126   0.11464166    11578.528     1000 
 2952000    0.3715856   -2.7301806   0.55682102   -2.1733595   0.12618848    11424.655     1000 
 2954000   0.37943117   -2.7755131   0.56857761   -2.2069355   0.13246702    11532.347     1000 
 2956000   0.39820369   -2.7075518   0.59670824   -2.1108435   0.14595142    11358.969     1000 
 2958000   0.38506213   -2.7673147    0.5770156   -2.1902991   0.13027586    11553.923     1000 
 2960000    0.3758295   -2.7479006   0.56318051   -2.1847201   0.13986094    11464.049     1000 
 2962000   0.37491143   -2.7890085   0.56180478   -2.2272038   0.12245769    11547.191     1000 
 2964000   0.36945233    -2.782871   0.55362432   -2.2292466   0.12444721    11574.524     1000 
 2966000   0.37999583    -2.776914   0.56942375   -2.2074903   0.13511962    11530.568     1000 
 2968000   0.39463102    -2.786374   0.59135459   -2.1950194    0.1244793    11543.476     1000 
 2970000   0.40190366   -2.7972389   0.60225263   -2.1949862   0.12983694    11616.636     1000 
 2972000   0.37967649    -2.841685   0.56894521   -2.2727398   0.12712273    11638.031     1000 
 2974000    0.3779008   -2.7757808   0.56628435   -2.2094964   0.13062636    11624.789     1000 
 2976000   0.37390282   -2.7823619   0.56029338   -2.2220685   0.12730419    11561.204     1000 
 2978000   0.38122858   -2.7624642   0.57127103   -2.1911932   0.13683348    11466.041     1000 
 2980000   0.36616776   -2.7771359   0.54870238   -2.2284335    0.1399191    11465.178     1000 
 2982000   0.38219078   -2.7195313   0.57271289   -2.1468184    0.1353205    11385.266     1000 
 2984000   0.37539507   -2.7898111   0.56252952   -2.2272816     0.129379    11528.241     1000 
 2986000   0.39445358    -2.768813   0.59108869   -2.1777243   0.13611619    11565.488     1000 
 2988000   0.38220661   -2.7583349    0.5727366   -2.1855983   0.13383749     11461.22     1000 
 2990000   0.35447159   -2.7824758   0.53117568   -2.2513001   0.12877799    11530.945     1000 
 2992000   0.38541318    -2.732821   0.57754166   -2.1552794    0.1323917    11520.747     1000 
 2994000   0.37947825    -2.769933   0.56864816   -2.2012848   0.14434203    11460.262     1000 
 2996000   0.37684994   -2.7725978   0.56470963   -2.2078881   0.13335873     11441.14     1000 
 2998000   0.36937446   -2.7663112   0.55350763   -2.2128036   0.13330586    11452.368     1000 
 3000000   0.37620074    -2.774593   0.56373681   -2.2108562   0.12798863    11503.548     1000 
Loop time of 1150.85 on 1 procs for 3000000 steps with 1000 atoms

Performance: 1126119.941 tau/day, 2606.759 timesteps/s
100.0% CPU use with 1 MPI tasks x 1 OpenMP threads

MPI task timing breakdown:
Section |  min time  |  avg time  |  max time  |%varavg| %total
---------------------------------------------------------------
Pair    | 904.6      | 904.6      | 904.6      |   0.0 | 78.60
Neigh   | 143.59     | 143.59     | 143.59     |   0.0 | 12.48
Comm    | 24.546     | 24.546     | 24.546     |   0.0 |  2.13
Output  | 0.017933   | 0.017933   | 0.017933   |   0.0 |  0.00
Modify  | 72.58      | 72.58      | 72.58      |   0.0 |  6.31
Other   |            | 5.519      |            |       |  0.48

Nlocal:        1000.00 ave        1000 max        1000 min
Histogram: 1 0 0 0 0 0 0 0 0 0
Nghost:        2159.00 ave        2159 max        2159 min
Histogram: 1 0 0 0 0 0 0 0 0 0
Neighs:        27355.0 ave       27355 max       27355 min
Histogram: 1 0 0 0 0 0 0 0 0 0

Total # of neighbors = 27355
Ave neighs/atom = 27.355000
Neighbor list builds = 150000
Dangerous builds not checked

Total wall time: 0:19:10
