LAMMPS (3 Mar 2020)
# ----------------------- Inicialização -----------------------

units			lj
atom_style 		atomic
dimension 		3
boundary 		p p p

# -------------------- Criação dos Átomos ---------------------

read_data 		topologia.txt
  orthogonal box = (0 0 0) to (21.54 21.54 21.54)
  1 by 2 by 2 MPI processor grid
  reading atoms ...
  1000 atoms
  read_data CPU = 0.00153079 secs

velocity 		all create ${temp} 87287 rot yes dist gaussian
velocity 		all create 0.45 87287 rot yes dist gaussian

# ------------------ Interação Interatômica -------------------

pair_style		table linear 1300
pair_coeff		1 1 force.table AA 6.5
WARNING: 2 of 1300 force values in table are inconsistent with -dE/dr.
  Should only be flagged at inflection points (src/pair_table.cpp:483)
pair_coeff		1 2 force.table AB 6.5
WARNING: 1 of 1300 force values in table are inconsistent with -dE/dr.
  Should only be flagged at inflection points (src/pair_table.cpp:483)
pair_coeff		2 2 force.table BB 6.5
pair_write		1 1 1600 r 0.008 6.5 table.check AA
Neighbor list info ...
  update every 1 steps, delay 10 steps, check yes
  max neighbors/atom: 2000, page size: 100000
  master list distance cutoff = 6.8
  ghost atom cutoff = 6.8
  binsize = 3.4, bins = 7 7 7
  1 neighbor lists, perpetual/occasional/extra = 1 0 0
  (1) pair table, perpetual
      attributes: half, newton on
      pair build: half/bin/atomonly/newton
      stencil: half/bin/3d/newton
      bin: standard
pair_write		1 2 1600 r 0.008 6.5 table.check AB
pair_write		2 2 1600 r 0.008 6.5 table.check BB

neighbor 		0.3 bin
neigh_modify	every 20 delay 0 check no

# ------------------------- Ensemble --------------------------------------

fix 1			all npt temp ${temp} ${temp} 0.5 iso ${press} ${press} 5
fix 1			all npt temp 0.45 ${temp} 0.5 iso ${press} ${press} 5
fix 1			all npt temp 0.45 0.45 0.5 iso ${press} ${press} 5
fix 1			all npt temp 0.45 0.45 0.5 iso 0.13 ${press} 5
fix 1			all npt temp 0.45 0.45 0.5 iso 0.13 0.13 5

# ---------------------- Função de Distribuição Radial -----------------------

#compute RDF 	all rdf 2000 1 1 1 2 2 2
#fix 2 			all ave/time 1 2000 2000 c_RDF[*] file rdf.data mode vector

# ------------------------- Execução ---------------------------

timestep 		0.005
thermo_style	custom step temp pe ke etotal press vol atoms
thermo			2000
run				3000000
Per MPI rank memory allocation (min/avg/max) = 2.675 | 2.675 | 2.675 Mbytes
Step Temp PotEng KinEng TotEng Press Volume Atoms 
       0         0.45    0.5424586     0.674325    1.2167836    1.0148122    9993.9483     1000 
    2000   0.44623354   -2.2301275   0.66868096   -1.5614466   0.11999071    11586.512     1000 
    4000   0.45212867   -2.2547499   0.67751481   -1.5772351   0.13550724    11556.448     1000 
    6000   0.46584188   -2.2477197   0.69806406   -1.5496557   0.15025091    11445.007     1000 
    8000   0.44272716   -2.2701052   0.66342665   -1.6066785   0.12530307     11560.49     1000 
   10000   0.46599382   -2.2962352   0.69829174   -1.5979435   0.14009562    11523.317     1000 
   12000   0.44277227   -2.2540797   0.66349424   -1.5905855   0.12984801    11540.578     1000 
   14000   0.47079335   -2.3010017   0.70548384   -1.5955178   0.12042949    11709.139     1000 
   16000   0.43335967   -2.2534838   0.64938947   -1.6040943   0.13122096    11647.929     1000 
   18000   0.45497999   -2.2880818   0.68178751   -1.6062943   0.13678044    11454.842     1000 
   20000   0.45084682   -2.2899593   0.67559396   -1.6143653   0.13176975    11664.414     1000 
   22000   0.47023678    -2.266153   0.70464982   -1.5615032   0.13805198    11503.442     1000 
   24000   0.43523469   -2.3029377   0.65219918   -1.6507386   0.13539808    11462.318     1000 
   26000   0.43779638   -2.2649567   0.65603787   -1.6089188   0.12727149    11414.436     1000 
   28000   0.46355045     -2.32093   0.69463035   -1.6262997   0.12996376    11568.823     1000 
   30000   0.43246446   -2.3169391     0.648048   -1.6688911   0.13400134    11636.597     1000 
   32000    0.4480759   -2.2740308   0.67144174    -1.602589   0.12916748    11667.685     1000 
   34000   0.46082381   -2.2987526   0.69054449   -1.6082081   0.13541208    11512.542     1000 
   36000   0.46659802    -2.284016   0.69919713   -1.5848189   0.13864548    11625.514     1000 
   38000    0.4568093   -2.2896374   0.68452874   -1.6051087   0.12288381    11582.705     1000 
   40000   0.45620729   -2.3046205   0.68362663   -1.6209939   0.13417552    11557.421     1000 
   42000   0.44712806   -2.2707937    0.6700214   -1.6007723   0.13827698    11471.892     1000 
   44000   0.43939462   -2.2935215   0.65843284   -1.6350887   0.13910065    11490.704     1000 
   46000   0.42615609   -2.2974609   0.63859491    -1.658866   0.14021393    11456.262     1000 
   48000   0.45506771   -2.2721945   0.68191896   -1.5902756   0.11912865    11555.705     1000 
   50000   0.45739449   -2.3064421   0.68540564   -1.6210364   0.13496197    11604.565     1000 
   52000   0.46318223   -2.2386006   0.69407857    -1.544522   0.14134824    11402.329     1000 
   54000   0.45125284   -2.2953348   0.67620238   -1.6191324   0.12842416    11594.102     1000 
   56000   0.46954004   -2.3314656   0.70360575   -1.6278598   0.12578702    11623.385     1000 
   58000   0.44729083   -2.2587934    0.6702653   -1.5885281   0.13339444    11468.413     1000 
   60000   0.45177573   -2.2952625   0.67698594   -1.6182765   0.13385093    11644.203     1000 
   62000   0.43637104    -2.285032     0.653902   -1.6311299    0.1267414    11527.978     1000 
   64000   0.44762886   -2.3280094   0.67077185   -1.6572375   0.13156496     11628.46     1000 
   66000   0.43835873   -2.2969145   0.65688056   -1.6400339   0.12657626    11559.496     1000 
   68000   0.43971425   -2.2769282    0.6589118   -1.6180164    0.1120071    11718.733     1000 
   70000   0.43770144    -2.284396   0.65589561   -1.6285004   0.12595865    11533.172     1000 
   72000   0.46440395   -2.2797004   0.69590932   -1.5837911   0.13687489    11557.117     1000 
   74000   0.44584584    -2.261502   0.66809999    -1.593402   0.14088612    11501.696     1000 
   76000   0.45980791   -2.2402555   0.68902215   -1.5512333   0.13892081    11423.097     1000 
   78000   0.44876484   -2.2793825   0.67247411   -1.6069084   0.11919081    11641.113     1000 
   80000     0.437786   -2.3223068   0.65602232   -1.6662844   0.12624134    11661.901     1000 
   82000   0.43384126    -2.291147   0.65011113   -1.6410359   0.11917394    11568.743     1000 
   84000   0.44871936   -2.2792212   0.67240596   -1.6068153   0.12903793    11535.294     1000 
   86000    0.4127982   -2.2708649    0.6185781   -1.6522868   0.12569908    11581.854     1000 
   88000   0.44180919   -2.2669059   0.66205107   -1.6048548   0.13796632    11467.192     1000 
   90000   0.46029393   -2.3334901   0.68975046   -1.6437396   0.12135988    11754.562     1000 
   92000   0.44978865   -2.2807011   0.67400829   -1.6066928   0.13411444    11514.805     1000 
   94000   0.44809058   -2.3174047   0.67146373    -1.645941   0.11843035    11706.746     1000 
   96000     0.448659   -2.2949109   0.67231551   -1.6225954   0.12208936    11709.904     1000 
   98000   0.45719927   -2.2902264    0.6851131   -1.6051133   0.11405781     11708.21     1000 
  100000   0.43251169   -2.2796516   0.64811877   -1.6315329   0.13169269    11580.028     1000 
  102000   0.43912037    -2.274167   0.65802188   -1.6161451   0.13401242    11553.475     1000 
  104000   0.45329988   -2.2770053   0.67926987   -1.5977355   0.12166125    11583.094     1000 
  106000   0.42543705   -2.2643666   0.63751742   -1.6268492   0.13823726    11426.813     1000 
  108000   0.45362701   -2.2917742   0.67976008   -1.6120142   0.14098419    11407.246     1000 
  110000   0.46091227   -2.3059104   0.69067704   -1.6152333    0.1235075    11518.345     1000 
  112000   0.44116216    -2.265204   0.66108149   -1.6041225   0.12149018    11478.257     1000 
  114000   0.45964726   -2.3268217   0.68878142   -1.6380402   0.12656412     11625.59     1000 
  116000   0.42406922   -2.3176677   0.63546772   -1.6821999   0.12896283    11579.543     1000 
  118000   0.46130698   -2.2743532    0.6912685   -1.5830846   0.12645607     11515.68     1000 
  120000   0.43115484   -2.2896088   0.64608553   -1.6435232   0.11987787    11592.275     1000 
  122000   0.45849021   -2.2938036   0.68704758    -1.606756    0.1261664     11580.84     1000 
  124000   0.45833353   -2.2890136    0.6868128   -1.6022008   0.12539725    11568.033     1000 
  126000   0.44868505   -2.3200545   0.67235455      -1.6477   0.13655195    11537.876     1000 
  128000   0.43577545    -2.283969   0.65300951   -1.6309595   0.14655233    11428.402     1000 
  130000   0.46510689   -2.3023689   0.69696267   -1.6054063   0.11659029     11725.43     1000 
  132000   0.43020334   -2.3004346   0.64465971   -1.6557749   0.12491172    11705.785     1000 
  134000   0.43654105   -2.2902506   0.65415676   -1.6360939   0.13088381    11589.081     1000 
  136000   0.44411374   -2.2799034   0.66550444    -1.614399    0.1274738    11588.064     1000 
  138000   0.45351018   -2.2597075     0.679585   -1.5801225    0.1295307    11485.663     1000 
  140000   0.44251539   -2.2886767   0.66310931   -1.6255674   0.14810287    11379.039     1000 
  142000   0.43434461   -2.3174655    0.6508654   -1.6666001    0.1413793    11617.052     1000 
  144000   0.44498596   -2.3213699   0.66681147   -1.6545584   0.12628501    11571.823     1000 
  146000   0.45243366   -2.2338233   0.67797184   -1.5558515   0.13056867    11555.905     1000 
  148000   0.47660045   -2.2724754   0.71418577   -1.5582896   0.12906777    11562.027     1000 
  150000   0.44832125   -2.2917807    0.6718094   -1.6199713   0.12127497    11521.535     1000 
  152000   0.43929031   -2.3307737   0.65827653   -1.6724972   0.12704344     11579.51     1000 
  154000   0.44706015   -2.3082888   0.66991964   -1.6383692   0.13860431    11603.967     1000 
  156000   0.44727861   -2.3173666     0.670247   -1.6471196   0.12276335    11751.707     1000 
  158000   0.44893616   -2.2808083   0.67273084   -1.6080775   0.13413777    11479.396     1000 
  160000   0.45444853   -2.2493937   0.68099112   -1.5684026   0.12585136    11623.447     1000 
  162000   0.44409588   -2.3005291   0.66547768   -1.6350514   0.12244706    11653.214     1000 
  164000   0.46413034   -2.2764037   0.69549931   -1.5809043   0.12933935    11609.613     1000 
  166000   0.43994029    -2.296761   0.65925052   -1.6375105    0.1261222    11660.959     1000 
  168000    0.4514514   -2.3078222   0.67649992   -1.6313222   0.11908924    11607.882     1000 
  170000   0.44583835   -2.3130451   0.66808876   -1.6449563   0.12482746    11560.359     1000 
  172000   0.45234747   -2.2799282   0.67784269   -1.6020855   0.12465123    11612.786     1000 
  174000     0.464165    -2.250715   0.69555125   -1.5551638   0.13487057    11470.692     1000 
  176000   0.43991881   -2.2854312   0.65921834   -1.6262128    0.1058891    11753.352     1000 
  178000   0.44272627   -2.2715884   0.66342532    -1.608163   0.12279333    11692.301     1000 
  180000   0.48771232   -2.2958449   0.73083692    -1.565008   0.14005989    11572.122     1000 
  182000   0.46235747   -2.3300805   0.69284268   -1.6372378   0.12808793    11549.048     1000 
  184000   0.43933679   -2.2731406   0.65834618   -1.6147944   0.13218083    11533.408     1000 
  186000   0.46130437   -2.3005418    0.6912646   -1.6092771   0.12876637     11552.13     1000 
  188000   0.44698009   -2.3141902   0.66979967   -1.6443906   0.13090349     11473.93     1000 
  190000   0.45620996    -2.267468   0.68363063   -1.5838374   0.12355873    11516.682     1000 
  192000   0.44027823   -2.3095267   0.65975692   -1.6497698   0.13817507    11553.344     1000 
  194000   0.45421505   -2.2882683   0.68064126    -1.607627   0.14881014    11454.435     1000 
  196000   0.44071375   -2.2997762   0.66040955   -1.6393667   0.13625996     11498.67     1000 
  198000   0.43137473   -2.3279205   0.64641504   -1.6815055   0.12550709     11558.46     1000 
  200000   0.45113721   -2.2925482   0.67602912   -1.6165191    0.1327991    11566.649     1000 
  202000   0.46843587   -2.2959532   0.70195115   -1.5940021   0.13209644    11530.925     1000 
  204000   0.44666725    -2.303793   0.66933087   -1.6344622   0.12443357    11527.597     1000 
  206000   0.47029811   -2.2956714   0.70474172   -1.5909297   0.14624776    11539.259     1000 
  208000   0.44383408     -2.33325   0.66508536   -1.6681646    0.1132097    11664.107     1000 
  210000   0.44205107   -2.2572334   0.66241353   -1.5948199   0.14445185    11489.152     1000 
  212000   0.46538871   -2.2994514   0.69738498   -1.6020664   0.13416401    11531.697     1000 
  214000   0.43628332   -2.2518933   0.65377055   -1.5981227   0.14088013    11540.481     1000 
  216000   0.45679636   -2.2777542   0.68450935   -1.5932449    0.1294827    11478.284     1000 
  218000   0.46221974   -2.2184345   0.69263628   -1.5257982   0.14730568    11301.712     1000 
  220000   0.45239652   -2.2881647   0.67791619   -1.6102485   0.13455972    11557.255     1000 
  222000    0.4593146   -2.2828312   0.68828293   -1.5945483   0.12907474     11533.61     1000 
  224000   0.43516475   -2.2799443   0.65209438   -1.6278499    0.1335919    11324.164     1000 
  226000   0.44920126   -2.2725443   0.67312808   -1.5994162    0.1339182    11570.497     1000 
  228000     0.450894   -2.2614284   0.67566466   -1.5857638   0.12497287    11507.775     1000 
  230000   0.45168568   -2.3082835   0.67685099   -1.6314325   0.12499862    11654.105     1000 
  232000   0.45776832   -2.2882458   0.68596583     -1.60228   0.13040668    11527.249     1000 
  234000   0.45985337   -2.2785257   0.68909028   -1.5894354   0.13259149    11527.305     1000 
  236000   0.45077642   -2.2684338   0.67548847   -1.5929454   0.13192845    11501.904     1000 
  238000   0.44940276   -2.3152999   0.67343004   -1.6418699   0.12360864    11620.118     1000 
  240000   0.44356271   -2.3013906   0.66467872   -1.6367119   0.12062943     11594.46     1000 
  242000   0.45530068   -2.3017146   0.68226807   -1.6194466   0.13157026    11611.374     1000 
  244000   0.43877844   -2.3494763   0.65750949   -1.6919669   0.11813858    11713.954     1000 
  246000   0.45688813   -2.3249887   0.68464686   -1.6403419   0.13573795    11523.508     1000 
  248000   0.44577745   -2.3215334   0.66799751   -1.6535359   0.10366551    11789.834     1000 
  250000    0.4382223   -2.2972553   0.65667611   -1.6405792   0.13403007    11495.429     1000 
  252000   0.45593905   -2.2908239   0.68322467   -1.6075992   0.12486727    11579.247     1000 
  254000   0.43556262   -2.2920136   0.65269058   -1.6393231   0.13650291    11478.337     1000 
  256000   0.44720395    -2.316359   0.67013512   -1.6462239   0.11936388    11633.977     1000 
  258000   0.46594658   -2.3035927   0.69822096   -1.6053718   0.14457396    11444.968     1000 
  260000   0.46744883   -2.2975656   0.70047207   -1.5970935   0.12187371      11574.1     1000 
  262000   0.45200185     -2.26579   0.67732477   -1.5884653   0.13966789    11540.058     1000 
  264000   0.44840009   -2.2372447   0.67192753   -1.5653171   0.14942046    11239.782     1000 
  266000   0.43247553   -2.2779451   0.64806458   -1.6298805   0.13497736    11516.608     1000 
  268000    0.4541259   -2.2755465   0.68050766   -1.5950389   0.13369834    11661.681     1000 
  270000   0.44154462   -2.2705271   0.66165461   -1.6088725   0.12174235    11591.989     1000 
  272000   0.44272088   -2.3126157   0.66341724   -1.6491984   0.12024633    11698.525     1000 
  274000    0.4469412   -2.3127229   0.66974139   -1.6429815   0.11538135    11691.858     1000 
  276000    0.4551629    -2.315292   0.68206161   -1.6332304   0.13878869    11536.641     1000 
  278000   0.45062259   -2.2963129   0.67525795    -1.621055   0.13380123    11571.166     1000 
  280000   0.45391625   -2.2809952   0.68019351   -1.6008017   0.12968297    11601.829     1000 
  282000   0.46541411    -2.269785   0.69742304   -1.5723619   0.13063182    11593.524     1000 
  284000   0.45795119   -2.2728738   0.68623986   -1.5866339    0.1290659    11616.518     1000 
  286000   0.45973848     -2.22965   0.68891811   -1.5407319   0.14543831    11355.178     1000 
  288000    0.4501529   -2.2156126   0.67455412   -1.5410585   0.11827837    11654.178     1000 
  290000   0.44931381    -2.292302   0.67329675   -1.6190053     0.139186    11457.161     1000 
  292000   0.45277229   -2.2820202   0.67847928   -1.6035409    0.1160367    11859.641     1000 
  294000   0.44416656   -2.2730445   0.66558359   -1.6074609   0.12581079    11505.146     1000 
  296000   0.47486896   -2.2757643   0.71159114   -1.5641731    0.1384068    11408.351     1000 
  298000   0.44948455   -2.3090714   0.67355259   -1.6355188   0.13277794    11508.501     1000 
  300000   0.45662396   -2.2977414   0.68425101   -1.6134904    0.1279068    11534.836     1000 
  302000   0.44555152   -2.2663256   0.66765895   -1.5986667   0.12631805    11508.689     1000 
  304000   0.42955909   -2.2791917   0.64369429   -1.6354974   0.12382062    11594.607     1000 
  306000   0.45903217   -2.2636486   0.68785971   -1.5757889   0.13697882    11445.018     1000 
  308000   0.43637796   -2.2740029   0.65391238   -1.6200905   0.13263507    11575.107     1000 
  310000    0.4741331   -2.2791034   0.71048845   -1.5686149   0.12816473    11544.311     1000 
  312000   0.42990717   -2.2719833    0.6442159   -1.6277674   0.12849921    11543.094     1000 
  314000    0.4414481   -2.2892512   0.66150997   -1.6277412   0.12413129    11488.468     1000 
  316000   0.45735696   -2.2836703   0.68534941   -1.5983209   0.13291709    11695.061     1000 
  318000   0.48321158   -2.2561887   0.72409255   -1.5320961   0.14384428    11428.147     1000 
  320000   0.45314155   -2.2941856   0.67903261    -1.615153   0.13531966    11516.704     1000 
  322000   0.44683259   -2.2999498   0.66957864   -1.6303712   0.13798192    11437.154     1000 
  324000   0.44242537   -2.2737204   0.66297441    -1.610746   0.12501806    11584.397     1000 
  326000   0.44305319   -2.3361079    0.6639152   -1.6721927   0.12625847    11593.033     1000 
  328000   0.46546536   -2.2677442   0.69749984   -1.5702444   0.12155659    11600.365     1000 
  330000   0.45079843   -2.2866017   0.67552144   -1.6110803   0.13671061     11460.47     1000 
  332000   0.42770516   -2.3202055   0.64091619   -1.6792893   0.13826102    11523.199     1000 
  334000   0.43528891   -2.2850104   0.65228043   -1.6327299   0.12376586    11589.021     1000 
  336000   0.43619141   -2.3250256   0.65363283   -1.6713927    0.1256555     11604.67     1000 
  338000   0.43789402   -2.2680272    0.6561842    -1.611843   0.13125582    11595.479     1000 
  340000   0.45146574   -2.3445714   0.67652141     -1.66805   0.12325549    11527.517     1000 
  342000   0.43562472   -2.3090969   0.65278364   -1.6563132   0.12345793    11616.065     1000 
  344000   0.44570684   -2.2788842    0.6678917   -1.6109925   0.13210664    11541.707     1000 
  346000    0.4536701   -2.2620213   0.67982464   -1.5821967   0.12958181    11616.201     1000 
  348000   0.44004875    -2.306391   0.65941305    -1.646978   0.13232571    11620.794     1000 
  350000   0.44108222    -2.284705    0.6609617   -1.6237433   0.12341905    11563.573     1000 
  352000    0.4551257   -2.2615458   0.68200586   -1.5795399    0.1446912      11496.1     1000 
  354000   0.44294102   -2.3408881   0.66374711    -1.677141   0.12549553    11757.181     1000 
  356000   0.44330803   -2.2682082   0.66429709   -1.6039111   0.14067581    11448.164     1000 
  358000   0.46103941   -2.2747497   0.69086756   -1.5838821   0.12214264    11590.512     1000 
  360000   0.45685751   -2.3044397   0.68460099   -1.6198388   0.12999051     11587.85     1000 
  362000   0.46479795   -2.2988459   0.69649972   -1.6023461    0.1476517    11423.224     1000 
  364000    0.4685663   -2.2833738   0.70214661   -1.5812272   0.13887098    11580.165     1000 
  366000    0.4365572   -2.3047924   0.65418097   -1.6506115    0.1487493    11550.486     1000 
  368000   0.44258166   -2.2851928   0.66320862   -1.6219842   0.12709504    11529.763     1000 
  370000   0.45334398   -2.3106164   0.67933596   -1.6312805   0.12755745    11558.681     1000 
  372000   0.46470886   -2.2721822   0.69636622    -1.575816    0.1315225    11383.696     1000 
  374000   0.43114041   -2.2407006    0.6460639   -1.5946367   0.12880302    11584.257     1000 
  376000     0.466918   -2.3017131   0.69967662   -1.6020365   0.12896035    11465.553     1000 
  378000   0.46755867   -2.3184902   0.70063667   -1.6178535   0.13172225    11662.403     1000 
  380000   0.43943082   -2.2980853   0.65848708   -1.6395982   0.12723412    11623.529     1000 
  382000    0.4480887   -2.2782101   0.67146092   -1.6067491   0.11926713    11693.801     1000 
  384000   0.43361622   -2.3083844   0.64977391   -1.6586105   0.12087872    11646.266     1000 
  386000   0.44115324   -2.2994301   0.66106813    -1.638362   0.12992046    11664.868     1000 
  388000   0.46754867   -2.3134563   0.70062168   -1.6128346   0.12348706    11738.259     1000 
  390000   0.43215772   -2.3181108   0.64758834   -1.6705225    0.1417597    11410.805     1000 
  392000   0.44632406   -2.2664392    0.6688166   -1.5976226   0.14270294    11366.675     1000 
  394000   0.44796168   -2.2774356   0.67127058    -1.606165   0.13546006    11620.089     1000 
  396000   0.46616286   -2.3319376   0.69854504   -1.6333926   0.14868356    11441.251     1000 
  398000   0.45225172   -2.2560413    0.6776992   -1.5783421   0.13929661    11576.148     1000 
  400000   0.45799022   -2.3259761   0.68629834   -1.6396777   0.13099189    11647.859     1000 
  402000   0.45386372   -2.2249672   0.68011479   -1.5448524   0.13583066    11494.244     1000 
  404000   0.45717235   -2.3033215   0.68507277   -1.6182487   0.13575959    11432.827     1000 
  406000   0.45311671   -2.3144342   0.67899539   -1.6354388   0.12371435    11640.727     1000 
  408000    0.4379304   -2.2953483    0.6562387   -1.6391095   0.14567259     11400.73     1000 
  410000   0.45072812   -2.3329142   0.67541609   -1.6574982   0.11710481    11747.055     1000 
  412000   0.45701927   -2.2470117   0.68484337   -1.5621683   0.14090497    11577.512     1000 
  414000   0.44136464   -2.2835664   0.66138491   -1.6221815   0.12509307    11602.527     1000 
  416000   0.45694814   -2.2793286   0.68473679   -1.5945918   0.13994694    11526.576     1000 
  418000   0.43400509   -2.2576874   0.65035663   -1.6073308   0.13135344    11611.436     1000 
  420000   0.47060681   -2.2627557   0.70520431   -1.5575514   0.12908372    11607.042     1000 
  422000   0.47171409   -2.3180159   0.70686356   -1.6111523   0.12354934    11585.811     1000 
  424000   0.42997349    -2.295416   0.64431527   -1.6511007   0.11952196     11654.56     1000 
  426000   0.42414462   -2.2889427   0.63558071    -1.653362    0.1257584    11462.292     1000 
  428000   0.44239121   -2.3188961   0.66292323   -1.6559729    0.1240992    11617.943     1000 
  430000   0.47800384   -2.2464277   0.71628876    -1.530139   0.13789147    11547.819     1000 
  432000   0.42901245   -2.2794392   0.64287515   -1.6365641   0.13380072    11536.196     1000 
  434000   0.44942303   -2.3372594   0.67346042    -1.663799   0.12878982    11647.817     1000 
  436000   0.45440705   -2.3260752   0.68092897   -1.6451463   0.12312692    11581.745     1000 
  438000   0.46603519   -2.3690393   0.69835373   -1.6706855   0.12766198    11766.801     1000 
  440000   0.46445676   -2.2660187   0.69598846   -1.5700303   0.14116664    11458.026     1000 
  442000   0.44741553   -2.3062306   0.67045217   -1.6357785   0.13054052    11497.288     1000 
  444000   0.45022424   -2.3786959   0.67466102   -1.7040349   0.13021615    11619.323     1000 
  446000   0.44707277   -2.3075629   0.66993855   -1.6376243   0.12491411     11595.88     1000 
  448000   0.43593742   -2.2929907   0.65325222   -1.6397385   0.12122053     11696.02     1000 
  450000   0.47627953   -2.3367174   0.71370487   -1.6230125   0.12744653    11703.453     1000 
  452000   0.44511363   -2.2810224   0.66700278   -1.6140196   0.13426173    11528.473     1000 
  454000   0.43470225   -2.2526883   0.65140132    -1.601287   0.13368631    11420.705     1000 
  456000   0.43662232   -2.2849975   0.65427855   -1.6307189   0.12305392    11604.159     1000 
  458000   0.44998482   -2.2884461   0.67430225   -1.6141439   0.12103385    11641.015     1000 
  460000   0.43684198    -2.260574   0.65460771   -1.6059663   0.13166613    11585.368     1000 
  462000   0.44679368   -2.2625164   0.66952033   -1.5929961   0.13089709    11466.857     1000 
  464000   0.44550495   -2.2590718   0.66758917   -1.5914826   0.13587344     11447.06     1000 
  466000   0.43782411    -2.257357   0.65607944   -1.6012775   0.12901866    11491.309     1000 
  468000   0.45329423    -2.273111    0.6792614   -1.5938496   0.13385322      11411.6     1000 
  470000   0.43958409   -2.2524352   0.65871675   -1.5937185    0.1330048    11532.839     1000 
  472000   0.45894312   -2.3049467   0.68772627   -1.6172205    0.1323828    11413.878     1000 
  474000   0.47736827   -2.3466722   0.71533635   -1.6313358   0.13586932    11611.493     1000 
  476000   0.42955453   -2.3021222   0.64368746   -1.6584348   0.14976142    11390.776     1000 
  478000    0.4449633   -2.2085442    0.6667775   -1.5417667   0.12755266     11528.83     1000 
  480000   0.43886837   -2.2817955   0.65764426   -1.6241512   0.12709441    11579.954     1000 
  482000   0.45103794   -2.3358569   0.67588035   -1.6599765   0.12033554    11640.637     1000 
  484000   0.44140322    -2.291387   0.66144273   -1.6299443   0.11920989     11657.41     1000 
  486000    0.4254042   -2.3066642   0.63746819    -1.669196   0.13897655    11537.638     1000 
  488000   0.43462105   -2.2836292   0.65127965   -1.6323495   0.12651446    11551.394     1000 
  490000   0.44938272    -2.309189   0.67340001    -1.635789   0.13746043    11540.094     1000 
  492000   0.44999255    -2.250801   0.67431384   -1.5764871   0.13845681    11609.339     1000 
  494000   0.43423927   -2.3118846   0.65070755   -1.6611771   0.12094811    11686.461     1000 
  496000   0.42781091   -2.2778145   0.64107465   -1.6367398   0.11404178    11558.338     1000 
  498000    0.4620994   -2.3248991   0.69245595   -1.6324432   0.12888532    11655.615     1000 
  500000   0.43877425   -2.2942777   0.65750322   -1.6367745   0.12534561    11520.222     1000 
  502000   0.43849824   -2.2859849   0.65708961   -1.6288953   0.12368816    11510.809     1000 
  504000   0.44884301   -2.2731816   0.67259125   -1.6005904   0.13145044    11478.117     1000 
  506000   0.45154524   -2.2635404   0.67664054   -1.5868998   0.13686469    11524.978     1000 
  508000   0.46858727   -2.2953254   0.70217802   -1.5931473   0.13955374    11426.958     1000 
  510000   0.44254124   -2.2986196   0.66314804   -1.6354716   0.11821645     11723.97     1000 
  512000   0.44503233   -2.2363354   0.66688094   -1.5694544   0.12279955    11585.216     1000 
  514000   0.43370974   -2.3578085   0.64991405   -1.7078944    0.1214273    11697.234     1000 
  516000   0.44766989   -2.3042106   0.67083333   -1.6333772   0.12725748    11595.085     1000 
  518000   0.47854697   -2.2567814   0.71710264   -1.5396787   0.13678297    11459.272     1000 
  520000   0.43618338   -2.3085067    0.6536208   -1.6548859   0.13092951    11526.392     1000 
  522000   0.44551341    -2.262772   0.66760184   -1.5951701   0.13528599    11495.073     1000 
  524000    0.4643445   -2.3280667   0.69582023   -1.6322465   0.12295797     11659.66     1000 
  526000   0.45209397   -2.2481702   0.67746281   -1.5707074    0.1320254      11493.3     1000 
  528000   0.44784069   -2.2656526   0.67108927   -1.5945633   0.13630425    11513.472     1000 
  530000   0.45374259    -2.286355   0.67993327   -1.6064217    0.1266364    11536.841     1000 
  532000   0.46273999    -2.281315   0.69341587   -1.5878991   0.12500336    11555.045     1000 
  534000    0.4605372   -2.2817141   0.69011499   -1.5915991   0.12590308     11615.68     1000 
  536000   0.45564816   -2.2692037   0.68278876   -1.5864149   0.13437769    11442.966     1000 
  538000   0.45444929   -2.3458981   0.68099226   -1.6649058   0.12001406    11671.059     1000 
  540000   0.45895183   -2.3288092   0.68773931   -1.6410699   0.13350054    11484.658     1000 
  542000    0.4521439   -2.2694378   0.67753764   -1.5919001   0.11935382    11600.016     1000 
  544000   0.44884218   -2.2878984   0.67259001   -1.6153084   0.13199514    11543.371     1000 
  546000   0.47299975   -2.2384839   0.70879013   -1.5296938   0.14539531    11500.681     1000 
  548000   0.44273398   -2.2931633   0.66343687   -1.6297265   0.12872287    11540.422     1000 
  550000   0.44666052   -2.2698589   0.66932079   -1.6005381   0.11591758    11732.419     1000 
  552000   0.45310172   -2.2960828   0.67897293   -1.6171099   0.13773305    11530.314     1000 
  554000   0.44708194   -2.3035262   0.66995229    -1.633574   0.12225433    11669.722     1000 
  556000   0.44605739   -2.3209569     0.668417   -1.6525399   0.11950842    11668.809     1000 
  558000   0.45831273   -2.3242909   0.68678163   -1.6375092   0.12726139    11663.993     1000 
  560000   0.45288003    -2.281857   0.67864073   -1.6032163   0.13704792    11516.532     1000 
  562000    0.4485644   -2.2740476   0.67217375   -1.6018738   0.14016876    11370.718     1000 
  564000   0.44907747   -2.2933338   0.67294259   -1.6203912   0.12626884     11596.13     1000 
  566000   0.46237125   -2.2942887   0.69286332   -1.6014254    0.1264717    11649.807     1000 
  568000   0.44682915   -2.2955644   0.66957348   -1.6259909   0.12468047    11639.554     1000 
  570000    0.4700715   -2.2843317   0.70440215   -1.5799296   0.12269631     11639.72     1000 
  572000    0.4449882   -2.3026332   0.66681481   -1.6358184   0.12507448    11662.121     1000 
  574000   0.47016013   -2.2762598   0.70453495   -1.5717248   0.13516986    11529.723     1000 
  576000   0.45978693    -2.331864   0.68899071   -1.6428732   0.13357848    11712.181     1000 
  578000   0.44796218   -2.2893843   0.67127133    -1.618113   0.14247135    11541.709     1000 
  580000   0.44526298   -2.2681663   0.66722657   -1.6009398   0.11868713    11721.883     1000 
  582000   0.45971688   -2.2916588   0.68888574   -1.6027731   0.13242483    11563.346     1000 
  584000   0.45517136   -2.2562875   0.68207428   -1.5742132   0.12917291     11663.45     1000 
  586000   0.44241807   -2.2639182   0.66296348   -1.6009547   0.12902959    11453.716     1000 
  588000   0.46311058   -2.2694155    0.6939712   -1.5754443   0.12728287    11553.961     1000 
  590000    0.4415965   -2.2778439   0.66173235   -1.6161116   0.12527812    11518.159     1000 
  592000   0.44287641   -2.2836126    0.6636503   -1.6199623     0.116549    11667.378     1000 
  594000   0.44868547   -2.3166923   0.67235518   -1.6443371    0.1243694    11697.557     1000 
  596000   0.45174718   -2.2690038   0.67694315   -1.5920607   0.13678919    11587.665     1000 
  598000   0.44451684   -2.3071291   0.66610849   -1.6410206   0.13908507    11487.754     1000 
  600000   0.45218958    -2.281997   0.67760608    -1.604391   0.12295484    11556.883     1000 
  602000   0.44464601    -2.286699   0.66630204   -1.6203969   0.11562224    11620.177     1000 
  604000   0.43881305   -2.3289209   0.65756135   -1.6713596   0.12917579    11653.446     1000 
  606000   0.44945711   -2.2757022   0.67351147   -1.6021908   0.12457242    11519.158     1000 
  608000   0.43535894   -2.2532315   0.65238537   -1.6008461   0.12575427    11563.366     1000 
  610000   0.46034114   -2.3325171    0.6898212   -1.6426959   0.12306365    11660.062     1000 
  612000   0.46977054   -2.2713474   0.70395116   -1.5673962   0.13194663    11570.522     1000 
  614000   0.44263815   -2.2987158   0.66329326   -1.6354225   0.13803992     11454.23     1000 
  616000   0.46983996   -2.2946239   0.70405518   -1.5905687   0.12730716    11688.193     1000 
  618000    0.4409389   -2.3344921   0.66074693   -1.6737452     0.142903    11457.761     1000 
  620000    0.4668375    -2.319666   0.69955599     -1.62011   0.13531765    11529.241     1000 
  622000   0.43590783   -2.2988868   0.65320789   -1.6456789   0.11114107    11712.052     1000 
  624000   0.45539637      -2.2736   0.68241147   -1.5911885   0.12819738    11524.569     1000 
  626000   0.44019835   -2.3153062   0.65963722    -1.655669   0.12429937    11620.936     1000 
  628000   0.45350011   -2.3263885   0.67956992   -1.6468186   0.12835786    11642.022     1000 
  630000   0.45816196   -2.2560293    0.6865557   -1.5694736   0.12917219    11518.584     1000 
  632000   0.44757504   -2.2464798    0.6706912   -1.5757886   0.12794548    11527.648     1000 
  634000   0.46554402   -2.3076212   0.69761771   -1.6100035   0.12786857    11717.541     1000 
  636000    0.4491968   -2.3316495   0.67312141   -1.6585281   0.14328665    11575.405     1000 
  638000   0.45776339   -2.2489926   0.68595844   -1.5630342   0.14110782    11521.212     1000 
  640000   0.44159237   -2.2832301   0.66172617    -1.621504   0.13389354    11490.847     1000 
  642000   0.45275511   -2.2941831   0.67845353   -1.6157295   0.12497696    11568.469     1000 
  644000   0.44641857   -2.3270707   0.66895823   -1.6581125   0.13860731    11511.184     1000 
  646000   0.44865592   -2.3147108   0.67231089   -1.6423999   0.12688151    11638.289     1000 
  648000   0.45576608   -2.3624579   0.68296547   -1.6794924   0.12880601    11692.134     1000 
  650000   0.46651961   -2.3645558   0.69907963   -1.6654762   0.12284438    11765.128     1000 
  652000   0.44549526   -2.3359014   0.66757465   -1.6683267   0.12226526    11588.265     1000 
  654000   0.46638898   -2.2896806   0.69888388   -1.5907967   0.13755819    11660.304     1000 
  656000   0.46178252   -2.2685929   0.69198111   -1.5766118   0.13233643    11579.125     1000 
  658000   0.46589418   -2.3035582   0.69814243   -1.6054158   0.12275789      11745.8     1000 
  660000   0.44608979   -2.3146281   0.66846555   -1.6461625   0.14134729    11434.928     1000 
  662000   0.45006637   -2.3084689   0.67442445   -1.6340444   0.12001426    11692.738     1000 
  664000    0.4710891   -2.2860961   0.70592701   -1.5801691   0.12889233      11533.1     1000 
  666000   0.42458047   -2.2597006   0.63623383   -1.6234668   0.11498742    11737.537     1000 
  668000   0.45180591   -2.2512125   0.67703115   -1.5741814   0.13883233    11385.691     1000 
  670000   0.45215095   -2.2416617    0.6775482   -1.5641135   0.12182281    11503.839     1000 
  672000    0.4375568    -2.270546   0.65567886   -1.6148672    0.1292852    11524.364     1000 
  674000   0.44837322   -2.2728694   0.67188727   -1.6009821   0.13071898    11457.857     1000 
  676000   0.42832037   -2.2380236   0.64183807   -1.5961855   0.13286624    11551.801     1000 
  678000   0.43891247   -2.3236051   0.65771033   -1.6658948   0.12416924    11594.946     1000 
  680000   0.45188176   -2.2798645   0.67714482   -1.6027197   0.13453305    11486.489     1000 
  682000   0.44311302   -2.3237855   0.66400486   -1.6597807   0.11768809    11805.847     1000 
  684000   0.45361827   -2.2951428   0.67974697   -1.6153959   0.12093795    11632.192     1000 
  686000   0.46134744   -2.3115842   0.69132914   -1.6202551   0.12900278    11499.424     1000 
  688000   0.44769815    -2.288953   0.67087568   -1.6180773   0.13243414    11554.318     1000 
  690000   0.46577222   -2.2385083   0.69795967   -1.5405486   0.13904352    11524.341     1000 
  692000   0.46254575   -2.3513587    0.6931248   -1.6582339   0.13728078    11554.397     1000 
  694000   0.44003636   -2.2825834   0.65939448   -1.6231889   0.13037562    11489.625     1000 
  696000   0.42766404   -2.2481144   0.64085457   -1.6072599   0.11851716    11710.535     1000 
  698000   0.46697189   -2.2975643   0.69975738   -1.5978069   0.11622045    11816.111     1000 
  700000   0.44945783   -2.2971847   0.67351256   -1.6236722   0.13146757      11609.5     1000 
  702000   0.43351952   -2.3394102     0.649629   -1.6897812   0.14132764    11478.573     1000 
  704000   0.44155162   -2.2998302   0.66166511    -1.638165   0.14524581    11424.608     1000 
  706000   0.43278447    -2.313172   0.64852753   -1.6646445   0.13163057    11522.713     1000 
  708000   0.44681658   -2.2637841   0.66955465   -1.5942294   0.13285099    11508.449     1000 
  710000   0.45273076   -2.2755652   0.67841704   -1.5971481   0.12320533    11656.827     1000 
  712000   0.45001683   -2.3116862   0.67435022    -1.637336   0.13516215    11518.893     1000 
  714000   0.43475375   -2.3023397   0.65147849   -1.6508612   0.11889561    11659.698     1000 
  716000   0.43943416   -2.3178707   0.65849209   -1.6593786   0.13445405    11518.741     1000 
  718000   0.45502917    -2.308477   0.68186121   -1.6266158   0.12337418    11575.353     1000 
  720000   0.46526404    -2.284577   0.69719816   -1.5873788    0.1271443    11567.436     1000 
  722000   0.45597544   -2.2593423    0.6832792   -1.5760631   0.13451553    11581.863     1000 
  724000   0.44347268   -2.3355621   0.66454381   -1.6710183   0.12268443     11664.69     1000 
  726000   0.45385168   -2.3141067   0.68009674     -1.63401   0.11742519    11617.134     1000 
  728000   0.46111271   -2.2901978    0.6909774   -1.5992204   0.11354464    11598.186     1000 
  730000   0.45198197   -2.2902163   0.67729498   -1.6129213   0.13961128    11570.713     1000 
  732000   0.46059947   -2.2745901    0.6902083   -1.5843818    0.1342738     11452.06     1000 
  734000   0.44786854   -2.3053135   0.67113101   -1.6341825   0.12186799      11640.3     1000 
  736000   0.46997505    -2.315209   0.70425761   -1.6109514   0.13175943    11544.015     1000 
  738000   0.43723299   -2.3319379   0.65519363   -1.6767443   0.12754279    11528.368     1000 
  740000   0.44997863   -2.2587968   0.67429298   -1.5845038   0.13609383    11564.361     1000 
  742000   0.45159733    -2.278282    0.6767186   -1.6015634   0.14804757    11461.525     1000 
  744000   0.46139061   -2.3166976   0.69139383   -1.6253037   0.11954631    11687.938     1000 
  746000   0.44855164   -2.2932225   0.67215463   -1.6210678   0.13281074    11524.093     1000 
  748000   0.46532539   -2.3037828    0.6972901   -1.6064927   0.12580652    11558.556     1000 
  750000    0.4593067   -2.2987408   0.68827109   -1.6104697   0.12791364    11499.961     1000 
  752000    0.4461071   -2.3554805   0.66849149    -1.686989   0.12200137    11677.837     1000 
  754000   0.46362169   -2.3023539    0.6947371   -1.6076168     0.122866    11539.534     1000 
  756000   0.44126943   -2.2900565   0.66124224   -1.6288143   0.12696687    11686.709     1000 
  758000   0.44014062   -2.2802001   0.65955072   -1.6206494   0.12886276    11558.406     1000 
  760000   0.44917332   -2.2762291   0.67308621   -1.6031429   0.13358394    11448.663     1000 
  762000   0.46107709   -2.2449679   0.69092402   -1.5540439   0.13268018    11472.247     1000 
  764000   0.46147885   -2.2621687   0.69152606   -1.5706426   0.14453752    11593.875     1000 
  766000   0.45750009   -2.3021278   0.68556389   -1.6165639   0.13881946    11584.269     1000 
  768000   0.45261407   -2.3135318   0.67824218   -1.6352896   0.13394724    11523.238     1000 
  770000    0.4417122   -2.3253635   0.66190573   -1.6634578   0.12734446    11593.626     1000 
  772000   0.44623129   -2.2605498   0.66867759   -1.5918722   0.13318012    11523.975     1000 
  774000   0.46137739   -2.2870922   0.69137402   -1.5957181    0.1364193    11562.983     1000 
  776000   0.44224871   -2.2516397   0.66270969     -1.58893   0.12237284    11611.184     1000 
  778000   0.44688742   -2.2941109   0.66966079   -1.6244501   0.12419682    11681.884     1000 
  780000   0.47238843      -2.3269   0.70787406   -1.6190259    0.1390477     11586.19     1000 
  782000   0.45603472   -2.2957654   0.68336802   -1.6123974   0.13245839    11571.148     1000 
  784000   0.45472608   -2.2772742   0.68140703   -1.5958672   0.12748067    11668.352     1000 
  786000   0.45791543   -2.2170946   0.68618628   -1.5309083   0.12607105    11523.988     1000 
  788000   0.46484696   -2.2880333   0.69657317   -1.5914602   0.12486603    11652.803     1000 
  790000   0.45397713   -2.2908114   0.68028473   -1.6105267   0.14253969    11441.337     1000 
  792000   0.43702297   -2.2316152   0.65487892   -1.5767363   0.12801844     11431.35     1000 
  794000   0.46176129   -2.3023074   0.69194929   -1.6103581   0.14702355    11521.199     1000 
  796000   0.44292729   -2.2792036   0.66372654   -1.6154771   0.12676874    11527.576     1000 
  798000   0.45983645   -2.3043636   0.68906492   -1.6152986   0.13148353    11518.897     1000 
  800000   0.43625858   -2.3411621   0.65373348   -1.6874287   0.12064664    11592.193     1000 
  802000   0.42870816   -2.2594239   0.64241917   -1.6170047   0.11273307    11560.062     1000 
  804000   0.44949788   -2.2558337   0.67357257   -1.5822611   0.13763934    11440.869     1000 
  806000   0.45071221   -2.2915537   0.67539225   -1.6161614   0.12789083    11618.635     1000 
  808000   0.43577176   -2.2694443   0.65300398   -1.6164403    0.1336978    11533.692     1000 
  810000   0.44142471   -2.2942504   0.66147493   -1.6327755   0.12522921    11607.179     1000 
  812000   0.44391723   -2.2791756   0.66520997   -1.6139657    0.1192887    11657.957     1000 
  814000   0.46702995   -2.2942041   0.69984438   -1.5943597   0.12848869    11511.931     1000 
  816000   0.44332664    -2.300255   0.66432497     -1.63593   0.12586047    11581.929     1000 
  818000   0.44785792   -2.3018364    0.6711151   -1.6307213   0.14204841    11609.659     1000 
  820000   0.46216322   -2.2311745   0.69255158   -1.5386229   0.13209971    11573.339     1000 
  822000    0.4544475   -2.2906265   0.68098958   -1.6096369   0.12429824    11650.609     1000 
  824000   0.45854828   -2.2598652   0.68713459   -1.5727306   0.13547585    11490.312     1000 
  826000   0.45319439   -2.2733517   0.67911179   -1.5942399   0.11459299    11655.718     1000 
  828000   0.45788354   -2.2324666   0.68613848   -1.5463281   0.13010237    11450.291     1000 
  830000   0.46501521   -2.3510354   0.69682529   -1.6542101   0.12047331    11643.304     1000 
  832000   0.43519145   -2.2631439   0.65213438   -1.6110095   0.13502054    11476.249     1000 
  834000   0.43950713   -2.3241306   0.65860144   -1.6655291   0.12568249    11550.272     1000 
  836000   0.43713734   -2.2740114    0.6550503   -1.6189611   0.12060326    11561.228     1000 
  838000   0.46455709   -2.2821897   0.69613881   -1.5860509    0.1334888    11553.735     1000 
  840000   0.45042161   -2.3588793   0.67495679   -1.6839225   0.12631008    11565.204     1000 
  842000   0.45787469    -2.287226   0.68612523   -1.6011008   0.12926271    11539.367     1000 
  844000   0.47721214   -2.2481844   0.71510239    -1.533082   0.12384778    11543.089     1000 
  846000   0.44272974   -2.3285593   0.66343052   -1.6651288   0.12385959    11676.723     1000 
  848000   0.43916433   -2.2727527   0.65808775    -1.614665   0.13422283    11476.251     1000 
  850000   0.47280499   -2.2207322   0.70849828   -1.5122339   0.12567483    11561.875     1000 
  852000    0.4504123   -2.3264904   0.67494283   -1.6515476   0.12326247    11742.218     1000 
  854000   0.46110992   -2.2437466   0.69097321   -1.5527734    0.1298107    11396.665     1000 
  856000    0.4492864   -2.2439366   0.67325566    -1.570681   0.13447962    11510.333     1000 
  858000   0.43841659   -2.3226192   0.65696726    -1.665652   0.13371546    11542.698     1000 
  860000   0.44117845   -2.2509708   0.66110591   -1.5898649   0.13436518    11516.291     1000 
  862000    0.4566151   -2.2803076   0.68423772   -1.5960699   0.12608223    11449.118     1000 
  864000   0.44447555   -2.2636306   0.66604662    -1.597584   0.12306232    11545.198     1000 
  866000   0.45342532   -2.2444731   0.67945785   -1.5650152   0.12847514    11539.661     1000 
  868000   0.43507619    -2.280564   0.65196167   -1.6286023   0.12283287    11633.063     1000 
  870000   0.44542528    -2.281032   0.66746977   -1.6135622   0.12583685     11505.94     1000 
  872000   0.43989979   -2.3048971   0.65918984   -1.6457072   0.12728557    11581.649     1000 
  874000   0.44399207   -2.2591816   0.66532211   -1.5938595   0.12630982     11639.39     1000 
  876000   0.45602515   -2.2768196   0.68335369   -1.5934659   0.11574626     11659.09     1000 
  878000   0.44764795   -2.2717898   0.67080045   -1.6009893    0.1252411     11582.61     1000 
  880000   0.45986256   -2.3297827   0.68910404   -1.6406787   0.13898871    11533.235     1000 
  882000   0.44251627   -2.2916703   0.66311063   -1.6285597   0.12278343    11694.324     1000 
  884000   0.43974344   -2.3011158   0.65895555   -1.6421603   0.12942807    11609.986     1000 
  886000   0.48015353   -2.2585418   0.71951007   -1.5390317    0.1243013    11512.909     1000 
  888000   0.45441917   -2.3273639   0.68094712   -1.6464167   0.13263039    11587.906     1000 
  890000   0.46139435   -2.2607304   0.69139944    -1.569331   0.13814821    11457.707     1000 
  892000   0.45248966   -2.2908828   0.67805575   -1.6128271   0.13727553    11556.043     1000 
  894000   0.44671477   -2.2740519   0.66940208   -1.6046498   0.11339838    11757.168     1000 
  896000   0.44993512   -2.2370972   0.67422778   -1.5628695   0.14019124    11505.238     1000 
  898000   0.44527052   -2.2454109   0.66723787    -1.578173   0.12486892    11401.287     1000 
  900000   0.44923819   -2.3012655   0.67318343   -1.6280821   0.12297917    11653.414     1000 
  902000   0.45220989   -2.3684144   0.67763652   -1.6907779   0.11959821    11658.381     1000 
  904000   0.44476683   -2.2220726    0.6664831   -1.5555895   0.14575739    11350.672     1000 
  906000   0.45856214   -2.3185201   0.68715537   -1.6313648   0.12852086    11578.515     1000 
  908000   0.46573902    -2.307417   0.69790992   -1.6095071   0.13765657    11622.719     1000 
  910000   0.45101462   -2.2867795    0.6758454   -1.6109341   0.14326116    11504.576     1000 
  912000   0.45357927   -2.2486239   0.67968853   -1.5689354   0.11131733    11721.027     1000 
  914000    0.4372135   -2.2923286   0.65516443   -1.6371641   0.13225173    11528.144     1000 
  916000   0.44543124   -2.3055624   0.66747871   -1.6380837   0.13377014     11557.62     1000 
  918000   0.45617037   -2.3156365   0.68357129   -1.6320652   0.13190007    11483.219     1000 
  920000   0.44123217   -2.2646561   0.66118641   -1.6034697     0.133896    11453.124     1000 
  922000    0.4287432   -2.2703046   0.64247169   -1.6278329   0.13216109    11444.066     1000 
  924000   0.45969371   -2.2940551   0.68885102   -1.6052041   0.12079369    11524.818     1000 
  926000   0.45165243   -2.2862967   0.67680117   -1.6094956   0.12614191    11651.266     1000 
  928000   0.44107755   -2.2889539   0.66095471   -1.6279992   0.12409684    11579.613     1000 
  930000    0.4507905   -2.2994497   0.67550956   -1.6239402   0.12580843    11625.186     1000 
  932000   0.42813331   -2.2458155   0.64155777   -1.6042577   0.12453939    11508.024     1000 
  934000   0.44966465   -2.2806378   0.67382247   -1.6068153   0.13989232    11498.214     1000 
  936000   0.44331811   -2.2788449   0.66431219   -1.6145327   0.13134116    11535.537     1000 
  938000   0.46525669   -2.3073447   0.69718715   -1.6101576    0.1343665     11443.99     1000 
  940000   0.45138798   -2.2632684    0.6764049   -1.5868635   0.12084357    11666.067     1000 
  942000   0.45190779   -2.2712239   0.67718382   -1.5940401   0.13311575    11536.709     1000 
  944000   0.43961849   -2.3414153   0.65876831    -1.682647   0.12324716    11636.929     1000 
  946000   0.46299557   -2.3240665   0.69379886   -1.6302677   0.13802293    11548.529     1000 
  948000   0.42757984   -2.3107936    0.6407284   -1.6700652    0.1223374    11620.312     1000 
  950000   0.43993499   -2.2518109   0.65924258   -1.5925683   0.13308228     11507.36     1000 
  952000   0.45372871   -2.3170899   0.67991247   -1.6371775   0.13196576    11629.125     1000 
  954000   0.44135026   -2.3117799   0.66136336   -1.6504165   0.11084755    11716.649     1000 
  956000   0.44906764    -2.285079   0.67292786   -1.6121512   0.13210495    11609.378     1000 
  958000   0.43235882   -2.3000079   0.64788968   -1.6521182   0.13088269     11667.48     1000 
  960000   0.45761296   -2.2868742   0.68573303   -1.6011411   0.13351759    11504.178     1000 
  962000   0.43372775   -2.3246295   0.64994103   -1.6746885   0.12254686    11660.809     1000 
  964000   0.44265447   -2.2932693   0.66331772   -1.6299516   0.12755051    11587.194     1000 
  966000   0.44902226   -2.2922514   0.67285986   -1.6193916   0.12380751    11628.001     1000 
  968000   0.43468724    -2.325893   0.65137884   -1.6745141   0.11695212    11610.636     1000 
  970000   0.43508451   -2.2610802   0.65197414   -1.6091061   0.13012452    11510.112     1000 
  972000   0.44476277   -2.3156122   0.66647702   -1.6491352   0.11836468    11617.411     1000 
  974000   0.44871285   -2.2988047    0.6723962   -1.6264085   0.12526911    11602.512     1000 
  976000   0.44335949   -2.2824161    0.6643742   -1.6180419   0.13048862    11506.034     1000 
  978000   0.44638592   -2.3426795   0.66890931   -1.6737702   0.13590074    11523.843     1000 
  980000   0.45594153   -2.2870025   0.68322839   -1.6037741   0.12030898    11700.844     1000 
  982000   0.43399403   -2.2685819   0.65034006   -1.6182418   0.13155337    11630.229     1000 
  984000   0.47253637    -2.286859   0.70809574   -1.5787633   0.12141841    11691.772     1000 
  986000   0.44709369   -2.2671844   0.66996989   -1.5972145   0.13877435    11494.627     1000 
  988000    0.4465458    -2.242166   0.66914888   -1.5730171   0.13921545    11482.648     1000 
  990000   0.46404222   -2.3403558   0.69536727   -1.6449886   0.13005706    11557.158     1000 
  992000   0.45736631   -2.3282795   0.68536342   -1.6429161   0.12560781    11633.514     1000 
  994000   0.46156108   -2.3024032   0.69164928   -1.6107539   0.11937171    11660.367     1000 
  996000   0.43520862    -2.312441   0.65216011   -1.6602809   0.14167278    11525.871     1000 
  998000   0.45994996   -2.2967411   0.68923502   -1.6075061   0.11939583    11611.273     1000 
 1000000   0.45871721   -2.2684033   0.68738774   -1.5810156   0.13163799    11512.047     1000 
 1002000   0.45835694   -2.2629591   0.68684788   -1.5761112   0.11803009    11726.205     1000 
 1004000   0.45946235   -2.3073036   0.68850433   -1.6187993   0.12922235    11611.535     1000 
 1006000   0.43863574   -2.3159452   0.65729565   -1.6586495   0.12775043    11621.168     1000 
 1008000   0.43184622   -2.3170167   0.64712156   -1.6698952    0.1147052    11581.953     1000 
 1010000   0.44770098   -2.3133693   0.67087993   -1.6424893   0.12934455    11520.758     1000 
 1012000   0.45673162   -2.3077124   0.68441233   -1.6233001   0.12603758    11633.383     1000 
 1014000   0.45232231   -2.3000356   0.67780498   -1.6222306   0.13149717    11479.347     1000 
 1016000   0.45471982   -2.3362439   0.68139765   -1.6548463   0.11352938    11682.279     1000 
 1018000   0.45778475   -2.2727356   0.68599045   -1.5867452   0.13368641    11570.546     1000 
 1020000   0.45816895    -2.266086   0.68656617   -1.5795198    0.1340827    11560.076     1000 
 1022000   0.47105893   -2.3332322   0.70588181   -1.6273503   0.13571247    11648.654     1000 
 1024000   0.45017156   -2.2721625   0.67458209   -1.5975805   0.12959783    11470.134     1000 
 1026000   0.45482061   -2.3002482   0.68154869   -1.6186995   0.12802783    11543.099     1000 
 1028000     0.468816   -2.3244741   0.70252078   -1.6219533   0.12143913    11716.486     1000 
 1030000   0.44534572   -2.3116313   0.66735056   -1.6442807   0.12912472    11558.743     1000 
 1032000   0.43879687   -2.2792037    0.6575371   -1.6216666   0.12928785    11442.519     1000 
 1034000   0.43898183   -2.3142658   0.65781428   -1.6564515   0.12631272    11515.943     1000 
 1036000   0.44779506   -2.2958112    0.6710209   -1.6247903   0.13194548    11569.328     1000 
 1038000   0.43073313   -2.2514373   0.64545359   -1.6059837   0.14012832    11393.126     1000 
 1040000   0.45911236   -2.2831302   0.68797988   -1.5951503   0.13540804    11528.434     1000 
 1042000   0.46685539   -2.3307933    0.6995828   -1.6312105   0.14040557    11553.397     1000 
 1044000   0.45331555   -2.3064514   0.67929335    -1.627158   0.14421841    11555.281     1000 
 1046000   0.45453407   -2.2811404    0.6811193   -1.6000211   0.13302208    11585.106     1000 
 1048000   0.44561102   -2.2783299   0.66774811   -1.6105818   0.12958767     11552.84     1000 
 1050000   0.44960548   -2.2754104   0.67373382   -1.6016766   0.14081237    11557.519     1000 
 1052000   0.44641926   -2.2902835   0.66895926   -1.6213243   0.11499007    11715.341     1000 
 1054000   0.43170368   -2.2308073   0.64690796   -1.5838993    0.1311776    11546.672     1000 
 1056000   0.45302119   -2.2577595   0.67885225   -1.5789073    0.1306286     11531.02     1000 
 1058000   0.43633459   -2.2725082   0.65384738   -1.6186608   0.13138062    11549.226     1000 
 1060000   0.47139739   -2.3078243   0.70638898   -1.6014353   0.13342661    11499.668     1000 
 1062000    0.4573631   -2.2823329    0.6853586   -1.5969743    0.1288755    11629.282     1000 
 1064000   0.45800526   -2.2433225   0.68632088   -1.5570016   0.13355519    11503.851     1000 
 1066000   0.41891952   -2.2607558   0.62775089   -1.6330049   0.12478721    11606.516     1000 
 1068000   0.43238908   -2.2732669   0.64793504   -1.6253318   0.12959065    11580.477     1000 
 1070000   0.45239716   -2.3310202   0.67791715   -1.6531031   0.11991833    11665.521     1000 
 1072000   0.43806151   -2.2817925   0.65643517   -1.6253574   0.11741867     11599.07     1000 
 1074000   0.46473347   -2.3344089   0.69640311   -1.6380058   0.13464079    11583.444     1000 
 1076000    0.4427928    -2.327137   0.66352501    -1.663612   0.12952206    11572.457     1000 
 1078000   0.44991593    -2.276976   0.67419902    -1.602777   0.13217937    11570.229     1000 
 1080000   0.44685603   -2.2782811   0.66961376   -1.6086674   0.13367095    11561.784     1000 
 1082000   0.46122707   -2.2742919   0.69114877   -1.5831431   0.13162641    11545.352     1000 
 1084000   0.46999613   -2.3183571    0.7042892   -1.6140679   0.13908187    11527.385     1000 
 1086000   0.44474552   -2.2634484   0.66645117   -1.5969972    0.1265735     11494.64     1000 
 1088000   0.45024443   -2.3413672   0.67469128   -1.6666759   0.13083032     11607.24     1000 
 1090000   0.44749488   -2.2372736   0.67057108   -1.5667025   0.13083969    11529.834     1000 
 1092000   0.45347815   -2.2482459     0.679537   -1.5687089   0.13068927    11599.824     1000 
 1094000   0.42737011   -2.2863317   0.64041411   -1.6459176   0.12435717    11556.003     1000 
 1096000   0.43776442   -2.2685718   0.65598999   -1.6125818   0.12390858    11636.499     1000 
 1098000   0.46576905   -2.2961151   0.69795493   -1.5981602   0.13239725     11561.29     1000 
 1100000   0.46193695   -2.2639919   0.69221252   -1.5717794   0.11747919    11767.466     1000 
 1102000   0.43923273   -2.2640828   0.65819025   -1.6058925   0.13554129    11559.222     1000 
 1104000   0.45018943   -2.3054512   0.67460887   -1.6308423   0.11746883    11630.145     1000 
 1106000   0.47154205   -2.2869252   0.70660577   -1.5803195   0.13700772    11494.489     1000 
 1108000   0.44817227    -2.284467   0.67158615   -1.6128809   0.13040892    11536.337     1000 
 1110000   0.42860713   -2.2718435   0.64226779   -1.6295757   0.12777946    11611.885     1000 
 1112000   0.45656759   -2.2801521   0.68416653   -1.5959856   0.13014897    11714.153     1000 
 1114000   0.43866778   -2.3144892   0.65734367   -1.6571456   0.11951138    11718.709     1000 
 1116000   0.46406128    -2.273062   0.69539583   -1.5776661   0.14590545     11433.73     1000 
 1118000   0.45583067   -2.3365112   0.68306226   -1.6534489   0.12491173    11642.157     1000 
 1120000   0.45106988   -2.3148872   0.67592821    -1.638959   0.12989914    11550.721     1000 
 1122000   0.44626478   -2.3002697   0.66872777   -1.6315419   0.12942812    11609.902     1000 
 1124000   0.43374911   -2.2820098   0.64997304   -1.6320367   0.12343154    11535.635     1000 
 1126000   0.45528858   -2.3020995   0.68224993   -1.6198496   0.13425509    11539.543     1000 
 1128000    0.4498906   -2.2474929   0.67416107   -1.5733318   0.13329833    11485.062     1000 
 1130000   0.43388641   -2.2657932   0.65017879   -1.6156144   0.11963421    11551.996     1000 
 1132000   0.43265347   -2.2852865   0.64833122   -1.6369553   0.14124738    11419.806     1000 
 1134000   0.45390601   -2.2367734   0.68017816   -1.5565952   0.12316647    11536.985     1000 
 1136000   0.46343274   -2.2435875   0.69445397   -1.5491335   0.14564251     11430.04     1000 
 1138000   0.46094353   -2.2619285   0.69072388   -1.5712046   0.12873937    11604.118     1000 
 1140000   0.42757323    -2.326051   0.64071849   -1.6853326   0.12173724    11611.338     1000 
 1142000   0.45433442    -2.290516   0.68082013   -1.6096959   0.13640287    11657.031     1000 
 1144000   0.43963734   -2.3076323   0.65879656   -1.6488357   0.12246313     11605.35     1000 
 1146000   0.45025951   -2.2960466   0.67471388   -1.6213327   0.14151006    11425.419     1000 
 1148000   0.45535146   -2.2966023   0.68234417   -1.6142582    0.1278626    11646.924     1000 
 1150000   0.45947676   -2.2688588   0.68852592   -1.5803329   0.14826853    11482.199     1000 
 1152000   0.45100064   -2.3033105   0.67582446    -1.627486   0.12860081    11559.723     1000 
 1154000   0.45082351   -2.3126097   0.67555903   -1.6370507   0.13028415    11661.661     1000 
 1156000   0.45874971   -2.3205049   0.68743644   -1.6330685    0.1320948    11549.547     1000 
 1158000   0.44870199   -2.3059218   0.67237993   -1.6335418   0.13730715    11476.825     1000 
 1160000   0.46483012   -2.2642363   0.69654794   -1.5676883    0.1328901     11576.51     1000 
 1162000   0.45112583   -2.2958991   0.67601206   -1.6198871    0.1395702    11511.118     1000 
 1164000   0.45047596   -2.2966149   0.67503822   -1.6215767   0.14402896     11498.68     1000 
 1166000   0.43856618   -2.3061864   0.65719142   -1.6489949   0.12400303    11558.492     1000 
 1168000   0.43663534   -2.3008589   0.65429806   -1.6465609   0.13286507    11667.098     1000 
 1170000    0.4437242   -2.2899351   0.66492072   -1.6250144   0.11951955    11713.441     1000 
 1172000   0.44987656   -2.2662067   0.67414002   -1.5920667   0.12404192    11686.497     1000 
 1174000   0.45711786   -2.3300027   0.68499111   -1.6450116      0.12321    11617.419     1000 
 1176000   0.43039918   -2.2701159   0.64495317   -1.6251628   0.13455107    11322.335     1000 
 1178000   0.44561334   -2.2457822    0.6677516   -1.5780306   0.13761306    11493.618     1000 
 1180000   0.46660898   -2.2795503   0.69921356   -1.5803367   0.13359854    11565.741     1000 
 1182000   0.45041865   -2.2453021   0.67495234   -1.5703497   0.12526929    11623.799     1000 
 1184000   0.46957062   -2.3184992   0.70365157   -1.6148476   0.11594566    11619.901     1000 
 1186000   0.46300297   -2.2902472   0.69380994   -1.5964373   0.14124009    11550.411     1000 
 1188000   0.44055487   -2.3083001   0.66017147   -1.6481287   0.12912823    11548.299     1000 
 1190000   0.44212157   -2.3229078   0.66251917   -1.6603887    0.1395025    11573.951     1000 
 1192000   0.45727957   -2.3050207   0.68523343   -1.6197872   0.12828087    11595.289     1000 
 1194000    0.4522649   -2.2603063   0.67771895   -1.5825874    0.1273176    11570.158     1000 
 1196000    0.4676434   -2.2628835   0.70076363   -1.5621199   0.13532336    11541.143     1000 
 1198000   0.44187361   -2.2769015    0.6621476   -1.6147539   0.13820975    11508.965     1000 
 1200000   0.44791231   -2.3034583    0.6711966   -1.6322617   0.13236333    11525.484     1000 
 1202000   0.45240272   -2.3395763   0.67792548   -1.6616508   0.12653977    11591.417     1000 
 1204000   0.45752876   -2.2773469   0.68560685     -1.59174   0.12922772    11581.549     1000 
 1206000   0.42873882   -2.3133682   0.64246512   -1.6709031   0.12037047    11543.847     1000 
 1208000   0.43326246   -2.2922681    0.6492438   -1.6430243    0.1334383    11508.081     1000 
 1210000   0.46480418   -2.3666956   0.69650906   -1.6701865   0.12129394    11653.072     1000 
 1212000   0.44906278   -2.2772018   0.67292058   -1.6042812   0.13335858    11515.273     1000 
 1214000   0.46276147   -2.2835335   0.69344807   -1.5900854   0.11963206    11579.954     1000 
 1216000   0.47105251   -2.2870028   0.70587218   -1.5811306   0.12727406    11511.985     1000 
 1218000   0.44607548   -2.2843494   0.66844411   -1.6159053   0.12125908    11565.872     1000 
 1220000   0.45589717   -2.2580957    0.6831619   -1.5749338    0.1257099    11582.977     1000 
 1222000   0.46670295   -2.2896276   0.69935438   -1.5902732    0.1287286    11733.388     1000 
 1224000   0.44492525   -2.2552031   0.66672049   -1.5884826     0.134647    11518.161     1000 
 1226000   0.45904031   -2.3231907   0.68787191   -1.6353188   0.13453272    11580.021     1000 
 1228000   0.46054099   -2.3148896   0.69012068   -1.6247689   0.14227736     11499.04     1000 
 1230000    0.4397124   -2.3056273   0.65890904   -1.6467183   0.12886524     11515.88     1000 
 1232000   0.45012866   -2.2732511   0.67451779   -1.5987333   0.13521529    11553.498     1000 
 1234000   0.44602483   -2.2457135   0.66836821   -1.5773453    0.1363976    11432.915     1000 
 1236000   0.45667224   -2.2869168   0.68432336   -1.6025935   0.13547741     11575.38     1000 
 1238000   0.46243672   -2.2570741   0.69296143   -1.5641127   0.12454912    11554.709     1000 
 1240000   0.43093824    -2.290816   0.64576096    -1.645055   0.13378679    11601.525     1000 
 1242000   0.45127526   -2.2845311   0.67623598   -1.6082951     0.142897    11302.805     1000 
 1244000   0.45424312   -2.3148782   0.68068331   -1.6341948   0.12841829    11689.451     1000 
 1246000   0.45418562    -2.281212   0.68059715   -1.6006148   0.13722234    11527.174     1000 
 1248000   0.43111312   -2.2875889   0.64602301   -1.6415659   0.14371155    11488.097     1000 
 1250000   0.44351119   -2.2750894   0.66460152   -1.6104879   0.13486249    11444.266     1000 
 1252000   0.44613752   -2.2627452   0.66853707   -1.5942081   0.12881027    11535.227     1000 
 1254000   0.44651143   -2.2849109   0.66909738   -1.6158135   0.12773723    11496.064     1000 
 1256000   0.45444474   -2.2743901   0.68098545   -1.5934046   0.12432455    11594.845     1000 
 1258000   0.43767561   -2.3103382   0.65585691   -1.6544813   0.12964339    11524.909     1000 
 1260000   0.45849216   -2.2689329    0.6870505   -1.5818824   0.12752026    11576.138     1000 
 1262000   0.42992997   -2.2797733   0.64425005   -1.6355233   0.11829151     11561.36     1000 
 1264000   0.45360119   -2.3048185   0.67972139   -1.6250971   0.14447039    11412.364     1000 
 1266000    0.4306911   -2.2663763   0.64539061   -1.6209857   0.13900703     11465.78     1000 
 1268000   0.44857404   -2.3211826   0.67218819   -1.6489944   0.12321375    11697.115     1000 
 1270000   0.46643633   -2.2641665   0.69895485   -1.5652116   0.13537597    11530.107     1000 
 1272000   0.44091135   -2.2704911   0.66070566   -1.6097855   0.13260466    11380.171     1000 
 1274000   0.48189764   -2.3153554   0.72212362   -1.5932318   0.14141188    11571.141     1000 
 1276000   0.43274782   -2.3030719   0.64847261   -1.6545993   0.13470612    11604.162     1000 
 1278000    0.4620656   -2.3178543   0.69240531    -1.625449   0.12607845    11580.475     1000 
 1280000   0.47589731   -2.2534841   0.71313212   -1.5403519   0.12891573    11621.984     1000 
 1282000   0.45906634   -2.3075739   0.68791091    -1.619663    0.1410336    11423.848     1000 
 1284000   0.46014458   -2.3312669   0.68952666   -1.6417403   0.13536886    11539.888     1000 
 1286000   0.44717492   -2.2793464   0.67009162   -1.6092548   0.12783312      11587.7     1000 
 1288000   0.45696538   -2.3476983   0.68476262   -1.6629357   0.12347724    11714.977     1000 
 1290000   0.45090222   -2.2841623   0.67567698   -1.6084853   0.14109891    11614.959     1000 
 1292000   0.45398746   -2.2824095   0.68030021   -1.6021093   0.13152444    11637.937     1000 
 1294000   0.45643918   -2.2814463   0.68397412   -1.5974722   0.12971356    11631.029     1000 
 1296000   0.45186083   -2.3349208   0.67711345   -1.6578074    0.1307035    11545.534     1000 
 1298000   0.44188093   -2.2547941   0.66215858   -1.5926356   0.13780145    11548.132     1000 
 1300000   0.45467039   -2.2558043   0.68132358   -1.5744808     0.137971    11505.112     1000 
 1302000    0.4371316   -2.3003565    0.6550417   -1.6453148   0.12960654    11504.774     1000 
 1304000   0.45615298   -2.2618432   0.68354524    -1.578298   0.12356182    11606.077     1000 
 1306000   0.42914493   -2.3648331   0.64307368   -1.7217594   0.12098509    11687.765     1000 
 1308000   0.44644068   -2.2942937   0.66899136   -1.6253024    0.1351477    11389.667     1000 
 1310000   0.46006578   -2.2887338   0.68940857   -1.5993252   0.12916398      11495.3     1000 
 1312000   0.44722446   -2.2252691   0.67016585   -1.5551033   0.14503003    11414.172     1000 
 1314000   0.44824907   -2.2771403   0.67170123    -1.605439   0.12865079    11523.292     1000 
 1316000   0.46361349   -2.2634632   0.69472482   -1.5687384   0.14254078    11425.004     1000 
 1318000   0.47189703   -2.2572911   0.70713769   -1.5501534   0.14095253    11440.767     1000 
 1320000   0.46083082   -2.3356433   0.69055499   -1.6450883   0.11133441    11686.493     1000 
 1322000    0.4571131   -2.2966512   0.68498397   -1.6116673   0.13175581    11619.474     1000 
 1324000   0.46460992   -2.3167938   0.69621797   -1.6205758    0.1287008    11558.309     1000 
 1326000   0.43884692   -2.2690359    0.6576121   -1.6114238   0.13599645    11562.478     1000 
 1328000   0.46630376   -2.2806448   0.69875618   -1.5818887   0.14539267    11427.187     1000 
 1330000   0.47165175   -2.2973922   0.70677014   -1.5906221   0.13012547    11636.829     1000 
 1332000   0.43718108    -2.313082   0.65511585   -1.6579661   0.12663656    11582.167     1000 
 1334000    0.4603753    -2.290042   0.68987238   -1.6001696    0.1308464    11545.848     1000 
 1336000   0.43284133   -2.2368148   0.64861273    -1.588202    0.1393051    11480.999     1000 
 1338000   0.44273157   -2.3427329   0.66343325   -1.6792997   0.11853484    11706.942     1000 
 1340000     0.439681   -2.3214534   0.65886197   -1.6625915   0.13381894    11529.444     1000 
 1342000   0.46687132   -2.2738903   0.69960667   -1.5742836   0.12130353    11644.198     1000 
 1344000   0.46948606   -2.2685736   0.70352486   -1.5650487   0.14110395     11392.07     1000 
 1346000   0.45644244   -2.2973063   0.68397899   -1.6133273   0.12954505    11592.775     1000 
 1348000    0.4461264   -2.2852345   0.66852042   -1.6167141   0.13581666    11549.724     1000 
 1350000   0.43243504   -2.2780209   0.64800391    -1.630017   0.14217592    11439.277     1000 
 1352000   0.46491818   -2.2668248    0.6966799   -1.5701449   0.13115072    11441.853     1000 
 1354000   0.45175131   -2.3040464   0.67694934   -1.6270971   0.13225185    11641.064     1000 
 1356000    0.4436175    -2.257748   0.66476083   -1.5929872   0.14522745    11480.645     1000 
 1358000   0.44782821   -2.2693737   0.67107057   -1.5983031   0.12304753    11486.699     1000 
 1360000   0.46460536    -2.274255   0.69621113   -1.5780439   0.13530031    11541.079     1000 
 1362000   0.43767576   -2.2357076   0.65585712   -1.5798504    0.1340312    11437.134     1000 
 1364000   0.45091131   -2.2993959   0.67569059   -1.6237053   0.13938448    11523.563     1000 
 1366000   0.46134053   -2.2374741   0.69131878   -1.5461554   0.13876389    11463.771     1000 
 1368000   0.44789443    -2.311696   0.67116981   -1.6405261   0.10632578    11675.773     1000 
 1370000   0.46873106    -2.264012    0.7023935   -1.5616185   0.13579098    11349.786     1000 
 1372000   0.42884517   -2.2375501   0.64262448   -1.5949256   0.15390237    11319.152     1000 
 1374000   0.43793041   -2.2782173   0.65623871   -1.6219786   0.13753584    11514.693     1000 
 1376000   0.44319222   -2.2729759   0.66412354   -1.6088523   0.13156963    11485.049     1000 
 1378000   0.44811374   -2.3160273   0.67149844   -1.6445288   0.12038896    11577.886     1000 
 1380000   0.45135253   -2.2565712   0.67635177   -1.5802195   0.13901006    11526.388     1000 
 1382000   0.47191613   -2.2943966   0.70716632   -1.5872302   0.13361162    11488.935     1000 
 1384000   0.42851549   -2.2617047   0.64213046   -1.6195743   0.14070085    11561.581     1000 
 1386000   0.44191192   -2.2815415   0.66220501   -1.6193365   0.12842268    11537.679     1000 
 1388000   0.45114768   -2.2997518    0.6760448    -1.623707   0.12567461    11589.851     1000 
 1390000   0.45987761   -2.3147276    0.6891266   -1.6256011   0.12135172    11621.017     1000 
 1392000   0.44482769   -2.2911763   0.66657429    -1.624602   0.13826264    11553.445     1000 
 1394000   0.44627639   -2.3382922   0.66874517    -1.669547   0.12906511    11494.004     1000 
 1396000   0.45901716   -2.2907929   0.68783721   -1.6029557   0.13063657    11540.557     1000 
 1398000   0.44065845   -2.2782989   0.66032668   -1.6179722   0.11998722    11655.987     1000 
 1400000    0.4556298   -2.3167222   0.68276125    -1.633961   0.13095573    11485.018     1000 
 1402000   0.45046611   -2.2589262   0.67502347   -1.5839028   0.13611784     11487.88     1000 
 1404000   0.45062726   -2.2809846   0.67526495   -1.6057196   0.11573447    11736.431     1000 
 1406000   0.45519899   -2.3047518   0.68211569   -1.6226361   0.11846274    11672.659     1000 
 1408000   0.44556193   -2.2847633   0.66767456   -1.6170887   0.12416472    11569.398     1000 
 1410000   0.42727695   -2.2801012    0.6402745   -1.6398267   0.13405242    11420.833     1000 
 1412000   0.47486664   -2.3196005   0.71158766   -1.6080129   0.12654673    11468.833     1000 
 1414000   0.43111258    -2.260736   0.64602221   -1.6147138   0.13096908     11459.73     1000 
 1416000   0.44349379   -2.2487952   0.66457544   -1.5842198   0.13634076    11496.035     1000 
 1418000   0.44475604   -2.3163839   0.66646692    -1.649917    0.1134075    11704.488     1000 
 1420000   0.44668014   -2.3350344   0.66935018   -1.6656842   0.12375435    11669.479     1000 
 1422000   0.45435903   -2.2750254   0.68085701   -1.5941684   0.12807976    11566.403     1000 
 1424000   0.44335366   -2.2542888   0.66436546   -1.5899233   0.12756109    11522.773     1000 
 1426000   0.46703541   -2.3086346   0.69985257   -1.6087821   0.13193989    11595.602     1000 
 1428000   0.45842102    -2.309489    0.6869439   -1.6225451   0.13491436    11506.924     1000 
 1430000   0.44822086   -2.2745515   0.67165896   -1.6028926   0.12164994    11676.591     1000 
 1432000   0.47649756   -2.2944244    0.7140316   -1.5803928    0.1290215    11631.566     1000 
 1434000   0.44838181   -2.2528139   0.67190014   -1.5809138   0.13730836     11470.93     1000 
 1436000   0.46061294   -2.2900383   0.69022849   -1.5998099   0.13056496    11486.361     1000 
 1438000   0.45805264   -2.2913472   0.68639189   -1.6049553    0.1348504    11521.646     1000 
 1440000   0.45593399    -2.308439   0.68321709   -1.6252219   0.11568963    11614.722     1000 
 1442000   0.45196831   -2.2775556   0.67727451   -1.6002811   0.12026437    11638.649     1000 
 1444000   0.44148421   -2.2726807   0.66156409   -1.6111166   0.13597754    11596.184     1000 
 1446000   0.45364139   -2.2843543   0.67978162   -1.6045727   0.12574135    11526.018     1000 
 1448000    0.4525639   -2.2909615     0.678167   -1.6127946   0.12445417    11520.701     1000 
 1450000   0.45443242   -2.2990844   0.68096697   -1.6181174   0.13966183    11505.154     1000 
 1452000   0.42755144   -2.2769706   0.64068584   -1.6362848   0.12595151    11639.958     1000 
 1454000   0.45287479   -2.2910634   0.67863287   -1.6124306   0.12018877    11681.229     1000 
 1456000   0.43466065   -2.2804184   0.65133898   -1.6290794   0.12600172    11566.669     1000 
 1458000   0.46208365   -2.2971106   0.69243235   -1.6046783   0.12327912    11556.833     1000 
 1460000   0.45608624   -2.2810217   0.68344523   -1.5975765   0.13953839    11487.767     1000 
 1462000   0.44599847   -2.2836038   0.66832871    -1.615275   0.14237716     11437.89     1000 
 1464000   0.45254284    -2.276144   0.67813545   -1.5980085   0.13899368    11422.708     1000 
 1466000   0.44645294   -2.2596467   0.66900974    -1.590637    0.1316769    11510.602     1000 
 1468000   0.47039802   -2.3081253   0.70489144   -1.6032339   0.12690583    11719.486     1000 
 1470000   0.44390912   -2.2832817   0.66519781   -1.6180839   0.12891068    11440.114     1000 
 1472000   0.44096044   -2.2779814   0.66077921   -1.6172022   0.12131103     11634.13     1000 
 1474000   0.45856681   -2.3095417   0.68716237   -1.6223794   0.12492267    11511.314     1000 
 1476000   0.45736943   -2.2956202   0.68536809   -1.6102521   0.13622894    11543.775     1000 
 1478000   0.42906808   -2.3169599   0.64295852   -1.6740014   0.12831457    11551.042     1000 
 1480000   0.45225932    -2.332002   0.67771059   -1.6542914   0.12404934    11687.402     1000 
 1482000   0.44876998   -2.2776163   0.67248182   -1.6051344   0.13230113    11588.931     1000 
 1484000   0.46727295   -2.2853272   0.70020852   -1.5851187   0.12977894    11616.678     1000 
 1486000   0.46233371   -2.2749632   0.69280706   -1.5821562   0.14198761    11528.903     1000 
 1488000    0.4782036   -2.3031522    0.7165881   -1.5865641   0.12355676    11681.153     1000 
 1490000   0.44951889   -2.2861539   0.67360405   -1.6125499   0.13520068    11555.213     1000 
 1492000   0.45018105   -2.2288423    0.6745963    -1.554246   0.11781575    11541.229     1000 
 1494000   0.44960057    -2.353168   0.67372646   -1.6794415   0.11028782    11743.956     1000 
 1496000   0.44019433   -2.2813027    0.6596312   -1.6216715   0.12753471    11595.893     1000 
 1498000   0.46120643   -2.2780237   0.69111783   -1.5869058   0.13991383    11508.144     1000 
 1500000   0.45439716   -2.3081683   0.68091414   -1.6272542   0.12576518    11615.326     1000 
 1502000   0.47493791   -2.2639744   0.71169446     -1.55228   0.13604724    11532.925     1000 
 1504000   0.44412255   -2.2844052   0.66551764   -1.6188875   0.13101068    11466.658     1000 
 1506000   0.46224191   -2.3198932   0.69266951   -1.6272237   0.13460396     11500.91     1000 
 1508000   0.43764892   -2.2715391    0.6558169   -1.6157222   0.13530592    11544.311     1000 
 1510000   0.44506264   -2.3090647   0.66692636   -1.6421383   0.12237563    11617.029     1000 
 1512000   0.44179013   -2.3234926   0.66202251   -1.6614701   0.13860758    11679.278     1000 
 1514000   0.43735859   -2.2699509   0.65538185    -1.614569   0.13670519    11634.735     1000 
 1516000   0.43474968   -2.2883502   0.65147239   -1.6368778   0.12586017    11521.506     1000 
 1518000    0.4511561   -2.2989601   0.67605741   -1.6229027   0.12967556    11615.611     1000 
 1520000   0.44625759     -2.29871     0.668717    -1.629993   0.12399043    11665.827     1000 
 1522000   0.42598731   -2.3292695   0.63834198   -1.6909276   0.12443714    11658.925     1000 
 1524000   0.44740915   -2.2938698   0.67044261   -1.6234271   0.14436315    11425.135     1000 
 1526000   0.45188898   -2.2808197   0.67715564   -1.6036641   0.12779978    11510.877     1000 
 1528000   0.48293178   -2.2987299   0.72367328   -1.5750567   0.13112488      11604.9     1000 
 1530000   0.41621129   -2.3187245   0.62369262   -1.6950318   0.13228448    11522.366     1000 
 1532000   0.45874103   -2.3015153   0.68742344   -1.6140918   0.12910174    11520.187     1000 
 1534000    0.4552242   -2.2909212   0.68215347   -1.6087678   0.12312121    11583.339     1000 
 1536000   0.45303461   -2.2917167   0.67887236   -1.6128444   0.11546194    11658.992     1000 
 1538000   0.44835359   -2.3290258   0.67185786    -1.657168   0.12763945    11672.488     1000 
 1540000   0.46894235   -2.2911687   0.70271012   -1.5884586   0.12583101    11660.312     1000 
 1542000   0.44511926   -2.2730394   0.66701121   -1.6060282     0.124705    11653.273     1000 
 1544000   0.45620884   -2.3042003   0.68362895   -1.6205713    0.1230874    11582.591     1000 
 1546000   0.45805143   -2.2684884   0.68639007   -1.5820983   0.12847979    11498.177     1000 
 1548000   0.44000909   -2.2629736   0.65935362     -1.60362   0.14131463    11355.111     1000 
 1550000   0.44330459   -2.2917327   0.66429192   -1.6274407   0.13267638    11510.837     1000 
 1552000   0.44104008   -2.3261789   0.66089856   -1.6652804   0.11394334    11757.036     1000 
 1554000   0.45014837   -2.3128472   0.67454733   -1.6382999   0.13744875    11541.228     1000 
 1556000   0.43986471   -2.3577566   0.65913727   -1.6986194   0.12261983    11671.746     1000 
 1558000   0.45627201   -2.2746951   0.68372361   -1.5909715   0.13357014    11500.684     1000 
 1560000   0.45593576   -2.3270566   0.68321974   -1.6438368   0.11546875    11641.361     1000 
 1562000   0.42994073   -2.2950992   0.64426619    -1.650833   0.14141269    11473.605     1000 
 1564000   0.44066361   -2.3091678   0.66033441   -1.6488334   0.12335787    11700.971     1000 
 1566000   0.46159919   -2.2635842   0.69170638   -1.5718778   0.13036292    11544.229     1000 
 1568000   0.43623491   -2.2681294   0.65369801   -1.6144314   0.14348727     11496.45     1000 
 1570000   0.43322736   -2.3595768   0.64919121   -1.7103856   0.11358259     11752.89     1000 
 1572000   0.44430774   -2.3067764   0.66579514   -1.6409813   0.13237169    11648.441     1000 
 1574000   0.46168267   -2.2977485   0.69183149    -1.605917   0.13348874     11611.53     1000 
 1576000   0.41669659   -2.3267904   0.62441985   -1.7023705   0.12884988    11583.358     1000 
 1578000    0.4441769   -2.2536001   0.66559909    -1.588001   0.12399605    11657.423     1000 
 1580000   0.44470803   -2.2689279   0.66639498   -1.6025329   0.12521131    11567.722     1000 
 1582000   0.45735585    -2.283186   0.68534774   -1.5978382   0.12465733    11592.761     1000 
 1584000   0.46484493   -2.3458322   0.69657013    -1.649262   0.11584369    11760.742     1000 
 1586000   0.43195047   -2.2654785   0.64727778   -1.6182007   0.12661286    11510.553     1000 
 1588000   0.44865624   -2.2851551   0.67231137   -1.6128437   0.13197107    11433.499     1000 
 1590000   0.44484674   -2.3037826   0.66660284   -1.6371797   0.13154519    11554.967     1000 
 1592000   0.45141492   -2.2549998   0.67644525   -1.5785546   0.13162161    11513.461     1000 
 1594000   0.43904618   -2.2527374    0.6579107   -1.5948267   0.13185817    11587.229     1000 
 1596000   0.44570358   -2.2783336   0.66788682   -1.6104467    0.1402506    11480.842     1000 
[...]
 2612000   0.46663201   -2.3119471   0.69924807    -1.612699   0.14085637    11477.472     1000 
 2614000   0.44453041   -2.3320474   0.66612882   -1.6659185   0.13232124    11563.445     1000 
 2616000   0.43941379   -2.2955031   0.65846157   -1.6370415   0.12235466    11582.331     1000 
 2618000   0.43656959   -2.3219167   0.65419954   -1.6677172   0.11487878    11658.811     1000 
 2620000   0.44515257   -2.2805883   0.66706112   -1.6135272   0.14145119    11443.664     1000 
 2622000    0.4562851   -2.2975898   0.68374322   -1.6138466   0.12084298     11682.45     1000 
 2624000   0.45296374   -2.2927963   0.67876617   -1.6140302   0.14574205    11564.273     1000 
 2626000   0.44781053   -2.2845779   0.67104408   -1.6135338    0.1223535    11674.292     1000 
 2628000   0.44481724     -2.29548   0.66655863   -1.6289213    0.1316734     11593.64     1000 
 2630000   0.46670068   -2.2869427   0.69935098   -1.5875917    0.1384511    11574.429     1000 
 2632000   0.43080606   -2.3074667   0.64556288   -1.6619038   0.12199713    11679.431     1000 
 2634000    0.4482171   -2.3133915   0.67165332   -1.6417382   0.12394146    11650.122     1000 
 2636000    0.4678044   -2.2941208    0.7010049   -1.5931159   0.12869764    11497.508     1000 
 2638000   0.45713343    -2.297362   0.68501445   -1.6123476   0.12540397    11558.254     1000 
 2640000   0.45254818   -2.3050851   0.67814345   -1.6269417   0.12536904    11681.595     1000 
 2642000   0.44953414   -2.2985144   0.67362692   -1.6248875   0.12483189    11642.243     1000 
 2644000   0.43876164   -2.2265475   0.65748432   -1.5690632   0.12618186    11484.688     1000 
 2646000   0.47217444   -2.2938139    0.7075534   -1.5862605   0.11846653     11613.91     1000 
 2648000   0.44807835   -2.3050965   0.67144541   -1.6336511    0.1136414     11709.84     1000 
 2650000   0.44002517   -2.2986833   0.65937771   -1.6393056   0.13336389    11543.553     1000 
 2652000   0.43311907   -2.2989474   0.64902892   -1.6499185   0.13521538     11515.86     1000 
 2654000   0.43741496   -2.2912475   0.65546632   -1.6357812   0.12811155    11587.583     1000 
 2656000   0.46370939    -2.305743   0.69486853   -1.6108745   0.12397534    11629.438     1000 
 2658000   0.43636196   -2.3166246    0.6538884   -1.6627362   0.13497798    11481.016     1000 
 2660000   0.43110694   -2.2968491   0.64601376   -1.6508353   0.12027206    11663.832     1000 
 2662000   0.43423412   -2.2931827   0.65069984   -1.6424829    0.1318047    11513.926     1000 
 2664000   0.43765923   -2.2688251   0.65583236   -1.6129928   0.13728078    11501.596     1000 
 2666000   0.44833318   -2.2678269   0.67182727   -1.5959997   0.12511556    11562.504     1000 
 2668000   0.44485635   -2.3116086   0.66661724   -1.6449914   0.13738722    11680.683     1000 
 2670000   0.45984305   -2.2645559   0.68907481    -1.575481   0.14303815    11451.459     1000 
 2672000   0.43403047   -2.2638107   0.65039467    -1.613416    0.1239611    11580.039     1000 
 2674000   0.46247106   -2.3112702   0.69301289   -1.6182573   0.12710114    11650.575     1000 
 2676000   0.44866504   -2.2582934   0.67232456   -1.5859689   0.12287639    11545.125     1000 
 2678000   0.45470457   -2.2946899    0.6813748   -1.6133151   0.12333449    11514.524     1000 
 2680000   0.43739341   -2.1984098   0.65543402   -1.5429757   0.13092861    11461.882     1000 
 2682000   0.44211993   -2.2648951   0.66251672   -1.6023784   0.13309779    11639.262     1000 
 2684000    0.4563215   -2.3459698   0.68379777    -1.662172    0.1230263    11689.576     1000 
 2686000   0.45228913   -2.2557474   0.67775527   -1.5779921   0.13141148    11531.877     1000 
 2688000    0.4428168   -2.2429383   0.66356097   -1.5793774   0.13661264    11440.415     1000 
 2690000   0.44406384   -2.2450535   0.66542967   -1.5796239   0.13715877      11543.4     1000 
 2692000   0.42832659   -2.2943479    0.6418474   -1.6525005   0.12744589    11557.099     1000 
 2694000   0.46295063   -2.2877017   0.69373152   -1.5939702   0.12521623    11595.354     1000 
 2696000   0.45639148   -2.3543263   0.68390264   -1.6704237   0.12700209    11617.931     1000 
 2698000   0.44169879   -2.2969222   0.66188564   -1.6350365   0.12682227    11669.348     1000 
 2700000   0.46055345   -2.2967632   0.69013934   -1.6066239   0.13018388    11505.269     1000 
 2702000   0.45478132   -2.3033198   0.68148981     -1.62183   0.13057801    11560.844     1000 
 2704000   0.46015414   -2.3010216   0.68954098   -1.6114807   0.12206829    11599.094     1000 
 2706000   0.44834362   -2.2648802   0.67184291   -1.5930373   0.13360351    11496.964     1000 
 2708000   0.43913258   -2.2443973   0.65804018   -1.5863572   0.13497954    11553.811     1000 
 2710000   0.47313473   -2.3561025    0.7089924   -1.6471101   0.12519235    11681.903     1000 
 2712000   0.46534031   -2.2822023   0.69731245   -1.5848898    0.1328639    11510.071     1000 
 2714000   0.44547236   -2.2411969   0.66754034   -1.5736566   0.12693236    11524.578     1000 
 2716000   0.45209607    -2.313589   0.67746597    -1.636123   0.12369761    11643.106     1000 
 2718000   0.46492585    -2.274095   0.69669138   -1.5774036   0.12876419    11513.537     1000 
 2720000   0.45715368   -2.2685949    0.6850448   -1.5835501   0.12247693    11669.051     1000 
 2722000   0.45694435   -2.3055901   0.68473111    -1.620859   0.13224959    11575.011     1000 
 2724000   0.46015247   -2.2712797   0.68953847   -1.5817412   0.13028955    11501.382     1000 
 2726000   0.44430407   -2.2738554   0.66578964   -1.6080657   0.12039114    11699.604     1000 
 2728000    0.4575888    -2.197368   0.68569681   -1.5116712   0.13707412     11403.54     1000 
 2730000   0.44921375   -2.2968278    0.6731468    -1.623681   0.13113749    11592.114     1000 
 2732000   0.44992783   -2.2506464   0.67421685   -1.5764296   0.14036341    11434.581     1000 
 2734000   0.44181287   -2.2504733   0.66205658   -1.5884167   0.12733259     11527.02     1000 
 2736000   0.48066428   -2.3291251   0.72027542   -1.6088497   0.13592667    11593.254     1000 
 2738000   0.43606686   -2.2995108   0.65344619   -1.6460646   0.12152397     11588.78     1000 
 2740000   0.44714176   -2.2813408   0.67004193   -1.6112989   0.12136128    11661.737     1000 
 2742000   0.44053158   -2.3144237   0.66013657   -1.6542871   0.11946102     11669.07     1000 
 2744000   0.44208069   -2.3162635   0.66245792   -1.6538056   0.12793084    11581.785     1000 
 2746000   0.45394984   -2.2843338   0.68024383   -1.6040899   0.12100253    11653.496     1000 
 2748000   0.45545089   -2.2685072   0.68249316   -1.5860141   0.12509615    11506.707     1000 
 2750000   0.44175776   -2.2716558     0.661974   -1.6096817   0.11262075     11650.11     1000 
 2752000   0.43080588   -2.2787293   0.64556261   -1.6331667     0.136037    11508.888     1000 
 2754000   0.43548514   -2.2722311   0.65257449   -1.6196566   0.13348183    11542.818     1000 
 2756000   0.45681528   -2.2849522    0.6845377   -1.6004145   0.13171475    11639.957     1000 
 2758000    0.4451341   -2.2767467   0.66703345   -1.6097132    0.1292538    11583.086     1000 
 2760000   0.43440378      -2.3142   0.65095407    -1.663246   0.13105586    11629.782     1000 
 2762000   0.47212956   -2.2885201   0.70748615   -1.5810339   0.12536415    11607.059     1000 
 2764000   0.44201636   -2.3092689   0.66236151   -1.6469074   0.13055817    11590.637     1000 
 2766000   0.43292366   -2.2916815   0.64873611   -1.6429454    0.1360578    11593.511     1000 
 2768000   0.43788054   -2.2927184   0.65616398   -1.6365544   0.14198197    11399.047     1000 
 2770000    0.4475708   -2.2869523   0.67068484   -1.6162674   0.13159788     11593.92     1000 
 2772000   0.44468261   -2.2840661    0.6663569   -1.6177092   0.12918843    11610.141     1000 
 2774000   0.42396138   -2.3169309   0.63530613   -1.6816248   0.12828221    11616.999     1000 
 2776000   0.44112918   -2.2537933   0.66103208   -1.5927612   0.12201708    11466.374     1000 
 2778000   0.46951446    -2.278426   0.70356741   -1.5748586   0.11985434    11654.418     1000 
 2780000   0.44307554   -2.2842694   0.66394869   -1.6203207   0.13109185    11549.271     1000 
 2782000   0.45225201   -2.3353582   0.67769964   -1.6576585   0.13300491    11530.417     1000 
 2784000   0.47463698   -2.3144291   0.71124351   -1.6031856   0.12437921    11631.044     1000 
 2786000   0.45574895   -2.3716484   0.68293981   -1.6887086   0.13160433    11631.504     1000 
 2788000   0.46053121    -2.280542   0.69010602    -1.590436   0.13166455    11524.128     1000 
 2790000   0.45727152   -2.2879775   0.68522137   -1.6027562   0.13330484    11497.253     1000 
 2792000   0.44606231   -2.2875858   0.66842437   -1.6191614   0.12255913    11555.746     1000 
 2794000   0.46298656   -2.2851313   0.69378537    -1.591346   0.13559473    11505.194     1000 
 2796000   0.45907671   -2.2667022   0.68792645   -1.5787757   0.13059958    11591.059     1000 
 2798000   0.45350151   -2.2850271   0.67957202   -1.6054551   0.13650445    11580.061     1000 
 2800000   0.44569981   -2.2873086   0.66788117   -1.6194274   0.14371437    11522.233     1000 
 2802000   0.46233223   -2.2718345   0.69280485   -1.5790296   0.12562982    11699.496     1000 
 2804000   0.46739874   -2.2556048   0.70039702   -1.5552077   0.12952907    11548.967     1000 
 2806000   0.46950091   -2.2815394   0.70354712   -1.5779923   0.14561554    11465.766     1000 
 2808000   0.45364426   -2.2870795   0.67978593   -1.6072936   0.11185931    11653.118     1000 
 2810000   0.45836101   -2.2975541   0.68685398   -1.6107001    0.1318241    11761.506     1000 
 2812000   0.43478157     -2.25805   0.65152018   -1.6065298    0.1365344     11450.53     1000 
 2814000   0.45234667   -2.2603346   0.67784149   -1.5824931   0.13643423    11440.682     1000 
 2816000   0.45487887   -2.2810658   0.68163599   -1.5994298   0.14207382    11505.705     1000 
 2818000   0.43963628    -2.290278   0.65879496   -1.6314831   0.12543246    11459.208     1000 
 2820000   0.44390367   -2.3071357   0.66518965    -1.641946    0.1311274    11636.189     1000 
 2822000    0.4505542   -2.2755836   0.67515546   -1.6004281   0.13033522    11577.601     1000 
 2824000   0.43467081   -2.2643665   0.65135421   -1.6130122   0.12327467     11612.83     1000 
 2826000   0.44964946    -2.319051   0.67379971   -1.6452513   0.13139483    11478.312     1000 
 2828000   0.45025182   -2.2605102   0.67470235   -1.5858079   0.12386761    11623.383     1000 
 2830000   0.45146781   -2.2836629   0.67652451   -1.6071384   0.12263403    11605.085     1000 
 2832000   0.44841063   -2.2665461   0.67194333   -1.5946028   0.12477766    11643.613     1000 
 2834000   0.42735549   -2.3388237    0.6403922   -1.6984315   0.12182974    11625.632     1000 
 2836000   0.44518735   -2.2976076   0.66711325   -1.6304943   0.14072865    11538.241     1000 
 2838000   0.44147835   -2.2849428   0.66155531   -1.6233875   0.11890465     11609.71     1000 
 2840000   0.44242573   -2.2889487   0.66297496   -1.6259737   0.13242298    11659.048     1000 
 2842000   0.44726212    -2.302713   0.67022229   -1.6324908   0.11235885    11655.958     1000 
 2844000   0.45523528   -2.2427629   0.68217006   -1.5605928   0.13859885    11466.803     1000 
 2846000   0.43456161   -2.2784238   0.65119058   -1.6272332   0.12717914    11566.756     1000 
 2848000   0.44628893   -2.2888254   0.66876396   -1.6200614   0.13523215    11593.627     1000 
 2850000   0.45623233     -2.36233   0.68366415   -1.6786658   0.12601659    11665.749     1000 
 2852000   0.46687716   -2.2519889   0.69961542   -1.5523734   0.14735893    11432.126     1000 
 2854000   0.44287459   -2.2808802   0.66364757   -1.6172327   0.12630824    11634.453     1000 
 2856000   0.45734667   -2.3126594   0.68533398   -1.6273255   0.12958148    11549.713     1000 
 2858000   0.44107415   -2.2593629   0.66094961   -1.5984133   0.13479775     11525.63     1000 
 2860000   0.46036989   -2.3171024   0.68986427   -1.6272382   0.11469899    11681.678     1000 
 2862000   0.44298437   -2.2639157   0.66381207   -1.6001036     0.148429    11430.594     1000 
 2864000   0.46833189   -2.2844751   0.70179534   -1.5826797   0.13332846    11572.186     1000 
 2866000    0.4479874   -2.2542819   0.67130911   -1.5829728   0.11627159    11691.738     1000 
 2868000   0.43479012   -2.3040633     0.651533   -1.6525303   0.12011424    11679.866     1000 
 2870000   0.44845376   -2.3082822   0.67200795   -1.6362742   0.12220253    11580.969     1000 
 2872000     0.461226   -2.2702043   0.69114715   -1.5790571   0.13125002    11511.595     1000 
 2874000   0.45553626    -2.298292   0.68262109   -1.6156709   0.14496717    11465.536     1000 
 2876000   0.44547378   -2.3052007   0.66754246   -1.6376583   0.13011189    11632.561     1000 
 2878000   0.45738879   -2.2368107   0.68539711   -1.5514136    0.1217598     11538.83     1000 
 2880000   0.44398368   -2.3406621   0.66530954   -1.6753526   0.13117104     11576.33     1000 
 2882000   0.44499798   -2.2927654   0.66682947   -1.6259359   0.12325365    11666.951     1000 
 2884000   0.45833842   -2.3245384   0.68682012   -1.6377183   0.13116606    11624.931     1000 
 2886000   0.44949438   -2.3002992   0.67356733   -1.6267319   0.12825235    11599.347     1000 
 2888000    0.4366221   -2.2899118   0.65427822   -1.6356336    0.1483829    11419.199     1000 
 2890000   0.45721751   -2.3121706   0.68514044   -1.6270302   0.13929342    11606.872     1000 
 2892000   0.44025769   -2.3037289   0.65972614   -1.6440028   0.13022519    11649.021     1000 
 2894000   0.44580284    -2.311226   0.66803555   -1.6431904   0.12898651    11523.911     1000 
 2896000   0.44877162   -2.2629695   0.67248427   -1.5904853   0.13572355    11477.619     1000 
 2898000   0.45190735   -2.2995746   0.67718317   -1.6223915   0.13482385    11514.563     1000 
 2900000   0.44934062   -2.2745445   0.67333692   -1.6012075   0.12658399    11496.485     1000 
 2902000   0.43769476   -2.2667932    0.6558856   -1.6109076    0.1358065    11645.974     1000 
 2904000   0.44786096   -2.3212957   0.67111965    -1.650176   0.12396265    11692.391     1000 
 2906000   0.45559576   -2.2337088   0.68271024   -1.5509986   0.12875447    11455.255     1000 
 2908000   0.43237664    -2.277095   0.64791639   -1.6291786   0.12925795     11667.54     1000 
 2910000   0.45753586    -2.266326   0.68561749   -1.5807085   0.14042787    11494.666     1000 
 2912000   0.44167568    -2.307154   0.66185101    -1.645303   0.13228279    11577.165     1000 
 2914000   0.45527483    -2.309545   0.68222933   -1.6273157   0.12363292    11559.827     1000 
 2916000   0.46089405   -2.2791605   0.69064974   -1.5885108   0.11927049    11651.155     1000 
 2918000   0.43915735   -2.2818984   0.65807729   -1.6238211   0.11024766    11694.165     1000 
 2920000   0.43553471   -2.3025355   0.65264877   -1.6498867   0.12519297    11661.003     1000 
 2922000   0.45809847   -2.2702868   0.68646056   -1.5838262   0.14908872    11404.847     1000 
 2924000   0.45541872   -2.2873102   0.68244496   -1.6048652   0.12187842    11672.501     1000 
 2926000   0.44820977   -2.2813256   0.67164234   -1.6096832   0.13905531    11523.399     1000 
 2928000   0.45596731   -2.2489833   0.68326701   -1.5657163   0.13446499    11570.158     1000 
 2930000   0.45623642    -2.278468   0.68367028   -1.5947978   0.12791063    11490.504     1000 
 2932000   0.46056301   -2.2579052   0.69015366   -1.5677516   0.14117688    11411.688     1000 
 2934000   0.44472368   -2.3108352   0.66641843   -1.6444168   0.12300253    11680.781     1000 
 2936000   0.46056587   -2.2710915   0.69015796   -1.5809336   0.12323863    11614.681     1000 
 2938000    0.4503537   -2.3475699   0.67485502   -1.6727149   0.11659356    11587.155     1000 
 2940000   0.44366185   -2.2384394   0.66482728   -1.5736121    0.1293265     11479.67     1000 
 2942000   0.44511358   -2.2924073    0.6670027   -1.6254046   0.12615073    11628.858     1000 
 2944000   0.43116137   -2.2975632   0.64609531   -1.6514679   0.10673203    11864.722     1000 
 2946000   0.45249961   -2.3068516   0.67807066    -1.628781   0.12006847    11622.671     1000 
 2948000   0.43880994   -2.2669274    0.6575567   -1.6093707    0.1281769    11515.449     1000 
 2950000   0.44155085   -2.2809634   0.66166395   -1.6192994   0.12760474     11560.63     1000 
 2952000   0.44653409   -2.2765059   0.66913133   -1.6073746   0.13489374    11576.932     1000 
 2954000   0.44703132    -2.256933   0.66987643   -1.5870566    0.1285041    11582.493     1000 
 2956000   0.42247667   -2.2992169   0.63308128   -1.6661356   0.11666742    11755.477     1000 
 2958000    0.4512078   -2.2746996   0.67613489   -1.5985647   0.13420273     11531.64     1000 
 2960000   0.44213435   -2.3283165   0.66253832   -1.6657782   0.12732709    11572.649     1000 
 2962000   0.43555197   -2.2567526   0.65267462    -1.604078    0.1296731    11520.222     1000 
 2964000    0.4387275   -2.2892085   0.65743315   -1.6317753    0.1289954    11560.739     1000 
 2966000   0.45744651   -2.3146065    0.6854836   -1.6291229   0.12565246    11651.555     1000 
 2968000   0.43677689   -2.2779225   0.65451016   -1.6234124   0.13699054    11333.331     1000 
 2970000   0.43613712   -2.2472121   0.65355147   -1.5936606   0.14114925    11458.746     1000 
 2972000   0.45513254    -2.275702    0.6820161   -1.5936859   0.13284816    11594.416     1000 
 2974000   0.45823291   -2.2816615   0.68666202   -1.5949995   0.12721412    11549.799     1000 
 2976000   0.44934494   -2.2661021   0.67334339   -1.5927587   0.12170468    11479.272     1000 
 2978000   0.43906935   -2.2989373   0.65794543   -1.6409918     0.122452    11602.976     1000 
 2980000   0.44369937   -2.2972503   0.66488351   -1.6323668   0.12522187    11559.099     1000 
 2982000   0.44007279   -2.2767241   0.65944907   -1.6172751   0.13715475    11647.797     1000 
 2984000   0.46694043   -2.3262231   0.69971024   -1.6265129   0.14044061    11587.503     1000 
 2986000   0.47103859   -2.2246286   0.70585132   -1.5187773   0.13376415    11584.041     1000 
 2988000   0.45776845   -2.2485022   0.68596602   -1.5625362   0.12884679    11429.346     1000 
 2990000   0.46788015   -2.2915017   0.70111841   -1.5903833   0.12885831    11677.726     1000 
 2992000   0.44868647   -2.3099264   0.67235667   -1.6375697   0.14087079    11490.029     1000 
 2994000   0.44878209   -2.2864607   0.67249997   -1.6139608    0.1258883    11612.261     1000 
 2996000    0.4550341   -2.3106277   0.68186861   -1.6287591   0.11568322    11669.888     1000 
 2998000   0.45660478   -2.2604004   0.68422226   -1.5761782   0.13740354    11382.067     1000 
 3000000   0.46275655    -2.293394   0.69344069   -1.5999533   0.12571528    11547.176     1000 
Loop time of 1109 on 4 procs for 3000000 steps with 1000 atoms

Performance: 1168623.403 tau/day, 2705.147 timesteps/s
95.2% CPU use with 4 MPI tasks x no OpenMP threads

MPI task timing breakdown:
Section |  min time  |  avg time  |  max time  |%varavg| %total
---------------------------------------------------------------
Pair    | 816.98     | 818.98     | 822.02     |   6.6 | 73.85
Neigh   | 77.095     | 77.347     | 77.896     |   3.7 |  6.97
Comm    | 156.82     | 159.95     | 161.84     |  14.9 | 14.42
Output  | 0.023951   | 0.026732   | 0.034887   |   2.9 |  0.00
Modify  | 45.393     | 45.766     | 46.153     |   4.7 |  4.13
Other   |            | 6.931      |            |       |  0.62

Nlocal:    250 ave 260 max 239 min
Histogram: 1 0 0 0 1 0 1 0 0 1
Nghost:    1683.5 ave 1704 max 1668 min
Histogram: 1 1 0 0 0 1 0 0 0 1
Neighs:    14223.2 ave 14768 max 13465 min
Histogram: 1 0 0 0 0 1 0 0 1 1

Total # of neighbors = 56893
Ave neighs/atom = 56.893
Neighbor list builds = 150000
Dangerous builds not checked

Total wall time: 0:18:29
