LAMMPS (29 Sep 2021 - Update 2)
OMP_NUM_THREADS environment is not set. Defaulting to 1 thread. (src/comm.cpp:98)
  using 1 OpenMP thread(s) per MPI task
# ----------------------- Inicialização -----------------------

units			lj
atom_style 		atomic
dimension 		3
boundary 		p p p

# -------------------- Criação dos Átomos ---------------------

read_data 		topologia.txt
Reading data file ...
  orthogonal box = (0.0000000 0.0000000 0.0000000) to (21.540000 21.540000 21.540000)
  1 by 1 by 1 MPI processor grid
  reading atoms ...
  1000 atoms
  read_data CPU = 0.006 seconds

velocity 		all create ${temp} 87287 rot yes dist gaussian
velocity 		all create 0.43 87287 rot yes dist gaussian

# ------------------ Interação Interatômica -------------------

pair_style		table linear 2000
pair_coeff		1 1 force.table AA 10.0
WARNING: 3 of 2000 force values in table AA are inconsistent with -dE/dr.
WARNING:  Should only be flagged at inflection points (src/pair_table.cpp:465)
pair_coeff		1 2 force.table AB 10.0
WARNING: 1 of 2000 force values in table AB are inconsistent with -dE/dr.
WARNING:  Should only be flagged at inflection points (src/pair_table.cpp:465)
pair_coeff		2 2 force.table BB 10.0
pair_write		1 1 2000 r 0.008 10.0 table.check AA
Appending to table file table.check with DATE: 2023-06-17
Neighbor list info ...
  update every 1 steps, delay 10 steps, check yes
  max neighbors/atom: 2000, page size: 100000
  master list distance cutoff = 10.3
  ghost atom cutoff = 10.3
  binsize = 5.15, bins = 5 5 5
  1 neighbor lists, perpetual/occasional/extra = 1 0 0
  (1) pair table, perpetual
      attributes: half, newton on
      pair build: half/bin/atomonly/newton
      stencil: half/bin/3d
      bin: standard
pair_write		1 2 2000 r 0.008 10.0 table.check AB
Appending to table file table.check with DATE: 2023-06-17
pair_write		2 2 2000 r 0.008 10.0 table.check BB
Appending to table file table.check with DATE: 2023-06-17

neighbor 		0.3 bin
neigh_modify		every 20 delay 0 check no

# ------------------------- Ensemble --------------------------------------

fix 1			all npt temp ${temp} ${temp} 0.5 iso ${press} ${press} 5
fix 1			all npt temp 0.43 ${temp} 0.5 iso ${press} ${press} 5
fix 1			all npt temp 0.43 0.43 0.5 iso ${press} ${press} 5
fix 1			all npt temp 0.43 0.43 0.5 iso 0.13 ${press} 5
fix 1			all npt temp 0.43 0.43 0.5 iso 0.13 0.13 5

# ---------------------- Função de Distribuição Radial -----------------------

#compute RDF 		all rdf 2000 1 1 1 2 2 2
#fix 2 			all ave/time 1 2000 2000 c_RDF[*] file rdf.data mode vector

# ------------------------- Execução ---------------------------

timestep 		0.005
thermo_style		custom step temp pe ke etotal press vol atoms
thermo			2000
run			3000000
Per MPI rank memory allocation (min/avg/max) = 3.614 | 3.614 | 3.614 Mbytes
Step Temp PotEng KinEng TotEng Press Volume Atoms 
       0         0.43   0.17778918     0.644355   0.82214418   0.84196223    9993.9483     1000 
    2000   0.41627802   -2.3527756   0.62379261    -1.728983    0.1247456    11275.836     1000 
    4000   0.42761922   -2.3563862   0.64078741   -1.7155988   0.13538075    11275.738     1000 
    6000   0.43917382   -2.3816983   0.65810197   -1.7235963   0.12543077    11330.543     1000 
    8000   0.42747257   -2.3870202   0.64056765   -1.7464525   0.13105452    11292.127     1000 
   10000   0.43569798   -2.4055599   0.65289342   -1.7526664   0.12725971    11425.153     1000 
   12000   0.42661316   -2.4386465   0.63927982   -1.7993667   0.13648718    11282.607     1000 
   14000   0.42508226    -2.339509   0.63698577   -1.7025232   0.13091906    11292.665     1000 
   16000    0.4178664   -2.4035045   0.62617281   -1.7773317   0.12418034    11354.624     1000 
   18000   0.44321452   -2.3518578   0.66415696   -1.6877009    0.1299663    11289.093     1000 
   20000   0.42994625   -2.3790685   0.64427446    -1.734794   0.12310655    11314.486     1000 
   22000   0.43219909    -2.361415   0.64765033   -1.7137647   0.13006475    11233.562     1000 
   24000   0.42980309   -2.4138704   0.64405993   -1.7698105   0.12850939    11340.288     1000 
   26000   0.42741888    -2.429744    0.6404872   -1.7892568   0.12922783    11223.626     1000 
   28000   0.42698887   -2.4405177   0.63984282   -1.8006748   0.12475343    11443.776     1000 
   30000   0.41729533   -2.4229071   0.62531705     -1.79759   0.11507774    11417.414     1000 
   32000   0.42622631   -2.3693601   0.63870012     -1.73066   0.12625382    11237.203     1000 
   34000   0.42552206   -2.4281511   0.63764481   -1.7905063   0.11457743    11381.606     1000 
   36000   0.44691137   -2.3755106    0.6696967   -1.7058139    0.1267803    11315.103     1000 
   38000   0.42823655   -2.3867354   0.64171247   -1.7450229   0.13080615    11174.044     1000 
   40000   0.42741795   -2.4046435   0.64048579   -1.7641577   0.13123234    11257.633     1000 
   42000   0.42861307   -2.4114473   0.64227668   -1.7691707   0.12670706    11350.824     1000 
   44000   0.43623797   -2.3460423    0.6537026   -1.6923397   0.12766767    11280.343     1000 
   46000   0.41852908   -2.3323214   0.62716582   -1.7051555    0.1417245    11167.333     1000 
   48000   0.42300654   -2.4230609   0.63387531   -1.7891856   0.13054476    11227.775     1000 
   50000   0.44986742   -2.3598067   0.67412633   -1.6856803   0.13322535     11290.02     1000 
   52000   0.43723957   -2.3786394   0.65520349   -1.7234359   0.12440974    11366.886     1000 
   54000   0.43961627     -2.38797   0.65876498    -1.729205    0.1459123     11179.38     1000 
   56000      0.42499   -2.3654872   0.63684752   -1.7286397    0.1411718     11179.07     1000 
   58000   0.42674004   -2.4296876   0.63946995   -1.7902176   0.12378843    11337.447     1000 
   60000   0.42088453   -2.4085754   0.63069547   -1.7778799   0.12473406    11353.067     1000 
   62000   0.44801394   -2.4173812   0.67134889   -1.7460323   0.12840528    11314.441     1000 
   64000   0.43116649   -2.4400373   0.64610299   -1.7939343   0.11756222    11303.852     1000 
   66000   0.40907602   -2.3911413   0.61300041   -1.7781409   0.12301658    11315.051     1000 
   68000   0.42435449   -2.3801382   0.63589521    -1.744243   0.12375256    11379.043     1000 
   70000   0.42076507   -2.4450153   0.63051646   -1.8144988   0.12657992    11352.491     1000 
   72000   0.42751046   -2.4203959   0.64062443   -1.7797715   0.13406916    11305.432     1000 
   74000   0.41965193   -2.3980362   0.62884841   -1.7691878   0.12706538    11319.162     1000 
   76000   0.43460559    -2.433113   0.65125648   -1.7818565   0.13018413    11267.561     1000 
   78000   0.39922204   -2.3769422   0.59823423    -1.778708   0.12695074    11369.115     1000 
   80000   0.45929784   -2.3742409   0.68825782   -1.6859831   0.12446891    11333.336     1000 
   82000     0.433086   -2.4253166   0.64897937   -1.7763372   0.13980887    11132.298     1000 
   84000   0.43231322   -2.4262649   0.64782136   -1.7784436   0.12799875    11252.632     1000 
   86000   0.44774993   -2.3932762   0.67095327   -1.7223229   0.13507709    11236.696     1000 
   88000   0.42496173   -2.4364181   0.63680515   -1.7996129   0.13454305    11331.191     1000 
   90000   0.43213007   -2.3808123   0.64754692   -1.7332654   0.13512499    11286.168     1000 
   92000   0.43065961   -2.3983252   0.64534343   -1.7529818   0.13260622    11446.324     1000 
   94000   0.44546787   -2.3737548    0.6675336   -1.7062212   0.14030586    11267.482     1000 
   96000   0.42765053   -2.4001527   0.64083432   -1.7593184   0.13133285    11216.408     1000 
   98000   0.44282503   -2.4158793   0.66357331    -1.752306   0.13143698    11339.384     1000 
  100000    0.4242303   -2.4092405   0.63570911   -1.7735314   0.12807422    11353.159     1000 
  102000   0.45313962   -2.4009826   0.67902973   -1.7219529   0.13051387    11316.445     1000 
  104000   0.41101232   -2.3731136   0.61590196   -1.7572117   0.13307214    11331.462     1000 
  106000   0.42715005   -2.3992429   0.64008436   -1.7591585   0.12582734    11419.248     1000 
  108000   0.43388886   -2.4383611   0.65018245   -1.7881787   0.13151657    11352.925     1000 
  110000    0.4135877    -2.364499   0.61976117   -1.7447378   0.13110905    11307.906     1000 
  112000    0.4411132    -2.421911   0.66100813   -1.7609029   0.11707195    11445.798     1000 
  114000   0.42936452   -2.3738988   0.64340274   -1.7304961   0.13709674    11201.918     1000 
  116000   0.41702407   -2.4608659   0.62491056   -1.8359553   0.13331285    11322.585     1000 
  118000   0.41059827   -2.4377659   0.61528151   -1.8224844   0.13261662    11286.881     1000 
  120000   0.41825669   -2.3724338   0.62675765   -1.7456761   0.13236261    11360.007     1000 
  122000   0.44615506   -2.4293165   0.66856335   -1.7607531   0.12165425    11371.808     1000 
  124000   0.43776953   -2.3603728   0.65599764   -1.7043752   0.13487983    11209.411     1000 
  126000   0.42332287   -2.3639767   0.63434932   -1.7296273   0.12509063     11288.15     1000 
  128000   0.43289372   -2.4186508   0.64869124   -1.7699596   0.12711292    11356.701     1000 
  130000   0.43690688   -2.3834617   0.65470496   -1.7287567   0.12539186     11283.22     1000 
  132000   0.42570427   -2.4292608   0.63791785   -1.7913429   0.11725309    11454.645     1000 
  134000    0.4354024   -2.4345601    0.6524505   -1.7821096   0.13445036    11274.107     1000 
  136000   0.42831093    -2.405812   0.64182393   -1.7639881   0.13300454    11250.429     1000 
  138000   0.40818449   -2.4051294   0.61166446    -1.793465   0.12493977     11304.67     1000 
  140000    0.4240934   -2.4128321   0.63550395   -1.7773281   0.12220025    11386.539     1000 
  142000    0.4202852   -2.4004905   0.62979736   -1.7706931   0.13400854    11281.998     1000 
  144000   0.42229946   -2.4152907   0.63281574    -1.782475   0.14467053    11289.151     1000 
  146000   0.42854927   -2.3905515   0.64218108   -1.7483705    0.1351221    11134.059     1000 
  148000   0.41472739   -2.4519773   0.62146899   -1.8305083   0.12660129    11297.111     1000 
  150000   0.42183471   -2.3910994   0.63211931   -1.7589801    0.1163314    11426.858     1000 
  152000   0.43016641     -2.37715   0.64460437   -1.7325456    0.1291106    11342.698     1000 
  154000   0.43864675   -2.4370583   0.65731216   -1.7797462   0.13286179    11274.987     1000 
  156000   0.42131891   -2.4763933   0.63134638   -1.8450469   0.13193802    11379.792     1000 
  158000    0.4306565   -2.3930501   0.64533877   -1.7477113   0.11918851    11299.323     1000 
  160000    0.4201335    -2.435807   0.62957005    -1.806237   0.13568783     11267.17     1000 
  162000   0.41986318   -2.3754108   0.62916497   -1.7462458   0.13160201    11253.613     1000 
  164000   0.43408213   -2.3914318   0.65047208   -1.7409598   0.13571073     11270.73     1000 
  166000   0.41833643   -2.4359647   0.62687714   -1.8090876   0.12748402    11300.839     1000 
  168000    0.4350926   -2.4006953   0.65198627   -1.7487091    0.1229959    11410.729     1000 
  170000   0.45041464   -2.3931128   0.67494633   -1.7181665   0.13807532    11181.776     1000 
  172000   0.43892424   -2.4052869   0.65772797   -1.7475589   0.12244168      11252.2     1000 
  174000   0.41961492   -2.4169223   0.62879295   -1.7881294   0.13090341    11384.151     1000 
  176000   0.43881829   -2.3934276    0.6575692   -1.7358584     0.130471     11334.33     1000 
  178000   0.43444613   -2.3873229   0.65101752   -1.7363054   0.13546641    11231.194     1000 
  180000   0.43456117   -2.3751604   0.65118992   -1.7239705   0.14023717    11216.838     1000 
  182000   0.43928966   -2.4215291   0.65827556   -1.7632535   0.11640562    11332.013     1000 
  184000   0.43244779   -2.3920005   0.64802301   -1.7439774   0.11865502    11374.331     1000 
  186000   0.41923742   -2.3634622   0.62822727   -1.7352349   0.13471268    11238.939     1000 
  188000   0.43752746   -2.3825222    0.6556349   -1.7268873   0.14610835    11164.656     1000 
  190000   0.43947388   -2.3955627   0.65855161   -1.7370111   0.12182763    11361.957     1000 
  192000   0.43634408   -2.4005407    0.6538616   -1.7466791   0.12726076    11277.253     1000 
  194000   0.42333136    -2.387246   0.63436205   -1.7528839   0.13425961    11287.037     1000 
  196000   0.43287226   -2.4563252   0.64865908   -1.8076661   0.13767451    11331.559     1000 
  198000   0.43740783   -2.4186623   0.65545563   -1.7632067   0.12174217    11422.442     1000 
  200000   0.43028659   -2.3814378   0.64478445   -1.7366533   0.13730081    11160.035     1000 
  202000   0.42934852   -2.3619508   0.64337875    -1.718572   0.12984545    11282.291     1000 
  204000   0.42644605   -2.4218828   0.63902941   -1.7828534     0.128128     11334.43     1000 
  206000   0.42551945   -2.4164953    0.6376409   -1.7788544   0.13246104    11281.027     1000 
  208000   0.44462765   -2.3900838   0.66627454   -1.7238092    0.1411625    11329.138     1000 
  210000   0.42717463   -2.3955099   0.64012118   -1.7553888   0.15275598    11153.613     1000 
  212000   0.42298838   -2.3655642   0.63384808   -1.7317161   0.12179529    11326.196     1000 
  214000    0.4202366   -2.4228045   0.62972454     -1.79308   0.12715416    11295.648     1000 
  216000   0.41862539   -2.4065217   0.62731015   -1.7792116   0.12044669    11354.245     1000 
  218000   0.43875583   -2.3855479   0.65747561   -1.7280723   0.12056654    11401.545     1000 
  220000   0.41539594   -2.4201754   0.62247082   -1.7977046   0.12733955    11347.506     1000 
  222000   0.42430665   -2.3815524   0.63582351   -1.7457288   0.12606803    11290.795     1000 
  224000   0.42959017   -2.3545186   0.64374087   -1.7107777   0.11443042    11301.593     1000 
  226000   0.40242217   -2.3472938   0.60302962   -1.7442642   0.14029145     11162.15     1000 
  228000     0.436416   -2.3770215   0.65396938   -1.7230521   0.13348986    11142.841     1000 
  230000   0.44539822   -2.4185901   0.66742924   -1.7511609   0.12831556    11349.414     1000 
  232000   0.42138012   -2.3374318   0.63143811   -1.7059937   0.11193891    11391.532     1000 
  234000   0.42236902    -2.461676   0.63291997    -1.828756   0.11427102    11488.237     1000 
  236000   0.44127649   -2.4006691   0.66125281   -1.7394163   0.12996937    11267.575     1000 
  238000   0.43741487   -2.3844781   0.65546619   -1.7290119   0.13167183    11151.124     1000 
  240000   0.44373232   -2.4321152   0.66493288   -1.7671823   0.12410811      11400.2     1000 
  242000   0.42294189   -2.4008621   0.63377843   -1.7670837   0.12481801    11288.723     1000 
  244000   0.41052421    -2.424326   0.61517053   -1.8091555   0.14036329    11218.516     1000 
  246000   0.42690225    -2.390949   0.63971302   -1.7512359   0.11121943    11369.593     1000 
  248000   0.42036474    -2.343686   0.62991656   -1.7137694    0.1368871    11176.095     1000 
  250000   0.42607143   -2.3982106   0.63846804   -1.7597426   0.14293754    11221.624     1000 
  252000   0.43289499   -2.4410439   0.64869314   -1.7923508   0.11050713    11425.123     1000 
  254000   0.40755739   -2.4274844   0.61072474   -1.8167596   0.12987749    11307.847     1000 
  256000   0.43298435   -2.4061396   0.64882705   -1.7573125   0.12628932    11366.852     1000 
  258000   0.42500111   -2.4064911   0.63686416   -1.7696269   0.12442451    11327.786     1000 
  260000    0.4217632   -2.3642806   0.63201215   -1.7322684   0.13558538    11212.707     1000 
  262000   0.40982519   -2.4232719   0.61412304   -1.8091488   0.12119106    11515.744     1000 
  264000   0.43515734   -2.4107973   0.65208328    -1.758714   0.12732162    11438.233     1000 
  266000   0.44112456   -2.3912295   0.66102515   -1.7302044   0.12133844    11278.712     1000 
  268000    0.4295064   -2.3586037   0.64361534   -1.7149884   0.14151346    11229.267     1000 
  270000   0.43632531   -2.3857099   0.65383348   -1.7318764   0.13057405    11299.725     1000 
  272000   0.42753409   -2.3973216   0.64065983   -1.7566618   0.12936161    11333.459     1000 
  274000    0.4312047   -2.4036615   0.64616024   -1.7575012   0.12618639    11251.858     1000 
  276000   0.42877026   -2.3605709   0.64251224   -1.7180587   0.12997821    11261.849     1000 
  278000   0.44075123   -2.4088156   0.66046572   -1.7483499   0.14787039    11139.533     1000 
  280000   0.44824863   -2.4265719   0.67170058   -1.7548714   0.13137337    11281.494     1000 
  282000   0.42588944   -2.4374172   0.63819532   -1.7992218    0.1333171    11351.616     1000 
  284000   0.43095958   -2.3828247   0.64579293   -1.7370318   0.11576306    11290.519     1000 
  286000   0.43219475   -2.4141122   0.64764384   -1.7664684   0.12008443     11349.19     1000 
  288000   0.42963894   -2.4035573   0.64381395   -1.7597433   0.12403166    11389.212     1000 
  290000   0.41834555   -2.3942825   0.62689081   -1.7673917   0.13562341    11249.975     1000 
  292000   0.42568151   -2.4059851   0.63788374   -1.7681013   0.12507678    11350.687     1000 
  294000   0.44869225   -2.3937169   0.67236534   -1.7213516    0.1319271    11241.665     1000 
  296000   0.43155438   -2.3946621   0.64668424   -1.7479779   0.12709684    11259.311     1000 
  298000   0.42165639    -2.418787    0.6318521   -1.7869349   0.13272695    11168.848     1000 
  300000   0.46008387   -2.4188512   0.68943567   -1.7294155   0.12332422    11350.128     1000 
  302000   0.42315199   -2.3503885   0.63409326   -1.7162952   0.12420497    11249.291     1000 
  304000   0.42436656   -2.4238451    0.6359133   -1.7879318   0.13803052     11307.58     1000 
  306000   0.43752472   -2.3672733   0.65563079   -1.7116425   0.13069349    11285.135     1000 
  308000   0.42228488   -2.3732891   0.63279389   -1.7404952   0.12221447    11258.166     1000 
  310000   0.41363551   -2.3959937   0.61983281   -1.7761609   0.12335271    11352.878     1000 
  312000   0.41836909   -2.4039622   0.62692608   -1.7770362   0.12180026     11352.71     1000 
  314000   0.44087384   -2.4007278   0.66064944   -1.7400783   0.13196682    11218.523     1000 
  316000   0.42843444   -2.4407437   0.64200901   -1.7987347   0.12271854    11313.943     1000 
  318000   0.44764657   -2.4170716   0.67079838   -1.7462732   0.14449343    11244.063     1000 
  320000   0.43625266   -2.3787391   0.65372461   -1.7250145   0.12490109    11301.428     1000 
  322000   0.41616736   -2.3919376   0.62362679   -1.7683108   0.13176158    11292.916     1000 
  324000    0.4274909    -2.416621   0.64059511   -1.7760259   0.13322517    11264.373     1000 
  326000   0.42812719   -2.4294176    0.6415486    -1.787869   0.13596541    11307.534     1000 
  328000    0.4228499   -2.4418978   0.63364058   -1.8082572   0.12164441    11382.738     1000 
  330000   0.43591469    -2.403019   0.65321816   -1.7498008   0.13316555    11219.073     1000 
  332000   0.39439624   -2.3942649   0.59100276   -1.8032622   0.12013312    11306.572     1000 
  334000    0.4245425   -2.4123179   0.63617694    -1.776141   0.13015605      11383.2     1000 
  336000   0.42804127   -2.4046146   0.64141984   -1.7631948   0.12278272    11346.809     1000 
  338000   0.41873357   -2.3896904   0.62747225   -1.7622182   0.12866205    11305.354     1000 
  340000   0.43044746   -2.4456214   0.64502552   -1.8005959   0.13204033    11225.475     1000 
  342000   0.41712067   -2.3756836   0.62505532   -1.7506283     0.129188    11217.577     1000 
  344000     0.439613    -2.410435   0.65876008   -1.7516749    0.1324797    11277.025     1000 
  346000   0.43503455   -2.4126375   0.65189927   -1.7607383   0.13208171    11236.532     1000 
  348000    0.4209142   -2.4132891   0.63073993   -1.7825492   0.13187411    11252.344     1000 
  350000   0.43111726   -2.3980586   0.64602922   -1.7520294   0.11434176    11380.114     1000 
  352000   0.42748025   -2.3891994   0.64057916   -1.7486203   0.12794629    11373.429     1000 
  354000   0.42770816    -2.428084   0.64092068   -1.7871634   0.12586053    11293.293     1000 
  356000   0.44679084   -2.4212828   0.66951607   -1.7517667   0.12404907    11456.041     1000 
  358000   0.41738696    -2.382086   0.62545436   -1.7566317   0.12079676    11233.374     1000 
  360000   0.44167611   -2.4329887   0.66185165   -1.7711371   0.13189674    11295.547     1000 
  362000   0.43096947   -2.3662286   0.64580775   -1.7204208   0.13073097    11180.421     1000 
  364000   0.44478695   -2.3859325   0.66651324   -1.7194193   0.14628805    11110.788     1000 
  366000   0.43826554    -2.414029   0.65674091   -1.7572881   0.13123345    11263.868     1000 
  368000   0.41019034   -2.4114561   0.61467022   -1.7967859   0.11520269    11308.458     1000 
  370000   0.44395372   -2.4335865   0.66526466   -1.7683219   0.13720259    11314.765     1000 
  372000    0.4132464    -2.413566   0.61924974   -1.7943162   0.13570708    11267.506     1000 
  374000   0.43359679    -2.405438   0.64974479   -1.7556932   0.12179448    11332.574     1000 
  376000   0.43349221   -2.4198147   0.64958808   -1.7702266   0.12266187    11467.666     1000 
  378000   0.42616683   -2.3929326     0.638611   -1.7543216   0.13326558    11302.721     1000 
  380000   0.42902186    -2.393484   0.64288926   -1.7505947   0.13399008    11356.678     1000 
  382000   0.41968307   -2.3653176   0.62889508   -1.7364225   0.14220798    11217.067     1000 
  384000   0.42528604   -2.4375055   0.63729114   -1.8002144   0.11464893    11491.354     1000 
  386000   0.43443194   -2.4651354   0.65099627   -1.8141391   0.12350796    11334.492     1000 
  388000   0.43914794   -2.4188105   0.65806319   -1.7607473   0.11190276    11433.651     1000 
  390000   0.44034789   -2.3978491   0.65986131   -1.7379878   0.12368152    11324.495     1000 
  392000   0.41520487   -2.4242713    0.6221845   -1.8020868   0.11626602     11399.86     1000 
  394000   0.42731512   -2.3984164    0.6403317   -1.7580846   0.13744937    11275.385     1000 
  396000   0.42685816   -2.3590708   0.63964695   -1.7194238   0.12996705    11286.078     1000 
  398000   0.42419471   -2.4054668   0.63565578    -1.769811   0.14172155    11159.349     1000 
  400000    0.4087299   -2.3731224   0.61248175   -1.7606406   0.11662128     11342.42     1000 
  402000   0.42659621   -2.3987539   0.63925442   -1.7594995   0.12962831    11285.659     1000 
  404000   0.44441066   -2.3897269   0.66594938   -1.7237775   0.13232988     11323.28     1000 
  406000    0.4152386   -2.3769919   0.62223505   -1.7547569   0.13915123    11295.698     1000 
  408000   0.42693233   -2.4383497   0.63975809   -1.7985917   0.11884858    11322.892     1000 
  410000   0.44388663    -2.406777   0.66516411   -1.7416129   0.13725613    11266.509     1000 
  412000   0.42439049    -2.437383   0.63594915   -1.8014339   0.12842739    11353.552     1000 
  414000   0.43070307   -2.4521251   0.64540855   -1.8067165   0.13321809    11289.663     1000 
  416000   0.42965053   -2.3716895   0.64383132   -1.7278582    0.1204177     11266.75     1000 
  418000   0.43753618   -2.3851988   0.65564797   -1.7295508   0.13254222    11178.004     1000 
  420000   0.42084596   -2.3899988   0.63063767   -1.7593612   0.12517255    11329.472     1000 
  422000   0.43638134   -2.3770493   0.65391743   -1.7231319   0.13191242    11164.057     1000 
  424000   0.44087209   -2.4001544   0.66064683   -1.7395075   0.14706876    11168.529     1000 
  426000   0.42882739   -2.4408625   0.64259785   -1.7982647   0.13357501    11303.991     1000 
  428000   0.41984894   -2.4043357   0.62914363   -1.7751921   0.11518318     11394.08     1000 
  430000   0.42883645   -2.4295795   0.64261142    -1.786968   0.12265548    11375.931     1000 
  432000   0.42744682   -2.3897039   0.64052905   -1.7491748   0.12857567    11344.124     1000 
  434000   0.43586957   -2.4002174   0.65315055   -1.7470668   0.12538287    11399.989     1000 
  436000   0.44586385     -2.43502   0.66812697    -1.766893   0.12204249    11393.849     1000 
  438000   0.45322365   -2.4033091   0.67915563   -1.7241534   0.13086595    11202.292     1000 
  440000   0.42041956   -2.3641426   0.62999872   -1.7341439   0.13095537    11204.386     1000 
  442000   0.40908147    -2.437487   0.61300858   -1.8244784   0.13075959    11387.721     1000 
  444000   0.43205455   -2.4438998   0.64743375    -1.796466     0.129119    11291.266     1000 
  446000   0.42640974   -2.4650589   0.63897499   -1.8260839   0.11650503    11532.574     1000 
  448000   0.41828965   -2.3869694   0.62680704   -1.7601623   0.12866994     11353.86     1000 
  450000   0.44849025   -2.4022634   0.67206264   -1.7302008   0.13433091    11285.305     1000 
  452000   0.41153774   -2.4174139   0.61668931   -1.8007246   0.12862123    11260.837     1000 
  454000    0.4219271   -2.4053774   0.63225777   -1.7731196   0.11871244    11438.711     1000 
  456000   0.44721501   -2.3911867    0.6701517    -1.721035   0.12263922    11303.331     1000 
  458000   0.44249716   -2.3769998     0.663082   -1.7139178   0.14381434     11127.18     1000 
  460000   0.44143989    -2.376722   0.66149768   -1.7152243   0.13970772    11301.491     1000 
  462000   0.42554952   -2.4105602   0.63768596   -1.7728742   0.12215364    11376.832     1000 
  464000   0.44993711   -2.3970897   0.67423076    -1.722859   0.12102809    11317.813     1000 
  466000   0.42815664   -2.3874329   0.64159272   -1.7458402   0.11393398    11454.827     1000 
  468000   0.41774611   -2.4208773   0.62599254   -1.7948847   0.12497377    11336.384     1000 
  470000   0.43611707   -2.4080565   0.65352143    -1.754535   0.12982184    11336.908     1000 
  472000   0.43500312   -2.4038465   0.65185218   -1.7519943   0.12801236    11250.511     1000 
  474000   0.43368299    -2.392807   0.64987396   -1.7429331    0.1320303    11305.255     1000 
  476000   0.42374605   -2.3943987   0.63498346   -1.7594152    0.1189199      11235.6     1000 
  478000   0.41453935   -2.4204383   0.62118722   -1.7992511   0.12519148    11360.657     1000 
  480000   0.43054678   -2.4445556   0.64517434   -1.7993813   0.12141168    11428.373     1000 
  482000   0.44544484   -2.4073584   0.66749909   -1.7398593   0.12899452    11381.096     1000 
  484000   0.42631175   -2.4573104   0.63882815   -1.8184823   0.12629206    11422.337     1000 
  486000   0.42312288   -2.3841391   0.63404964   -1.7500895   0.12245493    11254.931     1000 
  488000   0.42984038   -2.4110328   0.64411582    -1.766917   0.13581763    11291.646     1000 
  490000   0.42644609   -2.4102939   0.63902946   -1.7712644   0.12654138        11388     1000 
  492000   0.43491689   -2.4462337   0.65172296   -1.7945107   0.11358971     11391.13     1000 
  494000    0.4475846   -2.4176901   0.67070553   -1.7469845   0.13341329    11341.895     1000 
  496000   0.45310302   -2.4049247   0.67897487   -1.7259498   0.13636995    11316.993     1000 
  498000   0.43243402   -2.3917094   0.64800237    -1.743707   0.13520139    11300.712     1000 
  500000   0.42814734   -2.3583642   0.64157879   -1.7167854   0.13325044    11102.526     1000 
  502000   0.40545658   -2.3754873   0.60757668   -1.7679106    0.1232891    11294.327     1000 
  504000   0.43371191   -2.4110829    0.6499173   -1.7611656   0.12397807    11329.351     1000 
  506000   0.41841531   -2.3602124   0.62699535    -1.733217   0.13830048    11053.467     1000 
  508000   0.44865051   -2.4048556   0.67230278   -1.7325529   0.12975757    11177.644     1000 
  510000   0.44688869   -2.3975835    0.6696627   -1.7279208   0.13074306    11346.735     1000 
  512000   0.41819922   -2.4318275   0.62667153    -1.805156   0.13410469    11211.003     1000 
  514000   0.43623702   -2.3805034   0.65370117   -1.7268023   0.12790478    11307.354     1000 
  516000   0.42580757   -2.4043175   0.63807265   -1.7662448   0.13104676     11338.13     1000 
  518000   0.43680819   -2.4222444   0.65455708   -1.7676874   0.12976922    11322.987     1000 
  520000    0.4425746   -2.4193489   0.66319803   -1.7561509   0.11169649    11458.345     1000 
  522000   0.44346624   -2.4674726   0.66453416   -1.8029384    0.1093631    11563.639     1000 
  524000   0.43914514   -2.4239038     0.658059   -1.7658449   0.12698421     11362.31     1000 
  526000   0.43010147   -2.3993954   0.64450705   -1.7548883   0.13039362    11245.065     1000 
  528000   0.43382717   -2.3345767   0.65009002   -1.6844867   0.13342706    11120.771     1000 
  530000   0.42389768    -2.438118   0.63521067   -1.8029074   0.13148362    11246.838     1000 
  532000   0.44132545   -2.3393104   0.66132619   -1.6779842   0.14985836    11129.401     1000 
  534000   0.43868705   -2.3706738   0.65737254   -1.7133013   0.14702838    11226.967     1000 
  536000   0.39925343   -2.3887677   0.59828126   -1.7904865   0.13954633    11117.464     1000 
  538000   0.43778605   -2.3477596    0.6560224   -1.6917372   0.12800028    11208.145     1000 
  540000   0.42000803   -2.4015712   0.62938203   -1.7721892   0.12482149    11288.094     1000 
  542000   0.43118194   -2.3997515   0.64612613   -1.7536254   0.13484784    11233.382     1000 
  544000   0.42692503   -2.4234356   0.63974716   -1.7836884   0.13064242    11328.159     1000 
  546000   0.42918138    -2.398342   0.64312829   -1.7552137   0.12690205    11369.235     1000 
  548000   0.41809088   -2.4213891   0.62650919   -1.7948799   0.13236467    11283.313     1000 
  550000   0.41822494   -2.3946422   0.62671007   -1.7679322   0.11406362    11360.991     1000 
  552000    0.4123249   -2.4303251   0.61786887   -1.8124563   0.12773301     11272.27     1000 
  554000     0.439855   -2.3862797   0.65912271    -1.727157   0.13201995     11118.38     1000 
  556000   0.43709985   -2.3896625   0.65499412   -1.7346684   0.13057127    11260.614     1000 
  558000   0.42752183   -2.4250659   0.64064147   -1.7844244   0.13618973    11292.644     1000 
  560000   0.42678742    -2.386464   0.63954095    -1.746923   0.13019325    11109.918     1000 
  562000   0.42662497   -2.4334545   0.63929752    -1.794157    0.1294017     11259.84     1000 
  564000   0.42027816   -2.3806966   0.62978682   -1.7509098   0.12897868    11271.746     1000 
  566000   0.40533388   -2.4015813   0.60739282   -1.7941884   0.14124713     11190.84     1000 
  568000   0.43258254   -2.4118609   0.64822494    -1.763636   0.12258554    11296.101     1000 
  570000    0.4292615   -2.3771511   0.64324836   -1.7339027   0.14714693    11149.315     1000 
  572000   0.43068792   -2.3764808   0.64538585    -1.731095   0.13106748    11270.821     1000 
  574000   0.42506433   -2.4088581   0.63695889   -1.7718992   0.12411747    11330.892     1000 
  576000   0.43357073   -2.3978073   0.64970574   -1.7481016   0.14189505    11232.923     1000 
  578000   0.42873772   -2.4406745   0.64246348    -1.798211   0.12921888    11331.642     1000 
  580000   0.41761556   -2.3625909   0.62579691    -1.736794   0.13561395    11302.823     1000 
  582000   0.44085307   -2.4420634   0.66061832    -1.781445   0.13227153     11356.22     1000 
  584000   0.43164787   -2.4209073   0.64682433    -1.774083   0.11162287    11569.271     1000 
  586000   0.43917158   -2.4135188   0.65809861   -1.7554202   0.12430354    11272.029     1000 
  588000   0.42604666    -2.436274   0.63843092   -1.7978431   0.13373046    11303.795     1000 
  590000   0.42450918     -2.40952     0.636127    -1.773393   0.12062238    11345.755     1000 
  592000    0.4242799    -2.339861   0.63578342   -1.7040776   0.13064846    11210.191     1000 
  594000   0.42471629   -2.3767551   0.63643737   -1.7403177   0.14021255    11243.226     1000 
  596000   0.44129139   -2.3813208   0.66127516   -1.7200457   0.12672341    11127.002     1000 
  598000   0.42892615   -2.3747171   0.64274583   -1.7319713   0.12155601     11343.07     1000 
  600000   0.43362511   -2.4138262   0.64978723   -1.7640389    0.1318906    11367.428     1000 
  602000    0.4282394   -2.3716166   0.64171675   -1.7298998   0.12108361    11397.682     1000 
  604000   0.41735391    -2.386665   0.62540483   -1.7612602   0.12798426    11269.584     1000 
  606000   0.41322528   -2.3397399   0.61921809   -1.7205218   0.12128211    11199.486     1000 
  608000   0.42708007   -2.3675713   0.63997949   -1.7275918   0.13454245    11224.414     1000 
  610000     0.428668   -2.3554821     0.642359   -1.7131231   0.12413487    11331.516     1000 
  612000   0.42440285   -2.3529468   0.63596767   -1.7169791    0.1273277    11306.449     1000 
  614000   0.41710274   -2.3834607   0.62502846   -1.7584322   0.13119985    11390.025     1000 
  616000   0.46799835   -2.3987851   0.70129552   -1.6974896   0.12886961    11369.033     1000 
  618000   0.43694469   -2.3874642   0.65476162   -1.7327026   0.13428692    11168.357     1000 
  620000   0.43768577   -2.4115474   0.65587212   -1.7556753   0.12910136    11355.296     1000 
  622000   0.41275022   -2.4423119   0.61850621   -1.8238057   0.13665182    11174.379     1000 
  624000   0.40726375     -2.40455   0.61028472   -1.7942652   0.11307325    11403.523     1000 
  626000   0.41217027   -2.3774872   0.61763715   -1.7598501   0.13128074    11259.723     1000 
  628000   0.44187833   -2.4189871   0.66215467   -1.7568324    0.1299844    11219.116     1000 
  630000   0.42282175   -2.3706428   0.63359839   -1.7370444   0.13886217    11214.685     1000 
  632000   0.42935047    -2.382241   0.64338169   -1.7388594   0.13312651    11231.858     1000 
  634000   0.43352437   -2.3663021   0.64963627   -1.7166658   0.13712738    11225.432     1000 
  636000   0.43884531    -2.389379    0.6576097   -1.7317693   0.11456551    11311.088     1000 
  638000   0.43627948   -2.4094539    0.6537648   -1.7556891   0.12993205    11286.967     1000 
  640000   0.43346441   -2.3902601   0.64954642   -1.7407136   0.11778136    11346.654     1000 
  642000   0.43267575   -2.3794061   0.64836462   -1.7310414   0.12513125    11404.289     1000 
  644000   0.42403206   -2.4383686   0.63541203   -1.8029565   0.11974695    11395.908     1000 
  646000   0.44242025   -2.4108421   0.66296675   -1.7478753   0.12622872    11316.913     1000 
  648000   0.43400203   -2.3923635   0.65035204   -1.7420114   0.13513952     11213.33     1000 
  650000   0.42087746   -2.4187618   0.63068487   -1.7880769   0.12409032    11241.385     1000 
  652000   0.43712208   -2.3833606   0.65502744   -1.7283331   0.12749961    11289.751     1000 
  654000   0.44164678   -2.3936458   0.66180769   -1.7318381   0.13549124    11211.688     1000 
  656000   0.43648387   -2.3803036   0.65407108   -1.7262325   0.14056664    11241.255     1000 
  658000   0.42457022   -2.3615225   0.63621848    -1.725304   0.13357208    11226.902     1000 
  660000    0.4146837   -2.3740648   0.62140353   -1.7526613   0.13609419     11166.45     1000 
  662000   0.43346332   -2.3453865   0.64954479   -1.6958417   0.12297894    11298.134     1000 
  664000   0.43026194   -2.4282412   0.64474752   -1.7834937   0.12814257    11268.943     1000 
  666000   0.43013611   -2.3904634   0.64455897   -1.7459044   0.12953892    11247.988     1000 
  668000   0.43839061   -2.4533754   0.65692832   -1.7964471   0.13051341    11382.719     1000 
  670000   0.43303477   -2.3997535    0.6489026   -1.7508509   0.13475016    11219.123     1000 
  672000    0.4358846   -2.3888872   0.65317307   -1.7357142   0.13122294    11250.383     1000 
  674000   0.42394568   -2.4372949    0.6352826   -1.8020123   0.12643524    11323.413     1000 
  676000   0.42618634   -2.3732616   0.63864022   -1.7346214   0.14610081    11122.714     1000 
  678000   0.42156295   -2.4152695   0.63171208   -1.7835574    0.1195228    11307.677     1000 
  680000   0.42919662   -2.3577796   0.64315113   -1.7146284   0.14171242     11069.21     1000 
  682000   0.41512002   -2.4219471   0.62205735   -1.7998898   0.13375913    11287.386     1000 
  684000   0.43506372   -2.3453581   0.65194299   -1.6934151   0.12641592    11294.715     1000 
  686000   0.40405004    -2.431727   0.60546898   -1.8262581   0.13353993    11302.093     1000 
  688000   0.42695401   -2.3790184   0.63979059   -1.7392278   0.12480003     11304.91     1000 
  690000   0.41717099    -2.399741   0.62513073   -1.7746102   0.12882262    11203.467     1000 
  692000   0.45037583   -2.3846609   0.67488818   -1.7097727   0.13296413    11285.928     1000 
  694000   0.41132572   -2.4434774   0.61637159   -1.8271059   0.12610163    11391.654     1000 
  696000   0.41003354   -2.4093495   0.61443526   -1.7949142   0.13283452    11291.977     1000 
  698000   0.42188616   -2.3836896   0.63219641   -1.7514932   0.11841337    11456.198     1000 
  700000   0.41768921   -2.3917816   0.62590728   -1.7658743   0.13126345    11238.745     1000 
  702000   0.44540598   -2.3851159   0.66744086    -1.717675   0.13112263    11363.253     1000 
  704000   0.44350554   -2.3719262   0.66459305   -1.7073332   0.13341441    11249.426     1000 
  706000   0.43792777   -2.4042272   0.65623477   -1.7479925   0.12452263     11320.17     1000 
  708000   0.41874676   -2.3986588   0.62749202   -1.7711668   0.13131907    11191.784     1000 
  710000   0.41330557   -2.3767777    0.6193384   -1.7574393   0.12827006    11233.141     1000 
  712000   0.42547509    -2.366108   0.63757442   -1.7285336   0.13240652    11196.475     1000 
  714000   0.42410016   -2.4339288   0.63551409   -1.7984147   0.12319798    11341.074     1000 
  716000   0.41434807   -2.4462778   0.62090058   -1.8253773   0.11338166    11468.736     1000 
  718000   0.44190786   -2.3537001   0.66219893   -1.6915011   0.13016623    11233.322     1000 
  720000   0.42866166   -2.4215977    0.6423495   -1.7792482   0.12567019    11354.641     1000 
  722000   0.43423252   -2.3685089   0.65069744   -1.7178115   0.12855075    11285.895     1000 
  724000   0.42923609   -2.3643359   0.64321028   -1.7211257   0.13312746    11139.451     1000 
  726000   0.41746391    -2.410887   0.62556967   -1.7853173   0.13764005    11301.823     1000 
  728000   0.42936507   -2.4270016   0.64340355   -1.7835981   0.12015021    11418.306     1000 
  730000   0.43668193     -2.37339   0.65436787   -1.7190221   0.12711425    11159.365     1000 
  732000   0.41340017   -2.3983366   0.61948016   -1.7788565   0.12267604     11272.33     1000 
  734000   0.43838697   -2.4362026   0.65692287   -1.7792798   0.12996371    11367.468     1000 
  736000   0.44598867   -2.4218365   0.66831401   -1.7535225   0.12190767    11266.579     1000 
  738000   0.44131637   -2.3890734   0.66131259   -1.7277608   0.12859721     11320.11     1000 
  740000   0.42640507   -2.4413496     0.638968   -1.8023816   0.12361621    11376.149     1000 
  742000   0.43084044   -2.3660948    0.6456144   -1.7204804   0.15134966    11056.837     1000 
  744000   0.43257066   -2.3991047   0.64820714   -1.7508976   0.12376761    11352.326     1000 
  746000   0.43526456   -2.4228718   0.65224394   -1.7706279   0.12652194    11314.927     1000 
  748000   0.41936448   -2.3514532   0.62841768   -1.7230355   0.14111262    11210.454     1000 
  750000   0.42932506   -2.4037469    0.6433436   -1.7604033   0.14021793    11150.917     1000 
  752000   0.42177026   -2.3469229   0.63202273   -1.7149002   0.13002682    11149.722     1000 
  754000   0.43356902   -2.4575848   0.64970318   -1.8078816   0.12391156    11376.211     1000 
  756000    0.4400032   -2.3846741    0.6593448   -1.7253293   0.13906059    11235.113     1000 
  758000   0.41405232   -2.4217984   0.62045741    -1.801341   0.12157075    11307.046     1000 
  760000   0.42039913    -2.362135   0.62996809   -1.7321669    0.1307876    11166.383     1000 
  762000   0.42743211   -2.4564892   0.64050702   -1.8159821   0.12971337    11308.562     1000 
  764000   0.43745549   -2.3623051   0.65552705   -1.7067781   0.12739181    11254.461     1000 
  766000    0.4138902   -2.4121924   0.62021446    -1.791978   0.11967905    11520.405     1000 
  768000   0.42647264   -2.3507541   0.63906926   -1.7116849   0.13910139    11139.018     1000 
  770000    0.4136722    -2.360108    0.6198878   -1.7402202   0.12828771    11251.722     1000 
  772000   0.41965634   -2.4247219   0.62885502   -1.7958668   0.12834169    11393.497     1000 
  774000    0.4360668   -2.4216351    0.6534461    -1.768189   0.13387273    11171.037     1000 
  776000    0.4190455    -2.449487   0.62793969   -1.8215473   0.12713265    11398.797     1000 
  778000   0.44284894   -2.4655359   0.66360914   -1.8019268   0.13093031    11319.462     1000 
  780000   0.43186626   -2.4167079   0.64715159   -1.7695563   0.12190978    11345.349     1000 
  782000   0.44135884   -2.4105419   0.66137622   -1.7491657    0.1230274    11376.607     1000 
  784000   0.44400874   -2.3649878   0.66534709   -1.6996407   0.13083669    11280.087     1000 
  786000   0.44071245    -2.407075    0.6604076   -1.7466674   0.12692118    11301.828     1000 
  788000   0.43859121   -2.4275432   0.65722892   -1.7703143   0.14015175    11381.929     1000 
  790000   0.42278083   -2.4015207   0.63353707   -1.7679837   0.11479407    11332.639     1000 
  792000   0.43941493    -2.356352   0.65846327   -1.6978888   0.13787225    11180.853     1000 
  794000      0.42642   -2.3971676   0.63899036   -1.7581772   0.12763557        11376     1000 
  796000   0.44163999   -2.4026504   0.66179752   -1.7408529   0.12925381    11326.399     1000 
  798000   0.42203274   -2.4383761   0.63241606   -1.8059601   0.13363263    11413.857     1000 
  800000   0.43046356    -2.388967   0.64504964   -1.7439173   0.11517052     11348.31     1000 
  802000   0.42464965   -2.3779028    0.6363375   -1.7415653   0.13843128    11351.367     1000 
  804000   0.42022831   -2.4270334   0.62971213   -1.7973213   0.12073569    11295.779     1000 
  806000   0.41997648    -2.408134   0.62933476   -1.7787993   0.12215829    11355.183     1000 
  808000   0.43370616   -2.3155018   0.64990868   -1.6655931   0.12609575     11162.07     1000 
  810000   0.42532096   -2.3949646   0.63734346   -1.7576212   0.13144356    11251.246     1000 
  812000   0.42704091   -2.4207807    0.6399208   -1.7808599   0.12690139    11335.889     1000 
  814000   0.41462592   -2.3663823   0.62131694   -1.7450654   0.12933066    11197.888     1000 
  816000   0.42991624   -2.3638957   0.64422948   -1.7196662   0.13901897    11192.839     1000 
  818000   0.45024682   -2.3724586   0.67469486   -1.6977638    0.1290215    11332.465     1000 
  820000   0.44255771   -2.4293608   0.66317273   -1.7661881   0.12275376    11531.671     1000 
  822000   0.42295705   -2.4026992   0.63380114   -1.7688981   0.12554126    11450.287     1000 
  824000   0.41745182   -2.4016932   0.62555156   -1.7761417   0.12608461    11294.132     1000 
  826000   0.43901854   -2.3690967   0.65786928   -1.7112274   0.14367392    11186.456     1000 
  828000   0.40699923   -2.3499876   0.60988835   -1.7400993   0.12280605    11166.908     1000 
  830000   0.42908815   -2.3870874    0.6429886   -1.7440988   0.13136711    11281.344     1000 
  832000   0.43040806   -2.3927256   0.64496648   -1.7477591   0.13971468    11310.603     1000 
  834000    0.4164658   -2.3870538     0.624074   -1.7629798    0.1244675    11230.919     1000 
  836000   0.44698062   -2.3742429   0.66980046   -1.7044425   0.13254486    11349.893     1000 
  838000    0.4267881   -2.3989323   0.63954197   -1.7593904   0.12305912    11511.803     1000 
  840000   0.43807433   -2.4569042   0.65645438   -1.8004498   0.14027714    11255.277     1000 
  842000   0.44468921   -2.4087204   0.66636678   -1.7423536   0.12795713    11452.221     1000 
  844000   0.44294019   -2.3901736   0.66374587   -1.7264277   0.12668638    11267.787     1000 
  846000   0.42575452   -2.4118957   0.63799315   -1.7739026   0.11753564    11266.054     1000 
  848000   0.43343719    -2.396053   0.64950563   -1.7465474   0.12443101    11363.384     1000 
  850000   0.40736897   -2.3967913   0.61044241   -1.7863489   0.12891207    11287.323     1000 
  852000    0.4333027    -2.378255   0.64930409    -1.728951   0.12142328    11325.928     1000 
  854000   0.43376309   -2.4316236   0.64999399   -1.7816296   0.12579614    11274.535     1000 
  856000   0.42307467   -2.3955604   0.63397739    -1.761583   0.13105222    11254.005     1000 
  858000   0.44416625    -2.427318   0.66558312   -1.7617348   0.12793865    11313.646     1000 
  860000   0.43232651   -2.4635861   0.64784128   -1.8157448   0.13101848     11370.34     1000 
  862000   0.43743323   -2.4132692   0.65549369   -1.7577755   0.12745095    11364.656     1000 
  864000   0.43130483   -2.4057957   0.64631028   -1.7594854   0.12431394    11321.648     1000 
  866000   0.41254461   -2.3977086    0.6181981   -1.7795105   0.13393276    11268.142     1000 
  868000    0.4361763   -2.4256938   0.65361019   -1.7720836   0.13556861    11367.041     1000 
  870000   0.42385683   -2.4187528   0.63514945   -1.7836034   0.12626718    11320.363     1000 
  872000   0.42948264   -2.4009992   0.64357974   -1.7574195    0.1340717    11236.321     1000 
  874000   0.42362148    -2.413403   0.63479678   -1.7786062   0.12583114    11374.652     1000 
  876000   0.40749535   -2.3918328   0.61063179   -1.7812011    0.1292619    11325.817     1000 
  878000   0.42113871   -2.3699978   0.63107636   -1.7389215   0.14486504     11104.14     1000 
  880000   0.43440724   -2.4094503   0.65095925   -1.7584911   0.13428055    11375.133     1000 
  882000   0.42708572   -2.4218579   0.63998796   -1.7818699   0.12610733    11313.013     1000 
  884000   0.43645191   -2.4275693   0.65402319   -1.7735461   0.12849693    11350.682     1000 
  886000   0.43982059   -2.4241112   0.65907115   -1.7650401   0.14709842    11148.225     1000 
  888000   0.43782124   -2.4171773   0.65607512   -1.7611022   0.13377971      11202.8     1000 
  890000   0.45018741   -2.4184778   0.67460583    -1.743872   0.12748158     11342.22     1000 
  892000   0.42649935   -2.3815032   0.63910928    -1.742394   0.13041602    11294.497     1000 
  894000   0.42776059   -2.3498149   0.64099924   -1.7088156   0.13054691     11234.53     1000 
  896000   0.43572433   -2.3787045    0.6529329   -1.7257716    0.1313304    11299.812     1000 
  898000   0.41708251   -2.4026919   0.62499814   -1.7776937   0.13695542     11270.95     1000 
  900000   0.42119287    -2.377664   0.63115752   -1.7465065   0.13231036    11204.281     1000 
  902000   0.42286274   -2.4260718   0.63365982   -1.7924119   0.14646325    11136.602     1000 
  904000   0.42581355   -2.4291927   0.63808161    -1.791111   0.12472024    11369.833     1000 
  906000   0.42000146   -2.3965241   0.62937219   -1.7671519   0.12913536    11339.686     1000 
  908000   0.42796303    -2.402662   0.64130259   -1.7613594    0.1411247    11278.039     1000 
  910000   0.43194333   -2.4062397   0.64726708   -1.7589726   0.12803353    11402.671     1000 
  912000   0.43142014   -2.3937414   0.64648309   -1.7472583   0.13062354     11289.08     1000 
  914000   0.43708781   -2.3962377   0.65497608   -1.7412616   0.13475253    11346.143     1000 
  916000   0.43502325   -2.3920406   0.65188234   -1.7401582   0.13539792    11262.525     1000 
  918000   0.42630532   -2.4177135   0.63881852    -1.778895   0.13201686    11222.702     1000 
  920000   0.42472478    -2.389668   0.63645008   -1.7532179   0.12823516    11269.802     1000 
  922000   0.43376762   -2.4240199   0.65000078   -1.7740191   0.13300248    11299.986     1000 
  924000   0.41702698   -2.4025993   0.62491493   -1.7776843   0.14237287    11143.556     1000 
  926000    0.4248811   -2.3830201   0.63668432   -1.7463357   0.14094106    11163.829     1000 
  928000    0.4105634   -2.3894142   0.61522925    -1.774185   0.13172942     11203.82     1000 
  930000   0.41880854   -2.4095957    0.6275846   -1.7820111   0.12384795    11298.967     1000 
  932000   0.43352519   -2.4282345   0.64963749   -1.7785971   0.11503177    11381.548     1000 
  934000   0.43678002   -2.4590455   0.65451486   -1.8045306   0.12615099    11406.459     1000 
  936000   0.42968776   -2.3605888    0.6438871   -1.7167017   0.13049921    11193.363     1000 
  938000    0.4287477   -2.3968052   0.64247843   -1.7543267   0.13576994    11230.938     1000 
  940000   0.43048219   -2.3650362   0.64507756   -1.7199586   0.13730525    11137.282     1000 
  942000   0.43370001   -2.3539669   0.64989946   -1.7040675   0.14892654    11087.614     1000 
  944000   0.43038878   -2.3919166   0.64493759   -1.7469791   0.13297146    11323.631     1000 
  946000   0.40220896   -2.3623484   0.60271012   -1.7596382   0.12759385    11299.457     1000 
  948000   0.42477748   -2.3516248   0.63652906   -1.7150957    0.1418533    11138.997     1000 
  950000   0.45279443   -2.4033159   0.67851245   -1.7248034   0.14451402    11167.451     1000 
  952000   0.42039936   -2.4255751   0.62996844   -1.7956066   0.12924305    11251.618     1000 
  954000   0.44135993   -2.3564418   0.66137785   -1.6950639   0.13806236    11246.795     1000 
  956000     0.432058   -2.4070623   0.64743891   -1.7596234   0.13260902    11292.679     1000 
  958000   0.42923194   -2.3899175   0.64320406   -1.7467134    0.1267542    11327.481     1000 
  960000   0.42440348   -2.3816267   0.63596861   -1.7456581   0.12848255    11237.414     1000 
  962000   0.44167618   -2.4414009   0.66185175   -1.7795491   0.12866431     11324.61     1000 
  964000   0.43811184   -2.3374911   0.65651059   -1.6809805   0.12633214    11232.568     1000 
  966000   0.43276075   -2.3978618   0.64849198   -1.7493698   0.13586763     11259.06     1000 
  968000   0.46967012   -2.3778373   0.70380067   -1.6740366   0.13516857    11328.285     1000 
  970000    0.4271126   -2.4052548   0.64002823   -1.7652266   0.11472414    11379.159     1000 
  972000   0.43482419   -2.3840582   0.65158405   -1.7324741   0.13202887    11314.916     1000 
  974000   0.41889206   -2.4410344   0.62770976   -1.8133246   0.12268831    11440.817     1000 
  976000   0.42948458   -2.3703713   0.64358265   -1.7267887   0.13263259    11192.325     1000 
  978000   0.43467835   -2.3904495   0.65136551    -1.739084   0.13851235    11341.482     1000 
  980000   0.43223116   -2.3796155   0.64769839   -1.7319171   0.12938607    11192.295     1000 
  982000   0.44656528   -2.3917478   0.66917806   -1.7225697   0.12633903    11214.145     1000 
  984000   0.43714961   -2.3839613   0.65506869   -1.7288926   0.12135246    11237.135     1000 
  986000   0.44037252   -2.3978224   0.65989822   -1.7379242   0.13207817    11244.755     1000 
  988000   0.41795586   -2.3652491   0.62630686   -1.7389423   0.13493507     11145.24     1000 
  990000   0.41829173   -2.3885252   0.62681016    -1.761715   0.12287679    11275.233     1000 
  992000   0.41317672     -2.36954   0.61914532   -1.7503947   0.13172558     11236.13     1000 
  994000   0.44352934   -2.3801306   0.66462872   -1.7155018    0.1394716    11149.855     1000 
  996000   0.43487852   -2.3705788   0.65166547   -1.7189133   0.13048003    11225.502     1000 
  998000   0.43212704   -2.3662939   0.64754237   -1.7187515    0.1351403    11267.147     1000 
 1000000   0.42146999   -2.3982618   0.63157278    -1.766689   0.12852382    11324.664     1000 
 1002000     0.451512   -2.3517045   0.67659074   -1.6751137   0.12259611     11337.32     1000 
 1004000   0.43866608   -2.4208149   0.65734112   -1.7634737   0.12232534    11436.471     1000 
 1006000   0.42134594   -2.3919264   0.63138689   -1.7605395   0.12844037    11264.181     1000 
 1008000   0.42861489   -2.4181062   0.64227941   -1.7758268   0.14127799    11174.281     1000 
 1010000   0.42378962   -2.3740186   0.63504875   -1.7389698   0.13058129    11140.836     1000 
 1012000    0.4321785   -2.4036207   0.64761949   -1.7560012   0.12837352    11259.386     1000 
 1014000   0.42834308    -2.397685    0.6418721   -1.7558129   0.13465004    11221.186     1000 
 1016000   0.43266085   -2.4150575   0.64834229   -1.7667152   0.14068992    11242.541     1000 
 1018000   0.42831632   -2.4078292     0.641832   -1.7659973   0.12081941    11329.627     1000 
 1020000   0.43574691   -2.4406424   0.65296674   -1.7876756   0.12338965    11344.619     1000 
 1022000   0.43854615   -2.3777566   0.65716141   -1.7205952      0.13311     11269.79     1000 
 1024000   0.43798382   -2.3264504   0.65631875   -1.6701317   0.13645672    11192.471     1000 
 1026000    0.4242442   -2.4508796   0.63572993   -1.8151496   0.12713201    11336.157     1000 
 1028000   0.41289956   -2.3872548   0.61872999   -1.7685248   0.13562164    11139.749     1000 
 1030000   0.41999069   -2.4197962   0.62935605   -1.7904402   0.12848066    11187.842     1000 
 1032000   0.43134764   -2.3636152   0.64637445   -1.7172408   0.12658314    11341.027     1000 
 1034000   0.43597803   -2.4385462   0.65331308   -1.7852331   0.12158841    11422.409     1000 
 1036000   0.42655769   -2.3988013   0.63919669   -1.7596046   0.12172768     11362.26     1000 
 1038000    0.4091828   -2.3824359   0.61316043   -1.7692754   0.12960678    11315.007     1000 
 1040000   0.42608764    -2.376809   0.63849232   -1.7383167   0.13043396    11199.393     1000 
 1042000   0.45670654   -2.4116002   0.68437476   -1.7272254   0.14037674      11241.1     1000 
 1044000   0.43419338    -2.410282   0.65063878   -1.7596432    0.1414185    11198.062     1000 
 1046000   0.43543424   -2.4310361   0.65249821   -1.7785379   0.11250147    11417.468     1000 
 1048000   0.42410692    -2.383857   0.63552422   -1.7483328   0.12951979    11258.145     1000 
 1050000   0.43123291   -2.3893084   0.64620252   -1.7431059   0.12955986    11159.964     1000 
 1052000   0.42099919   -2.4001804   0.63086729   -1.7693131     0.140863    11182.427     1000 
 1054000   0.43190892   -2.3823593   0.64721551   -1.7351438   0.13011004    11281.303     1000 
 1056000   0.42918038   -2.3833057   0.64312681   -1.7401788   0.12358897    11366.855     1000 
 1058000   0.42813474   -2.4088593   0.64155991   -1.7672994   0.12356297    11230.288     1000 
 1060000   0.41222598   -2.4413629   0.61772064   -1.8236423   0.13340352    11274.922     1000 
 1062000   0.43290962   -2.3888949   0.64871507   -1.7401799   0.14458828    11269.827     1000 
 1064000   0.42239371   -2.4270083   0.63295697   -1.7940514   0.12538395    11436.991     1000 
 1066000   0.42537693    -2.407988   0.63742733   -1.7705607   0.12767989    11304.521     1000 
 1068000   0.43928513   -2.4029635   0.65826877   -1.7446947   0.13386866    11296.402     1000 
 1070000    0.4221533   -2.4433637   0.63259672    -1.810767   0.12200549    11257.365     1000 
 1072000   0.43109517   -2.4078005   0.64599611   -1.7618044   0.12987433    11193.062     1000 
 1074000   0.43892329   -2.3879828   0.65772655   -1.7302562   0.13226542    11263.317     1000 
 1076000   0.41319556   -2.4247622   0.61917355   -1.8055886   0.13236662    11308.593     1000 
 1078000   0.43641908   -2.4298229   0.65397399    -1.775849   0.12928377    11421.322     1000 
 1080000   0.45170735   -2.3979297   0.67688347   -1.7210463   0.13385437    11216.779     1000 
 1082000   0.43310227   -2.4142493   0.64900376   -1.7652455   0.14146735    11235.032     1000 
 1084000    0.4330382   -2.3673912   0.64890775   -1.7184835   0.12531224     11267.88     1000 
 1086000   0.43095799   -2.3917839   0.64579055   -1.7459934   0.12792296    11325.499     1000 
 1088000   0.44625324   -2.4009729   0.66871047   -1.7322624   0.12128934     11447.74     1000 
 1090000   0.43227564   -2.4490191   0.64776504   -1.8012541   0.12587196    11394.673     1000 
 1092000   0.41531265    -2.423985   0.62234601    -1.801639   0.12571015    11391.251     1000 
 1094000   0.43178879   -2.4316164    0.6470355   -1.7845809   0.12908723    11316.248     1000 
 1096000   0.42934117   -2.4099613   0.64336774   -1.7665936    0.1149644    11429.403     1000 
 1098000   0.44031272    -2.387884    0.6598086   -1.7280754    0.1275947    11260.733     1000 
 1100000   0.42760026   -2.4026809   0.64075899   -1.7619219   0.14079612    11232.194     1000 
 1102000   0.43323974   -2.4143099   0.64920975   -1.7651002   0.12778928    11336.836     1000 
 1104000   0.42965687   -2.4161994   0.64384082   -1.7723586   0.12163055    11337.111     1000 
 1106000   0.43144044   -2.3880103    0.6465135   -1.7414968   0.12867975    11350.792     1000 
 1108000   0.43090398   -2.3610962   0.64570961   -1.7153866   0.14288297    11120.519     1000 
 1110000   0.43253487   -2.4077324    0.6481535   -1.7595789   0.12949326    11266.116     1000 
 1112000   0.41370358   -2.3461136   0.61993481   -1.7261787   0.12100836    11265.976     1000 
 1114000   0.42500258   -2.3919915   0.63686636   -1.7551251    0.1334188    11274.045     1000 
 1116000    0.4264579    -2.436016   0.63904716   -1.7969689   0.13796938    11256.244     1000 
 1118000   0.43630124   -2.4292585   0.65379741   -1.7754611   0.14135443    11210.048     1000 
 1120000   0.42555292   -2.3488366   0.63769105   -1.7111456   0.13072866    11156.062     1000 
 1122000   0.43785259   -2.4553949   0.65612211   -1.7992728   0.12185513    11447.082     1000 
 1124000   0.42657583   -2.4051531   0.63922388   -1.7659293   0.14042938    11242.894     1000 
 1126000   0.41973389   -2.4860196   0.62897123   -1.8570484   0.12725632    11271.277     1000 
 1128000   0.42260897   -2.3804147   0.63327955   -1.7471352   0.14122743    11235.577     1000 
 1130000   0.44573719   -2.3285761   0.66793718   -1.6606389    0.1319775    11309.658     1000 
 1132000   0.42204633    -2.394211   0.63243642   -1.7617745   0.13361228    11294.718     1000 
 1134000   0.43346706    -2.368604   0.64955038   -1.7190536   0.14757574    11130.372     1000 
 1136000   0.39684488   -2.3562131   0.59467205   -1.7615411   0.13260888    11147.715     1000 
 1138000   0.44247698   -2.3402076   0.66305176   -1.6771558   0.14741804    11181.142     1000 
 1140000   0.41287662   -2.3938579   0.61869562   -1.7751623   0.13435362    11212.988     1000 
 1142000   0.44205704   -2.4227346   0.66242247   -1.7603121   0.12917069    11303.582     1000 
 1144000   0.43708899   -2.4242789   0.65497784   -1.7693011   0.11727928    11366.309     1000 
 1146000   0.42648427   -2.4118941   0.63908668   -1.7728074     0.125195    11295.681     1000 
 1148000   0.42764271   -2.4061331   0.64082261   -1.7653105    0.1340021    11227.249     1000 
 1150000   0.43997391   -2.4346539   0.65930091    -1.775353   0.13334819    11407.146     1000 
 1152000   0.43513585     -2.37633   0.65205108   -1.7242789   0.14410134    11094.214     1000 
 1154000   0.42999272   -2.3970339   0.64434409   -1.7526898   0.11854789    11378.675     1000 
 1156000   0.43157818   -2.3616035   0.64671991   -1.7148836   0.13276246    11207.238     1000 
 1158000   0.44468433   -2.3939739   0.66635947   -1.7276144    0.1271785    11331.632     1000 
 1160000   0.42547733   -2.4103139   0.63757777   -1.7727361   0.13926337    11189.025     1000 
 1162000   0.42241363   -2.3606337   0.63298682   -1.7276469   0.13709688    11095.305     1000 
 1164000   0.42789007   -2.4019467   0.64119327   -1.7607534   0.12741785    11337.279     1000 
 1166000   0.42336575   -2.3558778   0.63441357   -1.7214642   0.11985997    11263.317     1000 
 1168000   0.42811653   -2.4001794   0.64153261   -1.7586468    0.1345481    11224.111     1000 
 1170000   0.44611181   -2.4064452   0.66849855   -1.7379466   0.11478931    11374.748     1000 
 1172000   0.42867316    -2.380956   0.64236673   -1.7385892   0.12360217    11331.504     1000 
 1174000   0.42817463   -2.4221963   0.64161968   -1.7805767   0.13574245     11265.12     1000 
 1176000    0.4277344   -2.4044628      0.64096   -1.7635028   0.11509846    11369.876     1000 
 1178000   0.42295294    -2.412608   0.63379497    -1.778813   0.12504553    11309.122     1000 
 1180000   0.43182873   -2.4019728   0.64709536   -1.7548775   0.12891023    11172.588     1000 
 1182000   0.44010698   -2.4191813    0.6595003    -1.759681       0.1293    11383.169     1000 
 1184000   0.42490592   -2.3698684   0.63672153   -1.7331469   0.12780123    11225.767     1000 
 1186000   0.42034133   -2.3956629   0.62988149   -1.7657814   0.13186077    11307.806     1000 
 1188000   0.42869325   -2.4050227   0.64239684   -1.7626259   0.13781566    11233.909     1000 
 1190000   0.40650755   -2.4311322   0.60915156   -1.8219806   0.13085916    11203.071     1000 
 1192000   0.43658948   -2.3611253   0.65422934    -1.706896   0.11472371    11460.212     1000 
 1194000   0.44991302   -2.3904762   0.67419466   -1.7162815   0.12908889    11310.409     1000 
 1196000   0.41775816    -2.398277    0.6260106   -1.7722664   0.11435793    11475.584     1000 
 1198000   0.43079704   -2.4220496   0.64554936   -1.7765003   0.12128253     11368.13     1000 
 1200000   0.43670182   -2.3752424   0.65439768   -1.7208447    0.1264751    11271.726     1000 
 1202000   0.42425696    -2.446244   0.63574905   -1.8104949   0.11988182    11389.649     1000 
 1204000   0.40665954   -2.3440957   0.60937932   -1.7347164   0.13105027    11279.052     1000 
 1206000   0.44044812    -2.376574   0.66001151   -1.7165625   0.14565713    11150.899     1000 
 1208000   0.43129115   -2.3510114   0.64628979   -1.7047216   0.13977016    11215.115     1000 
 1210000   0.41480341   -2.4099244   0.62158291   -1.7883415   0.12962913    11276.851     1000 
 1212000   0.42583338   -2.3868281   0.63811132   -1.7487168    0.1169578     11311.88     1000 
 1214000   0.43172967   -2.3455749   0.64694691    -1.698628   0.13091586    11185.224     1000 
 1216000   0.44152735   -2.3904272   0.66162874   -1.7287985   0.12963908    11309.538     1000 
 1218000    0.4261803   -2.4411722   0.63863118    -1.802541   0.12917914    11369.156     1000 
 1220000   0.43443162   -2.3396905   0.65099578   -1.6886947   0.13228574    11183.828     1000 
 1222000   0.42304265   -2.4287348   0.63392941   -1.7948054   0.14109701    11307.705     1000 
 1224000   0.41648527   -2.4175674   0.62410317   -1.7934642   0.12349514    11349.584     1000 
 1226000   0.44024299   -2.4147122   0.65970413   -1.7550081   0.13626267    11334.153     1000 
 1228000   0.43469705   -2.4420533   0.65139353   -1.7906598   0.11651719    11333.857     1000 
 1230000   0.42490591   -2.3776526   0.63672151   -1.7409311    0.1183249    11242.763     1000 
 1232000   0.42562673   -2.4396597   0.63780165    -1.801858   0.11841069    11267.529     1000 
 1234000   0.41262895   -2.3719971   0.61832449   -1.7536726   0.13890186    11136.308     1000 
 1236000   0.43471188   -2.3672191   0.65141575   -1.7158034    0.1429942    11187.782     1000 
 1238000   0.43166714     -2.37809   0.64685321   -1.7312368   0.12849304    11324.055     1000 
 1240000   0.45065521   -2.4485864   0.67530684   -1.7732796   0.12474449    11432.655     1000 
 1242000   0.42982261   -2.4044879   0.64408918   -1.7603987   0.12481041    11321.946     1000 
 1244000   0.42728624   -2.3698199   0.64028844   -1.7295315   0.12195048    11242.689     1000 
 1246000   0.43084904   -2.3960954   0.64562729   -1.7504681   0.12992118    11387.781     1000 
 1248000   0.42315333   -2.4235563   0.63409526   -1.7894611   0.12785098    11342.057     1000 
 1250000   0.42326706   -2.4138376   0.63426569   -1.7795719   0.12166253    11320.301     1000 
 1252000   0.43126821   -2.3588322   0.64625541   -1.7125768   0.12553879    11198.772     1000 
 1254000   0.43462387    -2.400597   0.65128387   -1.7493131   0.12936156    11331.883     1000 
 1256000   0.43786031   -2.4006489   0.65613367   -1.7445152   0.12268997    11287.418     1000 
 1258000   0.44697873   -2.3832084   0.66979763   -1.7134108   0.13894193    11214.305     1000 
 1260000   0.41538202   -2.4513578   0.62244996   -1.8289079   0.13268267    11297.582     1000 
 1262000   0.44092307   -2.4000886   0.66072321   -1.7393654   0.14033575    11228.156     1000 
 1264000   0.44995311   -2.4166071   0.67425473   -1.7423524   0.13240087    11286.698     1000 
 1266000   0.43421117   -2.3886441   0.65066544   -1.7379786   0.13369237    11287.899     1000 
 1268000   0.43535524   -2.3959662   0.65237983   -1.7435864   0.13297843    11221.224     1000 
 1270000   0.41481391   -2.4204581   0.62159865   -1.7988595    0.1303445    11306.132     1000 
 1272000   0.42826504   -2.4990228   0.64175516   -1.8572677   0.11517101    11490.832     1000 
 1274000   0.42248856   -2.3729502    0.6330991   -1.7398511   0.12590696    11350.639     1000 
 1276000   0.42755182   -2.3687672    0.6406864   -1.7280808   0.13146656    11235.185     1000 
 1278000   0.42460007   -2.4449451    0.6362632   -1.8086819   0.13287383    11422.115     1000 
 1280000     0.422044   -2.3859163   0.63243294   -1.7534834   0.10875168    11368.371     1000 
 1282000   0.44091674   -2.3717279   0.66071374   -1.7110142   0.12123834    11300.481     1000 
 1284000   0.44095771   -2.3822936   0.66077512   -1.7215184   0.13537991    11269.319     1000 
 1286000   0.42544255   -2.4044296   0.63752567   -1.7669039   0.13260278    11329.416     1000 
 1288000   0.44083206    -2.388198   0.66058684   -1.7276111   0.14410535    11239.224     1000 
 1290000   0.42030185   -2.3467602   0.62982232   -1.7169378   0.13474255    11120.095     1000 
 1292000   0.42752139   -2.4020101   0.64064081   -1.7613693   0.13526145    11174.266     1000 
 1294000   0.43689468   -2.3972145   0.65468668   -1.7425278   0.13173421    11357.691     1000 
 1296000   0.42319791   -2.4275241   0.63416208    -1.793362   0.12132321    11289.402     1000 
 1298000   0.43964409    -2.335283   0.65880668   -1.6764763   0.12369148    11208.358     1000 
 1300000   0.44516001   -2.4202956   0.66707228   -1.7532234   0.13187233    11307.571     1000 
 1302000   0.44838245   -2.4028541    0.6719011    -1.730953   0.13583499    11238.505     1000 
 1304000   0.42782011   -2.4034906   0.64108844   -1.7624022   0.12851189    11208.671     1000 
 1306000   0.43716483   -2.3689265    0.6550915    -1.713835   0.12782563    11260.583     1000 
 1308000   0.42936041   -2.3889231   0.64339657   -1.7455266   0.12923966    11336.585     1000 
 1310000   0.45179111   -2.3359511   0.67700898   -1.6589421   0.12644822    11266.416     1000 
 1312000   0.42073155   -2.4262745   0.63046623   -1.7958082   0.12412518    11248.197     1000 
 1314000   0.42700774   -2.4462641   0.63987109    -1.806393   0.11759178    11435.751     1000 
 1316000   0.42170044   -2.4137037   0.63191811   -1.7817856   0.12832069    11233.044     1000 
 1318000   0.41647947   -2.4168189   0.62409449   -1.7927244   0.12294849    11418.947     1000 
 1320000   0.42377977   -2.4650402   0.63503398   -1.8300062   0.12309471    11400.443     1000 
 1322000   0.43309848   -2.4085178   0.64899807   -1.7595197   0.12573769     11504.43     1000 
 1324000   0.43393478   -2.4270025   0.65025127   -1.7767513   0.11878327    11358.866     1000 
 1326000   0.41367796   -2.3935293   0.61989642   -1.7736329   0.15165917    11143.766     1000 
 1328000   0.43077614   -2.4537632   0.64551804   -1.8082451   0.12730099    11525.549     1000 
 1330000   0.42275219   -2.3869234   0.63349416   -1.7534293   0.14248176    11243.888     1000 
 1332000   0.43125459   -2.4298681     0.646235   -1.7836331   0.13414466    11275.191     1000 
 1334000   0.41719621   -2.3318818   0.62516852   -1.7067133   0.13744305    11241.087     1000 
 1336000   0.42372419    -2.406221    0.6349507   -1.7712703   0.12285115    11356.243     1000 
 1338000   0.42034141   -2.3823928    0.6298816   -1.7525112   0.12826421     11303.65     1000 
 1340000   0.43800927   -2.4097715   0.65635689   -1.7534146   0.13190316    11241.805     1000 
 1342000    0.4277583   -2.3758754   0.64099581   -1.7348796   0.11953884    11321.435     1000 
 1344000   0.42427127   -2.4243512    0.6357705   -1.7885807   0.13792618    11302.939     1000 
 1346000   0.41975446   -2.4161861   0.62900206    -1.787184   0.13904376    11316.816     1000 
 1348000   0.41860285   -2.3854173   0.62727637   -1.7581409   0.11593081    11381.876     1000 
 1350000   0.42549628     -2.39141   0.63760617   -1.7538038   0.13730414    11262.608     1000 
 1352000   0.43823031   -2.3920653   0.65668812   -1.7353772   0.12483228      11328.7     1000 
 1354000   0.42414503   -2.3873123   0.63558133    -1.751731   0.14173003    11200.363     1000 
 1356000    0.4149134   -2.4030792   0.62174774   -1.7813315   0.12486917    11355.612     1000 
 1358000   0.42109631   -2.4422834   0.63101282   -1.8112706   0.11661492    11372.909     1000 
 1360000   0.43498228   -2.3799655   0.65182094   -1.7281445   0.13715018    11198.593     1000 
 1362000   0.43580698   -2.4509564   0.65305676   -1.7978996   0.13736315    11233.137     1000 
 1364000   0.43719187   -2.4014002   0.65513201   -1.7462682   0.12940199    11315.502     1000 
 1366000   0.42139699   -2.3834736   0.63146339   -1.7520102    0.1224781    11323.599     1000 
 1368000   0.42865606   -2.4135686   0.64234111   -1.7712275   0.12263474    11308.331     1000 
 1370000    0.4066197   -2.3560655   0.60931962   -1.7467458   0.12595948    11302.044     1000 
 1372000   0.41997006    -2.423426   0.62932514   -1.7941008   0.12999328    11266.392     1000 
 1374000   0.45112068   -2.3747602   0.67600434   -1.6987558    0.1366432    11269.041     1000 
 1376000   0.44030915   -2.4175724   0.65980326   -1.7577691   0.13140682    11332.249     1000 
 1378000   0.42062924   -2.3751885   0.63031291   -1.7448756   0.12857769    11221.065     1000 
 1380000   0.42122873   -2.3563411   0.63121126   -1.7251299   0.13959458    11161.271     1000 
 1382000   0.43574825     -2.39108   0.65296875   -1.7381113   0.12959921    11339.009     1000 
 1384000   0.45290166   -2.4334608   0.67867314   -1.7547877    0.1327135    11250.872     1000 
 1386000   0.44670009   -2.4034135   0.66938009   -1.7340334   0.12222005    11363.362     1000 
 1388000   0.42790023   -2.4012915   0.64120849    -1.760083   0.14280675    11194.963     1000 
 1390000   0.42254222   -2.4348082   0.63317951   -1.8016287    0.1227163    11336.544     1000 
 1392000    0.4298941     -2.42556   0.64419631   -1.7813637   0.13445107    11297.185     1000 
 1394000   0.44197444   -2.4056846    0.6622987   -1.7433859   0.13099803    11283.075     1000 
 1396000   0.44551998   -2.4224047   0.66761169    -1.754793   0.13226981     11224.48     1000 
 1398000   0.42808967    -2.371143   0.64149237   -1.7296506   0.14533888    11208.358     1000 
 1400000   0.43004639   -2.3655432   0.64442452   -1.7211187    0.1359869    11140.226     1000 
 1402000   0.44651699   -2.3074095   0.66910571   -1.6383038   0.12572704    11188.861     1000 
 1404000   0.41350025   -2.4017671   0.61963013    -1.782137   0.12804468    11348.131     1000 
 1406000   0.44369722   -2.4017835   0.66488028   -1.7369032   0.13540436    11252.292     1000 
 1408000   0.42721648   -2.4227462   0.64018389   -1.7825623   0.13165168    11329.985     1000 
 1410000   0.42242866   -2.4140885   0.63300935   -1.7810792    0.1159988    11300.166     1000 
 1412000   0.44092066   -2.4113299   0.66071961   -1.7506103   0.14394046    11192.445     1000 
 1414000   0.40355847   -2.4408325   0.60473237   -1.8361001    0.1309986    11257.691     1000 
 1416000   0.41657729   -2.4282571   0.62424107    -1.804016   0.11700284    11525.015     1000 
 1418000   0.42763304   -2.4017824   0.64080811   -1.7609742   0.12922727     11252.77     1000 
 1420000   0.42006423   -2.4137755   0.62946624   -1.7843093   0.12674161    11371.818     1000 
 1422000   0.43184998    -2.363557   0.64712719   -1.7164299   0.12205651    11189.815     1000 
 1424000   0.42483618   -2.4072456   0.63661701   -1.7706286   0.13067641    11351.864     1000 
 1426000   0.43538014   -2.4125093   0.65241715   -1.7600922   0.12770646    11354.589     1000 
 1428000   0.41828205   -2.4701986   0.62679565   -1.8434029   0.12117052    11387.202     1000 
 1430000   0.44563382    -2.375986   0.66778228   -1.7082038   0.13524928     11293.88     1000 
 1432000   0.43898393   -2.3822988   0.65781742   -1.7244814    0.1373887    11257.244     1000 
 1434000   0.42283803   -2.4141617   0.63362279   -1.7805389   0.13576867    11291.084     1000 
 1436000   0.43122411   -2.4107566   0.64618932   -1.7645673   0.12030584    11372.638     1000 
 1438000   0.41528426   -2.3966811   0.62230346   -1.7743776   0.13327052    11248.395     1000 
 1440000   0.42111196   -2.4111129   0.63103626   -1.7800766   0.13792447    11265.895     1000 
 1442000   0.43120255   -2.3995812   0.64615702   -1.7534242   0.13818302    11207.996     1000 
 1444000   0.43163043   -2.3820901    0.6467982   -1.7352919   0.13116772     11291.69     1000 
 1446000   0.41151721   -2.4010273   0.61665853   -1.7843687   0.12226043    11343.677     1000 
 1448000   0.43156375   -2.4350352   0.64669828   -1.7883369    0.1177191    11321.678     1000 
 1450000   0.42663365   -2.4142484   0.63931052   -1.7749379   0.12988274    11343.703     1000 
 1452000   0.42743801   -2.3943617   0.64051586   -1.7538458    0.1333996    11235.673     1000 
 1454000   0.41148951   -2.3602055   0.61661703   -1.7435885   0.12920003    11289.045     1000 
 1456000   0.41933244   -2.3141897   0.62836966   -1.6858201   0.13788838    11203.259     1000 
 1458000   0.43457954   -2.3939432   0.65121745   -1.7427258   0.14151652    11299.641     1000 
 1460000    0.4312172   -2.4249433   0.64617898   -1.7787643   0.13157395    11304.906     1000 
 1462000   0.44462723    -2.402399    0.6662739   -1.7361251   0.12821777    11326.357     1000 
 1464000   0.42140225   -2.3572049   0.63147127   -1.7257336   0.14090385    11094.997     1000 
 1466000   0.43269422   -2.3890205   0.64839229   -1.7406282   0.12662841    11418.466     1000 
 1468000   0.42833346   -2.4408164   0.64185769   -1.7989588   0.12847838    11366.846     1000 
 1470000   0.44247803   -2.4482799   0.66305332   -1.7852266   0.11700062    11439.636     1000 
 1472000   0.43450688   -2.4190764   0.65110856   -1.7679678   0.12664457    11450.414     1000 
 1474000     0.441216   -2.4465434   0.66116217   -1.7853813   0.12363428    11373.193     1000 
 1476000   0.42651667   -2.4338735   0.63913523   -1.7947383   0.11512771    11326.004     1000 
 1478000   0.42493203   -2.4091549   0.63676065   -1.7723942   0.12196154     11278.59     1000 
 1480000    0.4303937   -2.4149103   0.64494497   -1.7699653   0.13242773    11354.978     1000 
 1482000   0.41360699   -2.4071797   0.61979008   -1.7873896   0.13061036    11276.207     1000 
 1484000   0.42743122   -2.3787868   0.64050568   -1.7382812   0.14676272    11189.544     1000 
 1486000   0.45168639   -2.3852044   0.67685206   -1.7083524   0.13688614    11203.874     1000 
 1488000   0.43400967   -2.4080446   0.65036349   -1.7576811   0.12095517    11293.167     1000 
 1490000   0.42646843   -2.4211014   0.63906295   -1.7820385   0.12287423    11416.997     1000 
 1492000   0.43755143    -2.403914   0.65567082   -1.7482432   0.13380032    11308.286     1000 
 1494000   0.44369767   -2.4299363   0.66488095   -1.7650554   0.11349456    11443.402     1000 
 1496000   0.45765164    -2.455133   0.68579098    -1.769342   0.12609083    11359.259     1000 
 1498000   0.44203828   -2.3693429   0.66239436   -1.7069486   0.13064846    11376.926     1000 
 1500000   0.42951741   -2.3918268   0.64363183    -1.748195    0.1252242    11307.492     1000 
 1502000   0.42916887   -2.4032438   0.64310955   -1.7601342   0.14373474    11282.532     1000 
 1504000   0.42990278   -2.4235872   0.64420932   -1.7793778   0.11809426     11385.38     1000 
 1506000   0.43375274   -2.4254186   0.64997848   -1.7754402    0.1245402    11393.053     1000 
 1508000   0.41709515   -2.3606172   0.62501709   -1.7356001   0.13672651    11248.735     1000 
 1510000   0.44489262    -2.360395   0.66667158   -1.6937234   0.15072473    11136.943     1000 
 1512000   0.44334234   -2.3825105    0.6643485    -1.718162   0.15422136    11180.001     1000 
 1514000   0.43342365   -2.3902739   0.64948534   -1.7407886   0.14219196    11222.501     1000 
 1516000   0.41781843   -2.4130347   0.62610092   -1.7869338   0.12640813    11241.551     1000 
 1518000   0.43486989   -2.4431768   0.65165253   -1.7915243   0.12621026    11302.792     1000 
 1520000   0.43296995   -2.4085333   0.64880546   -1.7597279   0.12549557    11332.795     1000 
 1522000   0.43141563    -2.441956   0.64647632   -1.7954796   0.13690976    11263.706     1000 
 1524000   0.42214875   -2.3897787    0.6325899   -1.7571888   0.12370689    11295.674     1000 
 1526000   0.42865936   -2.3683939   0.64234605   -1.7260479   0.14019754    11127.631     1000 
 1528000   0.42182582    -2.314118   0.63210599    -1.682012    0.1294329    11257.664     1000 
 1530000   0.44050551   -2.3554044   0.66009751   -1.6953069   0.13269451    11247.027     1000 
 1532000   0.42532951   -2.3773736   0.63735628   -1.7400173   0.13950437    11208.456     1000 
 1534000   0.42159724   -2.4190755   0.63176347    -1.787312   0.12523052    11327.069     1000 
 1536000   0.44092364   -2.4455466   0.66072407   -1.7848226   0.11323061    11436.894     1000 
 1538000   0.43816408   -2.4290854   0.65658887   -1.7724966   0.12028272    11352.843     1000 
 1540000   0.42569349    -2.416995    0.6379017   -1.7790933   0.13092115     11305.64     1000 
 1542000   0.42896671   -2.4168555   0.64280661   -1.7740489   0.13708579    11302.967     1000 
 1544000   0.41103909   -2.4028883   0.61594208   -1.7869462   0.12947863    11224.199     1000 
 1546000   0.41897377   -2.3750268    0.6278322   -1.7471946   0.13299548    11332.861     1000 
 1548000   0.42399992   -2.3930907   0.63536389   -1.7577268   0.13683157    11227.484     1000 
 1550000   0.43879423   -2.4487094   0.65753316   -1.7911762   0.12267549    11424.465     1000 
 1552000   0.43423372   -2.4077586   0.65069923   -1.7570594    0.1407062    11214.982     1000 
 1554000   0.43548934   -2.4143234   0.65258077   -1.7617426    0.1298794    11298.556     1000 
 1556000   0.44072536   -2.4440925   0.66042695   -1.7836656    0.1384599    11390.697     1000 
 1558000   0.43267323   -2.3589178   0.64836084   -1.7105569    0.1281475    11287.718     1000 
 1560000   0.43740009   -2.3522415   0.65544403   -1.6967975   0.13171566    11235.941     1000 
 1562000   0.43888537    -2.331614   0.65766973   -1.6739442   0.12281004    11269.152     1000 
 1564000   0.43151457   -2.4400713   0.64662458   -1.7934467   0.13054139    11366.887     1000 
 1566000   0.44204865   -2.3814403    0.6624099   -1.7190304   0.13576574    11202.669     1000 
 1568000   0.42127118   -2.4470962   0.63127486   -1.8158213   0.10979809    11517.531     1000 
 1570000   0.41065398   -2.4117145   0.61536498   -1.7963496   0.12808643    11245.413     1000 
 1572000   0.41496532   -2.3732244   0.62182553   -1.7513989   0.11660866    11212.493     1000 
 1574000   0.41836792   -2.4285557   0.62692432   -1.8016313   0.13594159     11359.32     1000 
 1576000   0.42612512   -2.4025276   0.63854849   -1.7639791   0.13022163    11279.195     1000 
 1578000   0.44313158   -2.4126689   0.66403268   -1.7486362   0.13112917    11260.987     1000 
 1580000   0.44468151   -2.3794998   0.66635525   -1.7131446   0.13506806    11280.083     1000 
 1582000   0.41694605   -2.4222756   0.62479366   -1.7974819    0.1246673    11346.581     1000 
 1584000   0.42727214   -2.4086562   0.64026731   -1.7683889   0.14024412     11208.17     1000 
 1586000   0.44047229   -2.3653927   0.66004773    -1.705345   0.13122437    11125.018     1000 
 1588000   0.42939883   -2.3902634   0.64345414   -1.7468092   0.12962101    11407.622     1000 
[...]
 2614000   0.40255291   -2.4173246   0.60322554    -1.814099   0.12689537    11445.215     1000 
 2616000   0.41997202    -2.382666   0.62932807   -1.7533379   0.13521389    11168.592     1000 
 2618000    0.4481849    -2.411913   0.67160507   -1.7403079   0.12463011    11414.946     1000 
 2620000   0.42965062   -2.4460892   0.64383146   -1.8022577   0.13306265    11282.656     1000 
 2622000   0.44801218   -2.3894616   0.67134625   -1.7181153   0.12986496    11260.917     1000 
 2624000   0.41730581   -2.3847399   0.62533275   -1.7594072   0.12944526    11302.316     1000 
 2626000    0.4417431   -2.4023582   0.66195203   -1.7404062   0.12888237    11398.723     1000 
 2628000   0.44793241    -2.392172   0.67122671   -1.7209453   0.11723605     11493.42     1000 
 2630000   0.42303155   -2.3988361   0.63391278   -1.7649233   0.13717984    11214.588     1000 
 2632000   0.44322876   -2.3669474    0.6641783   -1.7027691   0.13363893    11244.517     1000 
 2634000    0.4113211   -2.4088123   0.61636468   -1.7924476   0.13119774    11309.373     1000 
 2636000   0.41610582   -2.4080883   0.62353458   -1.7845537   0.14104856    11126.162     1000 
 2638000   0.43946279   -2.4038866   0.65853499   -1.7453516   0.12640212    11328.365     1000 
 2640000    0.4380201   -2.3507293   0.65637311   -1.6943562   0.14234767    11048.061     1000 
 2642000   0.43502926   -2.3648324   0.65189134   -1.7129411   0.13940528    11124.108     1000 
 2644000   0.42391977   -2.3240147   0.63524378    -1.688771   0.12790144    11223.497     1000 
 2646000   0.43250015   -2.3816628   0.64810148   -1.7335613   0.12389984    11322.156     1000 
 2648000   0.42551866   -2.3340825   0.63763971   -1.6964428   0.12421199    11310.213     1000 
 2650000   0.45068873   -2.3973381   0.67535706    -1.721981   0.14176844     11276.19     1000 
 2652000   0.41568818   -2.4338239   0.62290874   -1.8109151    0.1255091    11488.715     1000 
 2654000   0.44485947   -2.3540986   0.66662192   -1.6874767   0.13850465    11138.124     1000 
 2656000   0.43065112   -2.3388199    0.6453307   -1.6934892   0.13100716    11143.758     1000 
 2658000   0.43289576   -2.3546972    0.6486943   -1.7060029   0.12348495    11378.698     1000 
 2660000   0.42286813   -2.4021365   0.63366789   -1.7684686   0.12742191    11311.327     1000 
 2662000   0.43199166   -2.3834407   0.64733951   -1.7361012   0.12634688    11318.189     1000 
 2664000   0.44745002   -2.4004197   0.67050386   -1.7299158   0.12503692    11307.961     1000 
 2666000   0.43740774   -2.4173432   0.65545549   -1.7618877   0.12868495    11253.566     1000 
 2668000     0.429877   -2.3969295   0.64417068   -1.7527588   0.12851868    11392.784     1000 
 2670000   0.44652893   -2.3856038    0.6691236   -1.7164802   0.12068446    11279.413     1000 
 2672000   0.41535107   -2.4240002   0.62240357   -1.8015966   0.13227005    11285.349     1000 
 2674000   0.42170824   -2.4130746    0.6319298   -1.7811448   0.12285973    11405.997     1000 
 2676000   0.41633899   -2.3666619   0.62388397   -1.7427779   0.13016656    11359.255     1000 
 2678000   0.44294874    -2.440729   0.66375869   -1.7769703   0.12540167    11405.498     1000 
 2680000   0.43239207   -2.4180119   0.64793952   -1.7700724   0.13423407    11323.386     1000 
 2682000   0.42301621   -2.3560586   0.63388979   -1.7221688   0.12334534    11235.191     1000 
 2684000   0.47035899   -2.3522628   0.70483295   -1.6474299    0.1479272    11190.052     1000 
 2686000   0.43462611   -2.3976979   0.65128722   -1.7464106   0.13516751    11248.089     1000 
 2688000   0.43793009   -2.4089267   0.65623824   -1.7526884    0.1168477    11521.013     1000 
 2690000   0.43078629   -2.4645547   0.64553326   -1.8190214   0.13061591    11322.802     1000 
 2692000   0.41633874   -2.3993346    0.6238836    -1.775451   0.13044802    11295.727     1000 
 2694000   0.44439031   -2.4064559   0.66591889    -1.740537   0.13001301     11252.73     1000 
 2696000   0.43840457    -2.396453   0.65694924   -1.7395038   0.13911054    11177.485     1000 
 2698000   0.42630282   -2.3696702   0.63881477   -1.7308554   0.12147064    11331.926     1000 
 2700000   0.41619156   -2.4169247   0.62366306   -1.7932617   0.12815666    11309.505     1000 
 2702000   0.41532174   -2.3766754   0.62235962   -1.7543158   0.14209471    11145.169     1000 
 2704000   0.42203878   -2.4191756   0.63242511   -1.7867505   0.14023212    11299.832     1000 
 2706000   0.44416656   -2.4225313   0.66558359   -1.7569477   0.14353335    11227.563     1000 
 2708000   0.43119712   -2.4513978   0.64614888   -1.8052489   0.12853346    11419.278     1000 
 2710000   0.42613424   -2.4188402   0.63856216    -1.780278   0.11598594     11355.91     1000 
 2712000   0.43986373   -2.3843583    0.6591358   -1.7252225   0.13321022    11253.825     1000 
 2714000   0.41930912   -2.4281994   0.62833471   -1.7998647   0.14389042    11166.018     1000 
 2716000   0.43358886   -2.4526155   0.64973291   -1.8028826   0.12458521    11369.551     1000 
 2718000   0.42877706   -2.4404589   0.64252243   -1.7979365   0.12772446    11342.109     1000 
 2720000   0.44013974   -2.3667265    0.6595494   -1.7071771   0.13419093    11269.938     1000 
 2722000   0.43285377   -2.3875687   0.64863137   -1.7389373   0.13853476    11224.956     1000 
 2724000   0.43116428   -2.3752671   0.64609967   -1.7291674   0.13865175    11190.483     1000 
 2726000   0.42633379   -2.3914772   0.63886118    -1.752616   0.14340014    11139.697     1000 
 2728000   0.44186834   -2.4163165   0.66213971   -1.7541768   0.12809519    11296.516     1000 
 2730000   0.43472436   -2.4227767   0.65143446   -1.7713422   0.12564937    11376.163     1000 
 2732000   0.41885928   -2.3769876   0.62766063   -1.7493269    0.1295928    11223.293     1000 
 2734000   0.42346422    -2.407561   0.63456113   -1.7729998    0.1331875    11285.873     1000 
 2736000   0.42907997   -2.3891016   0.64297634   -1.7461253   0.13203993    11241.025     1000 
 2738000   0.42973341   -2.3647002   0.64395552   -1.7207447    0.1241231     11439.07     1000 
 2740000   0.42447352   -2.3901262   0.63607357   -1.7540526   0.11977096     11296.32     1000 
 2742000   0.43180965   -2.4050968   0.64706676   -1.7580301   0.12775053    11333.065     1000 
 2744000   0.43912007   -2.3838837   0.65802143   -1.7258623   0.12772799    11228.441     1000 
 2746000   0.43403381   -2.3963618   0.65039966   -1.7459621   0.11870642    11349.217     1000 
 2748000   0.43222123   -2.4202357   0.64768352   -1.7725522   0.12844509    11316.795     1000 
 2750000   0.44240232    -2.378861   0.66293988   -1.7159211   0.12933448    11315.785     1000 
 2752000   0.42541853   -2.4027319   0.63748966   -1.7652422   0.11767634    11381.673     1000 
 2754000   0.43120852    -2.408781   0.64616597    -1.762615   0.14768965    11135.784     1000 
 2756000   0.43275993   -2.4408507   0.64849075   -1.7923599   0.12904812    11295.167     1000 
 2758000   0.43478389   -2.4498542   0.65152366   -1.7983306   0.13623539    11410.888     1000 
 2760000   0.41246958   -2.3858141   0.61808566   -1.7677285   0.12738327    11280.829     1000 
 2762000   0.44268924   -2.3808576   0.66336983   -1.7174878   0.12703593    11260.347     1000 
 2764000   0.43254412   -2.3244387   0.64816737   -1.6762713   0.11753836    11283.301     1000 
 2766000   0.41295765   -2.3581975   0.61881704   -1.7393804    0.1315912    11281.037     1000 
 2768000   0.43936352   -2.3756647   0.65838623   -1.7172785   0.12590729    11299.851     1000 
 2770000    0.4396961   -2.3914134    0.6588846   -1.7325288   0.12402806    11402.475     1000 
 2772000   0.43541794   -2.4324807   0.65247379   -1.7800069    0.1377585    11262.132     1000 
 2774000   0.43758185   -2.3903038   0.65571641   -1.7345874   0.14150891    11205.274     1000 
 2776000   0.44366665   -2.4322166   0.66483448   -1.7673822   0.12912878    11390.124     1000 
 2778000   0.44147909   -2.4059312   0.66155642   -1.7443748   0.14525774    11122.246     1000 
 2780000   0.42303113   -2.4171948   0.63391215   -1.7832826   0.13006636    11309.366     1000 
 2782000    0.4323385   -2.4064132   0.64785924    -1.758554   0.12046455     11374.92     1000 
 2784000    0.4398703   -2.4160296   0.65914565    -1.756884   0.12600136    11406.076     1000 
 2786000   0.44528656   -2.4029147   0.66726191   -1.7356528   0.11737369    11241.785     1000 
 2788000   0.42990686   -2.3947385   0.64421543   -1.7505231   0.12467984    11333.993     1000 
 2790000   0.42955678   -2.3933847   0.64369083   -1.7496938   0.13360137     11160.01     1000 
 2792000    0.4221068   -2.3902493   0.63252705   -1.7577222   0.13627444     11287.08     1000 
 2794000   0.43262765   -2.4483552   0.64829254   -1.8000626   0.12137236    11410.138     1000 
 2796000   0.43414844   -2.3926055   0.65057144    -1.742034   0.12774541    11383.006     1000 
 2798000   0.43315037   -2.3965434   0.64907583   -1.7474676   0.12723893    11295.847     1000 
 2800000   0.42164596   -2.3631139   0.63183646   -1.7312775   0.11887431    11329.387     1000 
 2802000   0.42676944   -2.4153428   0.63951401   -1.7758288   0.11489495    11411.206     1000 
 2804000   0.43466749   -2.3829849   0.65134923   -1.7316357    0.1305158    11301.349     1000 
 2806000   0.42530022   -2.3616422   0.63731238   -1.7243299   0.13231191    11159.757     1000 
 2808000   0.41180082   -2.3649144   0.61708353   -1.7478309    0.1369375    11097.845     1000 
 2810000   0.42183292   -2.3789592   0.63211663   -1.7468426   0.13166977    11254.898     1000 
 2812000   0.42653586   -2.3954033   0.63916399   -1.7562394    0.1347774    11286.101     1000 
 2814000   0.41462298   -2.4201064   0.62131253   -1.7987939   0.12029417      11346.5     1000 
 2816000   0.44059671   -2.3821579   0.66023417   -1.7219238   0.12999105    11278.146     1000 
 2818000   0.44185849   -2.4220325   0.66212494   -1.7599076   0.12844441    11279.844     1000 
 2820000   0.43254766   -2.3902206   0.64817267   -1.7420479   0.15067058    11159.001     1000 
 2822000    0.4043747   -2.4494987   0.60595549   -1.8435432   0.13870276    11206.489     1000 
 2824000   0.43669938   -2.4241406   0.65439403   -1.7697466   0.14047235    11168.973     1000 
 2826000   0.41274103   -2.3809254   0.61849244   -1.7624329   0.12838705    11314.167     1000 
 2828000    0.4397841   -2.4023687   0.65901648   -1.7433522   0.13502268    11258.526     1000 
 2830000   0.42628262   -2.4104507   0.63878451   -1.7716662   0.12484311    11219.475     1000 
 2832000   0.43612007    -2.496664   0.65352592    -1.843138   0.12268072    11364.778     1000 
 2834000   0.44253195   -2.3778673   0.66313413   -1.7147331   0.13885945    11199.482     1000 
 2836000   0.42938582   -2.4058162   0.64343466   -1.7623816   0.14016873    11343.864     1000 
 2838000   0.41243482   -2.3747715   0.61803357   -1.7567379   0.12499978    11301.205     1000 
 2840000    0.4254317   -2.3576586    0.6375094   -1.7201492   0.13462391    11030.026     1000 
 2842000   0.42378326   -2.4144498   0.63503922   -1.7794106    0.1228554    11346.328     1000 
 2844000   0.43079759   -2.3972283   0.64555019   -1.7516781   0.13799478    11314.222     1000 
 2846000   0.43156287   -2.3841816   0.64669696   -1.7374847   0.13059165     11182.29     1000 
 2848000   0.43213973   -2.3937357   0.64756138   -1.7461743   0.12177962    11487.714     1000 
 2850000   0.43745252   -2.4316719    0.6555226   -1.7761493   0.14572076    11176.622     1000 
 2852000   0.44908601   -2.4206567   0.67295539   -1.7477013   0.14020365    11302.867     1000 
 2854000   0.43342125   -2.3981212   0.64948174   -1.7486395   0.15150955     11116.51     1000 
 2856000   0.43567132   -2.4417024   0.65285348    -1.788849   0.13811269    11271.283     1000 
 2858000   0.42907287   -2.4213343   0.64296569   -1.7783686   0.12398166     11266.18     1000 
 2860000   0.46110705   -2.4255301   0.69096892   -1.7345612   0.14017043    11294.067     1000 
 2862000    0.4311093   -2.4325078   0.64601728   -1.7864905   0.12474054    11413.887     1000 
 2864000   0.43545772    -2.389773   0.65253339   -1.7372396   0.12886125    11208.261     1000 
 2866000    0.4473455   -2.4581739   0.67034723   -1.7878266    0.1408622     11368.59     1000 
 2868000    0.4200716   -2.4052773   0.62947729      -1.7758   0.13412673    11205.136     1000 
 2870000   0.44231431   -2.4045203     0.662808   -1.7417123   0.13012132    11353.234     1000 
 2872000   0.43437526   -2.3804821   0.65091133   -1.7295708   0.13703509    11150.902     1000 
 2874000   0.42690951   -2.3872832    0.6397239   -1.7475593   0.12149845    11301.693     1000 
 2876000   0.45719855   -2.3868441   0.68511203   -1.7017321   0.12231626    11352.083     1000 
 2878000   0.43908742   -2.3686477   0.65797251   -1.7106752   0.14204332    11212.837     1000 
 2880000    0.4310501   -2.4126247   0.64592857   -1.7666961    0.1328643    11265.052     1000 
 2882000   0.42713837   -2.3664002   0.64006685   -1.7263334    0.1371062    11125.559     1000 
 2884000   0.44267628   -2.3622071   0.66335041   -1.6988567   0.11300988    11326.822     1000 
 2886000   0.42192658   -2.3564058   0.63225698   -1.7241488   0.14295216    11120.608     1000 
 2888000   0.42791161   -2.4185861   0.64122554   -1.7773606    0.1234061    11351.182     1000 
 2890000    0.4379932   -2.4372553   0.65633281   -1.7809225    0.1414377     11302.42     1000 
 2892000   0.42119439   -2.4342784   0.63115979   -1.8031186    0.1304108     11301.79     1000 
 2894000   0.42962826   -2.3931033   0.64379795   -1.7493054   0.13244271    11206.839     1000 
 2896000   0.42370318   -2.3963176   0.63491922   -1.7613984   0.12157158    11331.108     1000 
 2898000    0.4276993    -2.338901    0.6409074   -1.6979936   0.13043829    11268.027     1000 
 2900000   0.43942509   -2.3595353    0.6584785   -1.7010568   0.13006105    11266.323     1000 
 2902000   0.42143182   -2.3771509   0.63151558   -1.7456353   0.13487187    11207.376     1000 
 2904000   0.43285863   -2.3831947   0.64863865   -1.7345561   0.15147786      11122.4     1000 
 2906000   0.43542696   -2.4097847    0.6524873   -1.7572974   0.14077525    11269.024     1000 
 2908000   0.44225578   -2.4357984   0.66272028   -1.7730781   0.12417726    11525.303     1000 
 2910000   0.42848655   -2.4188152    0.6420871   -1.7767281   0.12692786    11277.501     1000 
 2912000   0.41469541   -2.4206557   0.62142107   -1.7992346   0.13063314    11299.562     1000 
 2914000   0.40770798   -2.4239275   0.61095041   -1.8129771   0.13094212    11268.325     1000 
 2916000   0.42267879   -2.3779194   0.63338416   -1.7445352   0.12608147    11321.202     1000 
 2918000   0.42550134   -2.4262196   0.63761376   -1.7886059   0.13316456    11316.312     1000 
 2920000   0.43429015     -2.41699   0.65078379   -1.7662062    0.1296026    11395.032     1000 
 2922000   0.42490142   -2.4271031   0.63671478   -1.7903883   0.11330191    11398.805     1000 
 2924000   0.41886686   -2.4103743     0.627672   -1.7827023   0.12859718    11342.255     1000 
 2926000   0.41075636   -2.4370035    0.6155184   -1.8214851    0.1228528    11324.091     1000 
 2928000   0.41089531   -2.4000954   0.61572663   -1.7843687    0.1307775    11231.866     1000 
 2930000   0.43721879   -2.4155593   0.65517235   -1.7603869   0.14114231    11132.943     1000 
 2932000   0.39950651   -2.4214541    0.5986605   -1.8227936    0.1336957    11343.135     1000 
 2934000   0.40378346   -2.4014732   0.60506952   -1.7964036   0.12300732    11326.117     1000 
 2936000   0.43765748   -2.3921347   0.65582973   -1.7363049   0.12934163    11193.825     1000 
 2938000   0.43432198   -2.4459074   0.65083149   -1.7950759   0.12217499    11309.326     1000 
 2940000   0.42720654   -2.4417444   0.64016901   -1.8015754   0.12523065    11363.907     1000 
 2942000   0.42898157   -2.3973574   0.64282888   -1.7545285   0.12910446    11287.149     1000 
 2944000   0.43123001   -2.4230353   0.64619817   -1.7768371   0.12522912    11300.114     1000 
 2946000   0.44280966   -2.3976504   0.66355027   -1.7341001   0.14814152    11332.769     1000 
 2948000   0.43177201   -2.3784375   0.64701035   -1.7314271   0.13094183    11223.935     1000 
 2950000    0.4309496   -2.4287662   0.64577798   -1.7829882   0.12815312    11420.792     1000 
 2952000   0.43249848   -2.4069511   0.64809897   -1.7588522   0.14268727    11379.089     1000 
 2954000   0.42284119   -2.4091208   0.63362752   -1.7754933   0.11377483    11365.063     1000 
 2956000   0.42257929   -2.3611458   0.63323506   -1.7279108   0.14080536    11160.787     1000 
 2958000   0.43245262   -2.3900825   0.64803025   -1.7420523   0.13098308    11295.832     1000 
 2960000   0.42896465    -2.377761   0.64280352   -1.7349575   0.13585636    11237.173     1000 
 2962000   0.43057113   -2.3904159   0.64521084   -1.7452051   0.11881488    11252.898     1000 
 2964000   0.43563167   -2.4301554   0.65279405   -1.7773613   0.12934228    11387.724     1000 
 2966000   0.42373889   -2.3956801   0.63497272   -1.7607074   0.12430527    11347.986     1000 
 2968000   0.41790304   -2.4340646    0.6262277   -1.8078369   0.13777238     11223.26     1000 
 2970000   0.44198405   -2.4265873   0.66231309   -1.7642742   0.12614583    11353.426     1000 
 2972000   0.44194073   -2.3912653   0.66224819   -1.7290171    0.1298407    11198.525     1000 
 2974000   0.43662287   -2.4052059   0.65427937   -1.7509265   0.13393745    11281.739     1000 
 2976000   0.42048131   -2.3881053   0.63009124   -1.7580141   0.12702335     11173.76     1000 
 2978000   0.43802326   -2.4099443   0.65637786   -1.7535665   0.13372197    11184.181     1000 
 2980000   0.44375112   -2.4598677   0.66496106   -1.7949066   0.12268685    11379.571     1000 
 2982000   0.43656892      -2.3682   0.65419853   -1.7140015   0.12591582    11195.594     1000 
 2984000   0.41583075   -2.3866654   0.62312239    -1.763543   0.12052404    11421.646     1000 
 2986000   0.44117366   -2.4090793   0.66109872   -1.7479806   0.12505752    11460.927     1000 
 2988000   0.43922537   -2.3743602   0.65817922   -1.7161809   0.11611358    11373.438     1000 
 2990000   0.42631147   -2.3833995   0.63882774   -1.7445718   0.14181826    11321.583     1000 
 2992000   0.42739038   -2.3859767   0.64044449   -1.7455322   0.12742013    11274.526     1000 
 2994000   0.43878404    -2.397012   0.65751789   -1.7394941   0.11585828     11449.65     1000 
 2996000   0.43717489   -2.3579215   0.65510657   -1.7028149   0.12734649    11195.857     1000 
 2998000   0.41718589   -2.3977992   0.62515305   -1.7726461   0.13967229    11251.906     1000 
 3000000    0.4362778   -2.3765827   0.65376229   -1.7228204   0.13382132    11329.564     1000 
Loop time of 7418.52 on 1 procs for 3000000 steps with 1000 atoms

Performance: 174697.995 tau/day, 404.394 timesteps/s
100.0% CPU use with 1 MPI tasks x 1 OpenMP threads

MPI task timing breakdown:
Section |  min time  |  avg time  |  max time  |%varavg| %total
---------------------------------------------------------------
Pair    | 6702.3     | 6702.3     | 6702.3     |   0.0 | 90.34
Neigh   | 567.73     | 567.73     | 567.73     |   0.0 |  7.65
Comm    | 61.514     | 61.514     | 61.514     |   0.0 |  0.83
Output  | 0.028081   | 0.028081   | 0.028081   |   0.0 |  0.00
Modify  | 76.033     | 76.033     | 76.033     |   0.0 |  1.02
Other   |            | 10.96      |            |       |  0.15

Nlocal:        1000.00 ave        1000 max        1000 min
Histogram: 1 0 0 0 0 0 0 0 0 0
Nghost:        6037.00 ave        6037 max        6037 min
Histogram: 1 0 0 0 0 0 0 0 0 0
Neighs:        201189.0 ave      201189 max      201189 min
Histogram: 1 0 0 0 0 0 0 0 0 0

Total # of neighbors = 201189
Ave neighs/atom = 201.18900
Neighbor list builds = 150000
Dangerous builds not checked

Total wall time: 2:03:38
