LAMMPS (3 Mar 2020)
# ----------------------- Inicialização -----------------------

units			lj
atom_style 		atomic
dimension 		3
boundary 		p p p

# -------------------- Criação dos Átomos ---------------------

read_data 		topologia.txt
  orthogonal box = (0 0 0) to (21.54 21.54 21.54)
  1 by 2 by 2 MPI processor grid
  reading atoms ...
  1000 atoms
  read_data CPU = 0.00139119 secs

velocity 		all create ${temp} 87287 rot yes dist gaussian
velocity 		all create 0.48 87287 rot yes dist gaussian

# ------------------ Interação Interatômica -------------------

pair_style		table linear 1600
pair_coeff		1 1 force.table AA 8.0
WARNING: 3 of 1600 force values in table are inconsistent with -dE/dr.
  Should only be flagged at inflection points (src/pair_table.cpp:483)
pair_coeff		1 2 force.table AB 8.0
WARNING: 1 of 1600 force values in table are inconsistent with -dE/dr.
  Should only be flagged at inflection points (src/pair_table.cpp:483)
pair_coeff		2 2 force.table BB 8.0
pair_write		1 1 1600 r 0.008 8.0 table.check AA
Neighbor list info ...
  update every 1 steps, delay 10 steps, check yes
  max neighbors/atom: 2000, page size: 100000
  master list distance cutoff = 8.3
  ghost atom cutoff = 8.3
  binsize = 4.15, bins = 6 6 6
  1 neighbor lists, perpetual/occasional/extra = 1 0 0
  (1) pair table, perpetual
      attributes: half, newton on
      pair build: half/bin/atomonly/newton
      stencil: half/bin/3d/newton
      bin: standard
pair_write		1 2 1600 r 0.008 8.0 table.check AB
pair_write		2 2 1600 r 0.008 8.0 table.check BB

neighbor 		0.3 bin
neigh_modify		every 20 delay 0 check no

# ------------------------- Ensemble --------------------------------------

fix 1			all npt temp ${temp} ${temp} 0.5 iso ${press} ${press} 5
fix 1			all npt temp 0.48 ${temp} 0.5 iso ${press} ${press} 5
fix 1			all npt temp 0.48 0.48 0.5 iso ${press} ${press} 5
fix 1			all npt temp 0.48 0.48 0.5 iso 0.13 ${press} 5
fix 1			all npt temp 0.48 0.48 0.5 iso 0.13 0.13 5

# ---------------------- Função de Distribuição Radial -----------------------

#compute RDF 		all rdf 2000 1 1 1 2 2 2
#fix 2 			all ave/time 1 2000 2000 c_RDF[*] file rdf.data mode vector

# ------------------------- Execução ---------------------------

timestep 		0.005
thermo_style		custom step temp pe ke etotal press vol atoms
thermo			2000
run			3000000
Per MPI rank memory allocation (min/avg/max) = 2.675 | 2.675 | 2.675 Mbytes
Step Temp PotEng KinEng TotEng Press Volume Atoms 
       0         0.48   0.87934176      0.71928    1.5986218    1.2899783    9993.9483     1000 
    2000   0.46854123   -2.4420348   0.70210903   -1.7399257   0.12354034    11200.777     1000 
    4000   0.47631812   -2.3925005    0.7137627   -1.6787377   0.13832341    11098.202     1000 
    6000   0.48223892   -2.4946344   0.72263502   -1.7719994   0.11015284      11209.7     1000 
    8000   0.46930363   -2.4613223   0.70325149   -1.7580708    0.1320169    11059.061     1000 
   10000   0.47392584   -2.5113681   0.71017787   -1.8011902   0.12381614    11201.032     1000 
   12000   0.48561581   -2.4918976   0.72769529   -1.7642023   0.13048823    11176.703     1000 
   14000   0.46472356   -2.4660313   0.69638825   -1.7696431   0.13760531      11032.1     1000 
   16000   0.49511422   -2.4871848   0.74192865   -1.7452561   0.12099901    11155.284     1000 
   18000   0.47675611   -2.4478557   0.71441902   -1.7334367   0.13186966    11102.982     1000 
   20000   0.47995737   -2.4638739   0.71921611   -1.7446578   0.13433473    11106.988     1000 
   22000    0.4739993   -2.4862851   0.71028795   -1.7759972   0.14407262    11023.652     1000 
   24000   0.46403437   -2.4977921    0.6953555   -1.8024366    0.1261047    11187.841     1000 
   26000    0.4503766   -2.4927547   0.67488933   -1.8178653   0.12244731    11205.763     1000 
   28000   0.48369726   -2.4859926   0.72482034   -1.7611722   0.14072491    11063.475     1000 
   30000   0.47380329   -2.4872821   0.70999423   -1.7772878   0.12624139    11239.983     1000 
   32000   0.47361034   -2.5379084    0.7097051   -1.8282033   0.13285922    11167.561     1000 
   34000   0.48324895   -2.4728872   0.72414856   -1.7487386   0.13295007    11108.112     1000 
   36000   0.48359363   -2.5107438   0.72466506   -1.7860788   0.13139715    11029.361     1000 
   38000   0.48507432   -2.4560941   0.72688388   -1.7292102    0.1364492    11021.813     1000 
   40000   0.49138878     -2.46594   0.73634608   -1.7295939   0.13698153    11069.547     1000 
   42000   0.47910513   -2.4898058   0.71793903   -1.7718668   0.13235225    11107.312     1000 
   44000   0.47804375   -2.5114953   0.71634856   -1.7951468   0.12149959    11223.349     1000 
   46000   0.47764001    -2.504195   0.71574355   -1.7884515   0.14641819    11110.453     1000 
   48000   0.47701305   -2.4753898   0.71480405   -1.7605857   0.13929806     11015.75     1000 
   50000   0.46807248   -2.4597988   0.70140661   -1.7583922   0.12297248    11196.693     1000 
   52000    0.4792458   -2.4701581   0.71814984   -1.7520083   0.14299453    11009.808     1000 
   54000   0.46581422   -2.4912365    0.6980226   -1.7932139    0.1237548    11173.629     1000 
   56000   0.47425613   -2.4306709    0.7106728   -1.7199981   0.13221539    10968.485     1000 
   58000   0.45839596   -2.4631507   0.68690634   -1.7762444   0.11583808    11133.767     1000 
   60000   0.47825406   -2.5359589   0.71666371   -1.8192952   0.14816699    11108.909     1000 
   62000   0.48294912   -2.4891088   0.72369925   -1.7654095   0.12176555     11169.75     1000 
   64000   0.45917083   -2.5028939   0.68806749   -1.8148264   0.12128853    11174.818     1000 
   66000   0.45914311   -2.4498426   0.68802594   -1.7618166   0.12940635    11056.464     1000 
   68000   0.49042524   -2.4343854   0.73490222   -1.6994832   0.12321317    11107.024     1000 
   70000   0.49349261    -2.495184   0.73949868   -1.7556854   0.13477882    11066.983     1000 
   72000   0.48421026   -2.5083372   0.72558907   -1.7827481   0.12742428     11055.16     1000 
   74000   0.48096396   -2.4940097    0.7207245   -1.7732852   0.12370957      11219.9     1000 
   76000   0.49834225   -2.4715104   0.74676586   -1.7247445   0.14481798    10907.108     1000 
   78000   0.47958981   -2.4453848   0.71866533   -1.7267195   0.13323987    11007.367     1000 
   80000   0.48726572    -2.479547   0.73016768   -1.7493793    0.1325246    11155.279     1000 
   82000    0.4718783   -2.4905638   0.70710963   -1.7834542   0.11717768    11132.076     1000 
   84000   0.48255995   -2.4521044   0.72311609   -1.7289883   0.11173805    11053.424     1000 
   86000   0.48454442   -2.4586614   0.72608981   -1.7325716   0.12156134    11003.564     1000 
   88000   0.45905832   -2.5224258    0.6878989   -1.8345269   0.13583992    11138.392     1000 
   90000   0.48551627   -2.5073506   0.72754613   -1.7798044    0.1305364    11166.999     1000 
   92000   0.48344077   -2.4562145     0.724436   -1.7317785   0.12667721    11033.699     1000 
   94000   0.46461808   -2.4802883   0.69623019   -1.7840582   0.12757007     11229.51     1000 
   96000   0.49973908   -2.4365818   0.74885901   -1.6877228   0.11583948     11160.08     1000 
   98000   0.47133177   -2.4971396   0.70629066    -1.790849   0.13182189    11089.191     1000 
  100000   0.49930392   -2.5187737   0.74820692   -1.7705668   0.13622305    11028.296     1000 
  102000   0.49836808   -2.4823227   0.74680456   -1.7355181   0.13759012    11147.255     1000 
  104000   0.48570202   -2.4327073   0.72782448   -1.7048828   0.14515257     10974.33     1000 
  106000   0.50018811   -2.4852028   0.74953189   -1.7356709   0.12980262    11252.799     1000 
  108000   0.46820984   -2.4778395   0.70161244    -1.776227   0.13451443    11163.986     1000 
  110000   0.49450814   -2.5071741   0.74102045   -1.7661536   0.12307662     11171.22     1000 
  112000   0.47100599    -2.489757   0.70580248   -1.7839545   0.13533808    11026.853     1000 
  114000   0.48115219   -2.5004723   0.72100656   -1.7794657   0.12460367    11278.498     1000 
  116000   0.47747073   -2.4680621   0.71548989   -1.7525722    0.1361133    11149.457     1000 
  118000   0.48530827   -2.4744265   0.72723445    -1.747192   0.13572864    10974.006     1000 
  120000   0.47419967   -2.4656871   0.71058821   -1.7550988   0.12259684    11181.209     1000 
  122000    0.4724925    -2.428425   0.70803001    -1.720395   0.11734595    11067.442     1000 
  124000   0.51064654   -2.4617979   0.76520384   -1.6965941   0.13649732     11078.48     1000 
  126000   0.46331436   -2.4876489   0.69427657   -1.7933723   0.12919601    11120.197     1000 
  128000   0.49883514   -2.4908089   0.74750445   -1.7433045   0.12703889    11205.548     1000 
  130000   0.47974595   -2.4779612   0.71889931   -1.7590619    0.1267435    11099.363     1000 
  132000   0.49728994   -2.4959809   0.74518897   -1.7507919   0.13637211    11086.824     1000 
  134000   0.46828498   -2.4825563   0.70172504   -1.7808313   0.12051246    11135.366     1000 
  136000   0.46567253   -2.5044122   0.69781028   -1.8066019   0.12118394    11235.831     1000 
  138000   0.46490971   -2.4652095    0.6966672   -1.7685423   0.12971701        11100     1000 
  140000   0.48831286   -2.4767537   0.73173682   -1.7450169   0.12915716    11115.877     1000 
  142000   0.46739499   -2.4350981    0.7003914   -1.7347067    0.1287689    11045.292     1000 
  144000   0.46758399   -2.4542384   0.70067461   -1.7535638   0.12648384    11014.427     1000 
  146000     0.489229   -2.4369059   0.73310966   -1.7037962   0.11658659    10989.462     1000 
  148000    0.4802581   -2.5136046   0.71966677   -1.7939378   0.11789555    11141.618     1000 
  150000   0.46185245   -2.4387964   0.69208589   -1.7467105   0.12201805    11063.425     1000 
  152000   0.48465515   -2.4630409   0.72625574   -1.7367851   0.14131613    10925.496     1000 
  154000   0.47441139   -2.4518308   0.71090547   -1.7409253   0.13338863    11015.258     1000 
  156000   0.47975725   -2.4505547   0.71891624   -1.7316385   0.12120888    11138.609     1000 
  158000   0.48508711   -2.4581922   0.72690303   -1.7312891   0.14075647    11015.924     1000 
  160000   0.45821512   -2.4405339   0.68663536   -1.7538985    0.1439345     10824.07     1000 
  162000   0.48001716   -2.4935148   0.71930572    -1.774209   0.11686286    11225.725     1000 
  164000   0.49853919   -2.4437716   0.74706098   -1.6967106   0.13529739    11061.461     1000 
  166000   0.46986095   -2.5109628   0.70408664   -1.8068762   0.10937334    11310.168     1000 
  168000   0.48169497   -2.4917846   0.72181991   -1.7699647   0.12226664    11029.997     1000 
  170000   0.48590659    -2.512738   0.72813103    -1.784607   0.15010502    10993.519     1000 
  172000   0.47858853   -2.5151302   0.71716492   -1.7979653   0.13292138     11164.36     1000 
  174000   0.48477233   -2.4839931   0.72643134   -1.7575618   0.11376908    11185.779     1000 
  176000   0.47216263   -2.4491159   0.70753571   -1.7415802   0.13011931    11108.146     1000 
  178000   0.48048461   -2.4757378    0.7200062   -1.7557316   0.14459294    11004.023     1000 
  180000   0.48424234   -2.4377153   0.72563715   -1.7120781   0.15065205    11075.068     1000 
  182000   0.46201011   -2.4272106   0.69232214   -1.7348884   0.14954645     10888.62     1000 
  184000   0.48477625   -2.5078401   0.72643721   -1.7814029   0.14252124     11052.05     1000 
  186000   0.47446893   -2.4657886    0.7109917   -1.7547969    0.1279632    11027.993     1000 
  188000   0.48620607   -2.4628381    0.7285798   -1.7342583   0.12666233    11042.398     1000 
  190000   0.47170588   -2.4568766   0.70685126   -1.7500254   0.13368706    11058.909     1000 
  192000   0.46510178    -2.452909   0.69695501    -1.755954   0.12905927    10974.344     1000 
  194000   0.47468797   -2.5001564   0.71131992   -1.7888365   0.11506655    11319.009     1000 
  196000   0.46797575   -2.4675317   0.70126166   -1.7662701   0.13652658    10943.527     1000 
  198000   0.46004274   -2.4797213   0.68937405   -1.7903472   0.11440919    11139.208     1000 
  200000   0.48947935   -2.4357711   0.73348481   -1.7022863   0.14010111    11102.591     1000 
  202000   0.47001915   -2.5249474    0.7043237   -1.8206237   0.12422498    11366.818     1000 
  204000   0.51201449   -2.4538442   0.76725371   -1.6865905   0.11723337    11163.883     1000 
  206000   0.49486856   -2.4997163   0.74156053   -1.7581557   0.14188115    11123.902     1000 
  208000   0.48145879    -2.459657     0.721466    -1.738191   0.11724542    11174.164     1000 
  210000   0.49788998   -2.5008306   0.74608813   -1.7547425   0.14437912    11132.135     1000 
  212000   0.48648343   -2.4805245   0.72899542   -1.7515291   0.13552759    11047.017     1000 
  214000   0.48473729   -2.5042581   0.72637883   -1.7778793   0.13825954    10953.114     1000 
  216000   0.49093076   -2.4640162   0.73565974   -1.7283565   0.13041346    10988.541     1000 
  218000   0.48950257   -2.5032775    0.7335196   -1.7697579   0.13066935    11270.121     1000 
  220000   0.48548524   -2.5094895   0.72749962   -1.7819898   0.12425582    11276.545     1000 
  222000   0.48214488   -2.4587645   0.72249411   -1.7362704   0.14528209    11094.275     1000 
  224000   0.46537529   -2.4758814   0.69736488   -1.7785166   0.12543509    11154.238     1000 
  226000   0.47463503   -2.4647017   0.71124059   -1.7534611    0.1186452    11018.641     1000 
  228000   0.48513047   -2.4637677   0.72696801   -1.7367997   0.12769653    11032.967     1000 
  230000   0.46199665    -2.443426   0.69230198    -1.751124   0.12554233    11055.042     1000 
  232000   0.48225031   -2.4478943   0.72265208   -1.7252422   0.13921702    11021.249     1000 
  234000   0.46985715   -2.5119311   0.70408095   -1.8078502    0.1230276    11247.819     1000 
  236000   0.48722792   -2.4541327   0.73011104   -1.7240217   0.13142271    11069.326     1000 
  238000   0.48241609   -2.4601004   0.72290051   -1.7371999   0.12465743    11099.124     1000 
  240000   0.48828711   -2.4807423   0.73169824   -1.7490441   0.14121977    11048.047     1000 
  242000   0.44638429   -2.5123838   0.66890685   -1.8434769   0.13081027    11038.133     1000 
  244000    0.4984708   -2.5126617    0.7469585   -1.7657032    0.1428117    10996.205     1000 
  246000   0.48605998     -2.54007   0.72836087   -1.8117091   0.12380743    11144.766     1000 
  248000   0.45318598   -2.4957223   0.67909919   -1.8166231   0.13807374    11102.254     1000 
  250000   0.49037657    -2.477145    0.7348293   -1.7423157   0.14084246    10997.299     1000 
  252000    0.5056264   -2.4967147   0.75768116   -1.7390335   0.14542958    10898.194     1000 
  254000    0.4877097   -2.4880595   0.73083298   -1.7572266   0.12763168    11121.363     1000 
  256000   0.47472887    -2.471277   0.71138122   -1.7598958   0.12673484    11149.787     1000 
  258000   0.48232071   -2.4878286   0.72275758   -1.7650711   0.12841958    11202.503     1000 
  260000    0.4889138   -2.4853536   0.73263734   -1.7527163   0.12735071    11163.866     1000 
  262000   0.46694793   -2.4579291   0.69972147   -1.7582077   0.13072649    11008.985     1000 
  264000   0.49059285   -2.4461662   0.73515339   -1.7110128   0.13975533    11054.025     1000 
  266000   0.49103076   -2.4619723   0.73580959   -1.7261627   0.14813712    10933.243     1000 
  268000   0.48298302    -2.509014   0.72375005   -1.7852639   0.13047915    11155.206     1000 
  270000   0.49035309   -2.4012004   0.73479411   -1.6664063   0.13325339    10975.565     1000 
  272000   0.45896864   -2.4560286    0.6877645   -1.7682641   0.12881765    10980.716     1000 
  274000   0.46742188   -2.4892217   0.70043169     -1.78879   0.12811613    11228.074     1000 
  276000   0.47167704   -2.4727723   0.70680805   -1.7659642   0.12991287    11015.837     1000 
  278000   0.48943356   -2.5144235   0.73341618   -1.7810073   0.13457979    11034.835     1000 
  280000   0.47830492     -2.46012   0.71673992   -1.7433801   0.12873205    11085.497     1000 
  282000   0.49138534   -2.4467571   0.73634093   -1.7104162   0.14186285    11052.808     1000 
  284000    0.4818483   -2.4945312   0.72204967   -1.7724816   0.11956705    11066.425     1000 
  286000    0.4753711   -2.4872688    0.7123436   -1.7749252   0.13648791    10989.174     1000 
  288000   0.49685534   -2.4778576   0.74453773   -1.7333199   0.12917889    11216.455     1000 
  290000   0.51341499   -2.5587451   0.76935236   -1.7893928   0.12001754     11215.73     1000 
  292000   0.49168895   -2.5322901    0.7367959   -1.7954942   0.13489231     11162.32     1000 
  294000   0.46670128   -2.4621284   0.69935186   -1.7627765   0.12184462    11256.734     1000 
  296000   0.47968946   -2.4754835   0.71881466   -1.7566689   0.12242771    11229.869     1000 
  298000   0.47961381    -2.530362    0.7187013   -1.8116607   0.14583258    11160.652     1000 
  300000   0.48232101   -2.4754242   0.72275803   -1.7526662    0.1281628    11114.983     1000 
  302000   0.49278655   -2.5136975   0.73844064   -1.7752569   0.14036423    10969.107     1000 
  304000   0.47189907   -2.4438336   0.70714075   -1.7366929   0.13489533    11016.659     1000 
  306000    0.4707183   -2.5183977   0.70537138   -1.8130263   0.13248057    11198.735     1000 
  308000   0.47558953   -2.4719166   0.71267091   -1.7592457   0.13820835    11084.786     1000 
  310000   0.50736077   -2.3985851   0.76028012    -1.638305    0.1254723    11033.136     1000 
  312000   0.47924021   -2.5117119   0.71814146   -1.7935705    0.1388876    11031.479     1000 
  314000   0.48518664   -2.4514763   0.72705218   -1.7244241   0.13434214    11053.967     1000 
  316000   0.48101261   -2.4597333   0.72079739   -1.7389359    0.1318778    11083.875     1000 
  318000   0.46703697   -2.5081525    0.6998549   -1.8082976   0.12865139    11195.401     1000 
  320000   0.47558533   -2.4750717   0.71266462   -1.7624071   0.12174949    11188.288     1000 
  322000   0.49305593   -2.4177225   0.73884432   -1.6788782   0.14251705    10984.387     1000 
  324000   0.46028026   -2.4684712   0.68972997   -1.7787412    0.1285221    10981.427     1000 
  326000   0.47999069   -2.4383802   0.71926605   -1.7191142   0.12332614    11086.531     1000 
  328000   0.46593836    -2.457323   0.69820864   -1.7591144   0.11938614    11084.508     1000 
  330000   0.47419821   -2.4758314   0.71058602   -1.7652453   0.12806447    11210.548     1000 
  332000   0.49117163   -2.5432539   0.73602068   -1.8072333   0.13864256    10968.802     1000 
  334000   0.48221669   -2.5070383   0.72260172   -1.7844365   0.12939714    11232.081     1000 
  336000   0.47373345   -2.5188337   0.70988957   -1.8089442   0.13064244    11123.628     1000 
  338000    0.4715894    -2.490863   0.70667672   -1.7841863   0.13885635     10968.23     1000 
  340000   0.47538068   -2.4984389   0.71235795   -1.7860809   0.11913523    11264.493     1000 
  342000   0.48547285    -2.476389   0.72748106    -1.748908   0.14472867    10952.928     1000 
  344000   0.46763299   -2.4678818   0.70074803   -1.7671338   0.14416354    10909.443     1000 
  346000   0.45280704   -2.4740615   0.67853135   -1.7955302   0.13150002    11112.041     1000 
  348000   0.51053259   -2.4802083   0.76503308   -1.7151753   0.11702061    11135.808     1000 
  350000   0.46335147   -2.4628221   0.69433217   -1.7684899   0.15214337    10993.897     1000 
  352000   0.47929918   -2.4921945   0.71822983   -1.7739646   0.11720835    11160.825     1000 
  354000   0.48098239   -2.5034252   0.72075212   -1.7826731   0.12732194    11264.509     1000 
  356000   0.47060373   -2.4505091   0.70519969   -1.7453095   0.12210081    11192.062     1000 
  358000   0.47156251   -2.4629065   0.70663642   -1.7562701   0.12516684    11156.107     1000 
  360000   0.47867051   -2.5204407   0.71728777    -1.803153   0.13567746    11188.287     1000 
  362000    0.4672736   -2.5073883   0.70020949   -1.8071788   0.14370825    10971.219     1000 
  364000   0.49508988   -2.4580848   0.74189218   -1.7161926    0.1355126    11095.284     1000 
  366000   0.48233249    -2.505367   0.72277524   -1.7825918   0.14030036    11086.861     1000 
  368000   0.48122848   -2.5167016   0.72112088   -1.7955807   0.13104624    11177.808     1000 
  370000   0.47158345   -2.5448201    0.7066678   -1.8381523   0.12275226    11241.949     1000 
  372000   0.48076365   -2.4542386   0.72042433   -1.7338143    0.1342054     11009.02     1000 
  374000   0.46486032   -2.5013758   0.69659319   -1.8047826   0.12268171    11181.508     1000 
  376000   0.51090514   -2.4936424   0.76559135    -1.728051   0.13564906    11064.691     1000 
  378000   0.49430238   -2.4523792   0.74071212   -1.7116671   0.13178395    11084.684     1000 
  380000   0.48997931   -2.4266045     0.734234   -1.6923705   0.13892577    10946.356     1000 
  382000   0.48419193    -2.480595    0.7255616   -1.7550334   0.12558449    11058.442     1000 
  384000   0.48526221   -2.4946852   0.72716542   -1.7675198   0.13346763    11097.563     1000 
  386000     0.491501   -2.4165129   0.73651425   -1.6799987   0.12707287    11044.861     1000 
  388000   0.46683663   -2.4475351   0.69955468   -1.7479804   0.13073747    11017.915     1000 
  390000   0.48004755   -2.4495016   0.71935126   -1.7301503   0.11811205    11163.851     1000 
  392000   0.49135876   -2.5237358    0.7363011   -1.7874347   0.11722413    11189.747     1000 
  394000   0.45482216   -2.5160288     0.681551   -1.8344778   0.10767466    11177.159     1000 
  396000   0.47920744   -2.4670399   0.71809235   -1.7489475   0.13815257    11142.755     1000 
  398000   0.50476525   -2.4429614   0.75639072   -1.6865707   0.13301659    10998.288     1000 
  400000   0.46230338   -2.4574566   0.69276162    -1.764695   0.14411715    10987.601     1000 
  402000   0.46375205   -2.5006413   0.69493245   -1.8057089   0.11424451    11177.626     1000 
  404000   0.49611604   -2.5008185   0.74342988   -1.7573887   0.13854106      11053.5     1000 
  406000   0.48694089   -2.4772749   0.72968093    -1.747594   0.13558456    11146.276     1000 
  408000   0.48868173   -2.4640458   0.73228957   -1.7317562   0.13294317     11185.85     1000 
  410000   0.48943333   -2.4233971   0.73341584   -1.6899812   0.12460147    10984.682     1000 
  412000   0.46140629   -2.4642438   0.69141732   -1.7728265     0.135145     10989.28     1000 
  414000   0.49076728   -2.5065816   0.73541477   -1.7711668   0.13417774    11238.872     1000 
  416000   0.49461932   -2.4826521   0.74118704    -1.741465   0.12972165    11044.775     1000 
  418000   0.47145212   -2.4962475     0.706471   -1.7897765   0.12097387    11118.108     1000 
  420000   0.47565187   -2.4810293   0.71276432    -1.768265   0.13215835    11210.611     1000 
  422000    0.4834318   -2.5260778   0.72442255   -1.8016552   0.11309598    11171.337     1000 
  424000   0.48454814   -2.4636431   0.72609539   -1.7375477   0.13357125    11106.686     1000 
  426000   0.48897026   -2.4893541   0.73272194   -1.7566322    0.1256011    11040.345     1000 
  428000   0.48086048    -2.495542   0.72056943   -1.7749726   0.13351928    11184.346     1000 
  430000   0.48402431   -2.4958119   0.72531042   -1.7705015   0.11414265    11329.869     1000 
  432000   0.47482843   -2.4734857   0.71153041   -1.7619552   0.14480259    11077.304     1000 
  434000   0.48971263   -2.5685603   0.73383438   -1.8347259    0.1456849    11041.308     1000 
  436000   0.46022141   -2.4589958   0.68964178    -1.769354   0.12878706      10916.8     1000 
  438000   0.52098977   -2.5208816   0.78070317   -1.7401784   0.13829278    11070.791     1000 
  440000   0.48070278   -2.5183755   0.72033312   -1.7980424   0.12799729    11057.022     1000 
  442000   0.48967604   -2.4797162   0.73377954   -1.7459367   0.13500498    11076.648     1000 
  444000   0.47571146   -2.4705772   0.71285362   -1.7577236   0.12967187    11079.203     1000 
  446000   0.47900851   -2.4909253   0.71779425   -1.7731311   0.12256469    11177.532     1000 
  448000   0.49910734   -2.4779836   0.74791235   -1.7300712   0.12909067    11129.844     1000 
  450000   0.46852701   -2.4641168   0.70208772   -1.7620291   0.13191224    10934.855     1000 
  452000    0.4900662   -2.4651459    0.7343642   -1.7307817   0.14798519    11089.219     1000 
  454000   0.48886441   -2.4686689   0.73256332   -1.7361056   0.12497601    10972.756     1000 
  456000   0.49212315   -2.4840496   0.73744654   -1.7466031   0.11990257    11317.414     1000 
  458000   0.47877899   -2.5223626   0.71745032   -1.8049123   0.12654802    11164.905     1000 
  460000   0.45293437   -2.4469915   0.67872215   -1.7682694   0.14316314    10954.401     1000 
  462000   0.45821322    -2.432012    0.6866325   -1.7453795   0.14067637    10997.442     1000 
  464000   0.47015486   -2.4409329   0.70452706   -1.7364058   0.11428573    11205.397     1000 
  466000    0.4812993   -2.4882496     0.721227   -1.7670226   0.11496799    11198.053     1000 
  468000   0.46729632   -2.5020592   0.70024353   -1.8018156   0.12332582    11143.962     1000 
  470000   0.47849009   -2.4731928    0.7170174   -1.7561754    0.1291844    11101.616     1000 
  472000   0.47288289   -2.4897711   0.70861502   -1.7811561   0.11838584    11157.497     1000 
  474000   0.48668106   -2.4767405   0.72929157   -1.7474489   0.13429441    11183.153     1000 
  476000   0.47136577   -2.4582505   0.70634161   -1.7519089   0.12363074    11067.662     1000 
  478000   0.47361635   -2.5071528    0.7097141   -1.7974387   0.13713723    11013.258     1000 
  480000   0.48052986   -2.4745998   0.72007399   -1.7545258   0.13139396    11133.872     1000 
  482000   0.49528104   -2.4298572   0.74217863   -1.6876786   0.13063219    10999.696     1000 
  484000   0.49742787   -2.4456063   0.74539567   -1.7002106   0.13705829    11197.162     1000 
  486000   0.49956242   -2.5020123   0.74859429    -1.753418   0.11405569    11245.191     1000 
  488000   0.47451449   -2.4669675   0.71105997   -1.7559075   0.12539118    11042.968     1000 
  490000   0.48075098   -2.4929842   0.72040535   -1.7725788   0.13690876    10987.689     1000 
  492000      0.46727   -2.4959073   0.70020409   -1.7957032   0.14147365    11009.184     1000 
  494000   0.48643169   -2.4878509   0.72891789    -1.758933   0.12329567    11272.827     1000 
  496000   0.47747358   -2.4704005   0.71549415   -1.7549064   0.13000166    11085.941     1000 
  498000   0.51542264   -2.4769526   0.77236083   -1.7045918   0.12257362    11160.325     1000 
  500000   0.48496808   -2.4850103   0.72672467   -1.7582856   0.12098763    11281.485     1000 
  502000    0.4834651   -2.5254145   0.72447245    -1.800942    0.1216212     11178.75     1000 
  504000   0.50398004   -2.4882021   0.75521409    -1.732988   0.13718946    11158.322     1000 
  506000   0.49246702   -2.4667843   0.73796183   -1.7288225   0.13345535    11063.748     1000 
  508000   0.47966126    -2.440476   0.71877239   -1.7217037   0.14017338    10851.975     1000 
  510000   0.48408827   -2.4786736   0.72540627   -1.7532673   0.12112862    11087.725     1000 
  512000   0.49675144    -2.496723   0.74438203    -1.752341    0.1355186    11081.482     1000 
  514000   0.44930061   -2.4562463   0.67327697   -1.7829694   0.12437681    11017.361     1000 
  516000   0.45554344   -2.4898418   0.68263184   -1.8072099   0.12511988    11087.783     1000 
  518000   0.46418956   -2.4825669   0.69558805   -1.7869788   0.13258946    10916.871     1000 
  520000   0.47671763   -2.5298242   0.71436138   -1.8154628   0.13279706    11278.727     1000 
  522000   0.45372163    -2.483588   0.67990186   -1.8036862   0.12200725     11243.07     1000 
  524000   0.45102019   -2.4973214   0.67585375   -1.8214676    0.1225231    11072.791     1000 
  526000   0.48546682   -2.5230267   0.72747203   -1.7955547   0.13660658    11146.794     1000 
  528000   0.49761526   -2.5069911   0.74567647   -1.7613146   0.12377547    11152.119     1000 
  530000   0.47536471   -2.4660565   0.71233401   -1.7537225   0.12828801    11057.075     1000 
  532000    0.4873513   -2.4464456   0.73029592   -1.7161497   0.12784641    10913.552     1000 
  534000   0.47265978   -2.4831678   0.70828068   -1.7748871   0.13095973    11269.214     1000 
  536000   0.49762983   -2.4663654    0.7456983   -1.7206671    0.1224725    11076.609     1000 
  538000   0.47697218   -2.5231666   0.71474281   -1.8084238   0.13123183    11042.024     1000 
  540000   0.48750916   -2.4671974   0.73053248   -1.7366649   0.13592846    11050.118     1000 
  542000   0.47250621   -2.4677762   0.70805056   -1.7597256   0.13709383     10958.74     1000 
  544000   0.48756773   -2.5173624   0.73062024   -1.7867422   0.14053267    10997.028     1000 
  546000   0.46654939   -2.4845276   0.69912426   -1.7854034     0.115436    11172.459     1000 
  548000   0.47037428    -2.477368   0.70485586   -1.7725121   0.13697905    11150.288     1000 
  550000   0.46262998   -2.4611029   0.69325102   -1.7678518   0.12646602    11077.704     1000 
  552000   0.47748961   -2.4805901   0.71551818   -1.7650719   0.12896522     11172.94     1000 
  554000   0.49382494   -2.5002368   0.73999667   -1.7602401   0.15610207    10928.957     1000 
  556000   0.54762986   -2.5106541   0.82062334   -1.6900308   0.13479346    11039.827     1000 
  558000   0.46410998   -2.4665685   0.69546881   -1.7710996    0.1257652     10979.04     1000 
  560000   0.48274651   -2.4640265   0.72339564   -1.7406308    0.1269943    11156.004     1000 
  562000   0.47330668   -2.4941545   0.70925006   -1.7849044   0.13141903     11019.76     1000 
  564000    0.4716629   -2.5211008   0.70678685    -1.814314   0.11779894    11239.766     1000 
  566000   0.49600514   -2.5191843   0.74326371   -1.7759206   0.12107099    11269.275     1000 
  568000   0.50034274   -2.5078979    0.7497636   -1.7581343   0.13403091    11178.836     1000 
  570000   0.46721769   -2.4867475   0.70012571   -1.7866218   0.12651041    11207.903     1000 
  572000   0.47261084   -2.4712697   0.70820735   -1.7630624   0.14607011    10972.076     1000 
  574000   0.47045172   -2.4509128    0.7049719   -1.7459409   0.12463651    11105.827     1000 
  576000   0.49382881   -2.4657415   0.74000247    -1.725739    0.1387076    11003.706     1000 
  578000    0.4635581   -2.5195669   0.69464181   -1.8249251   0.14191448    11090.402     1000 
  580000   0.45694479   -2.4630294   0.68473177   -1.7782976   0.13182704     11146.53     1000 
  582000   0.46937158   -2.5175386   0.70335331   -1.8141853   0.12443247    11252.157     1000 
  584000   0.47941485   -2.4620596   0.71840315   -1.7436565   0.13278046    11154.005     1000 
  586000   0.47363995   -2.4498685   0.70974946    -1.740119   0.15733843    10770.758     1000 
  588000   0.48594679   -2.4635391   0.72819126   -1.7353479   0.13544534    11180.269     1000 
  590000   0.48618981   -2.5012823   0.72855543   -1.7727269   0.13086977    11063.146     1000 
  592000   0.49658164   -2.4223226   0.74412759    -1.678195   0.14873537    10894.969     1000 
  594000   0.47052886   -2.4653525   0.70508749    -1.760265   0.13292918    11029.999     1000 
  596000   0.48859689   -2.4838571   0.73216245   -1.7516947   0.11601732    11101.736     1000 
  598000   0.47196978   -2.4818622   0.70724672   -1.7746155   0.12275249    11073.315     1000 
  600000   0.47006655   -2.4698313   0.70439473   -1.7654366   0.14553737     11067.31     1000 
  602000   0.48998385   -2.5320197   0.73424079   -1.7977789   0.12824567    11229.514     1000 
  604000   0.49022522   -2.4789614   0.73460249   -1.7443589   0.11855508    11103.499     1000 
  606000   0.45671898   -2.5428103   0.68439339   -1.8584169   0.11891199    11192.696     1000 
  608000   0.46521768   -2.4190765    0.6971287   -1.7219478   0.12754577    11111.965     1000 
  610000   0.46439679   -2.4986833   0.69589859   -1.8027847   0.12705709     11213.35     1000 
  612000   0.49417482   -2.4287832   0.74052097   -1.6882622   0.13296917     10976.64     1000 
  614000   0.47843823   -2.4388734   0.71693969   -1.7219337   0.14411885    11050.035     1000 
  616000   0.48133628   -2.4651073   0.72128242   -1.7438249    0.1277207    11123.728     1000 
  618000   0.48375216   -2.4695436   0.72490261    -1.744641   0.12150199    11165.328     1000 
  620000   0.49237958   -2.4404936    0.7378308   -1.7026628   0.13413614     10943.86     1000 
  622000   0.47908568   -2.4709558   0.71790989   -1.7530459   0.12473009    11187.973     1000 
  624000   0.45796462   -2.4624031   0.68625999   -1.7761432   0.14901693      10883.6     1000 
  626000   0.47232691   -2.5005027   0.70778187   -1.7927208   0.12040881    11085.755     1000 
  628000    0.4845328    -2.486554    0.7260724   -1.7604816   0.12236698    11223.298     1000 
  630000   0.47509496   -2.4661306    0.7119298   -1.7542008   0.13550583    11081.023     1000 
  632000   0.49210501   -2.4338496   0.73741936   -1.6964303   0.13185389    11149.224     1000 
  634000   0.46607161   -2.4420548    0.6984083   -1.7436465    0.1178749    11040.431     1000 
  636000   0.49643902   -2.4504204   0.74391387   -1.7065066   0.13804457    10971.697     1000 
  638000    0.4662804   -2.5358545   0.69872118   -1.8371333    0.1272177    11142.838     1000 
  640000   0.47300864   -2.4677175   0.70880344   -1.7589141   0.13196641    10992.711     1000 
  642000   0.46085503   -2.3880512   0.69059126     -1.69746   0.12454434    10913.159     1000 
  644000   0.48420686   -2.5097748   0.72558397   -1.7841908   0.13039779    11159.497     1000 
  646000   0.49594998   -2.4631949   0.74318105   -1.7200139   0.13720408    10994.368     1000 
  648000   0.48530408   -2.4442819   0.72722816   -1.7170537   0.12978707    11031.919     1000 
  650000   0.49876191   -2.5038976   0.74739473   -1.7565029   0.13232647    11091.875     1000 
  652000   0.48704837   -2.4945862   0.72984198   -1.7647442   0.12095299    11140.093     1000 
  654000    0.4614699   -2.4299183   0.69151265   -1.7384056   0.14593278    10839.307     1000 
  656000   0.48457317   -2.5197119   0.72613289    -1.793579   0.11718597    11151.591     1000 
  658000   0.49594219   -2.4495395   0.74316937   -1.7063701   0.13128784     11144.74     1000 
  660000    0.4584954   -2.4777478   0.68705535   -1.7906924   0.11350898    11157.079     1000 
  662000    0.4869946   -2.4651553   0.72976141   -1.7353938   0.13301896     11138.91     1000 
  664000   0.47315154   -2.5017886   0.70901758   -1.7927711   0.13169767    11109.781     1000 
  666000   0.49964612    -2.485127   0.74871971   -1.7364073   0.13008038     11148.63     1000 
  668000   0.47811389   -2.4849857   0.71645367   -1.7685321   0.12360493    11056.734     1000 
  670000   0.49769459    -2.513746   0.74579535   -1.7679507   0.12838822     11173.47     1000 
  672000   0.49329715   -2.4723068   0.73920578    -1.733101   0.12849278    11193.177     1000 
  674000   0.47464658   -2.4944924    0.7112579   -1.7832345   0.12671979    11142.955     1000 
  676000   0.46599318   -2.4838275   0.69829078   -1.7855367   0.12314487    11210.783     1000 
  678000   0.48220742   -2.5092917   0.72258782   -1.7867039   0.13751006    11100.321     1000 
  680000   0.47322926   -2.4716093   0.70913404   -1.7624753   0.12906974    11233.973     1000 
  682000   0.47593703   -2.4692161   0.71319164   -1.7560245   0.12564933    10991.174     1000 
  684000   0.49951869   -2.4576092   0.74852876   -1.7090805    0.1369882    10969.869     1000 
  686000   0.48921574   -2.5003713   0.73308979   -1.7672815   0.13346873     10908.96     1000 
  688000    0.4631762   -2.5030598   0.69406954   -1.8089902   0.11485184    11242.228     1000 
  690000   0.48872403   -2.4752988   0.73235295   -1.7429458   0.10940535     11200.43     1000 
  692000   0.47128541   -2.4520019   0.70622119   -1.7457807     0.131519    11087.192     1000 
  694000   0.48658064    -2.452041    0.7291411   -1.7228999   0.13217336    10966.943     1000 
  696000   0.47316687   -2.5087438   0.70904056   -1.7997032   0.13480048    10977.552     1000 
  698000   0.48918973   -2.4268155   0.73305081   -1.6937647   0.13142908    10992.338     1000 
  700000   0.48462926   -2.4824425   0.72621695   -1.7562255   0.13818977    11005.849     1000 
  702000   0.48083463   -2.5074754    0.7205307   -1.7869447   0.13673929     11078.08     1000 
  704000     0.489681   -2.4957934   0.73378698   -1.7620064   0.13428361    11061.166     1000 
  706000   0.48432603   -2.4867683   0.72576255   -1.7610058   0.13495298    11044.727     1000 
  708000   0.49348048   -2.5017536   0.73948049   -1.7622731    0.1289635    11099.386     1000 
  710000   0.50923459   -2.4866934   0.76308803   -1.7236054   0.13691579     11145.23     1000 
  712000   0.48863454   -2.5128125   0.73221886   -1.7805936   0.13174554    11173.382     1000 
  714000   0.46261072   -2.5308288   0.69322217   -1.8376066   0.11796646    11185.926     1000 
  716000   0.48697697   -2.4942132   0.72973499   -1.7644782   0.12507354     11122.55     1000 
  718000   0.47713153   -2.4643305   0.71498159   -1.7493489   0.13015408    11026.572     1000 
  720000   0.48844553   -2.5098771   0.73193562   -1.7779415   0.13552612    11151.154     1000 
  722000   0.49134303   -2.4758192   0.73627753   -1.7395417   0.12863609     11147.76     1000 
  724000   0.48218693   -2.4683688   0.72255711   -1.7458117   0.12261193    11224.608     1000 
  726000    0.5013697   -2.5099431    0.7513025   -1.7586406   0.13382872    11116.434     1000 
  728000   0.48286486   -2.4932038     0.723573   -1.7696308   0.13439507    11199.313     1000 
  730000   0.47924049   -2.5249618   0.71814188   -1.8068199   0.13438691    11117.189     1000 
  732000   0.46183486   -2.4705532   0.69205953   -1.7784936   0.12327771    11167.928     1000 
  734000    0.5012263    -2.466958   0.75108761   -1.7158704   0.14967335    11039.434     1000 
  736000   0.50176902   -2.4956638   0.75190088   -1.7437629   0.13086002    11221.384     1000 
  738000   0.48706518   -2.4726462   0.72986717   -1.7427791   0.12328523    11158.263     1000 
  740000   0.49071485   -2.4714678    0.7353362   -1.7361316   0.11961518    11122.198     1000 
  742000   0.47522675   -2.4948942   0.71212728   -1.7827669   0.14085403    10924.275     1000 
  744000   0.46267488   -2.5251647    0.6933183   -1.8318464   0.13502662    11135.361     1000 
  746000   0.46103571   -2.4727117   0.69086202   -1.7818497   0.11479233    11137.273     1000 
  748000   0.49913042     -2.52332   0.74794693   -1.7753731   0.12557609    11034.126     1000 
  750000    0.4750098   -2.4774126   0.71180218   -1.7656104   0.13494126    11138.548     1000 
  752000   0.47040495   -2.4760247   0.70490181   -1.7711229   0.14179947    10973.632     1000 
  754000   0.46287574   -2.4285362   0.69361929   -1.7349169   0.13413064    10920.443     1000 
  756000   0.47619655   -2.4905802   0.71358053   -1.7769997   0.13400371    11015.603     1000 
  758000   0.47930806   -2.4747121   0.71824312   -1.7564689   0.11811236    10988.861     1000 
  760000   0.46061439   -2.4652982   0.69023067   -1.7750675   0.11937961    11193.134     1000 
  762000   0.49053348   -2.4682758   0.73506442   -1.7332113   0.12760218     11137.96     1000 
  764000   0.47424462    -2.468264   0.71065557   -1.7576084   0.13104054    11047.545     1000 
  766000   0.45862635   -2.4485176   0.68725158    -1.761266   0.14729362    10922.186     1000 
  768000   0.50365043   -2.4974012   0.75472017   -1.7426811   0.11605652    11258.789     1000 
  770000   0.48311723    -2.445498   0.72395117   -1.7215469   0.13888708    10976.999     1000 
  772000   0.45982662   -2.5297178   0.68905019   -1.8406676   0.13751817    11150.546     1000 
  774000   0.50289078   -2.4590332   0.75358184   -1.7054513   0.14209336    10972.028     1000 
  776000   0.48546319     -2.50198   0.72746658   -1.7745134   0.12830743    11215.188     1000 
  778000    0.4793046   -2.5185632   0.71823794   -1.8003253   0.13784539    11066.787     1000 
  780000   0.48574438   -2.4395044   0.72788796   -1.7116164   0.14494315    10897.923     1000 
  782000   0.46034163   -2.4979713   0.68982193   -1.8081494   0.11786079    11138.558     1000 
  784000   0.48304252   -2.4729255   0.72383922   -1.7490862   0.13023702    11134.223     1000 
  786000   0.47337554   -2.4779054   0.70935325   -1.7685522   0.14686675    10957.193     1000 
  788000   0.50557438   -2.5233501    0.7576032   -1.7657469   0.12732611    11167.203     1000 
  790000   0.48628451   -2.4601129   0.72869733   -1.7314156   0.10738134    11214.701     1000 
  792000   0.47181425    -2.515344   0.70701365   -1.8083303   0.13224487    11229.804     1000 
  794000   0.47531336   -2.4782209   0.71225707   -1.7659638   0.12580837    11111.133     1000 
  796000   0.46172882   -2.4858769   0.69190064   -1.7939762   0.12210416    11168.731     1000 
  798000   0.49539617   -2.4558347   0.74235116   -1.7134836   0.13494952     11102.54     1000 
  800000   0.46600255   -2.5318843   0.69830482   -1.8335795   0.12338595    11202.289     1000 
  802000   0.46922731   -2.4593658   0.70313712   -1.7562287   0.12357944    11039.561     1000 
  804000   0.47615376   -2.4596562   0.71351641   -1.7461398   0.14802319    10970.543     1000 
  806000   0.47372384   -2.4962271   0.70987517    -1.786352   0.13233868    11143.489     1000 
  808000   0.47999453   -2.4669829   0.71927181    -1.747711   0.13348935    11073.017     1000 
  810000   0.49064991   -2.4904471   0.73523889   -1.7552083   0.12720636     11095.37     1000 
  812000   0.47882377   -2.5188146   0.71751743   -1.8012972   0.13535535    11044.572     1000 
  814000   0.49362907   -2.4761263   0.73970316   -1.7364232   0.12682472     11114.68     1000 
  816000   0.48293435   -2.5026608   0.72367713   -1.7789837   0.14438083    11064.858     1000 
  818000   0.48250911    -2.530141    0.7230399   -1.8071011   0.12402339    11283.827     1000 
  820000   0.47205353   -2.4861731   0.70737222   -1.7788009   0.12966218    11178.391     1000 
  822000   0.46931785   -2.4205339   0.70327279   -1.7172611   0.14007421    10966.245     1000 
  824000   0.47049091   -2.4284603   0.70503063   -1.7234297   0.12059836    11068.835     1000 
  826000   0.49600004   -2.4620138   0.74325607   -1.7187578    0.1235886    11268.337     1000 
  828000   0.47835565   -2.4388883   0.71681594   -1.7220724   0.12768299    11143.192     1000 
  830000   0.48907409    -2.495272   0.73287753   -1.7623944   0.12967077    11081.681     1000 
  832000   0.47091003   -2.4991858   0.70565867   -1.7935271   0.13049239    11101.934     1000 
  834000    0.4823726   -2.4348233   0.72283533    -1.711988   0.12947017    11092.501     1000 
  836000    0.4919756    -2.436038   0.73722544   -1.6988126   0.13547721    11004.148     1000 
  838000   0.47721764   -2.5103045   0.71511064   -1.7951939   0.11990885    11098.512     1000 
  840000   0.48445188   -2.4904454   0.72595115   -1.7644942   0.15248462     10969.78     1000 
  842000   0.48747204    -2.500553   0.73047685   -1.7700762   0.12857866    11094.287     1000 
  844000   0.50196849   -2.4920065   0.75219979   -1.7398067   0.11916742    11206.309     1000 
  846000   0.49387817   -2.4789659   0.74007643   -1.7388895    0.1370317    11069.657     1000 
  848000   0.50153981   -2.4959212   0.75155741   -1.7443638   0.14150035    10932.387     1000 
  850000   0.48526993   -2.4756057   0.72717698   -1.7484287   0.14240612     10927.99     1000 
  852000   0.46103619   -2.4885145   0.69086273   -1.7976517   0.13763105    11120.274     1000 
  854000   0.48467371   -2.5223434   0.72628356   -1.7960598   0.13122058    11151.164     1000 
  856000   0.48450843    -2.451266   0.72603588   -1.7252302    0.1377754    11084.749     1000 
  858000   0.47689117   -2.5287626   0.71462142   -1.8141411   0.12668547    11172.658     1000 
  860000   0.49173666   -2.4644826   0.73686738   -1.7276152   0.12682174     11072.67     1000 
  862000   0.48147068   -2.5094026   0.72148381   -1.7879188   0.12388834    11190.371     1000 
  864000    0.4502592   -2.4710237   0.67471341   -1.7963103   0.11272771    11182.366     1000 
  866000   0.48207455   -2.5231493   0.72238871   -1.8007606   0.11345212    11359.607     1000 
  868000   0.47584462   -2.4964254   0.71305317   -1.7833722   0.13468483    11107.017     1000 
  870000   0.49745397   -2.4770631   0.74543477   -1.7316283   0.12930826    11102.757     1000 
  872000   0.47271397   -2.4668427   0.70836189   -1.7584808   0.11821941    11218.291     1000 
  874000   0.46271115   -2.5031402   0.69337266   -1.8097676   0.12283201    11232.003     1000 
  876000   0.48935841   -2.4714686   0.73330358    -1.738165   0.13176929    11095.936     1000 
  878000   0.48278143    -2.473472   0.72344798   -1.7500241   0.12851165    11057.431     1000 
  880000   0.48394876   -2.4598848   0.72519722   -1.7346876   0.14662912    11038.366     1000 
  882000   0.48237374   -2.4800373   0.72283705   -1.7572003   0.12908934    11040.851     1000 
  884000   0.48414133   -2.4380887   0.72548578   -1.7126029   0.13440543    11031.449     1000 
  886000   0.47047572   -2.4977593   0.70500786   -1.7927514   0.13014669    11019.646     1000 
  888000   0.47084179    -2.514584   0.70555643   -1.8090276   0.11735781    11277.611     1000 
  890000   0.45870158   -2.4760682   0.68736431   -1.7887039   0.12564918    11075.523     1000 
  892000   0.50235847    -2.468399   0.75278416   -1.7156149   0.13598065    11078.891     1000 
  894000   0.47501346   -2.4465318   0.71180767   -1.7347241   0.13579911    11112.354     1000 
  896000   0.49858552   -2.5080412   0.74713039   -1.7609108   0.12654184    11295.784     1000 
  898000   0.46812165   -2.4652823    0.7014803    -1.763802   0.12725694    10989.149     1000 
  900000   0.48493959   -2.4710531   0.72668198   -1.7443711   0.12679473    11085.129     1000 
  902000   0.45779013   -2.4864526   0.68599851   -1.8004541   0.11980851    11151.133     1000 
  904000   0.47302811   -2.4252734   0.70883263   -1.7164407   0.12450287    10975.155     1000 
  906000   0.48559492   -2.5063986   0.72766399   -1.7787347   0.13538727     11127.44     1000 
  908000   0.47569721   -2.4795355   0.71283227   -1.7667032   0.12190092    11181.366     1000 
  910000    0.4859426   -2.4684191   0.72818498   -1.7402341   0.11777582    11059.664     1000 
  912000   0.49671828   -2.4562016   0.74433234   -1.7118693   0.14596277    11004.002     1000 
  914000   0.46465587   -2.4920159   0.69628682   -1.7957291    0.1106723    11305.631     1000 
  916000   0.47072012   -2.5064649    0.7053741   -1.8010908   0.12917015    11159.115     1000 
  918000   0.47246902   -2.5215837   0.70799483   -1.8135888   0.12463626    11160.408     1000 
  920000   0.48451894   -2.4725542   0.72605164   -1.7465026   0.13344865    11044.564     1000 
  922000   0.47564718   -2.5060452    0.7127573   -1.7932879   0.12992072    11094.775     1000 
  924000   0.50718813   -2.5011883   0.76002142   -1.7411669   0.13350489    11155.829     1000 
  926000    0.4726715   -2.5187703   0.70829824   -1.8104721   0.14306082    11097.478     1000 
  928000   0.45942499   -2.4435627   0.68844835   -1.7551144   0.13741651    10930.578     1000 
  930000    0.4802067   -2.5050713   0.71958974   -1.7854816   0.13445273    11155.409     1000 
  932000   0.46742876   -2.4998926     0.700442   -1.7994506   0.12260869    11220.346     1000 
  934000   0.47733861    -2.467068   0.71529191   -1.7517761   0.13478375    10980.973     1000 
  936000   0.47960004   -2.4532347   0.71868067   -1.7345541   0.13490708    11043.738     1000 
  938000   0.46653775   -2.4644367   0.69910682   -1.7653299   0.13805033    11050.175     1000 
  940000   0.46133739   -2.4577022   0.69131408   -1.7663881   0.12532931    11064.667     1000 
  942000   0.46599968   -2.4814236   0.69830052   -1.7831231     0.119761    11139.067     1000 
  944000   0.48993271   -2.5113581   0.73416416    -1.777194   0.12617103    11074.448     1000 
  946000   0.46285195    -2.472203   0.69358365   -1.7786193   0.13624429    11148.636     1000 
  948000   0.47607557   -2.3971582   0.71339924    -1.683759   0.13363836    11068.142     1000 
  950000   0.48238887   -2.4595214   0.72285972   -1.7366617   0.13220288     11153.68     1000 
  952000   0.48810308   -2.4838508   0.73142246   -1.7524283   0.14995645    11010.353     1000 
  954000   0.45787766   -2.5027367   0.68612968    -1.816607   0.12548086    11120.656     1000 
  956000   0.46066552   -2.5021929   0.69030728   -1.8118856   0.11622985    11206.131     1000 
  958000   0.46678038    -2.480008    0.6994704   -1.7805376   0.11113964    11210.383     1000 
  960000   0.48451324   -2.4853565   0.72604308   -1.7593134   0.11997857    11149.627     1000 
  962000   0.48416487   -2.4597019   0.72552106   -1.7341808   0.13574017    11030.194     1000 
  964000   0.48212218   -2.4712471   0.72246009    -1.748787   0.14521749    10937.003     1000 
  966000   0.47435098   -2.4346398   0.71081494   -1.7238248   0.12454581    11157.855     1000 
  968000   0.47720787   -2.4849169   0.71509599   -1.7698209   0.13709831    10987.271     1000 
  970000   0.49286105   -2.4613717   0.73855229   -1.7228194   0.14001972    11083.979     1000 
  972000   0.48162432   -2.4928315   0.72171404   -1.7711174   0.14676342    11056.863     1000 
  974000   0.49933653    -2.513662   0.74825579   -1.7654062   0.12896233    11221.748     1000 
  976000   0.46800856   -2.5214221   0.70131083   -1.8201113   0.13260527    11186.579     1000 
  978000   0.46447698   -2.4727238   0.69601875   -1.7767051   0.14177862    11071.971     1000 
  980000   0.47042167   -2.4986705   0.70492687   -1.7937436   0.11967405    11137.885     1000 
  982000    0.4848007   -2.4924868   0.72647385   -1.7660129    0.1254987    11243.441     1000 
  984000   0.47118999   -2.4905367   0.70607821   -1.7844585   0.11905221    11085.505     1000 
  986000   0.46605223    -2.473678   0.69837926   -1.7752987   0.12586645    11086.694     1000 
  988000     0.480782   -2.5325608   0.72045183    -1.812109   0.12020706    11098.421     1000 
  990000   0.47891903   -2.4602853   0.71766016   -1.7426251   0.12361945    11099.722     1000 
  992000   0.49357628   -2.5080557   0.73962405   -1.7684316   0.11279413    11286.753     1000 
  994000   0.48395922   -2.4827961    0.7252129   -1.7575832   0.12723724    11143.327     1000 
  996000   0.47283866   -2.4318904   0.70854873   -1.7233416    0.1348987    10893.659     1000 
  998000   0.46897622   -2.4916799   0.70276087   -1.7889191   0.12396795    11205.913     1000 
 1000000   0.47929415   -2.4296518   0.71822229   -1.7114295   0.14689678    10873.285     1000 
 1002000   0.49250204   -2.4868051    0.7380143   -1.7487908   0.14526114    11067.464     1000 
 1004000   0.47095051   -2.4968809   0.70571934   -1.7911615   0.11357802    11202.233     1000 
 1006000   0.47805328   -2.4801699   0.71636284   -1.7638071   0.13664691    11074.749     1000 
 1008000   0.49975106   -2.5512299   0.74887697   -1.8023529   0.13999791    11118.414     1000 
 1010000   0.47434407   -2.5333947   0.71080459   -1.8225901   0.12135616    11176.488     1000 
 1012000    0.4768905   -2.5064596   0.71462041   -1.7918392   0.13517957    11096.271     1000 
 1014000    0.4618749    -2.484938   0.69211954   -1.7928185     0.116008    11118.117     1000 
 1016000   0.46864551   -2.5182368    0.7022653   -1.8159715   0.12166242     11353.73     1000 
 1018000   0.47713917   -2.4570346   0.71499305   -1.7420415   0.12635366    11031.774     1000 
 1020000   0.50903144   -2.5043038   0.76278362   -1.7415202   0.13440817    11139.639     1000 
 1022000    0.4767941   -2.4778631   0.71447595   -1.7633871   0.11764686    11218.332     1000 
 1024000   0.47140675   -2.5136348   0.70640301   -1.8072318   0.12257918    11109.499     1000 
 1026000   0.48222677    -2.488039   0.72261682   -1.7654222   0.13776559    11116.337     1000 
 1028000   0.48456936   -2.4472683   0.72612718   -1.7211411   0.13652278    10968.513     1000 
 1030000   0.48124883   -2.4609974   0.72115137   -1.7398461   0.13204749    10980.033     1000 
 1032000   0.47246619   -2.4387435   0.70799059   -1.7307529    0.1282925    11133.937     1000 
 1034000   0.48327754   -2.4611918   0.72419139   -1.7370004   0.12991215    11119.514     1000 
 1036000   0.49335096   -2.4552062   0.73928641   -1.7159198    0.1214394    11147.289     1000 
 1038000   0.47183423   -2.5052822   0.70704359   -1.7982386   0.12868853    11022.896     1000 
 1040000   0.46919189   -2.4832049   0.70308404   -1.7801208   0.11172008    11331.628     1000 
 1042000    0.4804285   -2.4438522   0.71992211   -1.7239301   0.13295632    11117.635     1000 
 1044000   0.47551146   -2.4656883   0.71255392   -1.7531343   0.11667664    11185.914     1000 
 1046000   0.47221017    -2.435368   0.70760693   -1.7277611   0.12768425    11113.137     1000 
 1048000   0.47613895   -2.4252493   0.71349421   -1.7117551   0.13642588    10864.655     1000 
 1050000    0.4608263   -2.4951656   0.69054821   -1.8046174   0.13077378    11297.011     1000 
 1052000    0.5097736   -2.5350657   0.76389574     -1.77117    0.1293772    11275.811     1000 
 1054000    0.4932545   -2.5347719   0.73914187     -1.79563   0.11679848    11304.564     1000 
 1056000   0.50594883   -2.4956582   0.75816432   -1.7374939   0.13545741    11135.218     1000 
 1058000   0.47246989   -2.5123504   0.70799613   -1.8043543   0.12915851    10996.342     1000 
 1060000   0.46705792   -2.4606261    0.6998863   -1.7607398    0.1345046    11037.614     1000 
 1062000   0.47900026   -2.4925876    0.7177819   -1.7748057   0.13379739    11066.091     1000 
 1064000   0.47506359   -2.5209346   0.71188279   -1.8090518   0.14026078    11150.714     1000 
 1066000   0.49137111   -2.5239088   0.73631961   -1.7875892   0.12096658    11221.379     1000 
 1068000   0.45068051   -2.4775395   0.67534475   -1.8021948   0.12506226    11151.858     1000 
 1070000   0.47760981   -2.4646546    0.7156983   -1.7489563   0.13563984    11138.698     1000 
 1072000   0.46782097   -2.4916596   0.70102972   -1.7906298   0.11968821    11222.876     1000 
 1074000   0.46661166   -2.5188479   0.69921757   -1.8196304   0.13001438    11090.231     1000 
 1076000   0.50310071   -2.4170879   0.75389641   -1.6631914   0.13371188     10955.74     1000 
 1078000   0.49187821   -2.4524877   0.73707949   -1.7154082   0.14194765    11040.982     1000 
 1080000   0.47104835   -2.5037925   0.70586596   -1.7979266   0.12331749    11159.101     1000 
 1082000   0.49555411    -2.407802   0.74258783   -1.6652142    0.1407513    10832.552     1000 
 1084000   0.47796643   -2.4777431   0.71623269   -1.7615105   0.14338869    10914.361     1000 
 1086000   0.46642379   -2.4795227   0.69893605   -1.7805867   0.13057455    11021.519     1000 
 1088000   0.47909985   -2.4949025   0.71793113   -1.7769714   0.14375278    11052.631     1000 
 1090000    0.4944617   -2.5261378   0.74095086   -1.7851869   0.12184008    11227.234     1000 
 1092000    0.5001937   -2.4591571   0.74954025   -1.7096169   0.11986738    11155.003     1000 
 1094000   0.47329107   -2.5187858   0.70922666   -1.8095592   0.13985889    10960.459     1000 
 1096000   0.50019855   -2.4289715   0.74954753    -1.679424   0.13612668    11002.944     1000 
 1098000   0.50240877   -2.4768382   0.75285955   -1.7239786   0.13140376    11132.307     1000 
 1100000   0.47817243    -2.444941   0.71654139   -1.7283996   0.14091347    11068.159     1000 
 1102000   0.47660961   -2.4566132    0.7141995   -1.7424137   0.13100619    11183.417     1000 
 1104000   0.49494616   -2.4842626   0.74167682   -1.7425857   0.12819631    11224.211     1000 
 1106000   0.48539663   -2.4670659   0.72736685   -1.7396991   0.13272983    11064.341     1000 
 1108000   0.46998344   -2.5100441   0.70427018   -1.8057739    0.1270249    11141.136     1000 
 1110000   0.47187628    -2.478763   0.70710661   -1.7716564    0.1276045     11296.99     1000 
 1112000     0.471571   -2.4805367   0.70664915   -1.7738876   0.13331358    11076.146     1000 
 1114000   0.46999177   -2.4358979   0.70428267   -1.7316153   0.12694044    10906.548     1000 
 1116000   0.49462267   -2.5084396   0.74119206   -1.7672476   0.14222125    11010.662     1000 
 1118000   0.46059196   -2.5008625   0.69019706   -1.8106654    0.1389078    11017.803     1000 
 1120000   0.45663004   -2.4587686   0.68426012   -1.7745085   0.11350418    11012.398     1000 
 1122000   0.49380968   -2.4903683    0.7399738   -1.7503945   0.12029515    11127.357     1000 
 1124000   0.48161956   -2.4894632   0.72170691   -1.7677563   0.12194315    11057.459     1000 
 1126000   0.51154216    -2.552282   0.76654593   -1.7857361   0.14503456     11138.96     1000 
 1128000   0.46268857   -2.5293349   0.69333882   -1.8359961   0.12750718     11232.07     1000 
 1130000   0.50671602   -2.4515509   0.75931396    -1.692237    0.1271974    11200.171     1000 
 1132000   0.48287586   -2.4908663   0.72358948   -1.7672768   0.14163661    11023.736     1000 
 1134000   0.48079859    -2.519395   0.72047669   -1.7989183   0.12731067    11180.722     1000 
 1136000   0.47304165   -2.4406378   0.70885292   -1.7317849    0.1266563    11117.905     1000 
 1138000   0.46350869   -2.4389053   0.69456777   -1.7443375   0.13824461    10898.745     1000 
 1140000   0.46841728   -2.4593036    0.7019233   -1.7573803   0.13025471    10953.449     1000 
 1142000   0.47186557   -2.5323114   0.70709055   -1.8252208   0.12752406    11219.489     1000 
 1144000   0.48977295   -2.4678503   0.73392477   -1.7339256   0.14534725    11028.654     1000 
 1146000   0.49024783   -2.4556507   0.73463638   -1.7210143   0.14362352    10952.093     1000 
 1148000   0.49225548   -2.5142246   0.73764483   -1.7765798   0.11935455    11183.548     1000 
 1150000   0.48045271   -2.4414327   0.71995838   -1.7214743   0.13569349    11086.899     1000 
 1152000   0.47798313   -2.4714423   0.71625772   -1.7551846   0.13879112    10961.252     1000 
 1154000   0.48893012   -2.4406449   0.73266179   -1.7079831   0.12605169    11022.076     1000 
 1156000   0.46801791   -2.4696581   0.70132484   -1.7683333   0.13195001    11042.714     1000 
 1158000   0.49122736   -2.5207508    0.7361042   -1.7846466   0.13203276    11164.064     1000 
 1160000   0.48440569   -2.4496368   0.72588192   -1.7237549   0.14777944    10861.071     1000 
 1162000   0.49846383   -2.4402073   0.74694806   -1.6932592   0.13385365    10968.706     1000 
 1164000   0.48370887   -2.4844803   0.72483774   -1.7596425   0.12031204    11203.818     1000 
 1166000   0.48326613   -2.4477921    0.7241743   -1.7236178   0.13898688    11010.632     1000 
 1168000   0.46077669   -2.4681193   0.69047387   -1.7776455   0.13282502    11073.726     1000 
 1170000   0.47943439   -2.4763718   0.71843243   -1.7579394   0.13790353    10920.473     1000 
 1172000   0.48271013   -2.4879948   0.72334113   -1.7646536   0.11276317    11177.708     1000 
 1174000   0.49494472   -2.5223175   0.74167466   -1.7806428   0.11838383    11254.417     1000 
 1176000    0.4967237   -2.4468249   0.74434047   -1.7024844   0.14586337    10889.364     1000 
 1178000   0.47993429   -2.4452835   0.71918153   -1.7261019   0.12670279    11126.204     1000 
 1180000   0.49535686   -2.5068781   0.74229226   -1.7645858   0.12432301    11159.502     1000 
 1182000    0.4699301   -2.5200548   0.70419026   -1.8158645   0.12282119    11084.804     1000 
 1184000   0.49570894   -2.4225145   0.74281985   -1.6796946   0.13458873    10990.643     1000 
 1186000   0.47213749   -2.4771664   0.70749802   -1.7696683   0.12068685    11136.532     1000 
 1188000   0.48202039   -2.4587105   0.72230755    -1.736403   0.14330322    11041.244     1000 
 1190000   0.47569778    -2.468948   0.71283312   -1.7561149   0.14174963    11091.524     1000 
 1192000   0.49293944   -2.4793757   0.73866976   -1.7407059   0.13357208    11029.964     1000 
 1194000   0.48210772   -2.4788782   0.72243842   -1.7564398   0.13262834    11152.021     1000 
 1196000   0.45857047   -2.4559835   0.68716785   -1.7688156   0.12598828    11154.319     1000 
 1198000   0.46709456   -2.4372928   0.69994121   -1.7373516   0.12540718    11155.999     1000 
 1200000   0.49310246   -2.5074639   0.73891403   -1.7685499   0.12751468    11194.148     1000 
 1202000   0.48433659   -2.4891242   0.72577839   -1.7633458   0.14302738    11100.777     1000 
 1204000   0.49190657   -2.5193277   0.73712199   -1.7822057    0.1281209    11288.533     1000 
 1206000   0.48033516   -2.4522494   0.71978223   -1.7324672   0.12776142    11005.959     1000 
 1208000   0.48653251   -2.5099655   0.72906897   -1.7808966   0.14025566    11126.348     1000 
 1210000   0.48922241   -2.4784792   0.73309978   -1.7453794   0.12368536    11155.834     1000 
 1212000   0.46154781   -2.4725251    0.6916294   -1.7808957   0.12873852    11028.171     1000 
 1214000   0.47639031    -2.493192   0.71387088   -1.7793211   0.12366412    11165.199     1000 
 1216000   0.44580083   -2.4774676   0.66803254   -1.8094351   0.12152244    11138.631     1000 
 1218000   0.44694458   -2.4761464   0.66974645      -1.8064   0.12527524    11054.654     1000 
 1220000   0.47490333   -2.4974565   0.71164265   -1.7858139    0.1435486    11150.187     1000 
 1222000   0.48927287   -2.4187104    0.7331754    -1.685535   0.12218372    11017.356     1000 
 1224000   0.48682968   -2.5129343   0.72951428   -1.7834201   0.12846862    11186.758     1000 
 1226000   0.48377135   -2.4575286   0.72493137   -1.7325973   0.15093098    10971.423     1000 
 1228000   0.47008831   -2.4880731   0.70442733   -1.7836457   0.13418623    11078.234     1000 
 1230000   0.47559513   -2.4721257    0.7126793   -1.7594464   0.11542381    11281.357     1000 
 1232000   0.48911399   -2.5212584   0.73293732   -1.7883211   0.14255434    11047.643     1000 
 1234000   0.47931328   -2.4830935   0.71825096   -1.7648426   0.14015581    11039.168     1000 
 1236000   0.47283814     -2.48702   0.70854795    -1.778472   0.12245334     11271.19     1000 
 1238000   0.48603592   -2.4642624   0.72832482   -1.7359376   0.10349561    11239.775     1000 
 1240000    0.4697363   -2.4738786   0.70389985   -1.7699787   0.11032394    11188.858     1000 
 1242000   0.49383142   -2.4417956   0.74000638   -1.7017893   0.12732352    11052.586     1000 
 1244000   0.48565243    -2.515366   0.72775017   -1.7876158   0.11263642     11245.83     1000 
 1246000   0.49996905   -2.4914175   0.74920362   -1.7422138   0.12502805    11128.607     1000 
 1248000   0.46786979   -2.4800045   0.70110287   -1.7789016   0.12313576    11179.865     1000 
 1250000   0.47209363   -2.5030086    0.7074323   -1.7955763   0.14163011    11133.239     1000 
 1252000   0.49788769   -2.5221118    0.7460847   -1.7760271   0.11962606    11258.274     1000 
 1254000   0.50024731   -2.5157042    0.7496206   -1.7660836   0.13361932    11161.201     1000 
 1256000   0.47510894   -2.5162202   0.71195075   -1.8042694   0.13061596    11164.262     1000 
 1258000   0.48706618   -2.5302502   0.72986868   -1.8003815   0.12741834    11145.107     1000 
 1260000   0.49544602   -2.4560629   0.74242586   -1.7136371   0.12263752    11133.008     1000 
 1262000   0.48023388   -2.4691955   0.71963046    -1.749565   0.13262796    11130.272     1000 
 1264000   0.48418098   -2.5028504    0.7255452   -1.7773052   0.13324979     11182.41     1000 
 1266000   0.47957198   -2.4631275   0.71863861   -1.7444889   0.11106274    11005.638     1000 
 1268000   0.47432376   -2.4896977   0.71077416   -1.7789235    0.1322543    11128.114     1000 
 1270000   0.48627203   -2.5041861   0.72867863   -1.7755074   0.13845801    10951.661     1000 
 1272000   0.46964536   -2.4669553   0.70376357   -1.7631917   0.13529929    11085.517     1000 
 1274000   0.50349359   -2.4335618   0.75448515   -1.6790767   0.12957285     11183.58     1000 
 1276000   0.46911181     -2.47945   0.70296405   -1.7764859   0.12912109      11105.1     1000 
 1278000   0.46467121   -2.4383906    0.6963098   -1.7420808   0.12922048    10938.358     1000 
 1280000   0.46490367   -2.4861255   0.69665815   -1.7894673   0.13358276     11025.41     1000 
 1282000   0.48889007   -2.4267475   0.73260177   -1.6941457   0.14835314    10851.268     1000 
 1284000   0.48043955   -2.5299368   0.71993866   -1.8099981   0.13174287    11165.656     1000 
 1286000   0.46468175    -2.509424    0.6963256   -1.8130984   0.12704056    11181.538     1000 
 1288000   0.46160093   -2.4553615     0.691709   -1.7636525   0.13382355     10912.65     1000 
 1290000   0.47323947   -2.4696098   0.70914934   -1.7604605   0.12676618    11049.341     1000 
 1292000   0.48614657   -2.4826199   0.72849064   -1.7541293   0.15199087    10918.812     1000 
 1294000   0.50519411   -2.4960912   0.75703337   -1.7390578   0.12279489    11137.728     1000 
 1296000   0.46475497   -2.4398659   0.69643533   -1.7434306   0.12695614    10933.462     1000 
 1298000   0.49032162   -2.4888952   0.73474695   -1.7541483   0.13106822    11149.493     1000 
 1300000   0.47198137   -2.4602056   0.70726409   -1.7529415   0.13300453    10990.242     1000 
 1302000   0.48208854   -2.4625734   0.72240968   -1.7401638   0.12449573    11161.749     1000 
 1304000   0.48368361    -2.485452    0.7247999   -1.7606521    0.1412958    11054.046     1000 
 1306000   0.47067591   -2.4545807   0.70530785   -1.7492728   0.12109824    11081.515     1000 
 1308000   0.46872415   -2.4865038   0.70238314   -1.7841206   0.13531762    11101.909     1000 
 1310000   0.48869909   -2.4754683   0.73231558   -1.7431527   0.13016444    10890.968     1000 
 1312000   0.47708044   -2.4646667   0.71490504   -1.7497617   0.15007387    10972.693     1000 
 1314000    0.4711978    -2.449941    0.7060899   -1.7438511   0.13922593     10960.74     1000 
 1316000   0.45799117   -2.5044862   0.68629977   -1.8181865   0.12761237    11154.969     1000 
 1318000    0.4990696   -2.4945254    0.7478558   -1.7466696   0.12466429    11192.084     1000 
 1320000   0.48943937   -2.5074564    0.7334249   -1.7740315   0.13422292    11069.953     1000 
 1322000   0.48121608   -2.5212699    0.7211023   -1.8001676   0.13568005    11113.412     1000 
 1324000   0.48810665   -2.4712306   0.73142781   -1.7398028   0.12733433    11125.082     1000 
 1326000   0.46948157   -2.5355824   0.70351813   -1.8320642   0.13622718    11115.106     1000 
 1328000   0.50242703   -2.4586335   0.75288691   -1.7057466   0.14532159    11149.741     1000 
 1330000    0.4770535   -2.5063401   0.71486467   -1.7914754   0.13708833    11143.904     1000 
 1332000   0.48137097   -2.4649534    0.7213344    -1.743619   0.12831872    11120.709     1000 
 1334000   0.48497565   -2.4367185   0.72673601   -1.7099825   0.13212057    10967.298     1000 
 1336000   0.48463009   -2.4990165   0.72621818   -1.7727983   0.12842595    11163.131     1000 
 1338000   0.48453169   -2.4718922   0.72607074   -1.7458214   0.13240365    11048.035     1000 
 1340000   0.47300206   -2.4070071   0.70879359   -1.6982135   0.14151549    10936.723     1000 
 1342000   0.47624885   -2.4768517   0.71365889   -1.7631928   0.12782044    11178.434     1000 
 1344000   0.48328424   -2.4906236   0.72420144   -1.7664222   0.12917175    11045.272     1000 
 1346000   0.47807054   -2.4685241   0.71638871   -1.7521354   0.13857799    10976.612     1000 
 1348000   0.47446171   -2.4892528   0.71098087    -1.778272   0.12483691    11146.523     1000 
 1350000   0.47985064   -2.4787886   0.71905618   -1.7597324   0.13619627    11086.258     1000 
 1352000   0.47953254   -2.4403754   0.71857951   -1.7217958   0.13509383    11077.344     1000 
 1354000   0.47452852   -2.5138076   0.71108099   -1.8027266   0.12095865    11170.791     1000 
 1356000   0.49408347   -2.5250333   0.74038408   -1.7846492   0.13057792    11029.932     1000 
 1358000   0.47357792   -2.5031687   0.70965651   -1.7935122   0.13957588    11013.903     1000 
 1360000   0.47123621   -2.4673557   0.70614746   -1.7612083   0.13085664    11021.418     1000 
 1362000   0.47499572   -2.5099741   0.71178108    -1.798193   0.12362003    11125.371     1000 
 1364000   0.48664488   -2.5200524   0.72923735   -1.7908151   0.14016048    11093.393     1000 
 1366000   0.47498875   -2.4387694   0.71177064   -1.7269987   0.12250947    11136.102     1000 
 1368000   0.45973858   -2.5197275   0.68891826   -1.8308093   0.13683462    11180.331     1000 
 1370000   0.49618351   -2.4218376   0.74353099   -1.6783066   0.12533876    11062.024     1000 
 1372000   0.46850096   -2.4834411   0.70204869   -1.7813924   0.11653431    11012.378     1000 
 1374000   0.47088273   -2.4547903   0.70561777   -1.7491726    0.1182576    11074.154     1000 
 1376000   0.47156814   -2.4734164   0.70664485   -1.7667715   0.12966325    11137.474     1000 
 1378000   0.48778834    -2.496292   0.73095083   -1.7653412   0.12479122    11161.221     1000 
 1380000   0.46557426   -2.4800073   0.69766303   -1.7823443   0.12686032    11064.083     1000 
 1382000   0.48102848   -2.4433471   0.72082118   -1.7225259   0.12073846    11264.587     1000 
 1384000   0.48311975   -2.4769999   0.72395494   -1.7530449   0.12285528    11130.728     1000 
 1386000   0.49522627   -2.4867015   0.74209656   -1.7446049   0.13310409    11174.729     1000 
 1388000   0.48404874    -2.482199   0.72534704    -1.756852   0.13729445    11116.201     1000 
 1390000   0.48512075   -2.4476966   0.72695345   -1.7207432   0.12314258    11083.419     1000 
 1392000   0.48773288   -2.5021681   0.73086771   -1.7713004   0.12420119    11014.043     1000 
 1394000   0.48799195   -2.5123462   0.73125593   -1.7810903   0.13609593    11188.709     1000 
 1396000   0.47692737   -2.4786194   0.71467567   -1.7639437   0.13110756    10979.663     1000 
 1398000   0.46741711   -2.4784349   0.70042455   -1.7780104   0.11953525    11105.206     1000 
 1400000   0.47416856   -2.5425594   0.71054158   -1.8320178   0.14175914    11105.081     1000 
 1402000   0.51019229   -2.4698197   0.76452314   -1.7052966   0.14123008    11096.358     1000 
 1404000   0.46235541   -2.4994624   0.69283958   -1.8066228   0.13527903     10995.15     1000 
 1406000   0.48130048   -2.4777088   0.72122876   -1.7564801   0.13348022    11102.592     1000 
 1408000   0.49469322   -2.4527304   0.74129779   -1.7114326   0.13074373    11210.158     1000 
 1410000   0.46698069   -2.5103086   0.69977057    -1.810538   0.12657409    11279.964     1000 
 1412000   0.46981043   -2.4510892   0.70401093   -1.7470783   0.12341995    11002.877     1000 
 1414000   0.47186774   -2.4505804    0.7070938   -1.7434866   0.14769135    11060.157     1000 
 1416000   0.47375301   -2.5258612   0.70991889   -1.8159423   0.14048644    11086.819     1000 
 1418000   0.47770882   -2.5209876   0.71584666   -1.8051409   0.12810748    11140.875     1000 
 1420000   0.46500678   -2.4701198   0.69681266   -1.7733071   0.11866159     11248.83     1000 
 1422000   0.47542234   -2.5174923   0.71242037    -1.805072   0.13809524    11191.309     1000 
 1424000    0.4938805   -2.4789926   0.74007993   -1.7389127   0.12199444     11211.05     1000 
 1426000   0.46301469   -2.5046634   0.69382751   -1.8108359   0.13566572    10940.153     1000 
 1428000   0.47632863   -2.4657091   0.71377844   -1.7519306   0.11909446    11153.649     1000 
 1430000   0.47423591   -2.4932709   0.71064251   -1.7826284   0.11975028    11191.609     1000 
 1432000   0.48151353   -2.4503836   0.72154802   -1.7288356   0.13705558    11087.698     1000 
 1434000   0.46825171   -2.4488371   0.70167519   -1.7471619   0.12171106    11130.582     1000 
 1436000   0.46228631   -2.3870692   0.69273603   -1.6943331   0.13329566    10895.179     1000 
 1438000   0.47969914   -2.4881474   0.71882916   -1.7693182     0.138493    11091.883     1000 
 1440000   0.48348905   -2.4637873   0.72450834    -1.739279   0.12511104    11151.712     1000 
 1442000   0.46564168   -2.5206432   0.69776406   -1.8228791   0.14022368     11089.85     1000 
 1444000      0.48094   -2.4251219   0.72068859   -1.7044333   0.14085029    11033.161     1000 
 1446000   0.46119769   -2.4841172   0.69110474   -1.7930124    0.1274471     11063.41     1000 
 1448000   0.50262933   -2.4660669   0.75319005   -1.7128768   0.12715759    11105.802     1000 
 1450000   0.48032736   -2.4739614   0.71977055   -1.7541908   0.11496216    11069.351     1000 
 1452000   0.48788818   -2.4779972   0.73110043   -1.7468967   0.12890021     11077.42     1000 
 1454000    0.4613669   -2.4375644    0.6913583   -1.7462061   0.13326091    11055.652     1000 
 1456000   0.48448266   -2.4735453   0.72599726    -1.747548    0.1267631    11102.998     1000 
 1458000   0.48126068   -2.4581746   0.72116913   -1.7370054    0.1296617    11107.093     1000 
 1460000   0.45927913   -2.4485092   0.68822977   -1.7602794   0.13453983    11144.778     1000 
 1462000   0.46205795   -2.4800136   0.69239383   -1.7876197   0.11459125     11126.66     1000 
 1464000   0.47273796   -2.4972918   0.70839783    -1.788894   0.11309725    11278.339     1000 
 1466000   0.46933956    -2.512281   0.70330533   -1.8089756   0.13780086    11039.468     1000 
 1468000   0.46721134   -2.4892842   0.70011619    -1.789168   0.12057317    11170.003     1000 
 1470000   0.47394058   -2.4841378   0.71019996   -1.7739379   0.12845761    11063.551     1000 
 1472000   0.49042179   -2.4778573   0.73489705   -1.7429603   0.12487226    11248.006     1000 
 1474000   0.49401885   -2.5085929   0.74028724   -1.7683057   0.12323254    11188.304     1000 
 1476000   0.47256581    -2.478786   0.70813987   -1.7706461   0.12736666    11158.271     1000 
 1478000   0.49008453   -2.4935395   0.73439166   -1.7591478   0.12954987    11140.889     1000 
 1480000   0.49722337   -2.5212566   0.74508923   -1.7761674     0.124182    11242.201     1000 
 1482000   0.49841026   -2.4959874   0.74686777   -1.7491197   0.13709672    11156.677     1000 
 1484000    0.4883029   -2.5028985   0.73172189   -1.7711766   0.14357907    10990.024     1000 
 1486000   0.48922639   -2.4745669   0.73310574   -1.7414612   0.12389067    11130.711     1000 
 1488000   0.46774304   -2.4888127   0.70091294   -1.7878997   0.12147984    11120.604     1000 
 1490000   0.49626068   -2.4913762   0.74364663   -1.7477296   0.13030738    11110.895     1000 
 1492000   0.50025562   -2.4991849   0.74963305   -1.7495519   0.13050685    11225.595     1000 
 1494000   0.46805506    -2.462217   0.70138051   -1.7608365   0.13189663    10967.105     1000 
 1496000   0.49448884   -2.4717112   0.74099153   -1.7307197   0.13516941     11021.75     1000 
 1498000   0.49384911   -2.4643553   0.74003289   -1.7243224   0.13106847    10963.626     1000 
 1500000   0.50014237   -2.4644901   0.74946335   -1.7150267   0.12962261    10991.586     1000 
 1502000   0.47780236   -2.4880554   0.71598684   -1.7720685   0.11261533    11191.611     1000 
 1504000   0.48018202   -2.4675771   0.71955276   -1.7480243   0.14752156    10955.175     1000 
 1506000   0.48985898   -2.4984211   0.73405368   -1.7643674   0.12006411    11180.405     1000 
 1508000   0.48672464   -2.4123217   0.72935688   -1.6829649    0.1334324    11020.852     1000 
 1510000   0.48581857   -2.4756168   0.72799912   -1.7476177   0.12881335    11168.191     1000 
 1512000   0.47874342   -2.4483675   0.71739701   -1.7309704   0.13176962     10989.97     1000 
 1514000   0.48643126    -2.444598   0.72891724   -1.7156808   0.13399443    11084.454     1000 
 1516000   0.50513341    -2.499066   0.75694241   -1.7421236   0.14216858    11056.058     1000 
 1518000   0.48458277   -2.4835499   0.72614727   -1.7574027   0.11028354    11284.691     1000 
 1520000   0.49240366   -2.4428748   0.73786689   -1.7050079   0.13340251    11025.026     1000 
 1522000   0.47553394   -2.4635963   0.71258761   -1.7510087   0.12911867     11060.57     1000 
 1524000   0.48041939   -2.4327244   0.71990845    -1.712816   0.11755899     11025.15     1000 
 1526000    0.4861496     -2.43801   0.72849518   -1.7095149   0.11047173    11056.092     1000 
 1528000   0.45237523   -2.4755696   0.67788429   -1.7976853   0.15117982    10932.116     1000 
 1530000   0.49399284   -2.4834919   0.74024827   -1.7432436    0.1211629    11280.188     1000 
 1532000   0.49168452   -2.4610432   0.73678925   -1.7242539   0.13178725    10975.531     1000 
 1534000   0.48600282   -2.4602299   0.72827522   -1.7319546   0.12404479    11147.813     1000 
 1536000   0.48193204    -2.465096   0.72217516   -1.7429209   0.12626129     11065.31     1000 
 1538000    0.4745433   -2.5038298   0.71110314   -1.7927267   0.13193392    11198.445     1000 
 1540000   0.47917908   -2.4862571   0.71804985   -1.7682072   0.13465523    11063.979     1000 
 1542000   0.47246959   -2.4547004   0.70799569   -1.7467047   0.13443361    11069.022     1000 
 1544000    0.4888611   -2.5036185   0.73255836   -1.7710602   0.12651107    11081.199     1000 
 1546000   0.48642114   -2.5119423   0.72890208   -1.7830402   0.13297593    11135.123     1000 
 1548000   0.48273798   -2.4722129   0.72338286     -1.74883   0.13988895    11214.264     1000 
 1550000   0.47857978   -2.4758927   0.71715181   -1.7587409   0.14824865    10899.094     1000 
 1552000   0.48333102   -2.4797676   0.72427154   -1.7554961   0.13296849     11098.52     1000 
 1554000   0.48969236    -2.446288     0.733804    -1.712484    0.1304267    11118.803     1000 
 1556000   0.46814086   -2.4610977   0.70150908   -1.7595886   0.12256014    11117.913     1000 
 1558000   0.49136937    -2.486426     0.736317    -1.750109   0.12738039    11090.284     1000 
 1560000   0.50355059   -2.4883332   0.75457055   -1.7337626   0.13705086    11046.581     1000 
 1562000   0.48741662   -2.5186008    0.7303938    -1.788207   0.11858003     11150.88     1000 
 1564000   0.48074419   -2.4403101   0.72039516   -1.7199149   0.11506682     11172.85     1000 
 1566000   0.47343563   -2.4936395   0.70944329   -1.7841962   0.13085694    11158.936     1000 
 1568000   0.47278836   -2.4879044   0.70847336   -1.7794311   0.13083301    10978.514     1000 
 1570000   0.48780292   -2.4822104   0.73097268   -1.7512377   0.12163312    11133.717     1000 
 1572000   0.45922646   -2.5350272   0.68815085   -1.8468763   0.13122786    11116.697     1000 
 1574000   0.50009886   -2.4343471   0.74939815    -1.684949   0.13118986    11095.007     1000 
 1576000   0.48544473   -2.4629658   0.72743893   -1.7355269   0.12601805    11157.463     1000 
 1578000   0.47077599   -2.5360134   0.70545783   -1.8305556   0.12065091    11265.069     1000 
 1580000   0.48162746    -2.425742   0.72171875   -1.7040233   0.13005004    10899.679     1000 
 1582000   0.47563206    -2.465387   0.71273464   -1.7526524   0.13156704    10959.626     1000 
 1584000   0.45422979   -2.4735685   0.68066335   -1.7929052   0.12613506    11155.585     1000 
 1586000   0.48704752   -2.5031564   0.72984071   -1.7733157    0.1390713    11041.407     1000 
 1588000   0.46127482    -2.529671   0.69122032   -1.8384507   0.14025051    11016.608     1000 
 1590000   0.49514992   -2.4371089   0.74198215   -1.6951267   0.12955005    11027.855     1000 
 1592000    0.4899174   -2.5113624   0.73414123   -1.7772212   0.12788462    11215.833     1000 
 1594000   0.47763354   -2.4964631   0.71573385   -1.7807293   0.13266796    11116.781     1000 
 1596000   0.47517811   -2.4422216    0.7120544   -1.7301672   0.14308714    10960.728     1000 
[...]
 2612000   0.46083573   -2.4652988   0.69056234   -1.7747364   0.12808709    11103.285     1000 
 2614000   0.48777692   -2.4683921   0.73093372   -1.7374583   0.13244611    11088.033     1000 
 2616000   0.48414853    -2.480379   0.72549658   -1.7548825   0.12190502    11072.166     1000 
 2618000   0.48746226   -2.4671311    0.7304622   -1.7366689   0.13721845    10983.823     1000 
 2620000   0.49456815   -2.4656753   0.74111037    -1.724565   0.13191436    11053.908     1000 
 2622000   0.47798498   -2.4848175   0.71626049    -1.768557   0.13812024    10935.534     1000 
 2624000   0.47588863   -2.5232365   0.71311911   -1.8101174    0.1239652    11172.725     1000 
 2626000   0.47803659   -2.4982705   0.71633783   -1.7819327   0.13047144     11150.45     1000 
 2628000   0.48933987   -2.4924097    0.7332758   -1.7591339   0.13190514    11074.923     1000 
 2630000   0.47147978   -2.5384797   0.70651245   -1.8319672    0.1265792    11159.268     1000 
 2632000   0.49730011    -2.497487   0.74520421   -1.7522828   0.13793841    11176.665     1000 
 2634000   0.46402921   -2.4670781   0.69534778   -1.7717303   0.12736467    11023.102     1000 
 2636000   0.48429228   -2.4616799   0.72571198   -1.7359679   0.13534756     11014.17     1000 
 2638000   0.49174989   -2.4854252   0.73688721    -1.748538   0.12834593    11142.524     1000 
 2640000    0.4759419   -2.4903164   0.71319894   -1.7771174   0.12798338    11169.856     1000 
 2642000    0.4696235   -2.4880618   0.70373082    -1.784331    0.1292035    10967.592     1000 
 2644000   0.48867201   -2.5218462     0.732275   -1.7895712   0.12008599    11265.617     1000 
 2646000   0.50654767   -2.5027713   0.75906168   -1.7437096   0.12191749    11142.936     1000 
 2648000    0.4828946   -2.5103221   0.72361756   -1.7867045   0.14087706    11110.577     1000 
 2650000   0.46883738   -2.4696043   0.70255281   -1.7670515   0.12617242    11162.921     1000 
 2652000   0.49106324   -2.5312328   0.73585826   -1.7953746   0.14044831    11150.006     1000 
 2654000   0.49489256     -2.47889    0.7415965   -1.7372935   0.13912036    11115.663     1000 
 2656000    0.4670028   -2.4484466    0.6998037   -1.7486429   0.14491312    10859.402     1000 
 2658000   0.46795662   -2.4691037   0.70123299   -1.7678707   0.12806897    11018.302     1000 
 2660000   0.50942401   -2.4842549   0.76337188    -1.720883   0.13755121    11143.499     1000 
 2662000    0.4487392   -2.4974884    0.6724357   -1.8250527   0.11889758    11234.343     1000 
 2664000   0.48407281   -2.4912253    0.7253831   -1.7658422    0.1268841     11142.42     1000 
 2666000   0.48311406   -2.5094296   0.72394642   -1.7854832    0.1124838     11213.67     1000 
 2668000   0.48677034   -2.4695905   0.72942535   -1.7401651   0.13622672    11172.195     1000 
 2670000   0.47667366   -2.4121568   0.71429549   -1.6978614    0.1388809    10853.932     1000 
 2672000   0.48526581   -2.4383895   0.72717082   -1.7112187   0.13377501    10869.858     1000 
 2674000   0.45762374     -2.46659   0.68574917   -1.7808408   0.13195294    11030.627     1000 
 2676000   0.50029102   -2.4664686   0.74968609   -1.7167825   0.12966581    11069.251     1000 
 2678000   0.48773165    -2.447833   0.73086588   -1.7169671   0.13051008    11059.737     1000 
 2680000   0.47110132   -2.5070949   0.70594532   -1.8011496   0.12367053    11225.264     1000 
 2682000   0.47246414   -2.4566804   0.70798751   -1.7486929   0.12880279    11048.597     1000 
 2684000   0.49401811   -2.4772091   0.74028614    -1.736923   0.11933148    11174.483     1000 
 2686000    0.4758557   -2.5264786   0.71306976   -1.8134088   0.14451501    11048.535     1000 
 2688000   0.47089515   -2.4440687   0.70563639   -1.7384323   0.11908618    11090.759     1000 
 2690000   0.48639971   -2.4747504   0.72886996   -1.7458805   0.13382425    11139.219     1000 
 2692000   0.46731455    -2.459736   0.70027085   -1.7594651   0.12606454    11181.882     1000 
 2694000   0.46856372   -2.4844428   0.70214274      -1.7823   0.13329628     11090.96     1000 
 2696000   0.49136624   -2.5145403   0.73631231    -1.778228   0.11982915    11148.673     1000 
 2698000   0.49603858   -2.4659239   0.74331381   -1.7226101   0.13084566    11089.903     1000 
 2700000   0.47077729   -2.4650302   0.70545977   -1.7595704   0.12569308    10982.248     1000 
 2702000   0.49507897    -2.441249   0.74187583   -1.6993731   0.12759144    11107.639     1000 
 2704000    0.4753342   -2.3986226    0.7122883   -1.6863343    0.1262095    11044.383     1000 
 2706000   0.50452106    -2.461538   0.75602481   -1.7055132   0.14006411     11201.42     1000 
 2708000   0.48261129    -2.465734   0.72319301    -1.742541   0.13804507    10949.531     1000 
 2710000   0.49126648    -2.488315   0.73616282   -1.7521522   0.13480348     11028.44     1000 
 2712000   0.49017748   -2.4756449   0.73453096    -1.741114   0.13651201    10932.947     1000 
 2714000   0.45486098    -2.492613   0.68160919   -1.8110038   0.13621528    11038.093     1000 
 2716000   0.50762463   -2.4498752   0.76067551   -1.6891997   0.14335299    11099.192     1000 
 2718000   0.47612621   -2.4533097   0.71347513   -1.7398346   0.12687349    11091.761     1000 
 2720000   0.47589104   -2.4535221   0.71312272   -1.7403993   0.12516098    11148.413     1000 
 2722000   0.48551642   -2.4772711   0.72754635   -1.7497248   0.12665074    11135.681     1000 
 2724000   0.47448665   -2.5153849   0.71101824   -1.8043667   0.12113961    11254.263     1000 
 2726000   0.44841027   -2.4673957   0.67194279   -1.7954529   0.15244594    10919.609     1000 
 2728000   0.49375412   -2.4657131   0.73989055   -1.7258226   0.13159956    11026.708     1000 
 2730000   0.47221751   -2.4847913   0.70761794   -1.7771734   0.12337923    11215.274     1000 
 2732000   0.47399393   -2.4812152    0.7102799   -1.7709353     0.127411    11133.808     1000 
 2734000   0.48951611   -2.5222753   0.73353989   -1.7887354   0.12462248    11211.902     1000 
 2736000    0.4888568   -2.4871812   0.73255192   -1.7546293   0.13538574     11136.17     1000 
 2738000   0.50171405   -2.4474505   0.75181851    -1.695632   0.12615688    11184.553     1000 
 2740000   0.48803493   -2.4839504   0.73132034   -1.7526301   0.13814661    10976.121     1000 
 2742000   0.47318279   -2.4952553   0.70906441   -1.7861909   0.14079071    11028.625     1000 
 2744000   0.46754207   -2.5136341   0.70061179   -1.8130223   0.11077036    11309.032     1000 
 2746000   0.48847307   -2.4924305    0.7319769   -1.7604536   0.12448317    11076.827     1000 
 2748000    0.4821973   -2.4615264   0.72257266   -1.7389538    0.1289332    11110.319     1000 
 2750000   0.49911176   -2.4296844   0.74791897   -1.6817654   0.14519173    11052.056     1000 
 2752000     0.490434   -2.5216566   0.73491535   -1.7867413   0.11671306    11349.429     1000 
 2754000   0.49707533   -2.4579971   0.74486739   -1.7131297   0.14030666    11036.977     1000 
 2756000   0.47846701   -2.4675311   0.71698281   -1.7505483   0.14750376    10971.354     1000 
 2758000   0.48060143   -2.5467177   0.72018124   -1.8265364   0.12450022    11258.599     1000 
 2760000    0.4786706   -2.5103304    0.7172879   -1.7930425   0.11076097    11273.744     1000 
 2762000   0.48328434   -2.4806564   0.72420159   -1.7564548   0.13781838    11092.047     1000 
 2764000   0.48128754   -2.4954828   0.72120938   -1.7742734   0.12853691    11197.025     1000 
 2766000   0.47023533   -2.4823442   0.70464765   -1.7776966   0.13541795    11113.957     1000 
 2768000   0.47097263   -2.4588367   0.70575249   -1.7530842   0.11964616    11156.225     1000 
 2770000    0.4825603   -2.5356743   0.72311661   -1.8125577   0.12439197    11254.618     1000 
 2772000     0.479565    -2.464426   0.71862816   -1.7457978   0.13486427    10990.642     1000 
 2774000   0.46708203   -2.4445841   0.69992243   -1.7446617   0.12400934    10972.788     1000 
 2776000   0.48175749    -2.495402   0.72191359   -1.7734885   0.12006517    11245.461     1000 
 2778000   0.47291777   -2.5008693   0.70866728    -1.792202    0.1324871    11163.271     1000 
 2780000   0.48003839   -2.4627298   0.71933753   -1.7433923   0.12058222     10999.74     1000 
 2782000   0.47466604   -2.4922573   0.71128706   -1.7809702   0.11899038    11166.933     1000 
 2784000    0.4848733   -2.4457554   0.72658264   -1.7191728   0.13680751    11033.419     1000 
 2786000   0.47231461   -2.4730856   0.70776345   -1.7653222   0.13907659    10892.953     1000 
 2788000   0.47103808   -2.4748315   0.70585056   -1.7689809   0.12237409    11019.656     1000 
 2790000   0.46712484   -2.5279725   0.69998657   -1.8279859   0.11861084    11097.773     1000 
 2792000   0.45606169   -2.5259496   0.68340845   -1.8425412   0.12141786    11180.559     1000 
 2794000   0.45738736   -2.5543547   0.68539495   -1.8689598   0.12771408    11245.121     1000 
 2796000   0.47027746   -2.4676322   0.70471077   -1.7629214   0.12775445    11049.454     1000 
 2798000   0.47786769   -2.4519588   0.71608473   -1.7358741   0.13411305    11068.735     1000 
 2800000   0.47216352   -2.5196725   0.70753704   -1.8121355   0.13055624    11138.114     1000 
 2802000   0.49831989   -2.4611353   0.74673235    -1.714403   0.13320178    11075.468     1000 
 2804000   0.46998454   -2.4848265   0.70427184   -1.7805547   0.13318772    11113.718     1000 
 2806000   0.49815954    -2.472444   0.74649206    -1.725952   0.12840929    10955.887     1000 
 2808000   0.48478666   -2.4803795   0.72645282   -1.7539267   0.12922988     11056.27     1000 
 2810000   0.48981197   -2.4910783   0.73398323   -1.7570951   0.12433335    11171.218     1000 
 2812000   0.48574262   -2.4814943   0.72788532    -1.753609   0.12945888    11273.958     1000 
 2814000   0.50144676   -2.4790923   0.75141797   -1.7276743   0.14798763    10907.723     1000 
 2816000   0.47643578   -2.4889119   0.71393902   -1.7749728   0.13815482    11119.892     1000 
 2818000   0.46689939   -2.4921867   0.69964874    -1.792538   0.12359828    11068.067     1000 
 2820000   0.49062872   -2.4588434   0.73520714   -1.7236362   0.12014211     11101.33     1000 
 2822000   0.49502671   -2.5048559   0.74179753   -1.7630584   0.12131154    11113.801     1000 
 2824000   0.44809305   -2.4969342   0.67146744   -1.8254668   0.13054282    11014.251     1000 
 2826000   0.49005121   -2.4486818   0.73434174   -1.7143401   0.14472238    10956.593     1000 
 2828000   0.47120713   -2.5104525   0.70610389   -1.8043486   0.13047073    11086.288     1000 
 2830000   0.49192244   -2.5115115   0.73714577   -1.7743657   0.11877829    11289.926     1000 
 2832000   0.48942188   -2.4958071   0.73339869   -1.7624084   0.13857905    11124.103     1000 
 2834000   0.50597346   -2.5030319   0.75820123   -1.7448307   0.12974982    11093.444     1000 
 2836000   0.46457786   -2.4794067   0.69616992   -1.7832368    0.1422285    10976.732     1000 
 2838000   0.48004172   -2.4647448   0.71934252   -1.7454023   0.13613559    10978.615     1000 
 2840000   0.48984817   -2.4963006   0.73403749   -1.7622631    0.1243098    11071.068     1000 
 2842000   0.50202219   -2.4750394   0.75228026   -1.7227592   0.13899859    10977.942     1000 
 2844000   0.49066796    -2.488476   0.73526594   -1.7532101   0.12169877    11165.902     1000 
 2846000   0.46447026   -2.4798818   0.69600868   -1.7838731   0.12612695    11266.035     1000 
 2848000   0.47943372    -2.460881   0.71843143   -1.7424496   0.13300828    11099.776     1000 
 2850000   0.47916944   -2.4074444   0.71803541   -1.6894089   0.13195706    10941.537     1000 
 2852000   0.48259218   -2.5133283   0.72316438   -1.7901639   0.11043094    11429.382     1000 
 2854000   0.49623245   -2.4821544   0.74360433   -1.7385501   0.13076978    11095.236     1000 
 2856000   0.47869725   -2.4741316   0.71732783   -1.7568038   0.14840113    10972.869     1000 
 2858000   0.48468678   -2.4419816   0.72630314   -1.7156785   0.14200911    10876.246     1000 
 2860000     0.500398   -2.4967354    0.7498464    -1.746889   0.14084508    11031.421     1000 
 2862000   0.46645623   -2.5247351   0.69898465   -1.8257504   0.11919447    11198.755     1000 
 2864000   0.51256616   -2.4920189   0.76808039   -1.7239385   0.14266688    10961.145     1000 
 2866000   0.49656598   -2.5370721   0.74410412    -1.792968   0.14491195      10985.3     1000 
 2868000   0.46533286   -2.5628554    0.6973013   -1.8655541   0.11911171    11233.041     1000 
 2870000   0.46763328   -2.4609422   0.70074847   -1.7601938   0.14063933    11013.666     1000 
 2872000   0.46211835   -2.4526597   0.69248434   -1.7601754   0.13942454    10992.229     1000 
 2874000    0.4764426   -2.4896407   0.71394924   -1.7756914   0.12087137    11035.475     1000 
 2876000   0.46866296   -2.4880325   0.70229144   -1.7857411   0.14100714    11065.432     1000 
 2878000   0.49095068   -2.5047218    0.7356896   -1.7690322   0.14428688    10994.816     1000 
 2880000   0.47568346   -2.4447729   0.71281167   -1.7319612    0.1223128    11192.862     1000 
 2882000   0.48129077    -2.475645   0.72121421   -1.7544308   0.12684077    11283.504     1000 
 2884000    0.4856312   -2.5174862   0.72771836   -1.7897678   0.13981478    11044.942     1000 
 2886000   0.49665834   -2.4804066   0.74424252    -1.736164   0.13674564    11026.258     1000 
 2888000   0.50757518   -2.4839559   0.76060141   -1.7233545   0.15428348    10989.618     1000 
 2890000    0.4668605   -2.4845282   0.69959047   -1.7849377   0.14092257    11088.398     1000 
 2892000   0.48081106   -2.4983732   0.72049538   -1.7778779   0.12783325    11165.239     1000 
 2894000   0.47406122   -2.5311742   0.71038073   -1.8207935   0.13444053    11260.549     1000 
 2896000   0.49048038   -2.4482875   0.73498485   -1.7133026   0.12912279    11127.645     1000 
 2898000   0.48406559   -2.4965123   0.72537229     -1.77114   0.12944027    11187.269     1000 
 2900000   0.47788606   -2.4720328   0.71611226   -1.7559205    0.1257537    11077.016     1000 
 2902000     0.470184   -2.4758724   0.70457072   -1.7713017   0.13019361    11034.695     1000 
 2904000   0.47713869   -2.4768198   0.71499233   -1.7618275   0.12527307     11047.59     1000 
 2906000   0.50446678   -2.4916301   0.75594347   -1.7356867   0.12880868    11174.932     1000 
 2908000   0.48267934   -2.5533803     0.723295   -1.8300853   0.12639005    11141.389     1000 
 2910000    0.4790047   -2.5220026   0.71778855    -1.804214   0.12551097    11322.585     1000 
 2912000   0.50276176   -2.4931855    0.7533885    -1.739797   0.14629311    11076.637     1000 
 2914000   0.47590365    -2.439479   0.71314162   -1.7263374   0.15216773    10887.196     1000 
 2916000   0.47607384   -2.4797883   0.71339665   -1.7663916    0.1188317     11242.83     1000 
 2918000   0.45732926   -2.4004498    0.6853079   -1.7151419    0.1298484      11010.9     1000 
 2920000   0.47975163   -2.4808708   0.71890781    -1.761963   0.12182926    11257.704     1000 
 2922000   0.49540458   -2.4685591   0.74236376   -1.7261954   0.13642257     10951.72     1000 
 2924000   0.49636351   -2.4649805   0.74380073   -1.7211798   0.16009116    11083.393     1000 
 2926000   0.49391602    -2.495997   0.74013315   -1.7558638   0.13125799    11071.838     1000 
 2928000   0.48123588   -2.5056505   0.72113196   -1.7845186   0.10746547        11214     1000 
 2930000   0.48317215   -2.5421549   0.72403347   -1.8181215   0.13882971     11101.96     1000 
 2932000    0.5026195   -2.4769796   0.75317532   -1.7238043     0.133061    11113.873     1000 
 2934000   0.46520255   -2.4750364   0.69710602   -1.7779304   0.14088534    10957.393     1000 
 2936000   0.46911637   -2.4668773   0.70297088   -1.7639065   0.13962934    10967.613     1000 
 2938000   0.48202292   -2.5149669   0.72231135   -1.7926556   0.12422752    11212.672     1000 
 2940000   0.49702377   -2.4922962   0.74479012   -1.7475061   0.13713746    10930.979     1000 
 2942000   0.45994376   -2.4717552   0.68922572   -1.7825295    0.1338211    11072.594     1000 
 2944000   0.48129588   -2.4890007   0.72122187   -1.7677788   0.12115526    11279.276     1000 
 2946000   0.48964044   -2.4981792   0.73372619    -1.764453   0.12942729    11247.862     1000 
 2948000   0.47028796   -2.5027264   0.70472651   -1.7979999   0.12381245    11103.458     1000 
 2950000   0.49308629   -2.4792133    0.7388898   -1.7403235   0.13780154    10994.468     1000 
 2952000   0.47572022   -2.4844084   0.71286675   -1.7715416   0.13289768     11076.57     1000 
 2954000   0.48060203   -2.4596324   0.72018215   -1.7394502   0.12265022     11134.76     1000 
 2956000   0.47517633   -2.4977815   0.71205172   -1.7857297   0.12552894    11179.467     1000 
 2958000    0.4807309   -2.4737171   0.72037525   -1.7533419   0.14479723    10967.973     1000 
 2960000   0.48058938   -2.4811325   0.72016319   -1.7609693   0.12676506    11095.098     1000 
 2962000   0.48127719   -2.4779791   0.72119387   -1.7567852   0.12664804    10925.085     1000 
 2964000   0.49071704   -2.4789222   0.73533949   -1.7435827   0.13168654    11255.764     1000 
 2966000   0.47477949   -2.4131342   0.71145706   -1.7016771   0.13422273    10888.235     1000 
 2968000   0.47482831   -2.4838588   0.71153022   -1.7723286   0.13224057    11126.732     1000 
 2970000    0.4938396   -2.4461782   0.74001864   -1.7061595   0.12659266    11099.047     1000 
 2972000   0.49031489    -2.526709   0.73473686   -1.7919721   0.12470401    11318.765     1000 
 2974000   0.47300711   -2.4825645   0.70880116   -1.7737633   0.13842691    11191.892     1000 
 2976000   0.45810472    -2.470637   0.68646992   -1.7841671   0.12515453    11036.014     1000 
 2978000    0.4975276   -2.4879306    0.7455451   -1.7423855   0.12339828     11167.74     1000 
 2980000   0.48897755   -2.4846858   0.73273285    -1.751953   0.14948834    11036.099     1000 
 2982000   0.48610771   -2.4721687    0.7284324   -1.7437363    0.1116665     11070.61     1000 
 2984000   0.48520363   -2.4910709   0.72707763   -1.7639932   0.12325515    11300.009     1000 
 2986000   0.46907309   -2.4555225   0.70290603   -1.7526165   0.13994098    11005.402     1000 
 2988000   0.46928083   -2.5077563   0.70321732    -1.804539   0.13775926    11048.857     1000 
 2990000   0.45841477   -2.5036146   0.68693453   -1.8166801   0.12818134    11046.196     1000 
 2992000   0.47465337   -2.4269063   0.71126808   -1.7156382   0.13184148    11156.151     1000 
 2994000   0.47029861   -2.4110825   0.70474247     -1.70634   0.14595669    10931.369     1000 
 2996000   0.48187227   -2.5011867    0.7220856   -1.7791011   0.12339231    11002.848     1000 
 2998000   0.47961865   -2.4480048   0.71870855   -1.7292963   0.14169503    10963.544     1000 
 3000000   0.47185926   -2.4785717    0.7070811   -1.7714906   0.13421646    11063.498     1000 
Loop time of 1959.78 on 4 procs for 3000000 steps with 1000 atoms

Performance: 661297.778 tau/day, 1530.782 timesteps/s
96.7% CPU use with 4 MPI tasks x no OpenMP threads

MPI task timing breakdown:
Section |  min time  |  avg time  |  max time  |%varavg| %total
---------------------------------------------------------------
Pair    | 1473.8     | 1544.5     | 1623.1     | 143.9 | 78.81
Neigh   | 113.38     | 115.22     | 117.02     |  12.4 |  5.88
Comm    | 165.01     | 245.54     | 318.25     | 370.2 | 12.53
Output  | 0.026957   | 0.030178   | 0.039463   |   3.1 |  0.00
Modify  | 45.294     | 45.477     | 45.668     |   2.3 |  2.32
Other   |            | 8.985      |            |       |  0.46

Nlocal:    250 ave 258 max 244 min
Histogram: 2 0 0 0 0 0 1 0 0 1
Nghost:    2446.75 ave 2475 max 2427 min
Histogram: 1 0 1 1 0 0 0 0 0 1
Neighs:    26852 ave 28174 max 25557 min
Histogram: 1 0 0 0 1 1 0 0 0 1

Total # of neighbors = 107408
Ave neighs/atom = 107.408
Neighbor list builds = 150000
Dangerous builds not checked

Total wall time: 0:32:39
