LAMMPS (3 Mar 2020)
# ----------------------- Inicialização -----------------------

units			lj
atom_style 		atomic
dimension 		3
boundary 		p p p

# -------------------- Criação dos Átomos ---------------------

read_data 		topologia.txt
  orthogonal box = (0 0 0) to (21.54 21.54 21.54)
  1 by 2 by 2 MPI processor grid
  reading atoms ...
  1000 atoms
  read_data CPU = 0.00132837 secs

velocity 		all create ${temp} 87287 rot yes dist gaussian
velocity 		all create 0.56 87287 rot yes dist gaussian

# ------------------ Interação Interatômica -------------------

pair_style		table linear 1600
pair_coeff		1 1 force.table AA 8.0
WARNING: 3 of 1600 force values in table are inconsistent with -dE/dr.
  Should only be flagged at inflection points (src/pair_table.cpp:483)
pair_coeff		1 2 force.table AB 8.0
WARNING: 1 of 1600 force values in table are inconsistent with -dE/dr.
  Should only be flagged at inflection points (src/pair_table.cpp:483)
pair_coeff		2 2 force.table BB 8.0
pair_write		1 1 1600 r 0.008 8.0 table.check AA
Neighbor list info ...
  update every 1 steps, delay 10 steps, check yes
  max neighbors/atom: 2000, page size: 100000
  master list distance cutoff = 8.3
  ghost atom cutoff = 8.3
  binsize = 4.15, bins = 6 6 6
  1 neighbor lists, perpetual/occasional/extra = 1 0 0
  (1) pair table, perpetual
      attributes: half, newton on
      pair build: half/bin/atomonly/newton
      stencil: half/bin/3d/newton
      bin: standard
pair_write		1 2 1600 r 0.008 8.0 table.check AB
pair_write		2 2 1600 r 0.008 8.0 table.check BB

neighbor 		0.3 bin
neigh_modify		every 20 delay 0 check no

# ------------------------- Ensemble --------------------------------------

fix 1			all npt temp ${temp} ${temp} 0.5 iso ${press} ${press} 5
fix 1			all npt temp 0.56 ${temp} 0.5 iso ${press} ${press} 5
fix 1			all npt temp 0.56 0.56 0.5 iso ${press} ${press} 5
fix 1			all npt temp 0.56 0.56 0.5 iso 0.13 ${press} 5
fix 1			all npt temp 0.56 0.56 0.5 iso 0.13 0.13 5

# ---------------------- Função de Distribuição Radial -----------------------

#compute RDF 		all rdf 2000 1 1 1 2 2 2
#fix 2 			all ave/time 1 2000 2000 c_RDF[*] file rdf.data mode vector

# ------------------------- Execução ---------------------------

timestep 		0.005
thermo_style		custom step temp pe ke etotal press vol atoms
thermo			2000
run			3000000
Per MPI rank memory allocation (min/avg/max) = 2.675 | 2.675 | 2.675 Mbytes
Step Temp PotEng KinEng TotEng Press Volume Atoms 
       0         0.56   0.87934176      0.83916    1.7185018    1.2979752    9993.9483     1000 
    2000   0.55777727   -2.2648835   0.83582925   -1.4290543   0.12833671    11226.405     1000 
    4000   0.57559725   -2.2989243   0.86253248   -1.4363918   0.12962211    11064.881     1000 
    6000    0.5574636   -2.2507634   0.83535921   -1.4154042   0.13913505    11066.485     1000 
    8000   0.55536166   -2.2193255   0.83220945    -1.387116   0.14013241     11010.33     1000 
   10000   0.57933503    -2.263485   0.86813354   -1.3953514   0.12440302    11132.076     1000 
   12000   0.56723162    -2.233127   0.84999658   -1.3831304    0.1378097    10973.477     1000 
   14000   0.55334181   -2.2741799   0.82918271   -1.4449972   0.12501801    11112.277     1000 
   16000    0.5541952    -2.245764    0.8304615   -1.4153025   0.13055058    11053.399     1000 
   18000   0.55985479   -2.2606112   0.83894241   -1.4216688     0.142767    11131.366     1000 
   20000   0.54931333    -2.213739   0.82314602    -1.390593   0.13273201    11157.937     1000 
   22000   0.57452813   -2.2802623    0.8609304   -1.4193319   0.12355651    11248.165     1000 
   24000   0.53610852   -2.3850532   0.80335862   -1.5816946   0.12101523    11314.133     1000 
   26000    0.5416516   -2.2188514   0.81166493   -1.4071865   0.13558831    11094.649     1000 
   28000   0.58229199   -2.2219092   0.87256455   -1.3493446   0.12470448    11076.251     1000 
   30000   0.54859432   -2.3299893   0.82206859   -1.5079207   0.12643345    11210.035     1000 
   32000   0.55181628   -2.2643891    0.8268967   -1.4374924   0.12785817    11177.983     1000 
   34000   0.56286317    -2.286701   0.84345046   -1.4432506   0.13952135    11055.105     1000 
   36000   0.55605782   -2.2174493   0.83325264   -1.3841966   0.13131421    10964.333     1000 
   38000   0.53399362   -2.3124125   0.80018943   -1.5122231   0.12762188     11334.43     1000 
   40000   0.56138707   -2.2532965   0.84123852    -1.412058   0.12683434    11110.795     1000 
   42000   0.53099622   -2.2302174   0.79569783   -1.4345195    0.1331445    11137.144     1000 
   44000    0.5598759   -2.2573922   0.83897403   -1.4184182   0.11869917     11310.05     1000 
   46000   0.54909447   -2.2584536   0.82281807   -1.4356355   0.14386379    10998.208     1000 
   48000   0.56701945   -2.3135195   0.84967864   -1.4638409   0.12159559    11262.031     1000 
   50000   0.54087267   -2.3219589   0.81049769   -1.5114612   0.12899467    11235.922     1000 
   52000   0.56693934     -2.30441    0.8495586   -1.4548514   0.13212507    11202.539     1000 
   54000   0.56274425   -2.2881945   0.84327226   -1.4449222   0.11664854     11298.39     1000 
   56000   0.53475942   -2.2413996   0.80133699   -1.4400626   0.13004205    11044.555     1000 
   58000   0.54470568     -2.25821   0.81624146   -1.4419685   0.14033917     11070.06     1000 
   60000   0.52646666    -2.288836    0.7889103   -1.4999257   0.11251103    11246.004     1000 
   62000   0.56360613   -2.2510732   0.84456379   -1.4065094   0.12355316    11218.737     1000 
   64000   0.53502422   -2.2708359   0.80173379   -1.4691021   0.13487626    11047.331     1000 
   66000   0.54768318   -2.2664152   0.82070325   -1.4457119   0.11859798     11259.51     1000 
   68000   0.56558708   -2.2582985   0.84753223   -1.4107662   0.13422563    11143.623     1000 
   70000    0.5383058   -2.2835457   0.80665124   -1.4768945   0.11281789    11228.408     1000 
   72000   0.56334972   -2.2706047   0.84417956   -1.4264251   0.12299201    11250.226     1000 
   74000   0.57161873   -2.2615621   0.85657067   -1.4049914     0.136543    11008.352     1000 
   76000   0.55721858   -2.2764135   0.83499204   -1.4414215   0.12671345    11322.619     1000 
   78000   0.56852312   -2.2756307    0.8519319   -1.4236988    0.1244108     11215.67     1000 
   80000   0.55747931    -2.231959   0.83538275   -1.3965763   0.14758283    11059.851     1000 
   82000   0.57960472   -2.3146766   0.86853767    -1.446139   0.13378574    11120.687     1000 
   84000    0.5841389   -2.3158141   0.87533215    -1.440482    0.1360176    11093.684     1000 
   86000   0.56918644   -2.2705868   0.85292588   -1.4176609   0.12641254    11214.499     1000 
   88000   0.55292559   -2.2415373   0.82855899   -1.4129783    0.1282344    11103.397     1000 
   90000   0.57129943   -2.2339004    0.8560922   -1.3778082   0.13356991    10950.867     1000 
   92000   0.55934298   -2.2543852   0.83817546   -1.4162098   0.13132418    11057.392     1000 
   94000   0.55145528    -2.237566   0.82635573   -1.4112103   0.12737922    11082.545     1000 
   96000   0.57872337   -2.3440687   0.86721696   -1.4768517   0.12845158    11206.863     1000 
   98000   0.57177735   -2.2529993   0.85680835    -1.396191    0.1191316    11252.833     1000 
  100000   0.55201517   -2.2289814   0.82719473   -1.4017867   0.12672497    11069.375     1000 
  102000   0.54775938    -2.291303   0.82081744   -1.4704856   0.12888604    11163.364     1000 
  104000   0.54049821   -2.2856022   0.80993656   -1.4756656   0.11297529    11171.923     1000 
  106000   0.55182754   -2.3203391   0.82691357   -1.4934255   0.11779477    11234.286     1000 
  108000   0.58519605   -2.2554971   0.87691628   -1.3785808   0.11963381    11152.777     1000 
  110000   0.56424093   -2.2630768   0.84551504   -1.4175618   0.12608188    11082.616     1000 
  112000   0.54870476   -2.2847585   0.82223409   -1.4625244   0.11464269     11360.56     1000 
  114000   0.56994927   -2.2535118   0.85406898   -1.3994429   0.12046762    11262.336     1000 
  116000   0.56337838   -2.2267929   0.84422251   -1.3825704   0.13910098    11098.702     1000 
  118000   0.56174805   -2.2236282   0.84177946   -1.3818487   0.11234027     11277.93     1000 
  120000   0.58211946   -2.2599697   0.87230601   -1.3876637   0.15051423    10874.392     1000 
  122000   0.55938407   -2.2234717   0.83823702   -1.3852347    0.1339054    11052.811     1000 
  124000    0.5837789   -2.2424622   0.87479268   -1.3676695   0.10915343     11394.61     1000 
  126000   0.54557413   -2.3155452   0.81754284   -1.4980024   0.12327122    11259.364     1000 
  128000    0.5724333   -2.2836012   0.85779129   -1.4258099   0.13243091    10945.338     1000 
  130000   0.56197581   -2.3110679   0.84212075   -1.4689472   0.11619976    11245.433     1000 
  132000   0.54992827    -2.259704   0.82406751   -1.4356365   0.13130532    11082.879     1000 
  134000   0.55859164   -2.3401966   0.83704958    -1.503147   0.13027109    11314.371     1000 
  136000   0.54068564   -2.2467244   0.81021743    -1.436507   0.12245071    11110.687     1000 
  138000   0.56356086   -2.2840256   0.84449595   -1.4395297   0.12588242    11150.133     1000 
  140000   0.55962139   -2.3348081   0.83859265   -1.4962154   0.13345963    11273.894     1000 
  142000   0.55499785   -2.3090805   0.83166428   -1.4774163   0.12496659    11145.597     1000 
  144000   0.57341438   -2.2196745   0.85926144    -1.360413   0.12977635    11096.168     1000 
  146000   0.57267379   -2.2459889   0.85815168   -1.3878372   0.11880978    11165.419     1000 
  148000   0.57026658   -2.3118843   0.85454447   -1.4573399   0.13242758     11123.09     1000 
  150000   0.55692887   -2.2561518   0.83455791   -1.4215939   0.14082521    10980.894     1000 
  152000   0.57564169   -2.2594274   0.86259907   -1.3968284   0.11965562    11406.173     1000 
  154000   0.59256942   -2.2180456   0.88796527   -1.3300803   0.14576716    10858.896     1000 
  156000   0.56366234   -2.2717091   0.84464801   -1.4270611   0.13056823    11182.738     1000 
  158000   0.57417759   -2.3065389   0.86040511   -1.4461338   0.13217114    11189.757     1000 
  160000   0.54884022   -2.2669401   0.82243708    -1.444503   0.13693573     10940.64     1000 
  162000   0.58355005     -2.27257   0.87444975   -1.3981202   0.13732989    11124.776     1000 
  164000   0.57275041   -2.2810358   0.85826649   -1.4227693   0.14321991    10961.277     1000 
  166000   0.53897284   -2.3102938   0.80765079    -1.502643   0.11763141    11256.216     1000 
  168000   0.54177286   -2.3071076   0.81184663    -1.495261   0.12585861    11226.826     1000 
  170000   0.55406569   -2.2370443   0.83026744   -1.4067769   0.13617565    10913.222     1000 
  172000   0.55991967   -2.2782041   0.83903963   -1.4391645     0.156865    10848.139     1000 
  174000   0.56781486   -2.2460758   0.85087057   -1.3952053   0.13775482    11119.596     1000 
  176000   0.54060869   -2.2750521   0.81010212     -1.46495    0.1178604    11118.177     1000 
  178000   0.57555373   -2.3191493   0.86246727    -1.456682    0.1419503    11066.882     1000 
  180000   0.55287331   -2.3085515   0.82848066   -1.4800709   0.12453965    11125.518     1000 
  182000   0.57095657   -2.3026809   0.85557842   -1.4471025   0.12850866    11285.091     1000 
  184000   0.58603344   -2.2485019   0.87817111   -1.3703308    0.1300207    11069.445     1000 
  186000   0.54951046   -2.3032105   0.82344143   -1.4797691   0.12591666    11179.192     1000 
  188000   0.57598237   -2.3094448   0.86310959   -1.4463352   0.11390875    11398.662     1000 
  190000   0.58582935   -2.3054381   0.87786528   -1.4275728   0.13412025    11169.053     1000 
  192000   0.57075492   -2.2589355   0.85527624   -1.4036593   0.12961562    11122.427     1000 
  194000   0.55638817    -2.288795   0.83374768   -1.4550473    0.1258145     11144.65     1000 
  196000   0.57880814   -2.2379256   0.86734399   -1.3705816   0.14054194    11067.508     1000 
  198000   0.56223242   -2.2656865   0.84250528   -1.4231813    0.1464141    10991.917     1000 
  200000    0.5777072   -2.3277083   0.86569423    -1.462014   0.12321321    11313.632     1000 
  202000   0.55963118   -2.2590847   0.83860732   -1.4204774   0.13343839    11143.159     1000 
  204000   0.56182313   -2.2557083   0.84189197   -1.4138163   0.14032294    11195.761     1000 
  206000    0.5551076   -2.2230809   0.83182873   -1.3912522   0.13020118     11172.11     1000 
  208000   0.57236322    -2.284769   0.85768628   -1.4270827   0.12650437    11205.514     1000 
  210000   0.53981936   -2.3087103    0.8089193    -1.499791   0.12214144    11171.089     1000 
  212000   0.54880647   -2.2433273   0.82238649   -1.4209408   0.12011111     10917.53     1000 
  214000   0.54333808   -2.2592811   0.81419211    -1.445089   0.14495187    11088.855     1000 
  216000   0.54102188   -2.2609577   0.81072128   -1.4502364   0.12592378    11131.825     1000 
  218000   0.54258015   -2.2480383   0.81305636   -1.4349819   0.15187775    10837.441     1000 
  220000   0.56842736    -2.304444    0.8517884   -1.4526556   0.13032809    11109.203     1000 
  222000   0.56798454   -2.3193894   0.85112483   -1.4682645   0.13299729    11251.618     1000 
  224000   0.56351143   -2.2406695   0.84442188   -1.3962477   0.13344459    11197.843     1000 
  226000   0.57236508   -2.3011599   0.85768907   -1.4434708   0.13562681    11142.162     1000 
  228000   0.55667932   -2.2817946   0.83418395   -1.4476106   0.14918616    10941.337     1000 
  230000   0.54857984   -2.2816616   0.82204689   -1.4596147   0.12299173    11285.786     1000 
  232000    0.5648239    -2.268656   0.84638862   -1.4222674   0.11759581    11263.231     1000 
  234000   0.55604391    -2.281097   0.83323181   -1.4478652   0.11863113      11128.2     1000 
  236000   0.54744629   -2.2456466   0.82034826   -1.4252984   0.13822409    10984.062     1000 
  238000   0.55998204   -2.2676407   0.83913309   -1.4285076   0.13376424    11139.802     1000 
  240000   0.59695467   -2.2995645   0.89453658   -1.4050279   0.13979947    11105.022     1000 
  242000   0.53075548   -2.2740438   0.79533709   -1.4787067   0.13391577    11013.306     1000 
  244000   0.55899736   -2.3402174   0.83765754   -1.5025598   0.12662768    11110.083     1000 
  246000   0.57475026   -2.2124644   0.86126327   -1.3512011   0.12264661    11216.632     1000 
  248000   0.57056878   -2.2462379   0.85499732   -1.3912406   0.15021743    11042.894     1000 
  250000   0.57931756   -2.2723815   0.86810737   -1.4042741   0.12786329    11315.834     1000 
  252000   0.56153735   -2.2306312   0.84146372   -1.3891675   0.13715746    11105.901     1000 
  254000    0.5566525   -2.3074699   0.83414377   -1.4733261   0.12568091    11123.612     1000 
  256000   0.55301282   -2.2594346   0.82868971   -1.4307449   0.13182021    11167.959     1000 
  258000   0.56399226   -2.2397735    0.8451424   -1.3946311   0.13812992    11003.629     1000 
  260000   0.55263092   -2.3290916   0.82811744   -1.5009742   0.12509379    11480.486     1000 
  262000   0.58514017   -2.3263251   0.87683254   -1.4494925   0.12313972    11295.499     1000 
  264000    0.5790485   -2.2841841   0.86770417   -1.4164799   0.11618611    11347.744     1000 
  266000   0.56385168    -2.276804   0.84493174   -1.4318723   0.13180215    10968.986     1000 
  268000   0.54227855   -2.2858414    0.8126044    -1.473237   0.12843404    11087.497     1000 
  270000   0.54387744   -2.2813405   0.81500035   -1.4663401    0.1227288    11401.212     1000 
  272000   0.57320402   -2.3359892   0.85894622    -1.477043   0.11600707    11319.176     1000 
  274000   0.55379707   -2.2622787    0.8298649   -1.4324138   0.11966756    11191.384     1000 
  276000   0.58044444   -2.2408604   0.86979599   -1.3710644   0.12874227    11056.259     1000 
  278000   0.58249232   -2.2777537   0.87286474    -1.404889   0.12829908    11135.636     1000 
  280000   0.57400602   -2.2246761   0.86014802   -1.3645281   0.13466142    11010.611     1000 
  282000    0.5579261   -2.2870396   0.83605226   -1.4509874   0.12830642    11204.763     1000 
  284000   0.57552157   -2.2555077   0.86241907   -1.3930886   0.13530085    11012.931     1000 
  286000   0.55075761   -2.3009306   0.82531027   -1.4756204   0.13535814    11158.149     1000 
  288000   0.56284569   -2.2430107   0.84342427   -1.3995865   0.13998998    11103.479     1000 
  290000   0.57565812    -2.283076   0.86262369   -1.4204523   0.13458664    11005.742     1000 
  292000   0.56923523   -2.2393151     0.852999   -1.3863161   0.12945624    11034.922     1000 
  294000    0.5671699   -2.2922206   0.84990409   -1.4423166   0.12178014     11126.17     1000 
  296000   0.54508066   -2.2855139   0.81680336   -1.4687105   0.12692361    11195.555     1000 
  298000   0.57230462   -2.2206888   0.85759847   -1.3630903   0.14348043    10950.277     1000 
  300000   0.56054456   -2.2594787   0.83997603   -1.4195027   0.12416561    11131.148     1000 
  302000   0.56195056   -2.3049092   0.84208291   -1.4628263   0.11722551    11370.912     1000 
  304000   0.58317156   -2.2312891   0.87388258   -1.3574065    0.1267534    11053.616     1000 
  306000   0.55986471   -2.2682182   0.83895727   -1.4292609   0.13394207    11171.795     1000 
  308000   0.60897801   -2.2746568   0.91255355   -1.3621032   0.14461078     11071.26     1000 
  310000   0.57221405   -2.2764719   0.85746275   -1.4190091   0.12516941    11411.899     1000 
  312000   0.57243518    -2.255572   0.85779412   -1.3977779   0.13551243    10829.353     1000 
  314000   0.55676552   -2.3037805   0.83431314   -1.4694674    0.1238887    11238.687     1000 
  316000   0.59473842   -2.2274039   0.89121552   -1.3361884   0.13621608    10992.077     1000 
  318000   0.54843461    -2.276049   0.82182927   -1.4542197   0.11638779    11250.005     1000 
  320000   0.54927154   -2.2043672   0.82308341   -1.3812838   0.13957445    10921.939     1000 
  322000   0.56387554    -2.276638    0.8449675   -1.4316705   0.13355237     11066.43     1000 
  324000   0.55105412   -2.2091668    0.8257546   -1.3834122   0.12948576    10984.052     1000 
  326000   0.58030529   -2.2456007   0.86958747   -1.3760132   0.12900489    11190.277     1000 
  328000   0.60205311   -2.3055661   0.90217659   -1.4033895   0.13380758    11244.982     1000 
  330000   0.54262529   -2.2999495     0.813124   -1.4868255   0.12586515    11154.179     1000 
  332000   0.56911266   -2.2820586   0.85281532   -1.4292433   0.12912037    11300.973     1000 
  334000   0.59346993   -2.2750806   0.88931469   -1.3857659   0.11992091    11246.585     1000 
  336000   0.53067486   -2.2272093   0.79521628   -1.4319931   0.12287094     11091.69     1000 
  338000   0.57201599   -2.2743498   0.85716596   -1.4171838   0.13742979    11153.106     1000 
  340000   0.53409044   -2.2846306   0.80033453    -1.484296   0.12502017    11140.425     1000 
  342000   0.55435569   -2.2513993   0.83070199   -1.4206974   0.12484329    11159.413     1000 
  344000   0.55774669   -2.1778999   0.83578341   -1.3421165    0.1415384    10893.791     1000 
  346000    0.5501807   -2.1969108   0.82444578   -1.3724651   0.13328938    11074.286     1000 
  348000   0.51639542   -2.3097068   0.77381854   -1.5358883   0.12066332    11149.449     1000 
  350000   0.55068411   -2.2442681   0.82520013    -1.419068   0.12393731    11203.351     1000 
  352000   0.56709283   -2.2354069    0.8497886   -1.3856183   0.12575322     11068.27     1000 
  354000   0.55577186   -2.2783178   0.83282414   -1.4454937   0.12623171    11284.708     1000 
  356000   0.57271723   -2.2573568   0.85821677   -1.3991401   0.13044197    11265.096     1000 
  358000   0.56136208    -2.243119   0.84120108    -1.401918    0.1404076    11014.213     1000 
  360000   0.58642686   -2.3130496   0.87876066   -1.4342889   0.14388747    11141.205     1000 
  362000   0.59163274   -2.3050502   0.88656166   -1.4184885    0.1284769    11195.579     1000 
  364000   0.55025897     -2.26335   0.82456307   -1.4387869   0.11178102    11360.379     1000 
  366000   0.57801806   -2.3041246   0.86616007   -1.4379645   0.13090932    11189.918     1000 
  368000   0.55133707    -2.302137   0.82617859   -1.4759584   0.11943066    11251.069     1000 
  370000    0.5448928    -2.269719   0.81652185   -1.4531972   0.13468542    11067.262     1000 
  372000   0.56849969   -2.2276571   0.85189679   -1.3757603   0.13542936    11169.723     1000 
  374000   0.54765032   -2.2235249     0.820654   -1.4028709   0.13023324    10973.555     1000 
  376000   0.54173474   -2.2492948    0.8117895   -1.4375053   0.12018584    11157.647     1000 
  378000   0.57599681   -2.2597197   0.86313123   -1.3965885   0.12839335    11321.158     1000 
  380000   0.58237303   -2.3253749   0.87268599   -1.4526889   0.13568947    11118.606     1000 
  382000   0.54594807   -2.3037174   0.81810318   -1.4856142   0.13259324    11246.439     1000 
  384000   0.54612777   -2.3051313   0.81837246   -1.4867588   0.13637021    11133.859     1000 
  386000   0.56131564    -2.284084   0.84113149   -1.4429525   0.13807993    11184.013     1000 
  388000   0.54979365    -2.259547   0.82386579   -1.4356812   0.13004662    11097.905     1000 
  390000   0.57998613   -2.3099254   0.86910921   -1.4408161   0.12142439    11220.924     1000 
  392000   0.57021239   -2.3151285   0.85446327   -1.4606652   0.12408489    11220.135     1000 
  394000   0.56226583   -2.2714363   0.84255534    -1.428881   0.13203292    11238.365     1000 
  396000   0.56418452   -2.2319739    0.8454305   -1.3865434   0.13457489    10952.288     1000 
  398000   0.54527216   -2.2954933   0.81709034   -1.4784029   0.14982325    11013.976     1000 
  400000   0.57683799   -2.2293464   0.86439172   -1.3649547   0.14313295    10894.504     1000 
  402000   0.56070556   -2.2373878   0.84021728   -1.3971705   0.13312685    11076.537     1000 
  404000   0.57079264   -2.2840342   0.85533277   -1.4287014   0.13033071    11193.235     1000 
  406000   0.57285721   -2.2336922   0.85842652   -1.3752657   0.13637935    11034.928     1000 
  408000   0.58292445   -2.3129948   0.87351229   -1.4394825   0.13586578    11370.734     1000 
  410000   0.54312523   -2.3094736   0.81387315   -1.4956005   0.13539511    11152.412     1000 
  412000   0.55635518   -2.2847953   0.83369824   -1.4510971   0.11850314    11068.427     1000 
  414000   0.56057456   -2.3068914   0.84002098   -1.4668705   0.12935162    11009.139     1000 
  416000   0.57330141   -2.2992129   0.85909216   -1.4401208    0.1310587    11174.137     1000 
  418000   0.56987785    -2.297603   0.85396196    -1.443641   0.10215494    11323.405     1000 
  420000   0.55986985   -2.2972249   0.83896497   -1.4582599   0.13279103    11199.602     1000 
  422000   0.56896888   -2.2250582   0.85259987   -1.3724584   0.13902077    10971.626     1000 
  424000   0.56216955   -2.2736534   0.84241107   -1.4312424    0.1390354     10972.35     1000 
  426000   0.58529923   -2.2942027   0.87707089   -1.4171318   0.12990837    11137.456     1000 
  428000   0.56897431   -2.2447231     0.852608   -1.3921151   0.14527278    10974.421     1000 
  430000   0.54812849   -2.2864559   0.82137054   -1.4650854   0.13810616    11183.964     1000 
  432000   0.55199186   -2.2676615    0.8271598   -1.4405017   0.12148916    11185.398     1000 
  434000   0.58798165   -2.3412006    0.8810905   -1.4601101   0.13218763    11155.444     1000 
  436000   0.54083635   -2.2970492   0.81044327   -1.4866059   0.13073583    11038.415     1000 
  438000   0.57826506   -2.2742801    0.8665302   -1.4077499   0.12889663    11151.574     1000 
  440000   0.53583979   -2.2881797   0.80295593   -1.4852238   0.13444315    11233.515     1000 
  442000   0.57613013   -2.2888827     0.863331   -1.4255517   0.12858412    11287.958     1000 
  444000   0.57532487   -2.2561046   0.86212431   -1.3939803    0.1355444    11174.854     1000 
  446000   0.56006427   -2.2622203   0.83925631    -1.422964   0.12862555    11115.586     1000 
  448000   0.58215386   -2.2481961   0.87235756   -1.3758385   0.13040103    11205.507     1000 
  450000   0.55992946   -2.2461337    0.8390543   -1.4070794   0.11876301    11103.592     1000 
  452000    0.5723884   -2.3028764   0.85772402   -1.4451524   0.12871055    11259.718     1000 
  454000   0.56544505   -2.3359801    0.8473194   -1.4886607   0.13581153    11176.011     1000 
  456000   0.57207145    -2.286253   0.85724906    -1.429004   0.13569699    10993.494     1000 
  458000    0.5632613   -2.2677553   0.84404705   -1.4237082   0.13275377    11065.285     1000 
  460000   0.58020895   -2.2358851   0.86944311    -1.366442   0.12967862     11219.86     1000 
  462000    0.5521038   -2.2587512   0.82732754   -1.4314237   0.12243541    11159.859     1000 
  464000   0.58428239   -2.2368976   0.87554716   -1.3613505   0.13086868    11061.244     1000 
  466000   0.58220845   -2.2890385   0.87243937   -1.4165991   0.13546892    11193.439     1000 
  468000   0.57410143   -2.2699341   0.86029099   -1.4096431   0.13895118    11093.749     1000 
  470000   0.56364946   -2.2518465   0.84462871   -1.4072178   0.12936502    11075.436     1000 
  472000   0.57960784   -2.2948447   0.86854235   -1.4263024    0.1381765      11045.8     1000 
  474000   0.56920785   -2.2395769   0.85295797    -1.386619   0.13083807    11249.178     1000 
  476000   0.56889946   -2.3057578   0.85249584   -1.4532619   0.12802925    11097.175     1000 
  478000   0.58824906   -2.2536663   0.88149122   -1.3721751   0.12634355    11194.492     1000 
  480000   0.57783827   -2.3150703   0.86589064   -1.4491796   0.14760391    11006.869     1000 
  482000   0.55460847   -2.2160598    0.8310808    -1.384979   0.15011016    10992.755     1000 
  484000   0.53568004   -2.2867303   0.80271655   -1.4840138   0.12407225    11221.506     1000 
  486000   0.56282211   -2.2856604   0.84338893   -1.4422715   0.11589152     11216.94     1000 
  488000   0.56128764   -2.2608638   0.84108953   -1.4197743   0.12659832     11336.44     1000 
  490000   0.56414544   -2.2274567   0.84537194   -1.3820848   0.14354889    11085.754     1000 
  492000   0.55589121   -2.2830091   0.83300297   -1.4500061   0.13471872    11017.955     1000 
  494000   0.55146476   -2.2807538   0.82636995   -1.4543839   0.13247143    11186.199     1000 
  496000   0.54955004   -2.2858658   0.82350073   -1.4623651    0.1293377    11195.252     1000 
  498000   0.55207493    -2.331936   0.82728428   -1.5046517   0.11528402    11242.114     1000 
  500000   0.54646786    -2.250059   0.81888209   -1.4311769   0.13264708    10998.355     1000 
  502000   0.53290877   -2.2574478    0.7985638    -1.458884    0.1181084    11073.016     1000 
  504000   0.55897982   -2.2555667   0.83763126   -1.4179355   0.13051323     11281.58     1000 
  506000    0.5429978   -2.2696696   0.81368221   -1.4559874    0.1357279    11060.473     1000 
  508000   0.57062304   -2.2532129   0.85507863   -1.3981343   0.13171137     11127.79     1000 
  510000   0.54566397   -2.3294905   0.81767746   -1.5118131   0.11695526    11222.987     1000 
  512000   0.56166177   -2.2873986   0.84165016   -1.4457484   0.12195417    11294.143     1000 
  514000   0.54429956   -2.3028524    0.8156329   -1.4872195   0.11674548    11383.575     1000 
  516000   0.56843695   -2.2812139   0.85180276   -1.4294111   0.10658191    11211.202     1000 
  518000   0.54876705   -2.2344182   0.82232742   -1.4120908   0.13313491    11024.532     1000 
  520000   0.55880594   -2.3334395    0.8373707   -1.4960688   0.13154167     11205.43     1000 
  522000   0.53957042    -2.267204   0.80854627   -1.4586577    0.1273837    11177.359     1000 
  524000   0.56798431   -2.2668032   0.85112449   -1.4156787   0.11798586    11276.725     1000 
  526000   0.55968878   -2.3028355   0.83869364   -1.4641419   0.13441493    11054.187     1000 
  528000   0.54944986    -2.294741   0.82335061   -1.4713903   0.12017353    11106.897     1000 
  530000   0.55527149   -2.3091542   0.83207434   -1.4770799    0.1278288    11217.115     1000 
  532000   0.55260068   -2.2624639   0.82807211   -1.4343918    0.1293368    11145.666     1000 
  534000   0.57639279   -2.2671762    0.8637246   -1.4034516   0.12679645    11163.024     1000 
  536000   0.54106775   -2.2619469   0.81079002   -1.4511569   0.11787967    11079.598     1000 
  538000   0.56152701   -2.2791185   0.84144823   -1.4376703   0.12779292    11141.229     1000 
  540000    0.5757316   -2.3127733    0.8627338   -1.4500395   0.13495692    11142.968     1000 
  542000   0.57412806   -2.2732364    0.8603309   -1.4129055   0.13776874    11070.966     1000 
  544000   0.59131062   -2.2908896   0.88607896   -1.4048107   0.13061267    11231.083     1000 
  546000   0.56964199   -2.2642953   0.85360852   -1.4106868   0.12224319    11148.354     1000 
  548000   0.55038661   -2.2292072   0.82475434   -1.4044528   0.14168185    10887.829     1000 
  550000     0.549981   -2.2649167   0.82414654   -1.4407702   0.13986008     10888.75     1000 
  552000   0.54032364   -2.2571664   0.80967497   -1.4474914    0.1222233    11202.128     1000 
  554000   0.55963893   -2.3064954   0.83861893   -1.4678765   0.12999793    11162.327     1000 
  556000   0.57772855   -2.3200964   0.86572623   -1.4543702   0.11349686    11241.438     1000 
  558000   0.55763794   -2.2036231   0.83562045   -1.3680027   0.13517034    11111.871     1000 
  560000   0.57082691   -2.2892031   0.85538412    -1.433819    0.1347242    11121.542     1000 
  562000   0.57682524   -2.2306324   0.86437263   -1.3662598   0.14333037    10845.622     1000 
  564000   0.54416534   -2.2551922   0.81543177   -1.4397605    0.1196398    11066.011     1000 
  566000   0.55081937   -2.2597294   0.82540283   -1.4343266   0.12638988    11094.347     1000 
  568000   0.56686851   -2.2644267   0.84945246   -1.4149743   0.13274581    11225.702     1000 
  570000   0.55803494   -2.2965286   0.83621536   -1.4603132   0.11606794     11307.89     1000 
  572000   0.54907599   -2.2647658   0.82279037   -1.4419754   0.10916468    11258.038     1000 
  574000   0.55106032   -2.2428852    0.8257639   -1.4171213   0.12929671    11029.668     1000 
  576000   0.55930599   -2.2880763   0.83812003   -1.4499562   0.13747313    11012.916     1000 
  578000   0.52579813   -2.3078633   0.78790849   -1.5199548   0.11842541    11323.214     1000 
  580000   0.55218353   -2.2815338   0.82744702   -1.4540868   0.12219828    11237.802     1000 
  582000   0.57558884   -2.2626175   0.86251988   -1.4000976   0.14980004    11129.082     1000 
  584000   0.55318723   -2.3179658   0.82895106   -1.4890147   0.13259386    11091.748     1000 
  586000   0.56480535   -2.2973759   0.84636081   -1.4510151   0.12420185    11212.131     1000 
  588000   0.54729333   -2.2922844   0.82011906   -1.4721654   0.12515739    11121.819     1000 
  590000   0.57168898   -2.2847583   0.85667594   -1.4280824   0.12693204    11346.562     1000 
  592000   0.56582994    -2.270931   0.84789616   -1.4230348   0.12706981    11040.464     1000 
  594000   0.55719433   -2.2330323    0.8349557   -1.3980766   0.13279529    11042.369     1000 
  596000   0.55818673   -2.3080766   0.83644282   -1.4716338   0.12070281    11227.985     1000 
  598000   0.54256625   -2.2153154   0.81303552   -1.4022798   0.13377781    11168.172     1000 
  600000   0.56056764   -2.2589283   0.84001061   -1.4189177   0.14212823    10967.192     1000 
  602000   0.55043653    -2.300624   0.82482914   -1.4757948   0.12921618    11128.842     1000 
  604000   0.56999044   -2.2901398   0.85413068   -1.4360092    0.1272874    11233.853     1000 
  606000   0.55259521   -2.2970158   0.82806393   -1.4689519   0.13581419    11086.222     1000 
  608000   0.57296456   -2.2744647   0.85858739   -1.4158773   0.13412567    11018.197     1000 
  610000   0.56512352   -2.3127774    0.8468376   -1.4659398   0.13340435    11222.374     1000 
  612000   0.55609289   -2.3162554    0.8333052   -1.4829502   0.11670447    11290.917     1000 
  614000   0.55900377    -2.229944   0.83766715   -1.3922769   0.12965111    11056.692     1000 
  616000    0.5382717   -2.2769637   0.80660015   -1.4703636   0.11927903    11183.369     1000 
  618000   0.52143725   -2.2974246   0.78137372   -1.5160509   0.11981746    11199.375     1000 
  620000   0.58379549   -2.2699435   0.87481755   -1.3951259   0.13166037    11122.141     1000 
  622000   0.56536078   -2.2899128   0.84719313   -1.4427197   0.12422239    11071.508     1000 
  624000   0.55902318   -2.2949167   0.83769624   -1.4572205   0.11830148    10966.587     1000 
  626000   0.55527366   -2.3426482   0.83207758   -1.5105706   0.12091579    11279.979     1000 
  628000   0.55942365   -2.2461349   0.83829633   -1.4078386    0.1482895    10886.549     1000 
  630000   0.55498855   -2.2597114   0.83165035    -1.428061   0.12841518    11168.047     1000 
  632000   0.56438585   -2.2835818    0.8457322   -1.4378496   0.12885007    11169.467     1000 
  634000   0.56816777   -2.3254813   0.85139941   -1.4740819   0.12185192    11258.973     1000 
  636000    0.5687183   -2.2937456   0.85222438   -1.4415212   0.13023957    11255.784     1000 
  638000   0.53164407   -2.2601182   0.79666864   -1.4634495    0.1272062    11163.492     1000 
  640000   0.52754892   -2.2428542   0.79053205   -1.4523222   0.12794172    11130.047     1000 
  642000   0.58841242    -2.306989   0.88173601    -1.425253   0.13155019    11030.138     1000 
  644000   0.57780651   -2.3247812   0.86584306   -1.4589382   0.13844969    11239.154     1000 
  646000   0.54241596   -2.2503902   0.81281032   -1.4375799   0.13559688    11082.142     1000 
  648000   0.56184256   -2.2574559   0.84192108   -1.4155348   0.11312641    11205.631     1000 
  650000   0.54858347   -2.3153001   0.82205233   -1.4932478   0.11273621     11310.63     1000 
  652000   0.52548387   -2.2322371   0.78743757   -1.4447996   0.12897802    10831.465     1000 
  654000   0.56008197      -2.2959   0.83928284   -1.4566171   0.12794152    11243.904     1000 
  656000   0.54035133    -2.262072   0.80971646   -1.4523555   0.13393373    10988.314     1000 
  658000   0.53855015   -2.2590971    0.8070174   -1.4520797   0.12549839    10931.587     1000 
  660000   0.57999869   -2.2903348   0.86912803   -1.4212068   0.11654309    11250.257     1000 
  662000   0.57751896   -2.2392249   0.86541216   -1.3738128   0.12995945    11131.217     1000 
  664000   0.55481234   -2.2605784   0.83138629   -1.4291921   0.13029415    11116.749     1000 
  666000   0.56374275   -2.2949832   0.84476851   -1.4502147   0.14994088    11150.436     1000 
  668000   0.57634167   -2.2794829     0.863648   -1.4158349   0.12236777     11084.99     1000 
  670000   0.58146902    -2.223482   0.87133132   -1.3521506   0.13239115    11055.284     1000 
  672000   0.57728657   -2.2777855   0.86506393   -1.4127216   0.12034431    11158.018     1000 
  674000   0.54567135   -2.3077327   0.81768852   -1.4900442   0.11519228    11151.399     1000 
  676000   0.56027783    -2.288476   0.83957632   -1.4488996   0.12917699    11105.819     1000 
  678000   0.54793373   -2.2566834    0.8210787   -1.4356047    0.1462216    10929.183     1000 
  680000   0.53906784   -2.3028705   0.80779316   -1.4950774   0.12876652    11232.886     1000 
  682000   0.57871069   -2.2797068   0.86719797   -1.4125088   0.13393399    10977.807     1000 
  684000   0.55326666   -2.2848592   0.82907009   -1.4557891     0.137124    11136.675     1000 
  686000   0.55666938   -2.2594622   0.83416906   -1.4252931   0.13352669    10846.552     1000 
  688000   0.55737343   -2.2309809   0.83522408   -1.3957568   0.13762688    10923.863     1000 
  690000   0.57552722   -2.2518417   0.86242753   -1.3894141   0.13584343    10979.936     1000 
  692000   0.57230262   -2.2756701   0.85759547   -1.4180747   0.12923492    11146.153     1000 
  694000   0.54067738   -2.2325485   0.81020506   -1.4223434   0.13521041     10999.65     1000 
  696000   0.56406623   -2.3014406   0.84525324   -1.4561874   0.14501474    10906.023     1000 
  698000   0.55049651   -2.2569595   0.82491902   -1.4320405   0.14789913    11019.898     1000 
  700000   0.57403628   -2.2761927   0.86019336   -1.4159993   0.12314951    11157.787     1000 
  702000   0.56871954   -2.2929221   0.85222623   -1.4406959   0.12542494    11027.393     1000 
  704000   0.57691681   -2.2359036   0.86450984   -1.3713938   0.14140283    11104.217     1000 
  706000   0.56229495   -2.2418692   0.84259898   -1.3992703   0.12777442     11201.68     1000 
  708000   0.54385418    -2.265682   0.81496549   -1.4507165   0.13158486    11253.096     1000 
  710000   0.54843856   -2.2174971   0.82183518    -1.395662   0.16109234    10869.992     1000 
  712000   0.56781305   -2.2565786   0.85086786   -1.4057107   0.14901261    10911.196     1000 
  714000   0.54853945   -2.2412878   0.82198637   -1.4193015   0.12529435    11094.795     1000 
  716000   0.56720959   -2.2508493   0.84996357   -1.4008857   0.11573148    11359.132     1000 
  718000   0.55795564   -2.3018649   0.83609653   -1.4657684   0.12409405    11187.291     1000 
  720000   0.56610495    -2.271847   0.84830827   -1.4235388   0.13287566    11009.213     1000 
  722000   0.56638379   -2.2717188    0.8487261   -1.4229927   0.14034049    10949.285     1000 
  724000   0.53124901   -2.2794239   0.79607664   -1.4833472   0.12500695    11089.862     1000 
  726000   0.57437807   -2.2733626   0.86070553   -1.4126571   0.14001751    11034.164     1000 
  728000   0.57189865   -2.2978928   0.85699012   -1.4409027    0.1379463    10982.287     1000 
  730000   0.54291698   -2.2843131   0.81356109    -1.470752   0.11913731    11270.967     1000 
  732000   0.57853932   -2.2410238   0.86694117   -1.3740827     0.133854    11169.912     1000 
  734000   0.57991429   -2.2624512   0.86900156   -1.3934497   0.13179007    11197.841     1000 
  736000   0.56171256    -2.270104   0.84172626   -1.4283777    0.1210262    11181.994     1000 
  738000   0.53564216   -2.2925337   0.80265977   -1.4898739   0.13064508    11123.754     1000 
  740000    0.5804172   -2.2602575   0.86975518   -1.3905023    0.1398287    11063.134     1000 
  742000     0.564154   -2.2623535   0.84538477   -1.4169687   0.13004173    11201.549     1000 
  744000   0.57698548   -2.2395322   0.86461274   -1.3749195   0.13079683     11063.13     1000 
  746000   0.56279033   -2.2834583   0.84334131    -1.440117   0.12679783    11132.933     1000 
  748000   0.56748097   -2.2635027   0.85037024   -1.4131325   0.12383221    11165.915     1000 
  750000   0.56419797   -2.2901914   0.84545065   -1.4447408   0.14658165     10939.97     1000 
  752000   0.55343991   -2.2881549   0.82932971   -1.4588252   0.11564517    11263.971     1000 
  754000   0.54126205   -2.2637747   0.81108118   -1.4526936   0.13261956     11199.84     1000 
  756000   0.55539531   -2.2367734   0.83225987   -1.4045135   0.12185717    11282.253     1000 
  758000   0.54336475   -2.2831515   0.81423207   -1.4689194   0.11696334    11245.605     1000 
  760000   0.56528623   -2.2475584   0.84708141    -1.400477   0.13362953    10963.253     1000 
  762000    0.5528046     -2.25237    0.8283777   -1.4239923   0.12832588    11097.782     1000 
  764000   0.57915151   -2.2830313   0.86785854   -1.4151727   0.14036117     11213.23     1000 
  766000   0.56673446    -2.287309   0.84925158   -1.4380574   0.12975188    10946.777     1000 
  768000   0.56135517   -2.2448169   0.84119072   -1.4036262    0.1215444    11104.361     1000 
  770000   0.53436992   -2.2836526   0.80075333   -1.4828993   0.13049555    11213.006     1000 
  772000   0.55694424    -2.307267   0.83458094    -1.472686   0.13775222    11151.917     1000 
  774000   0.54843592   -2.2389716   0.82183123   -1.4171404   0.13851237      11096.9     1000 
  776000   0.58192498    -2.254337   0.87201459   -1.3823224   0.13944389    11049.126     1000 
  778000   0.56186915   -2.2617724   0.84196092   -1.4198115   0.13820492    11022.549     1000 
  780000   0.55572547   -2.2465192   0.83275461   -1.4137646   0.14649491    10948.818     1000 
  782000   0.55937838   -2.2798935    0.8382285    -1.441665     0.130445    11201.107     1000 
  784000   0.55083949   -2.2385874   0.82543298   -1.4131544   0.12312694    11024.832     1000 
  786000   0.58999783   -2.2656538   0.88411174    -1.381542   0.13265502    11018.665     1000 
  788000   0.56208441   -2.2731564   0.84228349   -1.4308729   0.11605607    11207.139     1000 
  790000   0.55097101   -2.2421681   0.82563005   -1.4165381   0.13524614    10913.909     1000 
  792000   0.56533203   -2.2493903   0.84715004   -1.4022402   0.14896729    10979.718     1000 
  794000   0.54077494   -2.3064912   0.81035125     -1.49614    0.1183946    11226.845     1000 
  796000   0.53706677   -2.2550045   0.80479455     -1.45021   0.11096157    11032.103     1000 
  798000   0.54774972   -2.2365931   0.82080295   -1.4157901   0.12500812    11129.364     1000 
  800000   0.57659917   -2.2806988   0.86403385   -1.4166649   0.13282265    11089.826     1000 
  802000   0.56617284    -2.342794   0.84841001    -1.494384   0.12324914    11378.039     1000 
  804000   0.57003247   -2.2471606   0.85419365    -1.392967    0.1156675    11353.242     1000 
  806000   0.55691285   -2.3090719    0.8345339    -1.474538   0.12177093    11245.554     1000 
  808000   0.59439853   -2.2945347   0.89070619   -1.4038285   0.12883457      11207.4     1000 
  810000   0.55454215    -2.199027   0.83098142   -1.3680456   0.13352227    10859.944     1000 
  812000   0.55396302   -2.2627985   0.83011359   -1.4326849   0.12884414    11129.308     1000 
  814000   0.57103661   -2.2156256   0.85569836   -1.3599272   0.12077538    11175.902     1000 
  816000   0.53959242   -2.2959285   0.80857925   -1.4873493   0.13073403    11208.608     1000 
  818000   0.57715256    -2.266418   0.86486311   -1.4015549   0.14224185    11145.471     1000 
  820000   0.53925549   -2.2960865   0.80807435   -1.4880122   0.12247689    11196.642     1000 
  822000   0.56813175   -2.2579184   0.85134542   -1.4065729   0.13590694    11165.978     1000 
  824000   0.56480984    -2.271808   0.84636754   -1.4254405   0.14229594    11087.816     1000 
  826000   0.55917893   -2.2921803   0.83792963   -1.4542507    0.1250637    11216.998     1000 
  828000   0.56553685   -2.3199268   0.84745697   -1.4724698   0.13044874    11095.141     1000 
  830000   0.57338053   -2.3163186   0.85921072   -1.4571079   0.13230144    11124.066     1000 
  832000   0.57298903   -2.2735756   0.85862405   -1.4149516   0.13607052    11129.862     1000 
  834000   0.55657617   -2.2363305   0.83402939   -1.4023012   0.13681584    11181.866     1000 
  836000   0.55352186   -2.2307428   0.82945251   -1.4012903   0.11556945    11272.705     1000 
  838000   0.53771935   -2.2995113   0.80577245   -1.4937389   0.13247744    10921.536     1000 
  840000    0.5574861   -2.2653832   0.83539291   -1.4299903   0.12493159     11094.22     1000 
  842000   0.57906223   -2.2933175   0.86772475   -1.4255928   0.14553536    11075.309     1000 
  844000   0.54224903   -2.3363186   0.81256017   -1.5237585   0.13343901    11101.554     1000 
  846000   0.53863672   -2.2908374   0.80714712   -1.4836903   0.13023616    11161.034     1000 
  848000   0.55899635   -2.2728639   0.83765602   -1.4352079   0.11975964    11300.652     1000 
  850000   0.56655149   -2.3071391    0.8489774   -1.4581617   0.13338731    11299.216     1000 
  852000   0.57460236   -2.2809205   0.86104163   -1.4198788   0.12654503    11208.945     1000 
  854000   0.53969647   -2.2405893   0.80873516   -1.4318541   0.13824497     10956.75     1000 
  856000   0.60061675   -2.2595396   0.90002419   -1.3595154   0.13336084    11136.199     1000 
  858000   0.52394213   -2.2451964   0.78512729   -1.4600691   0.12868526    11137.098     1000 
  860000    0.5535775   -2.2815225   0.82953588   -1.4519866   0.11659702    11144.221     1000 
  862000   0.56148947   -2.2912274   0.84139197   -1.4498354   0.11980575    11238.845     1000 
  864000   0.56147141   -2.2995059   0.84136491   -1.4581409   0.13080711    11189.471     1000 
  866000   0.54919456   -2.3040064   0.82296805   -1.4810383   0.11653145    11212.392     1000 
  868000   0.56232166   -2.2283543   0.84263901   -1.3857153   0.13740023    11078.968     1000 
  870000   0.56809387   -2.2801031   0.85128866   -1.4288145   0.12504015    11345.968     1000 
  872000   0.58165786   -2.2654656   0.87161431   -1.3938513   0.14965184    11049.267     1000 
  874000   0.55546257   -2.2677201   0.83236066   -1.4353594   0.13295511    11101.703     1000 
  876000   0.55041426    -2.210414   0.82479577   -1.3856183   0.14124493    11040.196     1000 
  878000   0.54828488   -2.2662973   0.82160489   -1.4446924   0.13614453    10967.875     1000 
  880000   0.55285603   -2.2390753   0.82845476   -1.4106205   0.12824287    11156.102     1000 
  882000   0.55791607   -2.2657565   0.83603723   -1.4297193   0.14376093    10963.831     1000 
  884000   0.56794384   -2.3039999   0.85106385    -1.452936   0.14111496    11044.715     1000 
  886000   0.56972726   -2.2825528   0.85373631   -1.4288165   0.11612168    11389.769     1000 
  888000   0.54699394   -2.2461965   0.81967042   -1.4265261   0.12233492    11130.069     1000 
  890000   0.56015253    -2.224693   0.83938857   -1.3853045   0.15281711    11042.619     1000 
  892000   0.56293097   -2.3207133   0.84355206   -1.4771612   0.12024714    11257.939     1000 
  894000   0.55220517   -2.2929395   0.82747945     -1.46546   0.12590566    11189.415     1000 
  896000   0.55455983   -2.2451584    0.8310079   -1.4141505   0.14372229    10918.804     1000 
  898000   0.54566994   -2.2898123   0.81768641   -1.4721259   0.12873435    11040.658     1000 
  900000   0.55677428   -2.2297719   0.83432626   -1.3954456   0.12742687    11058.277     1000 
  902000   0.55941189   -2.2522533   0.83827871   -1.4139745   0.13661765    10973.121     1000 
  904000   0.58261414   -2.2296666   0.87304729   -1.3566193   0.13157499    11146.683     1000 
  906000   0.56473621    -2.275965   0.84625721   -1.4297078   0.12280794    11233.794     1000 
  908000   0.57497676     -2.19882   0.86160267   -1.3372174   0.13586971    10948.728     1000 
  910000   0.55295269   -2.2451928    0.8285996   -1.4165932   0.13855084    10941.102     1000 
  912000   0.54490029   -2.2455995   0.81653308   -1.4290664   0.14775216    10913.499     1000 
  914000   0.57203288   -2.2575819   0.85719127   -1.4003907   0.13320327    11048.944     1000 
  916000   0.54319675   -2.2491079   0.81398033   -1.4351276   0.11776519    11279.193     1000 
  918000   0.56356548   -2.2792684   0.84450287   -1.4347656   0.13665857    11199.883     1000 
  920000    0.5765581   -2.2928178   0.86397231   -1.4288455   0.11755979    11225.708     1000 
  922000    0.5552916    -2.247069   0.83210446   -1.4149646   0.12991794    11105.367     1000 
  924000   0.52788911   -2.2843832   0.79104184   -1.4933414   0.12738209    11222.105     1000 
  926000   0.55528753   -2.2453947   0.83209836   -1.4132964   0.13556539    10995.931     1000 
  928000   0.56713365   -2.2973258   0.84984978    -1.447476   0.13170467    11146.974     1000 
  930000   0.55197988   -2.3231553   0.82714185   -1.4960135   0.12024622    11298.309     1000 
  932000   0.54509772   -2.2759155   0.81682893   -1.4590866   0.11621172    11279.946     1000 
  934000   0.55233344   -2.2694073   0.82767166   -1.4417357   0.12487241    11196.718     1000 
  936000   0.56186003   -2.3229726   0.84194726   -1.4810253   0.14360643    10932.926     1000 
  938000   0.55749507   -2.2724213   0.83540636    -1.437015   0.11995023    11229.487     1000 
  940000   0.53764342   -2.2794274   0.80565867   -1.4737687   0.12366623    11142.355     1000 
  942000   0.54598328   -2.3196391   0.81815594   -1.5014832   0.10885563    11196.761     1000 
  944000   0.55909558   -2.2447082   0.83780472   -1.4069035   0.11597542    11193.489     1000 
  946000   0.56359848   -2.3291279   0.84455233   -1.4845756   0.13469874     10971.19     1000 
  948000    0.5597601   -2.2543724   0.83880051   -1.4155719   0.13242746    11187.508     1000 
  950000   0.55040924   -2.3245922   0.82478825   -1.4998039   0.13512365     11153.25     1000 
  952000   0.56946055   -2.2837264   0.85333663   -1.4303897   0.13392751     11159.11     1000 
  954000   0.55759841   -2.3038459   0.83556122   -1.4682847   0.12785749    11085.157     1000 
  956000   0.56232559   -2.2815945    0.8426449   -1.4389496    0.1171356    11351.247     1000 
  958000   0.59865976   -2.2884904   0.89709165   -1.3913987   0.12991762     11179.34     1000 
  960000   0.55509767   -2.2889504   0.83181386   -1.4571366   0.13310911    11172.645     1000 
  962000   0.56652792   -2.2633951   0.84894209    -1.414453   0.13523003    10952.394     1000 
  964000   0.56015926    -2.245233   0.83939866   -1.4058344   0.13934163    11007.643     1000 
  966000   0.57092034   -2.2398217   0.85552413   -1.3842975   0.11492783    11336.065     1000 
  968000   0.53805259   -2.3026466   0.80627181   -1.4963748   0.12385532    11128.144     1000 
  970000    0.5607681   -2.2675195     0.840311   -1.4272085   0.14227139    10978.475     1000 
  972000   0.54701707   -2.2827006   0.81970508   -1.4629955   0.13348946    11060.697     1000 
  974000   0.58299475    -2.269885   0.87361763   -1.3962674   0.14085844     11041.84     1000 
  976000   0.55158976   -2.2839231   0.82655725   -1.4573658   0.13043292    11192.216     1000 
  978000   0.57830152   -2.2910157   0.86658483   -1.4244309   0.13250356     11147.29     1000 
  980000   0.55858189   -2.2851193   0.83703497   -1.4480843   0.13005784    11046.003     1000 
  982000   0.55427571   -2.2468032   0.83058215   -1.4162211   0.14730613     10906.03     1000 
  984000   0.56188472   -2.2396973   0.84198426   -1.3977131   0.12846615    11174.003     1000 
  986000   0.53903837   -2.3064319     0.807749   -1.4986829   0.12927797    11209.168     1000 
  988000   0.55621813   -2.2251472   0.83349287   -1.3916543   0.14281229     10946.59     1000 
  990000    0.5554081   -2.2555564   0.83227904   -1.4232774   0.13352406    11027.282     1000 
  992000   0.56389047   -2.2452618   0.84498987   -1.4002719   0.14782545    10985.846     1000 
  994000   0.58520791   -2.2066932   0.87693406   -1.3297591   0.13416422    11071.724     1000 
  996000   0.55103821    -2.290626   0.82573076   -1.4648952   0.12108887     11208.99     1000 
  998000   0.54586354   -2.2738745   0.81797652    -1.455898   0.12023241    11115.475     1000 
 1000000   0.53221382   -2.3109642   0.79752241   -1.5134418   0.10193951    11217.046     1000 
 1002000   0.54977731   -2.2476454   0.82384131   -1.4238041   0.11917111    11193.778     1000 
 1004000   0.53945308   -2.2774412   0.80837044   -1.4690707   0.12785644    11149.538     1000 
 1006000    0.5640296   -2.3020299   0.84519836   -1.4568316   0.11790534    11195.958     1000 
 1008000   0.58405201   -2.3126117   0.87520193   -1.4374098   0.13375775    11132.573     1000 
 1010000   0.55378466   -2.2475757   0.82984632   -1.4177294   0.14457181    11044.222     1000 
 1012000   0.58896843   -2.2384743   0.88256919   -1.3559051   0.14096236     11115.46     1000 
 1014000   0.56860263    -2.228265   0.85205105    -1.376214   0.12008345    11108.101     1000 
 1016000   0.56655963   -2.2541449    0.8489896   -1.4051553   0.13185574    11209.812     1000 
 1018000   0.59482216   -2.2735963   0.89134101   -1.3822553   0.12379638    11370.148     1000 
 1020000   0.54765929   -2.3029875   0.82066745     -1.48232   0.12668161    11166.531     1000 
 1022000   0.55069462   -2.3017883   0.82521588   -1.4765725   0.12050759    11163.663     1000 
 1024000   0.56879066   -2.2814659    0.8523328   -1.4291331   0.14218764     11040.31     1000 
 1026000    0.5585612   -2.2334133   0.83700396   -1.3964093   0.13191057     11139.08     1000 
 1028000   0.54910423    -2.234395   0.82283268   -1.4115623   0.14132624    11072.287     1000 
 1030000   0.52572519   -2.2641139    0.7877992   -1.4763147   0.11818227    11225.935     1000 
 1032000   0.56986836   -2.2874521   0.85394774   -1.4335044   0.11471129    11424.787     1000 
 1034000   0.55355651   -2.2808021   0.82950443   -1.4512976    0.1259472    11204.289     1000 
 1036000   0.54246948   -2.2128782   0.81289051   -1.3999877   0.14038822    10979.882     1000 
 1038000    0.5570703   -2.2931751   0.83476984   -1.4584053   0.13113765     11081.48     1000 
 1040000   0.57595928   -2.2984267   0.86307497   -1.4353517    0.1226102    11063.146     1000 
 1042000   0.57195998   -2.2370289   0.85708203   -1.3799469   0.14035582    11038.307     1000 
 1044000   0.55492332    -2.300371    0.8315526   -1.4688184    0.1266662    11173.809     1000 
 1046000    0.5521962   -2.3054418     0.827466   -1.4779758   0.13694212    11219.318     1000 
 1048000   0.54523954   -2.3053618   0.81704145   -1.4883203   0.12470152    11124.862     1000 
 1050000   0.57044848   -2.2822954   0.85481705   -1.4274784   0.12237853    11109.215     1000 
 1052000    0.5380833   -2.2488459   0.80631782   -1.4425281   0.13620813    11137.314     1000 
 1054000   0.56015869   -2.2982963    0.8393978   -1.4588985   0.12456952    11108.066     1000 
 1056000    0.5468796   -2.2666694   0.81949908   -1.4471703   0.12570083    11126.089     1000 
 1058000   0.58490641   -2.2525936   0.87648225   -1.3761114   0.13301499     11073.38     1000 
 1060000   0.55960163   -2.2754491   0.83856304    -1.436886   0.12771904    11234.271     1000 
 1062000   0.56504814   -2.2984871   0.84672464   -1.4517625   0.12945175    11231.826     1000 
 1064000   0.56749692   -2.2869361   0.85039413   -1.4365419   0.11922474    11173.296     1000 
 1066000   0.55342822   -2.2398414   0.82931219   -1.4105292    0.1287139    10916.564     1000 
 1068000   0.56503259   -2.2653513   0.84670134     -1.41865   0.12391382    11160.887     1000 
 1070000   0.57179195   -2.2879312   0.85683024   -1.4311009    0.1305505    11176.134     1000 
 1072000   0.58620554   -2.2489605     0.878429   -1.3705315    0.1335268    11083.346     1000 
 1074000   0.55138741    -2.209656   0.82625403    -1.383402   0.13569842    10921.702     1000 
 1076000     0.547946   -2.2905814   0.82109708   -1.4694843   0.12284636    11197.339     1000 
 1078000   0.56972267   -2.2372972   0.85372942   -1.3835678   0.13354469    11043.344     1000 
 1080000   0.57403147   -2.2889894   0.86018615   -1.4288032   0.12492372    11195.739     1000 
 1082000   0.54588477   -2.2747154   0.81800834   -1.4567071   0.13590815    11079.885     1000 
 1084000   0.54256767   -2.2804568   0.81303766   -1.4674192   0.12597679    11200.976     1000 
 1086000   0.55237719   -2.2659201   0.82773721   -1.4381829    0.1385913    11182.478     1000 
 1088000   0.56506713    -2.326422   0.84675309   -1.4796689   0.13774315    11293.668     1000 
 1090000   0.57667486   -2.2517392   0.86414728   -1.3875919   0.12503716    11198.416     1000 
 1092000   0.52876204   -2.2504466   0.79234991   -1.4580966   0.13805368    11201.503     1000 
 1094000   0.54057811   -2.2902497    0.8100563   -1.4801934   0.12598563    11086.293     1000 
 1096000   0.55941427    -2.291983   0.83828228   -1.4537008   0.12927258    11206.171     1000 
 1098000   0.57844098   -2.2732167   0.86679381   -1.4064229   0.12813963    11079.797     1000 
 1100000   0.56189944   -2.2713743   0.84200632    -1.429368   0.12971393    11121.303     1000 
 1102000   0.55328105   -2.2498742   0.82909166   -1.4207825   0.12079337    11162.019     1000 
 1104000   0.56458712   -2.3056078    0.8460338    -1.459574    0.1425651    11055.839     1000 
 1106000   0.55503517   -2.2952017   0.83172021   -1.4634815   0.13489742    11187.874     1000 
 1108000   0.54845273    -2.293614   0.82185642   -1.4717575   0.13111264    10981.233     1000 
 1110000   0.55896308   -2.2127182   0.83760618    -1.375112   0.13944168    10934.878     1000 
 1112000   0.56468873   -2.2747298   0.84618606   -1.4285438   0.12602661    11150.282     1000 
 1114000   0.57725581   -2.2261325   0.86501783   -1.3611146   0.13624723    11062.733     1000 
 1116000   0.57879659   -2.2708075   0.86732669   -1.4034808   0.13547528    11099.464     1000 
 1118000   0.59012074   -2.2650561   0.88429592   -1.3807602   0.14010837      11053.8     1000 
 1120000   0.55526667   -2.2475733    0.8320671   -1.4155062   0.13137909    11207.791     1000 
 1122000   0.59294188   -2.2456401    0.8885234   -1.3571167   0.13478341    11033.596     1000 
 1124000   0.57977985   -2.2692691   0.86880011    -1.400469   0.13444865     11139.92     1000 
 1126000   0.54875993   -2.2806658   0.82231675    -1.458349   0.12421871    11117.514     1000 
 1128000   0.55377427    -2.250003   0.82983074   -1.4201722     0.126811    11305.532     1000 
 1130000   0.58841747    -2.216596   0.88174358   -1.3348524   0.13297439     11039.79     1000 
 1132000   0.57869637   -2.2931189   0.86717651   -1.4259424   0.12646061    11135.273     1000 
 1134000   0.55944141   -2.2348178   0.83832295   -1.3964949   0.13240223    11038.931     1000 
 1136000   0.54741632   -2.2680811   0.82030335   -1.4477777   0.13188075    11259.462     1000 
 1138000   0.58029665   -2.2589709   0.86957453   -1.3893964    0.1168035    11205.252     1000 
 1140000   0.56906382    -2.293901   0.85274214   -1.4411588   0.13362353    11004.796     1000 
 1142000   0.55622637   -2.2964825   0.83350521   -1.4629773   0.11992659    11220.857     1000 
 1144000   0.56853914   -2.2886457   0.85195591   -1.4366898   0.14046972    11067.284     1000 
 1146000   0.55837496   -2.2396977   0.83672487   -1.4029728   0.12783006    10946.812     1000 
 1148000   0.57382581    -2.308771   0.85987797   -1.4488931   0.14030533    11117.507     1000 
 1150000   0.55838508   -2.1967374   0.83674004   -1.3599974   0.13290789    11019.853     1000 
 1152000   0.57255361   -2.2990169   0.85797158   -1.4410453   0.12947578    11091.351     1000 
 1154000   0.56485068   -2.2644718   0.84642875    -1.418043   0.12381697    11046.907     1000 
 1156000   0.56316957   -2.2966769    0.8439096   -1.4527673   0.13713663    11104.487     1000 
 1158000   0.54416865   -2.2489117   0.81543672    -1.433475   0.12806101    11250.256     1000 
 1160000   0.55472056   -2.2888321   0.83124875   -1.4575833   0.13161131    11135.833     1000 
 1162000   0.56036064   -2.2764822   0.83970042   -1.4367817   0.12728874    11166.551     1000 
 1164000   0.57003051   -2.2994817   0.85419071    -1.445291   0.13451603    10964.366     1000 
 1166000   0.54482726   -2.2668877   0.81642364    -1.450464   0.13916398    11042.141     1000 
 1168000   0.55952154   -2.2340713   0.83844303   -1.3956283   0.10847576    11279.303     1000 
 1170000    0.5543555   -2.2629389   0.83070172   -1.4322372   0.14199537    11133.682     1000 
 1172000   0.56866305   -2.2328437   0.85214158   -1.3807021   0.13634607    10995.637     1000 
 1174000   0.55969782   -2.2623982   0.83870719    -1.423691   0.13768198    11092.907     1000 
 1176000   0.55443978   -2.2580399   0.83082802   -1.4272119   0.13347617    11086.546     1000 
 1178000   0.54472095   -2.2862441   0.81626434   -1.4699798   0.11474198    11446.098     1000 
 1180000   0.58376741   -2.2345755   0.87477547      -1.3598   0.13044966    11053.424     1000 
 1182000   0.57153083   -2.2962788   0.85643895   -1.4398399   0.14037805    11023.929     1000 
 1184000   0.56181932   -2.2746364   0.84188625   -1.4327502   0.13570221    11120.977     1000 
 1186000    0.5660749   -2.2784918   0.84826323   -1.4302285   0.11869448    11202.697     1000 
 1188000   0.55851676   -2.3225162   0.83693736   -1.4855789    0.1243815    11353.562     1000 
 1190000   0.56609012   -2.2634494   0.84828604   -1.4151634   0.11466396    11217.066     1000 
 1192000   0.53664291   -2.2457993   0.80415939   -1.4416399   0.12799519    11062.965     1000 
 1194000   0.55658893   -2.2659819   0.83404851   -1.4319334   0.13465228    11010.043     1000 
 1196000   0.53336601   -2.3082282   0.79924897   -1.5089792   0.12223251     11301.14     1000 
 1198000   0.56836533    -2.321678   0.85169544   -1.4699826   0.12834254    11229.331     1000 
 1200000   0.54764742   -2.3066785   0.82064966   -1.4860289   0.13864402    11041.085     1000 
 1202000   0.55493652    -2.269867   0.83157238   -1.4382946   0.12384831    11181.495     1000 
 1204000   0.56940252   -2.2962944   0.85324968   -1.4430448   0.13189022    11127.043     1000 
 1206000   0.57013536   -2.3214326   0.85434784   -1.4670847   0.12405104    11251.637     1000 
 1208000   0.55777757   -2.2480031   0.83582969   -1.4121734   0.13595306    11044.137     1000 
 1210000   0.56657197   -2.2864375    0.8490081   -1.4374294   0.13689603    11123.693     1000 
 1212000   0.54381049   -2.3161577   0.81490002   -1.5012577   0.13146726    11106.475     1000 
 1214000   0.56193466    -2.269906   0.84205909   -1.4278469   0.12796954    11123.894     1000 
 1216000     0.581678   -2.3226681   0.87164448   -1.4510237    0.1299966    11198.004     1000 
 1218000   0.56507583   -2.2791967   0.84676614   -1.4324306   0.13707251    11015.539     1000 
 1220000   0.56895333    -2.284651   0.85257656   -1.4320744   0.12725859    11088.747     1000 
 1222000   0.55984929    -2.241793   0.83893416   -1.4028588   0.12264097    11200.436     1000 
 1224000   0.56612708   -2.2372811   0.84834143   -1.3889397   0.12528254    11092.137     1000 
 1226000   0.56463291   -2.2863428   0.84610241   -1.4402404   0.12509155    11110.615     1000 
 1228000   0.57097767   -2.2993161   0.85561004    -1.443706   0.15320576    10949.001     1000 
 1230000    0.5640104    -2.304708   0.84516959   -1.4595384   0.12606539    11268.301     1000 
 1232000   0.56046851   -2.2589517   0.83986206   -1.4190897   0.12340656     11128.55     1000 
 1234000   0.56534264   -2.2376011   0.84716594   -1.3904352   0.13076015    11056.448     1000 
 1236000   0.56713577   -2.2409642   0.84985295   -1.3911113   0.12432582    11039.347     1000 
 1238000   0.56184608   -2.3016885   0.84192635   -1.4597622   0.13043848    11273.826     1000 
 1240000   0.57978001   -2.2987796   0.86880035   -1.4299792   0.13865917    11058.721     1000 
 1242000   0.55429233   -2.2800681   0.83060706    -1.449461    0.1302294    11191.291     1000 
 1244000   0.55682359    -2.303109   0.83440015   -1.4687089   0.10580086    11493.848     1000 
 1246000    0.5535023    -2.241502    0.8294232   -1.4120788    0.1466477    10973.145     1000 
 1248000    0.5794321   -2.2113458     0.868279   -1.3430668   0.15313426    10833.166     1000 
 1250000   0.55749152    -2.274269   0.83540104    -1.438868   0.12785826    11122.917     1000 
 1252000   0.55709681   -2.3005827   0.83480956   -1.4657731   0.12773322    11252.798     1000 
 1254000   0.57327297    -2.324163   0.85904954   -1.4651135   0.12564328    11176.628     1000 
 1256000   0.54746369   -2.1927272   0.82037433   -1.3723528   0.12206766    11213.528     1000 
 1258000   0.54400804   -2.2251994   0.81519604   -1.4100033   0.13667724    10876.898     1000 
 1260000   0.54491827   -2.2819629   0.81656003   -1.4654029   0.12750061     11011.25     1000 
 1262000   0.56104813   -2.2949375   0.84073062   -1.4542069   0.12661123    11119.154     1000 
 1264000   0.55644936   -2.2343299   0.83383937   -1.4004905   0.11771756    11276.394     1000 
 1266000   0.57728878   -2.2523933   0.86506724    -1.387326   0.13589859    11127.617     1000 
 1268000   0.55344563   -2.2963357   0.82933828   -1.4669975   0.13693489    11219.507     1000 
 1270000   0.56208571   -2.2245142   0.84228544   -1.3822288   0.12456099    11072.101     1000 
 1272000    0.5736014   -2.2364267    0.8595417    -1.376885   0.13574546    11060.656     1000 
 1274000   0.53539829   -2.2383318   0.80229433   -1.4360375   0.13417683    11204.139     1000 
 1276000   0.55267507   -2.3127284   0.82818358   -1.4845448    0.1186682    11338.877     1000 
 1278000   0.56585143   -2.1618453   0.84792837   -1.3139169   0.13146801    10965.633     1000 
 1280000    0.5424726   -2.2704523   0.81289519   -1.4575572   0.12790144    11210.931     1000 
 1282000   0.59387097   -2.3214959   0.88991564   -1.4315802   0.12498412    11053.936     1000 
 1284000   0.56139055   -2.2797752   0.84124373   -1.4385314    0.1315489    11098.565     1000 
 1286000   0.56102108    -2.305536   0.84069008   -1.4648459    0.1233928    11119.214     1000 
 1288000   0.57829383   -2.2425973   0.86657331    -1.376024   0.12718952    11048.802     1000 
 1290000   0.55801866   -2.3054888   0.83619096   -1.4692978   0.13299045     11134.98     1000 
 1292000   0.56145403   -2.2227561   0.84133886   -1.3814172   0.13757543    10981.619     1000 
 1294000   0.57097256   -2.2446267   0.85560238   -1.3890243   0.12593854    11193.803     1000 
 1296000   0.55408424   -2.2509893   0.83029524   -1.4206941   0.13240833    10999.475     1000 
 1298000   0.55620551   -2.3227764   0.83347396   -1.4893025   0.14483755    11051.917     1000 
 1300000   0.56565026   -2.2806617   0.84762691   -1.4330348   0.12716516    11185.526     1000 
 1302000    0.5519517   -2.3336408   0.82709963   -1.5065411   0.12802583     11136.39     1000 
 1304000   0.55180023   -2.2803272   0.82687265   -1.4534545   0.14224695    11146.706     1000 
 1306000   0.55870474   -2.2826727   0.83721905   -1.4454536   0.12127306    11205.999     1000 
 1308000   0.56493828   -2.3151305   0.84656001   -1.4685705   0.14841405    11007.942     1000 
 1310000   0.54778996   -2.2584295   0.82086326   -1.4375662   0.13639834    11064.593     1000 
 1312000   0.57367798   -2.2493724   0.85965645   -1.3897159   0.13313444     11045.95     1000 
 1314000   0.54540373   -2.2711308    0.8172875   -1.4538433   0.11661031    11137.807     1000 
 1316000    0.5760832   -2.2830564   0.86326068   -1.4197957   0.12886412    11218.812     1000 
 1318000   0.56788111   -2.2854332   0.85096985   -1.4344633   0.12569665    11163.855     1000 
 1320000   0.54825084   -2.2684529   0.82155389    -1.446899   0.13364254     11098.31     1000 
 1322000   0.54467642    -2.266551   0.81619762   -1.4503534   0.11544933    11142.776     1000 
 1324000   0.54961671   -2.2899985   0.82360064   -1.4663978   0.12744311    11167.925     1000 
 1326000   0.56938786   -2.3159756   0.85322771   -1.4627479   0.13849776    11164.098     1000 
 1328000   0.57137376   -2.3276507   0.85620357   -1.4714471   0.13516237    11077.135     1000 
 1330000   0.55619014   -2.2830554   0.83345093   -1.4496045   0.12805314    11317.101     1000 
 1332000   0.54653208   -2.3027566   0.81897832   -1.4837783   0.13425518     11220.02     1000 
 1334000   0.55665434   -2.2793387   0.83414653   -1.4451922   0.11845281    11237.454     1000 
 1336000   0.56066617   -2.2438375   0.84015826   -1.4036793   0.14437554    10946.867     1000 
 1338000   0.54658303   -2.2949422   0.81905468   -1.4758875    0.1160441    11217.759     1000 
 1340000   0.57162446   -2.3150173   0.85657925    -1.458438   0.12583528    11088.345     1000 
 1342000   0.56583918   -2.2928833   0.84791001   -1.4449732    0.1351352    11064.069     1000 
 1344000   0.56587934   -2.2878808   0.84797019   -1.4399106   0.14154542    11046.913     1000 
 1346000   0.54548044   -2.2489261   0.81740244   -1.4315236    0.1149289    11342.271     1000 
 1348000    0.5494504   -2.2931385   0.82335143    -1.469787   0.11205786    11257.102     1000 
 1350000   0.54967522   -2.3024279   0.82368831   -1.4787396   0.12299052    11240.481     1000 
 1352000   0.55644569   -2.2305845   0.83383386   -1.3967507   0.13544783      10932.3     1000 
 1354000   0.53915121   -2.2814285   0.80791809   -1.4735104   0.11427316    11067.973     1000 
 1356000     0.562493   -2.2576489   0.84289575   -1.4147532   0.14434108    11018.684     1000 
 1358000   0.57615906   -2.2819323   0.86337435   -1.4185579   0.13815957    11043.907     1000 
 1360000   0.56021354   -2.3147871   0.83947999   -1.4753071   0.13627914    11160.399     1000 
 1362000   0.57298709   -2.2618911   0.85862115     -1.40327   0.12714061    11118.587     1000 
 1364000   0.55999609   -2.2655525   0.83915414   -1.4263983   0.13620013    11021.003     1000 
 1366000   0.56592964   -2.2336105   0.84804556   -1.3855649   0.13654588    11088.827     1000 
 1368000   0.55447596    -2.278749   0.83088223   -1.4478668   0.14202729    11000.403     1000 
 1370000   0.56100625   -2.2854001   0.84066786   -1.4447322   0.12343176    11218.297     1000 
 1372000   0.55446231   -2.2424223   0.83086178   -1.4115605   0.12804667    11151.976     1000 
 1374000   0.54262361   -2.2403181   0.81312148   -1.4271966   0.13087351    10947.753     1000 
 1376000   0.55705084   -2.3000315   0.83474069   -1.4652908     0.119197    11191.387     1000 
 1378000   0.56496988   -2.2342949   0.84660737   -1.3876875   0.12729793    11188.061     1000 
 1380000    0.5720881   -2.2765542   0.85727403   -1.4192802   0.12654039     11214.62     1000 
 1382000   0.57402595   -2.3029386   0.86017789   -1.4427607   0.12361787    11125.532     1000 
 1384000   0.59367193   -2.2884974   0.88961739     -1.39888   0.12255035    11291.733     1000 
 1386000   0.55039079   -2.2841028   0.82476059   -1.4593422   0.12267446    11112.005     1000 
 1388000   0.56127576    -2.272695   0.84107173   -1.4316233   0.11367807    11233.671     1000 
 1390000   0.53940518   -2.3145178   0.80829866   -1.5062191   0.12543958    11311.416     1000 
 1392000   0.55626599   -2.2031336   0.83356459    -1.369569   0.14057932    10954.719     1000 
 1394000   0.56946456   -2.2780492   0.85334264   -1.4247065   0.12343182    11131.676     1000 
 1396000    0.5371309   -2.2864712   0.80489066   -1.4815806   0.14072455     11048.54     1000 
 1398000   0.55818068   -2.2828123   0.83643375   -1.4463786   0.12193612    11153.852     1000 
 1400000   0.55788002   -2.2580153   0.83598321   -1.4220321   0.12309505    11125.419     1000 
 1402000   0.56819451   -2.2766298   0.85143948   -1.4251903   0.13699947    10969.262     1000 
 1404000   0.56299756     -2.21733   0.84365184   -1.3736782   0.13102123    11077.737     1000 
 1406000   0.55765321   -2.2603642   0.83564334   -1.4247209   0.13394574    10926.948     1000 
 1408000   0.54606168   -2.3295054   0.81827342    -1.511232   0.13721873    11134.534     1000 
 1410000   0.54856305   -2.2822516   0.82202173   -1.4602299   0.14072045    11052.762     1000 
 1412000   0.55716262   -2.2760765   0.83490819   -1.4411683   0.12794787    11100.721     1000 
 1414000   0.57255721   -2.2376097   0.85797698   -1.3796327   0.13941517    11086.716     1000 
 1416000   0.56150148    -2.234081   0.84140997    -1.392671   0.12596362    11011.946     1000 
 1418000   0.57246065   -2.3096233   0.85783229    -1.451791   0.11361782    11299.102     1000 
 1420000   0.56147319   -2.3063857   0.84136758   -1.4650182   0.12466544    11059.527     1000 
 1422000   0.55844913   -2.2677135   0.83683602   -1.4308775   0.15080141    10834.332     1000 
 1424000   0.55078113   -2.2541973   0.82534552   -1.4288517   0.13926535    11074.259     1000 
 1426000   0.53793512   -2.2308069   0.80609577   -1.4247112   0.13651931    10992.319     1000 
 1428000   0.55717145   -2.2894763   0.83492142   -1.4545549    0.1332411    11107.333     1000 
 1430000   0.59102554   -2.2603726   0.88565177   -1.3747209   0.13224414    11136.916     1000 
 1432000   0.53662867   -2.2654986   0.80413806   -1.4613606   0.12052903    11147.895     1000 
 1434000   0.54646831   -2.3235608   0.81888276    -1.504678   0.12035852    11097.388     1000 
 1436000   0.56905092   -2.3297494   0.85272281   -1.4770266   0.13820814     11223.49     1000 
 1438000   0.56728015   -2.2937444   0.85006931   -1.4436751   0.12992477    11112.851     1000 
 1440000   0.56837115   -2.2676084   0.85170417   -1.4159042   0.11462798    11278.891     1000 
 1442000   0.57668729   -2.2232621   0.86416591   -1.3590962   0.13410848    11045.255     1000 
 1444000   0.52857766   -2.2859754   0.79207362   -1.4939018   0.13715525    11078.891     1000 
 1446000   0.55763785   -2.3289222   0.83562031   -1.4933019   0.12539265    11310.826     1000 
 1448000   0.54006101   -2.2960444   0.80928142    -1.486763   0.11447851    11200.424     1000 
 1450000   0.53816745    -2.257207   0.80644392   -1.4507631   0.13466439     10966.37     1000 
 1452000    0.5694885   -2.2407959   0.85337851   -1.3874174   0.13535573    11207.239     1000 
 1454000   0.56550657   -2.2969856    0.8474116    -1.449574   0.12165448    11172.166     1000 
 1456000   0.54274849   -2.2280392   0.81330861   -1.4147306   0.12839508    11128.317     1000 
 1458000   0.53586524   -2.2850785   0.80299406   -1.4820845   0.12779934    11316.064     1000 
 1460000   0.54926339   -2.2744286   0.82307119   -1.4513575   0.12584942    11205.224     1000 
 1462000   0.53310277   -2.1931661    0.7988545   -1.3943116   0.14582025    10938.805     1000 
 1464000   0.55767691   -2.2331891   0.83567885   -1.3975103   0.12070445     11034.15     1000 
 1466000   0.52926579   -2.2901086   0.79310479   -1.4970038    0.1352024    11073.217     1000 
 1468000    0.5599224   -2.3177064   0.83904372   -1.4786627   0.13153485    11143.339     1000 
 1470000   0.59597976   -2.2744144   0.89307567   -1.3813388   0.13240699    11317.811     1000 
 1472000   0.57840388   -2.3292644   0.86673821   -1.4625262   0.12665216    11305.887     1000 
 1474000   0.54525322    -2.254044   0.81706195    -1.436982   0.11752866    11146.221     1000 
 1476000   0.55670544   -2.2537284    0.8342231   -1.4195053   0.12408181     11125.84     1000 
 1478000   0.56479214   -2.2566709   0.84634103   -1.4103299   0.14374384    11101.077     1000 
 1480000   0.56852707   -2.2391599   0.85193781   -1.3872221   0.14537224    10994.411     1000 
 1482000   0.58355874   -2.2979239   0.87446277   -1.4234611   0.12549185    11157.913     1000 
 1484000   0.56034276   -2.1917203   0.83967362   -1.3520467   0.15053639    10853.956     1000 
 1486000   0.55765964   -2.2682965   0.83565297   -1.4326435   0.11933657    11224.549     1000 
 1488000   0.57524436   -2.2866275   0.86200368   -1.4246238   0.13479457    11173.828     1000 
 1490000   0.52662101   -2.2530844   0.78914159   -1.4639428   0.12370036     11345.77     1000 
 1492000   0.54981545   -2.3195955   0.82389845   -1.4956971   0.13376287    11135.316     1000 
 1494000   0.56433804   -2.2933369   0.84566056   -1.4476763   0.12106837    11339.499     1000 
 1496000   0.55862629   -2.2521835    0.8371015    -1.415082   0.12499731    11215.414     1000 
 1498000   0.58210247   -2.2416792   0.87228055   -1.3693986   0.12186878    11197.531     1000 
 1500000   0.54540161   -2.2831246   0.81728431   -1.4658403   0.14453263    11142.872     1000 
 1502000   0.55016869   -2.3319333   0.82442779   -1.5075055   0.12356598    11102.327     1000 
 1504000   0.56496335   -2.2392188   0.84659758   -1.3926212   0.12111182     11079.84     1000 
 1506000   0.56574243   -2.2751011   0.84776504   -1.4273361   0.12911623    11170.958     1000 
 1508000    0.5785324   -2.2839082    0.8669308   -1.4169774   0.15069147    10954.788     1000 
 1510000   0.56582161   -2.3092844   0.84788368   -1.4614007   0.12563218    11141.861     1000 
 1512000   0.57270429    -2.294984   0.85819739   -1.4367866   0.13565204    11193.584     1000 
 1514000   0.56047985   -2.2447623   0.83987906   -1.4048832   0.12540459    11199.522     1000 
 1516000   0.56069599   -2.2967524   0.84020293   -1.4565494   0.12227154    11206.435     1000 
 1518000    0.5406066   -2.2732471   0.81009898   -1.4631481   0.13605431    11102.286     1000 
 1520000   0.56411184   -2.3098834   0.84532159   -1.4645618   0.12469924    11224.177     1000 
 1522000   0.57775614   -2.2905502   0.86576758   -1.4247826    0.1331255    10969.891     1000 
 1524000   0.55851759   -2.3102943   0.83693861   -1.4733556   0.12087384    11189.901     1000 
 1526000   0.55288764   -2.3066934   0.82850213   -1.4781913   0.12554089     11210.12     1000 
 1528000   0.54827566   -2.3221616   0.82159107   -1.5005705   0.10661976    11412.113     1000 
 1530000   0.56118881   -2.2937856   0.84094143   -1.4528442   0.12374112    11231.685     1000 
 1532000   0.55107851   -2.3022781   0.82579115   -1.4764869   0.13415781    11208.374     1000 
 1534000   0.53866572   -2.2850368   0.80719057   -1.4778462   0.12902679    11155.342     1000 
 1536000   0.53338512    -2.267982    0.7992776   -1.4687044    0.1291636    11146.281     1000 
 1538000    0.5722761   -2.2595795   0.85755573   -1.4020238   0.13441284    11145.459     1000 
 1540000   0.57641161   -2.2818553   0.86375279   -1.4181025   0.12614699    11130.881     1000 
 1542000   0.53393125   -2.2415078   0.80009598   -1.4414118   0.12347312    11207.787     1000 
 1544000   0.58221833   -2.3165186   0.87245417   -1.4440644   0.13412566    11173.925     1000 
 1546000   0.53735882   -2.2986473   0.80523219   -1.4934151   0.12502243    11192.392     1000 
 1548000   0.54724514    -2.245703   0.82004684   -1.4256562   0.12457926    11053.395     1000 
 1550000    0.5579799   -2.2283504   0.83613288   -1.3922175   0.13212438     11029.07     1000 
 1552000   0.55099733   -2.2737176    0.8256695   -1.4480481   0.11954522    11050.608     1000 
 1554000   0.57260762   -2.2302563   0.85805252   -1.3722037   0.13311756    11065.895     1000 
 1556000   0.55472143   -2.2781098   0.83125006   -1.4468597   0.11846269    11274.141     1000 
 1558000   0.54436516     -2.22511   0.81573119   -1.4093788   0.12611887    11215.521     1000 
 1560000    0.5490152   -2.2823614   0.82269927   -1.4596622   0.12834525    11016.127     1000 
 1562000   0.55724445   -2.2994717   0.83503081   -1.4644409   0.13763966    11095.322     1000 
 1564000   0.55308431    -2.265667   0.82879684   -1.4368702   0.13484072    11171.537     1000 
 1566000   0.60106429   -2.2528516   0.90069483   -1.3521567   0.11127593    11251.542     1000 
 1568000    0.5675872   -2.3017958   0.85052942   -1.4512664   0.12746578    11171.597     1000 
 1570000   0.52627728   -2.2190163    0.7886265   -1.4303898   0.14314407    11028.839     1000 
 1572000   0.57046361   -2.2882214   0.85483973   -1.4333817   0.14360488    11173.803     1000 
 1574000   0.54453604   -2.2704019   0.81598725   -1.4544146   0.13515375    11112.233     1000 
 1576000   0.54109429   -2.3372901   0.81082979   -1.5264603   0.12566063    11251.737     1000 
 1578000   0.56962211   -2.3111514   0.85357874   -1.4575726   0.12173136    11177.233     1000 
 1580000   0.55532503   -2.3010292   0.83215455   -1.4688746    0.1351025    11117.846     1000 
 1582000   0.59143391   -2.2506596   0.88626371   -1.3643959   0.13368834    11103.898     1000 
 1584000   0.57314513   -2.2936317   0.85885798   -1.4347737   0.13015751    11072.219     1000 
 1586000   0.57820632   -2.2893582   0.86644217   -1.4229161   0.12427831     11225.62     1000 
 1588000   0.57078877   -2.2518474   0.85532697   -1.3965204    0.1415244    11057.246     1000 
 1590000     0.582538   -2.3135057   0.87293319   -1.4405725   0.13313562    11144.543     1000 
 1592000   0.54965436   -2.2596728   0.82365706   -1.4360157   0.12692396      11054.7     1000 
 1594000   0.55839932   -2.2810535   0.83676138   -1.4442921   0.12448327    11014.102     1000 
 1596000   0.54751355   -2.2472818   0.82044905   -1.4268328   0.12528435    10943.666     1000 
[...]
 2612000   0.55212264   -2.2626775   0.82735578   -1.4353217   0.14002769    11094.113     1000 
 2614000   0.56112719    -2.336383    0.8408491   -1.4955339   0.14751724    11062.832     1000 
 2616000   0.54791495   -2.2664946   0.82105055   -1.4454441   0.12036678    11286.447     1000 
 2618000   0.58459784    -2.286346   0.87601986   -1.4103261   0.12305352    11210.991     1000 
 2620000   0.54114201   -2.2478936    0.8109013   -1.4369923   0.11456043    11102.752     1000 
 2622000   0.52753688   -2.2878576   0.79051402   -1.4973435   0.13287668    11156.556     1000 
 2624000   0.55746508   -2.2744642   0.83536143   -1.4391027   0.12592646    11149.632     1000 
 2626000   0.57205462   -2.3170423   0.85722386   -1.4598185   0.12588109    11048.224     1000 
 2628000    0.5292683   -2.3083022   0.79310855   -1.5151936   0.12868989    11220.891     1000 
 2630000   0.53942093   -2.2754981   0.80832227   -1.4671759   0.12508802    11233.178     1000 
 2632000   0.54592045   -2.2422035   0.81806179   -1.4241417   0.13434899    11103.517     1000 
 2634000   0.55385182   -2.2334287   0.82994695   -1.4034818   0.13286247    10976.758     1000 
 2636000   0.55697265    -2.312918   0.83462352   -1.4782945   0.11252965    11377.041     1000 
 2638000   0.57875621   -2.2886232   0.86726618   -1.4213571    0.1300345    11122.883     1000 
 2640000   0.54586312   -2.2702828   0.81797589    -1.452307   0.11820099    11255.466     1000 
 2642000   0.55632224   -2.3376093   0.83364888   -1.5039604   0.13724749    11223.778     1000 
 2644000   0.54391233   -2.3218505   0.81505263   -1.5067979   0.12406611    11075.274     1000 
 2646000    0.5826751   -2.2614172   0.87313864   -1.3882786    0.1349115    11199.097     1000 
 2648000   0.53556852   -2.2796907   0.80254942   -1.4771412   0.12846647    11044.179     1000 
 2650000   0.58828932   -2.2628179   0.88155154   -1.3812663   0.13729597    11192.966     1000 
 2652000   0.55665433   -2.2579297   0.83414652   -1.4237832   0.12427748    11139.228     1000 
 2654000   0.53509875   -2.2887554   0.80184548   -1.4869099   0.12284806    11121.525     1000 
 2656000   0.58362744   -2.2977739   0.87456572   -1.4232082   0.14834144    11060.435     1000 
 2658000   0.55758436   -2.2544596   0.83554016   -1.4189194   0.12306179    11270.526     1000 
 2660000   0.58198502   -2.2999823   0.87210456   -1.4278778   0.14729659    11089.567     1000 
 2662000   0.55264594   -2.2959103   0.82813994   -1.4677704   0.13749055    11030.412     1000 
 2664000   0.54752521   -2.2627368   0.82046653   -1.4422702   0.12480952    11127.172     1000 
 2666000   0.56204526   -2.2640574   0.84222483   -1.4218325   0.13100906    11129.027     1000 
 2668000   0.56754858   -2.2703822   0.85047155   -1.4199107   0.12815585     11058.44     1000 
 2670000   0.58598436   -2.2620584   0.87809756   -1.3839608   0.12571795    11306.532     1000 
 2672000   0.58267517   -2.2152632   0.87313874   -1.3421245   0.12303894    11153.636     1000 
 2674000   0.56804046   -2.2425551   0.85120863   -1.3913465   0.14591556    10825.884     1000 
 2676000   0.55907016   -2.2969397   0.83776663    -1.459173   0.12636599    11167.493     1000 
 2678000   0.56745079   -2.2870314   0.85032502   -1.4367064   0.12338345    11132.414     1000 
 2680000   0.57916902   -2.2708097   0.86788477   -1.4029249   0.14059017    11028.719     1000 
 2682000   0.58003892   -2.2561165   0.86918832   -1.3869282   0.14867045    10941.123     1000 
 2684000   0.53944634   -2.2829819   0.80836034   -1.4746216   0.12990986    11243.852     1000 
 2686000   0.56913823   -2.2576889   0.85285364   -1.4048353   0.13499212    11181.775     1000 
 2688000    0.5522457   -2.3064034   0.82754017   -1.4788632   0.13896754    11020.797     1000 
 2690000   0.56143487   -2.2335224   0.84131016   -1.3922122   0.14052937    10899.602     1000 
 2692000   0.56465938   -2.2752459   0.84614209   -1.4291038   0.11718457    11232.712     1000 
 2694000    0.5607621   -2.2895181   0.84030201   -1.4492161   0.14233471     11142.87     1000 
 2696000   0.54948091    -2.272306   0.82339715   -1.4489089   0.10889811    11145.666     1000 
 2698000   0.57110913   -2.2509663   0.85580703   -1.3951593   0.13828492    11051.288     1000 
 2700000     0.546485   -2.2609302   0.81890777   -1.4420224   0.11460822    11097.321     1000 
 2702000   0.55891586   -2.2766173   0.83753542   -1.4390819   0.13842179    11004.486     1000 
 2704000   0.55779354   -2.2900341   0.83585361   -1.4541805   0.13680873    11118.328     1000 
 2706000   0.56047176   -2.2812919   0.83986693    -1.441425   0.13083208    11147.745     1000 
 2708000   0.58420796   -2.2665719   0.87543564   -1.3911362   0.12709355    11224.649     1000 
 2710000    0.5909129    -2.238517   0.88548299    -1.353034   0.12382585     11035.33     1000 
 2712000   0.56047708   -2.2384085    0.8398749   -1.3985336   0.13293785    11173.596     1000 
 2714000      0.57392   -2.2279971   0.86001912    -1.367978   0.12416484    11228.688     1000 
 2716000   0.54714746   -2.2846704   0.81990047   -1.4647699   0.11691393    11245.206     1000 
 2718000   0.55275478   -2.2492919   0.82830304   -1.4209888   0.12300306    11348.338     1000 
 2720000   0.56132434   -2.2429465   0.84114453   -1.4018019   0.14523539     11099.89     1000 
 2722000   0.56767445    -2.288936   0.85066017   -1.4382759   0.13146421    11097.459     1000 
 2724000   0.56159183   -2.2643394   0.84154536    -1.422794   0.13566287    11049.462     1000 
 2726000   0.57622915   -2.2724571   0.86347938   -1.4089777   0.13157933    11200.588     1000 
 2728000   0.57288807   -2.2600749   0.85847278   -1.4016021   0.11580165    11376.515     1000 
 2730000   0.55175115   -2.2558728   0.82679909   -1.4290737   0.13159869    11064.852     1000 
 2732000   0.58492182   -2.2506123   0.87650535   -1.3741069   0.11919895    11295.148     1000 
 2734000   0.55481349   -2.2929183   0.83138802   -1.4615303   0.12005022    11171.282     1000 
 2736000   0.57022024   -2.2731849   0.85447502   -1.4187098   0.13585126     11118.32     1000 
 2738000    0.5727404   -2.2587606    0.8582515   -1.4005091   0.12761818    11119.228     1000 
 2740000   0.59177239   -2.2801271   0.88677093   -1.3933562   0.14956481    11043.793     1000 
 2742000   0.56464763   -2.3277367   0.84612447   -1.4816122   0.12203562    11381.694     1000 
 2744000   0.56799766   -2.3095758   0.85114449   -1.4584313   0.13005182    11220.552     1000 
 2746000    0.5629686   -2.2621175   0.84360845    -1.418509    0.1242811    11249.938     1000 
 2748000   0.57565793   -2.2726316    0.8626234   -1.4100082    0.1410419    11149.323     1000 
 2750000   0.56519051   -2.2438621   0.84693798   -1.3969241   0.14183897    11031.925     1000 
 2752000   0.57310788   -2.2993022   0.85880216      -1.4405   0.13006503    11166.599     1000 
 2754000   0.55329237   -2.2977493   0.82910861   -1.4686407   0.12530432    11118.837     1000 
 2756000   0.55802902   -2.2549989   0.83620649   -1.4187924   0.13708766    10892.577     1000 
 2758000   0.58210102   -2.2761923   0.87227837    -1.403914   0.13111754    11132.163     1000 
 2760000   0.57595105   -2.2730006   0.86306265   -1.4099379   0.13041635    11094.678     1000 
 2762000   0.54721621   -2.2352219   0.82000349   -1.4152184   0.13676902    11027.326     1000 
 2764000   0.54381779   -2.2280025   0.81491096   -1.4130915   0.13277132    10984.563     1000 
 2766000   0.55177929    -2.251316   0.82684126   -1.4244747      0.13001    11166.324     1000 
 2768000   0.56649126   -2.2514666   0.84888715   -1.4025794   0.12282782    11054.993     1000 
 2770000   0.55838445   -2.2169103   0.83673909   -1.3801712   0.12915082     11194.98     1000 
 2772000   0.54600176   -2.2875061   0.81818364   -1.4693225   0.11914208    11175.892     1000 
 2774000   0.56181131   -2.2990786   0.84187425   -1.4572044   0.12067309    11008.021     1000 
 2776000   0.59325261   -2.2988884   0.88898904   -1.4098993    0.1477338     11077.35     1000 
 2778000   0.57622474    -2.269312   0.86347278   -1.4058392    0.1229421    11183.239     1000 
 2780000   0.57615526   -2.2234658   0.86336865   -1.3600971   0.12851179    11144.926     1000 
 2782000   0.55709362   -2.2134289   0.83480479   -1.3786241   0.12621406    11060.124     1000 
 2784000   0.57171315   -2.2432083   0.85671215   -1.3864961   0.13197899    11145.697     1000 
 2786000   0.59012327   -2.3412308   0.88429972   -1.4569311   0.13238417    11154.035     1000 
 2788000     0.577564   -2.2933232   0.86547966   -1.4278435   0.13998763    11219.252     1000 
 2790000   0.53875404   -2.3349134   0.80732292   -1.5275905   0.11367173    11315.484     1000 
 2792000   0.56884747   -2.2157025   0.85241793   -1.3632845   0.13307617    10996.179     1000 
 2794000   0.56689999   -2.2270815   0.84949963   -1.3775819   0.13288622    11010.428     1000 
 2796000   0.55386428   -2.2812323   0.82996562   -1.4512666   0.14353249    10949.174     1000 
 2798000   0.56405285   -2.2281093    0.8452332   -1.3828761   0.12854662    11066.439     1000 
 2800000   0.58848949   -2.2476845    0.8818515    -1.365833   0.13348975    11041.605     1000 
 2802000   0.54406549   -2.2568057   0.81528213   -1.4415236   0.12955586    11073.346     1000 
 2804000   0.57199558   -2.2012339   0.85713537   -1.3440985    0.1306587    11232.874     1000 
 2806000   0.56207228   -2.2775963   0.84226531    -1.435331   0.12682103    11161.276     1000 
 2808000   0.56298365   -2.3084694     0.843631   -1.4648384   0.12728476    11261.958     1000 
 2810000   0.58011937   -2.2183126   0.86930888   -1.3490037   0.14605013    10960.853     1000 
 2812000   0.56579773   -2.2635729    0.8478479    -1.415725   0.12236291    11277.499     1000 
 2814000   0.56185713    -2.244552   0.84194292    -1.402609   0.12686576    11007.824     1000 
 2816000   0.57247558   -2.2446708   0.85785466   -1.3868161    0.1422219    11121.187     1000 
 2818000   0.58161306   -2.3082833   0.87154717   -1.4367361   0.13500454    11108.117     1000 
 2820000   0.56387517   -2.2451221   0.84496694   -1.4001551   0.13043684    11216.608     1000 
 2822000   0.57360009   -2.2934641   0.85953973   -1.4339243   0.11741424    11191.046     1000 
 2824000   0.56559175   -2.2771757   0.84753924   -1.4296365   0.14622503     11113.42     1000 
 2826000   0.57985838   -2.2836738   0.86891778    -1.414756   0.12569689    11271.725     1000 
 2828000   0.55073638   -2.2910253   0.82527846   -1.4657469   0.12745153    11197.168     1000 
 2830000     0.562318   -2.2661047   0.84263353   -1.4234712   0.11580034    11099.746     1000 
 2832000    0.5549395   -2.2673831   0.83157684   -1.4358063   0.12705817     11166.54     1000 
 2834000   0.58697978    -2.282899    0.8795892   -1.4033098   0.13971031    10939.888     1000 
 2836000   0.54573167   -2.2420197   0.81777891   -1.4242408   0.12251571     11207.29     1000 
 2838000   0.55682613   -2.2905438   0.83440395   -1.4561399   0.12802347    11175.508     1000 
 2840000   0.54485474   -2.3023629   0.81646483    -1.485898   0.12773607    11080.739     1000 
 2842000   0.54586481   -2.2536289   0.81797842   -1.4356505    0.1176324    11022.803     1000 
 2844000   0.58626193   -2.2642688    0.8785135   -1.3857553   0.13576525    11169.736     1000 
 2846000   0.55930701   -2.2948886   0.83812155   -1.4567671   0.13386526    11102.697     1000 
 2848000   0.56046843   -2.3097099   0.83986194    -1.469848   0.12310298    11260.352     1000 
 2850000   0.53373517   -2.2445901   0.79980216    -1.444788   0.12399621    10993.406     1000 
 2852000   0.55163534   -2.2920753   0.82662556   -1.4654498   0.12158632    11269.262     1000 
 2854000     0.575244   -2.2839802   0.86200313   -1.4219771   0.13561422    11205.766     1000 
 2856000   0.57654923   -2.2384864   0.86395902   -1.3745273   0.14140635     11046.93     1000 
 2858000   0.54722955   -2.2493467   0.82002348   -1.4293232   0.13600544    11008.773     1000 
 2860000   0.55146543   -2.2340139   0.82637095    -1.407643   0.11619012    11247.544     1000 
 2862000   0.57005905   -2.2916921   0.85423349   -1.4374587   0.12993531    11243.071     1000 
 2864000   0.56825266   -2.2674846   0.85152661    -1.415958   0.13432033    11070.998     1000 
 2866000   0.57156744   -2.2615101   0.85649381   -1.4050163   0.14067906    11051.706     1000 
 2868000   0.55793175   -2.2954591   0.83606072   -1.4593984   0.11653094     11294.72     1000 
 2870000    0.5413766   -2.2972076   0.81125283   -1.4859548   0.12728165    11161.561     1000 
 2872000   0.56938765    -2.251132   0.85322739   -1.3979046   0.14344897    11128.586     1000 
 2874000   0.58708311    -2.322684   0.87974403   -1.4429399   0.11720778    11278.767     1000 
 2876000   0.54365232   -2.2388104   0.81466301   -1.4241474   0.14040597    11149.862     1000 
 2878000   0.57468818   -2.3001626   0.86117024   -1.4389923   0.14344355    10970.172     1000 
 2880000   0.55341684    -2.275985   0.82929513   -1.4466899   0.13707487     11216.97     1000 
 2882000   0.52935672   -2.2706652   0.79324105   -1.4774241   0.12912331    11100.088     1000 
 2884000   0.54101055      -2.2326    0.8107043   -1.4218957   0.11760776    11137.476     1000 
 2886000   0.54956107   -2.2492621   0.82351727   -1.4257448   0.13326855    11058.976     1000 
 2888000   0.55667537   -2.2692157   0.83417805   -1.4350376   0.12329933    11111.794     1000 
 2890000   0.56581919   -2.2324479   0.84788005   -1.3845679   0.13104137    10972.127     1000 
 2892000   0.54363111   -2.2477124   0.81463122   -1.4330812   0.13910004    11029.703     1000 
 2894000   0.56895639   -2.2931871   0.85258115    -1.440606   0.13510641    11154.104     1000 
 2896000   0.58559659   -2.2083908   0.87751649   -1.3308743   0.13936772     10852.66     1000 
 2898000   0.56840718   -2.3176994   0.85175816   -1.4659413   0.12926286    11074.689     1000 
 2900000   0.57235396   -2.2610493   0.85767241   -1.4033768   0.14296566    11011.389     1000 
 2902000   0.55620443   -2.3330289   0.83347233   -1.4995565   0.12671566    11203.039     1000 
 2904000   0.54844363   -2.2874249   0.82184279   -1.4655822   0.12897537    11061.181     1000 
 2906000   0.55601024   -2.2823096   0.83318134   -1.4491282   0.13430306    11088.767     1000 
 2908000   0.56943981   -2.3183439   0.85330556   -1.4650384   0.13288691    11062.075     1000 
 2910000   0.54663451   -2.2535893   0.81913181   -1.4344575   0.12815428     11019.68     1000 
 2912000   0.56477038   -2.2829008   0.84630841   -1.4365923   0.10709436    11349.832     1000 
 2914000   0.56766003   -2.2728569   0.85063855   -1.4222183   0.13535623    10982.708     1000 
 2916000   0.58914867   -2.3120344   0.88283928   -1.4291951   0.15247257    11031.062     1000 
 2918000   0.56216499   -2.2759261   0.84240424   -1.4335218   0.12662209    11429.749     1000 
 2920000   0.56188719    -2.269581   0.84198795    -1.427593   0.12164934    11185.099     1000 
 2922000   0.56387769   -2.2891504   0.84497071   -1.4441797   0.12899865    11036.589     1000 
 2924000    0.5629208   -2.2669308   0.84353682    -1.423394   0.12687866    11210.021     1000 
 2926000   0.54186285    -2.266352   0.81198148   -1.4543705   0.12246123    11130.448     1000 
 2928000   0.56534338    -2.275068   0.84716705    -1.427901    0.1411667    11113.906     1000 
 2930000   0.55630085    -2.312631   0.83361682   -1.4790142   0.13202558    11186.458     1000 
 2932000   0.56583917   -2.2635892   0.84790999   -1.4156792   0.14872211    10916.285     1000 
 2934000   0.54956688   -2.3126015   0.82352597   -1.4890755   0.12745228    11023.295     1000 
 2936000   0.56721899   -2.2904986   0.84997766   -1.4405209   0.12676627     11063.67     1000 
 2938000   0.55575838   -2.2987073   0.83280393   -1.4659034    0.1380777    11161.352     1000 
 2940000   0.54427964   -2.2807104   0.81560304   -1.4651073   0.14004775    11012.383     1000 
 2942000   0.57966215   -2.2478021   0.86862374   -1.3791784   0.13136131    11090.324     1000 
 2944000   0.57026679    -2.264918   0.85454479   -1.4103732   0.14214539    11050.787     1000 
 2946000   0.53102694   -2.3155144   0.79574386   -1.5197705   0.13575288    11122.312     1000 
 2948000   0.54879541   -2.2645796   0.82236992   -1.4422097   0.12335609    11175.944     1000 
 2950000   0.54143534   -2.3144126   0.81134086   -1.5030718   0.13810482    11190.602     1000 
 2952000   0.54320224   -2.2913128   0.81398855   -1.4773243   0.12556795    11106.073     1000 
 2954000   0.55239324   -2.2570985   0.82776127   -1.4293372   0.13800997    11024.584     1000 
 2956000   0.55589761   -2.2601055   0.83301256   -1.4270929   0.13947111    11144.453     1000 
 2958000   0.57502523    -2.286377    0.8616753   -1.4247017    0.1377663    11159.433     1000 
 2960000   0.55989861   -2.3031399   0.83900807   -1.4641318   0.12518218    11273.998     1000 
 2962000   0.55394387   -2.2782806   0.83008489   -1.4481958   0.14234495    11032.616     1000 
 2964000   0.55511376   -2.2718604   0.83183797   -1.4400224   0.12307113    11023.114     1000 
 2966000     0.580669   -2.2841731    0.8701325   -1.4140406   0.14020101    11094.336     1000 
 2968000   0.56673854   -2.2891538    0.8492577   -1.4398961   0.13298588    10992.136     1000 
 2970000   0.55676729   -2.2773215   0.83431579   -1.4430057   0.12877137    11118.513     1000 
 2972000   0.58369431   -2.3237752   0.87466593   -1.4491093   0.13209526    11175.065     1000 
 2974000   0.56381453   -2.2954943   0.84487607   -1.4506182   0.12375835    11276.643     1000 
 2976000   0.56591948   -2.2539785   0.84803035   -1.4059481   0.14105676    11065.846     1000 
 2978000   0.54540326   -2.2533288   0.81728679    -1.436042   0.12877951     11059.47     1000 
 2980000   0.53422906   -2.2710736   0.80054224   -1.4705314   0.12756798    11079.576     1000 
 2982000   0.54618173   -2.3076582   0.81845332   -1.4892049   0.12757508    11282.897     1000 
 2984000   0.57068332   -2.2026464   0.85516896   -1.3474775   0.13986459    10988.494     1000 
 2986000   0.56227723   -2.2080106   0.84257243   -1.3654382   0.14399334    10996.185     1000 
 2988000   0.54944816   -2.3180555   0.82334807   -1.4947074   0.12401884    11198.249     1000 
 2990000   0.54889344   -2.2482946   0.82251681   -1.4257778   0.13341362        10964     1000 
 2992000   0.54543351   -2.2926689   0.81733211   -1.4753368   0.12656448    11121.816     1000 
 2994000   0.56823615   -2.2752511   0.85150186   -1.4237492   0.13345258    11088.365     1000 
 2996000   0.56656164   -2.2542434   0.84899262   -1.4052508   0.12479197     11153.41     1000 
 2998000   0.55948895   -2.3027162   0.83839419    -1.464322   0.12365807    11158.739     1000 
 3000000   0.55470256    -2.258733   0.83122179   -1.4275112   0.12750167    11033.018     1000 
Loop time of 1964.59 on 4 procs for 3000000 steps with 1000 atoms

Performance: 659680.886 tau/day, 1527.039 timesteps/s
96.8% CPU use with 4 MPI tasks x no OpenMP threads

MPI task timing breakdown:
Section |  min time  |  avg time  |  max time  |%varavg| %total
---------------------------------------------------------------
Pair    | 1484       | 1553.7     | 1622.1     | 130.1 | 79.09
Neigh   | 114.02     | 116        | 117.84     |  12.8 |  5.90
Comm    | 170.37     | 240.64     | 312.41     | 338.8 | 12.25
Output  | 0.026419   | 0.029394   | 0.038094   |   2.9 |  0.00
Modify  | 44.853     | 45.117     | 45.386     |   2.8 |  2.30
Other   |            | 9.069      |            |       |  0.46

Nlocal:    250 ave 255 max 243 min
Histogram: 1 0 0 0 1 0 0 0 0 2
Nghost:    2476.5 ave 2484 max 2465 min
Histogram: 1 0 0 0 0 0 1 1 0 1
Neighs:    26940 ave 29082 max 24763 min
Histogram: 1 1 0 0 0 0 0 0 1 1

Total # of neighbors = 107760
Ave neighs/atom = 107.76
Neighbor list builds = 150000
Dangerous builds not checked

Total wall time: 0:32:44
