LAMMPS (29 Sep 2021 - Update 2)
OMP_NUM_THREADS environment is not set. Defaulting to 1 thread. (src/comm.cpp:98)
  using 1 OpenMP thread(s) per MPI task
# ----------------------- Inicialização -----------------------

units			lj
atom_style 		atomic
dimension 		3
boundary 		p p p

# -------------------- Criação dos Átomos ---------------------

read_data 		topologia.txt
Reading data file ...
  orthogonal box = (0.0000000 0.0000000 0.0000000) to (21.540000 21.540000 21.540000)
  1 by 1 by 1 MPI processor grid
  reading atoms ...
  1000 atoms
  read_data CPU = 0.001 seconds

velocity 		all create ${temp} 87287 rot yes dist gaussian
velocity 		all create 0.63 87287 rot yes dist gaussian

# ------------------ Interação Interatômica -------------------

pair_style		table linear 1000
pair_coeff		1 1 force.table AA 5.0
WARNING: 2 of 1000 force values in table AA are inconsistent with -dE/dr.
WARNING:  Should only be flagged at inflection points (src/pair_table.cpp:465)
pair_coeff		1 2 force.table AB 5.0
WARNING: 1 of 1000 force values in table AB are inconsistent with -dE/dr.
WARNING:  Should only be flagged at inflection points (src/pair_table.cpp:465)
pair_coeff		2 2 force.table BB 5.0
pair_write		1 1 1000 r 0.008 5.0 table.check AA
Appending to table file table.check with DATE: 2023-07-11
Neighbor list info ...
  update every 1 steps, delay 10 steps, check yes
  max neighbors/atom: 2000, page size: 100000
  master list distance cutoff = 5.3
  ghost atom cutoff = 5.3
  binsize = 2.65, bins = 9 9 9
  1 neighbor lists, perpetual/occasional/extra = 1 0 0
  (1) pair table, perpetual
      attributes: half, newton on
      pair build: half/bin/atomonly/newton
      stencil: half/bin/3d
      bin: standard
pair_write		1 2 1000 r 0.008 5.0 table.check AB
Appending to table file table.check with DATE: 2023-07-11
pair_write		2 2 1000 r 0.008 5.0 table.check BB
Appending to table file table.check with DATE: 2023-07-11

neighbor 		0.3 bin
neigh_modify		every 20 delay 0 check no

# ------------------------- Ensemble --------------------------------------

fix 1			all npt temp ${temp} ${temp} 0.5 iso ${press} ${press} 5
fix 1			all npt temp 0.63 ${temp} 0.5 iso ${press} ${press} 5
fix 1			all npt temp 0.63 0.63 0.5 iso ${press} ${press} 5
fix 1			all npt temp 0.63 0.63 0.5 iso 0.13 ${press} 5
fix 1			all npt temp 0.63 0.63 0.5 iso 0.13 0.13 5

# ---------------------- Função de Distribuição Radial -----------------------

#compute RDF 		all rdf 2000 1 1 1 2 2 2
#fix 2 			all ave/time 1 2000 2000 c_RDF[*] file rdf.data mode vector

# ------------------------- Execução ---------------------------

timestep 		0.005
thermo_style		custom step temp pe ke etotal press vol atoms
thermo			2000
run			3000000
Per MPI rank memory allocation (min/avg/max) = 2.670 | 2.670 | 2.670 Mbytes
Step Temp PotEng KinEng TotEng Press Volume Atoms 
       0         0.63   0.58534052     0.944055    1.5293955    1.0412698    9993.9483     1000 
    2000   0.63482076   -1.7241962   0.95127891  -0.77291733   0.15031839    11845.855     1000 
    4000   0.62320413   -1.7789086   0.93387139  -0.84503722   0.12982317    11796.159     1000 
    6000   0.63067632   -1.7766438   0.94506847  -0.83157538    0.1248523    11822.603     1000 
    8000   0.60880651   -1.7901681   0.91229655  -0.87787154   0.12140145    12126.341     1000 
   10000   0.62833365   -1.7856228   0.94155798  -0.84406477    0.1400121    11864.785     1000 
   12000   0.61489978    -1.862709   0.92142732  -0.94128168   0.10707152     12134.76     1000 
   14000   0.66468913   -1.8843712   0.99603667   -0.8883345   0.12796943    11954.948     1000 
   16000   0.64642303   -1.7920359   0.96866491  -0.82337101   0.14026771    11989.215     1000 
   18000   0.63851035   -1.8125232   0.95680776   -0.8557154   0.14111739    11844.762     1000 
   20000   0.64621049   -1.8139696   0.96834641  -0.84562316    0.1342387    11896.002     1000 
   22000   0.64229091   -1.7711734   0.96247294  -0.80870045    0.1178219    12051.902     1000 
   24000   0.63257107   -1.8252242   0.94790775  -0.87731641   0.12964654    12052.534     1000 
   26000   0.64534587   -1.8040278   0.96705078  -0.83697702   0.12871201    11901.229     1000 
   28000   0.60682965   -1.8266128   0.90933423  -0.91727858   0.14153262    11960.479     1000 
   30000   0.62785766   -1.8318246    0.9408447  -0.89097992   0.13392458    11946.164     1000 
   32000   0.64796892   -1.8309242   0.97098143  -0.85994281   0.13295584    11988.325     1000 
   34000   0.61357311   -1.8083547   0.91943931  -0.88891535   0.13023129    11919.563     1000 
   36000   0.64681017    -1.771304   0.96924504  -0.80205891   0.12592491    11980.834     1000 
   38000   0.63233271   -1.8143299   0.94755056   -0.8667793   0.11285441    12056.516     1000 
   40000   0.62028697   -1.8264696   0.92950003  -0.89696956   0.13114338    12000.921     1000 
   42000   0.64820739   -1.7365904   0.97133878  -0.76525158   0.13589164    11835.847     1000 
   44000   0.62859303   -1.7853186   0.94194665  -0.84337198   0.13622314    11945.267     1000 
   46000   0.61201318   -1.7992348   0.91710176  -0.88213303   0.13511455    11845.023     1000 
   48000   0.63641458   -1.7818523   0.95366725  -0.82818506   0.14245326    11894.044     1000 
   50000   0.64341681   -1.7117069   0.96416009   -0.7475468   0.11842786    11905.949     1000 
   52000   0.62408071   -1.8150968   0.93518494  -0.87991189   0.13236394    11965.513     1000 
   54000   0.63109415   -1.7978561   0.94569458  -0.85216152   0.13517538    11948.915     1000 
   56000   0.65245366   -1.7815865    0.9777018  -0.80388468   0.14046857    11913.662     1000 
   58000   0.58745232   -1.7717207   0.88029731  -0.89142339    0.1287084    11902.053     1000 
   60000   0.61421215   -1.8268042   0.92039691  -0.90640734   0.12150791    12080.375     1000 
   62000   0.63211821    -1.801032   0.94722914  -0.85380283   0.12603866    11894.547     1000 
   64000   0.63083082   -1.8303424   0.94529999  -0.88504241   0.12844216    11898.923     1000 
   66000   0.62835555   -1.7686406   0.94159078  -0.82704979   0.14148737     11914.83     1000 
   68000   0.64079614   -1.7760215   0.96023302  -0.81578844    0.1267905    12018.873     1000 
   70000   0.60279121    -1.796511   0.90328263  -0.89322837   0.12907661    11855.549     1000 
   72000   0.64500578    -1.784056   0.96654116  -0.81751486   0.13682046    11794.464     1000 
   74000   0.62853835   -1.7736295   0.94186471  -0.83176476   0.12933497    12122.482     1000 
   76000   0.64058969    -1.763248   0.95992366  -0.80332432    0.1299811    12048.212     1000 
   78000   0.64643116     -1.84437    0.9686771  -0.87569294   0.12182743    12006.813     1000 
   80000   0.64042362   -1.7910827    0.9596748  -0.83140786   0.14193276    11817.444     1000 
   82000   0.65309253   -1.7762274   0.97865916  -0.79756826   0.13250094    11827.301     1000 
   84000   0.62206166   -1.8047518    0.9321594  -0.87259243   0.13692725    11779.551     1000 
   86000   0.61311359   -1.8027309   0.91875071  -0.88398023    0.1276808    11870.217     1000 
   88000   0.61199527   -1.8125764   0.91707491   -0.8955015   0.14421124    11788.196     1000 
   90000   0.58850791   -1.7466446   0.88187911  -0.86476547   0.12848131    11807.916     1000 
   92000   0.63397236   -1.7999308   0.95000758  -0.84992326   0.13226631    11940.547     1000 
   94000    0.6458725   -1.8501282   0.96783995   -0.8822882   0.13330101    11854.779     1000 
   96000   0.63093163   -1.7928396   0.94545104  -0.84738851   0.13533873    11900.228     1000 
   98000   0.64649093   -1.8463786   0.96876666  -0.87761198   0.12134027    12024.503     1000 
  100000   0.63678152    -1.836086   0.95421711  -0.88186894   0.13947815    11758.003     1000 
  102000   0.64323283   -1.7512384   0.96388439  -0.78735401   0.14479625    11851.896     1000 
  104000   0.62172346   -1.7361495    0.9316526  -0.80449687   0.12512346    12020.528     1000 
  106000   0.60723236   -1.8637784   0.90993769  -0.95384074   0.12084433    12053.322     1000 
  108000   0.62653616   -1.8082899   0.93886444   -0.8694255   0.13766626    11898.287     1000 
  110000   0.62436875   -1.7799904   0.93561657  -0.84437381   0.12788431    11931.174     1000 
  112000   0.62926122   -1.7439603   0.94294794  -0.80101234    0.1348319    12004.543     1000 
  114000   0.63564346   -1.8245549   0.95251173  -0.87204315   0.12159768     12000.42     1000 
  116000   0.64006161   -1.7794925   0.95913232  -0.82036018   0.12783771    12026.914     1000 
  118000   0.62275581   -1.8368507   0.93319959  -0.90365115   0.12569161    12114.885     1000 
  120000    0.6178776   -1.8064346   0.92588959  -0.88054503   0.12810579    11921.025     1000 
  122000   0.60689881    -1.804244   0.90943786  -0.89480618   0.12402729    11971.549     1000 
  124000   0.61252947   -1.7451524   0.91787541  -0.82727701   0.12645648    11872.838     1000 
  126000   0.62288078   -1.8622503   0.93338685   -0.9288634   0.13013875    11933.755     1000 
  128000   0.63165082   -1.7076787   0.94652875  -0.76114998   0.13716102    11737.968     1000 
  130000   0.60536376   -1.8279132    0.9071376   -0.9207756   0.11658611    12093.708     1000 
  132000   0.60904139   -1.7857633   0.91264852  -0.87311481   0.12515466    11838.519     1000 
  134000    0.5948356   -1.8543774   0.89136115  -0.96301622   0.12870941    11966.171     1000 
  136000   0.66306612   -1.7853109   0.99360459  -0.79170631    0.1324609    12004.852     1000 
  138000   0.65392993   -1.8194854   0.97991399  -0.83957143   0.13062663    11781.243     1000 
  140000   0.64448947   -1.8266249   0.96576747  -0.86085742   0.13573461    11922.767     1000 
  142000   0.62993499   -1.7906521   0.94395758  -0.84669453   0.13779021    11974.427     1000 
  144000   0.64550759   -1.7923868   0.96729313   -0.8250937   0.12614215    12141.552     1000 
  146000   0.58944908   -1.8303908   0.88328944  -0.94710137   0.12099664    11932.445     1000 
  148000   0.61471081   -1.8592628   0.92114415  -0.93811867   0.12818263    12151.364     1000 
  150000   0.64929422   -1.7873812   0.97296738  -0.81441382   0.14354693    11850.146     1000 
  152000   0.61722675   -1.7787515   0.92491429   -0.8538372   0.12610091     11955.38     1000 
  154000   0.63415095    -1.816087   0.95027521  -0.86581179   0.13263399    11862.792     1000 
  156000   0.63927731    -1.753273   0.95795704  -0.79531599   0.12047973    12089.746     1000 
  158000   0.61259254   -1.7571956   0.91796992  -0.83922573   0.13001689    11870.162     1000 
  160000   0.63665736    -1.780701   0.95403105  -0.82666991   0.13378826    11911.848     1000 
  162000   0.60937913   -1.8150386   0.91315463  -0.90188397   0.13271526    11829.663     1000 
  164000   0.63480358   -1.8314891   0.95125317  -0.88023595   0.11870526    12092.414     1000 
  166000   0.62525007   -1.7805812   0.93693723  -0.84364398   0.13232607    11773.099     1000 
  168000   0.63126616   -1.7695355   0.94595234  -0.82358314   0.13184305     11904.32     1000 
  170000   0.62871365   -1.7700326    0.9421274  -0.82790518   0.12140608    12103.461     1000 
  172000   0.64555362   -1.8365989   0.96736209  -0.86923681   0.13919507      11713.1     1000 
  174000   0.62657824   -1.8246269   0.93892749  -0.88569943   0.12470567    12049.296     1000 
  176000   0.63522686   -1.8086429   0.95188744  -0.85675545   0.11938599    12196.028     1000 
  178000   0.63665377   -1.7827788   0.95402568  -0.82875309   0.13180283    11982.445     1000 
  180000   0.60322802   -1.8256794   0.90393719  -0.92174222   0.12295121    11886.628     1000 
  182000   0.63803529   -1.7569375   0.95609588  -0.80084158   0.12714961    12010.684     1000 
  184000   0.60310561   -1.8075979   0.90375376  -0.90384412   0.13476633    11716.006     1000 
  186000   0.65514969   -1.7778035    0.9817418  -0.79606165   0.13068207    11897.391     1000 
  188000   0.61877764   -1.7720666   0.92723829  -0.84482831   0.12106071    11991.514     1000 
  190000   0.63877256    -1.782019   0.95720068  -0.82481833   0.13169957    11978.245     1000 
  192000   0.60976604   -1.8045867   0.91373442  -0.89085229   0.13578727        11828     1000 
  194000   0.63163509   -1.8625862   0.94650519  -0.91608102   0.12315238     11926.98     1000 
  196000   0.61537042   -1.8331383   0.92213257  -0.91100574   0.12217276     12047.82     1000 
  198000   0.64444192   -1.7834175   0.96569622  -0.81772128   0.12060348    12007.474     1000 
  200000   0.62226746   -1.8008076    0.9324678  -0.86833982   0.12105039    12098.688     1000 
  202000   0.64252169   -1.8086175   0.96281875  -0.84579875   0.14339715    12024.618     1000 
  204000     0.618543    -1.815589   0.92688669  -0.88870232   0.12457938    11888.297     1000 
  206000   0.63150038   -1.8196444   0.94630332  -0.87334105   0.12167634    11985.493     1000 
  208000   0.64354766   -1.8237112   0.96435617    -0.859355    0.1125917    12054.856     1000 
  210000   0.63614511   -1.8159677   0.95326345  -0.86270426   0.12361813    12060.829     1000 
  212000   0.62986727   -1.8318575   0.94385611  -0.88800139   0.13522694    11944.927     1000 
  214000   0.65323151   -1.8307438   0.97886741  -0.85187642    0.1274089    11920.773     1000 
  216000   0.62511801   -1.8071597   0.93673934  -0.87042033   0.11325868     12201.14     1000 
  218000   0.65234908   -1.7798402    0.9775451  -0.80229511   0.12767599    11770.905     1000 
  220000   0.64403449   -1.7780921   0.96508568  -0.81300641   0.12053202    11964.372     1000 
  222000   0.61722913   -1.8382229   0.92491785  -0.91330508   0.12302631    11888.314     1000 
  224000   0.65116628   -1.8172908   0.97577267  -0.84151816   0.13209029    11925.154     1000 
  226000   0.65376471   -1.7993704   0.97966642  -0.81970395   0.14460133    11741.829     1000 
  228000   0.62083554   -1.8392646   0.93032206  -0.90894258   0.12684873    11960.698     1000 
  230000   0.61536044   -1.7995294   0.92211761  -0.87741174   0.13505686    12010.769     1000 
  232000   0.60844251   -1.7833269    0.9117511  -0.87157584    0.1282963    11921.538     1000 
  234000   0.62376442   -1.7492946   0.93471098  -0.81458359   0.13561915    11793.997     1000 
  236000   0.63501642   -1.8011232   0.95157211  -0.84955112   0.14395854    11892.113     1000 
  238000   0.61698909   -1.7747737   0.92455815  -0.85021557   0.12318822    12111.546     1000 
  240000   0.63320038   -1.7839639   0.94885077  -0.83511316     0.127435    12014.133     1000 
  242000   0.59825776   -1.7997618   0.89648925  -0.90327259   0.13032693    11795.442     1000 
  244000    0.6317587   -1.7823441   0.94669041  -0.83565366   0.13377606    11919.649     1000 
  246000   0.64496728   -1.8679058   0.96648346  -0.90142229    0.1236473    11906.948     1000 
  248000   0.63598577     -1.82804   0.95302467  -0.87501532   0.12990905    11968.753     1000 
  250000   0.65610915    -1.791664   0.98317956   -0.8084844   0.13848678    11600.954     1000 
  252000   0.64784467   -1.8184396   0.97079524   -0.8476444   0.13805713    11770.679     1000 
  254000   0.63440354   -1.8236647   0.95065371  -0.87301103   0.14955984    11785.661     1000 
  256000   0.59330138   -1.8722071   0.88906212    -0.983145   0.12910414    11785.663     1000 
  258000   0.63291748   -1.8401511   0.94842685  -0.89172426    0.1383962     11932.58     1000 
  260000   0.61417086   -1.8179256   0.92033503  -0.89759055    0.1438668    11646.585     1000 
  262000    0.6158667   -1.8294424   0.92287625  -0.90656615    0.1263679    11929.842     1000 
  264000   0.67184529   -1.7861736    1.0067602  -0.77941341   0.14983764     11831.13     1000 
  266000   0.63175413   -1.7658252   0.94668357  -0.81914165   0.13439948    11797.659     1000 
  268000    0.6297036   -1.7865523   0.94361085  -0.84294144   0.12867407    11897.464     1000 
  270000   0.65056393   -1.8111559   0.97487005  -0.83628587   0.14034988    11871.584     1000 
  272000   0.63644575   -1.7965933   0.95371396  -0.84287935   0.13654494     11773.42     1000 
  274000   0.64615054    -1.763305   0.96825658   -0.7950484   0.13283762    11886.704     1000 
  276000   0.63987348   -1.7778511   0.95885041  -0.81900072   0.14144501    11751.007     1000 
  278000   0.64156557   -1.7936442   0.96138601  -0.83225822   0.13151892    12025.517     1000 
  280000   0.65988743   -1.7906094   0.98884131  -0.80176805   0.13026691    11875.863     1000 
  282000   0.62345606   -1.7739435    0.9342489  -0.83969457   0.12390654    12030.344     1000 
  284000   0.63128992   -1.8429051   0.94598795  -0.89691717   0.13364353    11971.381     1000 
  286000   0.60759072   -1.8192702   0.91047469  -0.90879553   0.12864253    11902.768     1000 
  288000   0.65673767   -1.8193842    0.9841214  -0.83526275    0.1320613    11839.141     1000 
  290000   0.62834784   -1.7722738   0.94157923  -0.83069453   0.12433288    11875.836     1000 
  292000   0.63017325   -1.8250391   0.94431462  -0.88072447   0.12292281    12184.542     1000 
  294000   0.63716084   -1.7870708   0.95478551  -0.83228533   0.14042432    11596.598     1000 
  296000   0.66956223    -1.786877     1.003339  -0.78353804   0.12336164    12051.147     1000 
  298000    0.6330954   -1.7361077   0.94869346  -0.78741426   0.13224001    11903.252     1000 
  300000   0.61934026   -1.8216304   0.92808138  -0.89354904   0.12832964    11877.712     1000 
  302000   0.63243556   -1.7860884   0.94770468  -0.83838374   0.14341412    11855.124     1000 
  304000   0.63938193   -1.8250791   0.95811383  -0.86696531   0.12494374    12134.799     1000 
  306000   0.63857192   -1.8376595   0.95690002  -0.88075943    0.1313162    11900.731     1000 
  308000   0.62563511   -1.7547119   0.93751421  -0.81719771   0.14402885    11821.537     1000 
  310000   0.64813549   -1.7763559   0.97123103  -0.80512483   0.14088062    11879.464     1000 
  312000   0.63034364   -1.8455322   0.94456994  -0.90096222   0.13883092     11891.32     1000 
  314000   0.62637655   -1.7892804   0.93862526  -0.85065511   0.12579109      11934.8     1000 
  316000   0.64580491   -1.7877409   0.96773865  -0.82000229   0.12509242    12105.024     1000 
  318000   0.63254069   -1.8148134   0.94786222  -0.86695113   0.12989485    11918.349     1000 
  320000   0.63722248   -1.8260632   0.95487789  -0.87118532   0.12797335    11994.557     1000 
  322000   0.61095325   -1.7946136   0.91551345  -0.87910019   0.12226843    12128.914     1000 
  324000   0.64827516   -1.8428306   0.97144033  -0.87139024   0.13714307    11929.544     1000 
  326000   0.62770773   -1.7866106   0.94062003   -0.8459906   0.13002752    11869.416     1000 
  328000   0.60634989   -1.8164597   0.90861531  -0.90784439   0.11380563    12041.362     1000 
  330000   0.61925665   -1.8099711   0.92795608  -0.88201505   0.13458141    11897.426     1000 
  332000   0.60929559   -1.7566171   0.91302944  -0.84358766   0.13731622    11780.174     1000 
  334000   0.62057359   -1.7857578   0.92992953  -0.85582829   0.13674862    11778.457     1000 
  336000   0.61763565   -1.8074562   0.92552702   -0.8819292   0.13868279    11929.886     1000 
  338000     0.648467   -1.7674737    0.9717278  -0.79574587   0.14141032    11805.351     1000 
  340000   0.61711724    -1.815725   0.92475019  -0.89097476   0.13287672    11843.157     1000 
  342000   0.62943701    -1.766647   0.94321136  -0.82343563    0.1291869    12046.672     1000 
  344000   0.62366766   -1.7925694     0.934566  -0.85800345   0.13038178    11840.595     1000 
  346000    0.6387776   -1.8270947   0.95720824  -0.86988644   0.13181028    11861.906     1000 
  348000   0.64087594   -1.7840814   0.96035259   -0.8237288   0.14349965    11917.918     1000 
  350000   0.60907372   -1.8052332   0.91269696  -0.89253622   0.12548832    11959.696     1000 
  352000   0.61603923   -1.7935163   0.92313479  -0.87038146   0.14066755    11785.715     1000 
  354000    0.6257637    -1.816569   0.93770691  -0.87886209   0.12225869    12076.935     1000 
  356000    0.6276063   -1.8359552   0.94046805  -0.89548711   0.13429478    11789.105     1000 
  358000    0.6230936   -1.8238994   0.93370575  -0.89019363   0.13580156     11945.44     1000 
  360000    0.6432225   -1.7917544   0.96386891  -0.82788553   0.13658936    11821.342     1000 
  362000     0.645687   -1.7782772   0.96756197  -0.81071524   0.13320181    11734.031     1000 
  364000   0.64640474   -1.8514998    0.9686375  -0.88286229   0.14230766    11871.334     1000 
  366000   0.64208296   -1.8346988   0.96216132  -0.87253752    0.1220101    12141.776     1000 
  368000   0.61834307    -1.756018   0.92658709  -0.82943086    0.1312312    12025.781     1000 
  370000   0.62290517   -1.7906555    0.9334234  -0.85723209   0.12101885    12033.523     1000 
  372000   0.61975123   -1.7858179   0.92869721  -0.85712074    0.1123809    12163.472     1000 
  374000   0.62980092    -1.817412   0.94375668  -0.87365536   0.13868087    11883.692     1000 
  376000   0.61765923   -1.7820075   0.92556235   -0.8564451   0.12893924    12004.456     1000 
  378000   0.61335937   -1.7801857   0.91911902  -0.86106668   0.13594696    12080.187     1000 
  380000   0.61751227   -1.8360121   0.92534213  -0.91066999   0.11312785     12060.95     1000 
  382000   0.66058628   -1.8086018   0.98988853  -0.81871329   0.13010739     11818.52     1000 
  384000   0.65141333   -1.8467028   0.97614288  -0.87055991   0.12540282    11996.892     1000 
  386000    0.6345269   -1.8324799   0.95083856  -0.88164139   0.13047494    11917.888     1000 
  388000   0.63624507   -1.7939236   0.95341324  -0.84051039   0.11529137    11988.147     1000 
  390000   0.64071664   -1.7435255   0.96011388  -0.78341165    0.1426584    11708.247     1000 
  392000   0.60169426   -1.7998582   0.90163886  -0.89821931   0.11993846    12076.201     1000 
  394000   0.62630193   -1.8058555   0.93851344  -0.86734209   0.14392215    11801.907     1000 
  396000    0.6364712   -1.8300689    0.9537521  -0.87631678   0.13731705    11682.111     1000 
  398000   0.66170357   -1.8144601    0.9915628   -0.8228973   0.11698276     12036.73     1000 
  400000   0.60675212   -1.7627025   0.90921805  -0.85348441   0.13361751    11821.669     1000 
  402000   0.64694466   -1.7707099   0.96944658  -0.80126333   0.12602444    12055.073     1000 
  404000    0.6186711   -1.8602625   0.92707865  -0.93318388   0.13052952    11917.897     1000 
  406000   0.63048062   -1.8485182   0.94477522  -0.90374301   0.11969294    12028.512     1000 
  408000   0.61176292   -1.7591205   0.91672673   -0.8423938   0.12075399    11869.926     1000 
  410000   0.62967694   -1.8568641    0.9435709  -0.91329324   0.11720304    12038.306     1000 
  412000   0.62542804   -1.7767936   0.93720393  -0.83958965   0.12714372    11863.724     1000 
  414000    0.6315477   -1.7871227   0.94637422  -0.84074845   0.13419038    11996.657     1000 
  416000   0.63398479   -1.8303543   0.95002621   -0.8803281   0.13432448    11846.247     1000 
  418000   0.66671386   -1.7996177   0.99907071  -0.80054697   0.12879951    11858.592     1000 
  420000   0.64280469   -1.7794337   0.96324282  -0.81619089   0.12386497    11922.896     1000 
  422000   0.61834627   -1.7934079   0.92659189  -0.86681597   0.12371511    11963.375     1000 
  424000   0.60876913   -1.7724062   0.91224053  -0.86016566   0.12932856    11791.442     1000 
  426000   0.63182913   -1.8218816   0.94679594   -0.8750857   0.12462019    12050.308     1000 
  428000   0.62208466   -1.7939831   0.93219387  -0.86178922    0.1396624    11774.965     1000 
  430000   0.67400886    -1.798899    1.0100023  -0.78889669   0.14025401    11788.813     1000 
  432000   0.64581396    -1.796926   0.96775222  -0.82917383   0.12240549    12101.168     1000 
  434000   0.63584048   -1.7986403   0.95280696   -0.8458333   0.13196997    11892.838     1000 
  436000   0.66740323   -1.8080223    1.0001037  -0.80791854   0.13070636    11879.743     1000 
  438000   0.61073967   -1.7523017    0.9151934  -0.83710827    0.1492651    11615.332     1000 
  440000   0.61203685   -1.7657927   0.91713722  -0.84865548   0.13631016    11909.256     1000 
  442000   0.63107403   -1.8317184   0.94566443  -0.88605393    0.1248169    11978.138     1000 
  444000   0.64632466   -1.8057169    0.9685175   -0.8371994   0.11929828    12025.318     1000 
  446000   0.62530472   -1.8112718   0.93701913  -0.87425263   0.13172491    11927.843     1000 
  448000   0.62138084   -1.8382698   0.93113918  -0.90713061   0.12357365    11824.326     1000 
  450000   0.62404522   -1.8618386   0.93513176  -0.92670682    0.1254098    12012.565     1000 
  452000   0.63168466   -1.7698434   0.94657947  -0.82326388   0.11960014    11839.316     1000 
  454000    0.6282646   -1.8079979    0.9414545  -0.86654341   0.13120773    11989.754     1000 
  456000   0.64574792   -1.8240999   0.96765326  -0.85644659   0.12933686    11924.262     1000 
  458000   0.58492082   -1.8408438   0.87650385   -0.9643399   0.12856893     11960.96     1000 
  460000   0.65293406   -1.8169704   0.97842168  -0.83854868   0.12966463    11894.551     1000 
  462000   0.63611213   -1.7980613   0.95321403  -0.84484728   0.14505745    11852.102     1000 
  464000   0.63005191    -1.787856   0.94413279  -0.84372323   0.12111764    11891.298     1000 
  466000   0.64621401   -1.8553125   0.96835169   -0.8869608   0.12562158    11786.358     1000 
  468000   0.61975765   -1.8246143   0.92870683   -0.8959075   0.12575405    12154.565     1000 
  470000   0.64708028     -1.81863   0.96964979  -0.84898022    0.1410641    11876.638     1000 
  472000    0.6330153   -1.8106838   0.94857343  -0.86211033   0.11977692    12084.054     1000 
  474000   0.64014587   -1.8290779   0.95925859  -0.86981935   0.13136496    11976.353     1000 
  476000   0.62321558   -1.8059277   0.93388854  -0.87203915   0.11887196    11900.023     1000 
  478000   0.62528422   -1.8097578    0.9369884   -0.8727694   0.12393007     11876.56     1000 
  480000   0.61813143   -1.7970892   0.92626995  -0.87081928   0.12834456    12047.914     1000 
  482000   0.62263617   -1.7828224   0.93302031  -0.84980209   0.12032931    11975.533     1000 
  484000   0.61411736   -1.8118181   0.92025486  -0.89156322   0.13490856    11855.259     1000 
  486000   0.63211693   -1.7849785   0.94722723  -0.83775123   0.13093409     11824.22     1000 
  488000   0.60147453   -1.8188254   0.90130958  -0.91751585   0.13871857    11885.504     1000 
  490000   0.61272818   -1.7779287   0.91817318  -0.85975555   0.12944382    12119.286     1000 
  492000   0.63598471   -1.7769064   0.95302309  -0.82388331   0.13004802    11951.574     1000 
  494000   0.63542329   -1.8319543   0.95218181  -0.87977244   0.13474661    12005.985     1000 
  496000   0.60475047   -1.7852795   0.90621858  -0.87906089   0.13371809    11735.854     1000 
  498000   0.62202773   -1.7674683   0.93210855   -0.8353597    0.1284892    11894.441     1000 
  500000   0.63227248   -1.8051091   0.94746031  -0.85764877   0.13005357    11849.018     1000 
  502000   0.63905462   -1.8404507   0.95762335   -0.8828274   0.13049637    11894.051     1000 
  504000   0.62352884   -1.8483772   0.93435797  -0.91401923   0.11638866    12107.419     1000 
  506000   0.59639363   -1.7769177   0.89369585  -0.88322185   0.11836665     11969.79     1000 
  508000   0.62020564   -1.8312404   0.92937814  -0.90186223   0.12926161    11905.861     1000 
  510000   0.61959832   -1.8625211   0.92846808  -0.93405297   0.13555553    12030.975     1000 
  512000   0.67746368   -1.7674455    1.0151793   -0.7522662   0.13797388    11913.452     1000 
  514000   0.62118637   -1.8111358   0.93084778  -0.88028798   0.14185044    11937.832     1000 
  516000   0.62675539   -1.8402656   0.93919295  -0.90107263   0.14293794    11900.344     1000 
  518000   0.61723819   -1.7844722   0.92493142  -0.85954079   0.13364906    11868.126     1000 
  520000   0.63506733   -1.7666968    0.9516484  -0.81504844    0.1336507    11832.818     1000 
  522000   0.61580204   -1.8250913   0.92277936  -0.90231198   0.12259299    12127.955     1000 
  524000   0.62190022   -1.8196527   0.93191748  -0.88773524   0.13143369    11764.237     1000 
  526000   0.64686513   -1.7432864    0.9693274  -0.77395902   0.14094181    11799.763     1000 
  528000   0.63789135   -1.7820564   0.95588019  -0.82617625   0.13018289    11961.158     1000 
  530000    0.6099229   -1.7814984   0.91396946  -0.86752895   0.13267078    11796.846     1000 
  532000   0.65702138   -1.8396469   0.98454654  -0.85510036   0.12877804    11828.038     1000 
  534000    0.6055337   -1.8398795   0.90739225  -0.93248721   0.13641858    11869.164     1000 
  536000   0.62449724   -1.7568487   0.93580911   -0.8210396   0.12955696    11819.149     1000 
  538000   0.61475666   -1.7860688   0.92121285  -0.86485598   0.13060918    11992.722     1000 
  540000   0.63798411   -1.7849954   0.95601919  -0.82897616   0.12715333     11913.24     1000 
  542000     0.600929   -1.7915298   0.90049211  -0.89103773   0.13567833    11943.774     1000 
  544000   0.64050095   -1.8404195   0.95979067  -0.88062881   0.13873888    11829.462     1000 
  546000   0.63772781   -1.8105098   0.95563512  -0.85487466   0.12561704    12050.649     1000 
  548000   0.64217842   -1.8403868   0.96230436  -0.87808245   0.11516909    12058.734     1000 
  550000   0.63963021   -1.7537167   0.95848587  -0.79523085   0.13303258    11832.214     1000 
  552000   0.64614751   -1.7546107   0.96825205  -0.78635869    0.1445535    11761.492     1000 
  554000   0.63979457   -1.8095308   0.95873216   -0.8507986   0.13477667     11878.44     1000 
  556000   0.63020893   -1.7931338   0.94436808  -0.84876573   0.12586084    12050.992     1000 
  558000    0.6159178   -1.8078615   0.92295282  -0.88490867   0.12724239    11967.223     1000 
  560000   0.62011298   -1.8060196    0.9292393   -0.8767803   0.13068839    12089.181     1000 
  562000   0.62794255   -1.7880756   0.94097192  -0.84710373   0.13447951    11874.066     1000 
  564000   0.62651969   -1.8065168   0.93883975  -0.86767708   0.12576589    12080.533     1000 
  566000   0.63241743   -1.7570316   0.94767751  -0.80935408   0.12284366    12073.942     1000 
  568000   0.64131832    -1.802321    0.9610155  -0.84130548   0.11792368    11997.026     1000 
  570000   0.60423229   -1.7936087   0.90544208  -0.88816658   0.13049382     11929.75     1000 
  572000   0.62545814   -1.8125322   0.93724902  -0.87528314   0.11482024    12031.219     1000 
  574000   0.60645377    -1.780828   0.90877098  -0.87205705   0.12608726    11750.936     1000 
  576000   0.62117934   -1.7758379   0.93083725  -0.84500066   0.11053231    12033.775     1000 
  578000   0.60906023   -1.8124901   0.91267675  -0.89981333   0.12331012    11813.326     1000 
  580000   0.62601756   -1.7707819   0.93808731  -0.83269463   0.14020258    11811.417     1000 
  582000   0.62996857   -1.7677878    0.9440079  -0.82377989    0.1363068    11867.543     1000 
  584000    0.6273784    -1.802306   0.94012653  -0.86217949   0.15069126    11736.493     1000 
  586000   0.66037842   -1.7710128   0.98957706  -0.78143574    0.1273464    12006.553     1000 
  588000   0.62422541   -1.8039538   0.93540178  -0.86855198    0.1293572    11786.744     1000 
  590000   0.62340494    -1.801578    0.9341723  -0.86740566   0.11354339    12082.264     1000 
  592000   0.61277916    -1.741304   0.91824958  -0.82305444   0.12589931    11897.528     1000 
  594000   0.64020199   -1.7638333   0.95934268  -0.80449057   0.13220836    11828.615     1000 
  596000   0.65354594   -1.7792237   0.97933859  -0.79988509   0.12473143     11932.35     1000 
  598000    0.6149233   -1.8375491   0.92146256  -0.91608652   0.12483971    12035.184     1000 
  600000   0.63757517   -1.8192627   0.95540639  -0.86385636   0.13286567    12001.711     1000 
  602000   0.61488838   -1.8043513   0.92141024  -0.88294105   0.13420554     11737.32     1000 
  604000   0.60116641   -1.7897907   0.90084786  -0.88894287   0.13985897    11877.609     1000 
  606000   0.66674198   -1.7894573   0.99911285  -0.79034449   0.13851396    11907.202     1000 
  608000   0.64784452   -1.7876971   0.97079502  -0.81690212   0.11944513     12048.37     1000 
  610000    0.6190441   -1.7500569   0.92763758  -0.82241929   0.13273216    12022.255     1000 
  612000   0.67000037   -1.7877316    1.0039956  -0.78373606   0.13223424    11969.118     1000 
  614000   0.62579834   -1.7714201   0.93775882  -0.83366132   0.13073375    12036.659     1000 
  616000    0.6353552   -1.7736555   0.95207977  -0.82157574   0.12848897     11908.14     1000 
  618000   0.63073257   -1.8075938   0.94515276  -0.86244108   0.14435604    11761.535     1000 
  620000   0.60654128     -1.79539   0.90890211  -0.88648784   0.12722152    11905.057     1000 
  622000   0.63306397   -1.8247849   0.94864636   -0.8761385   0.13215697    11840.359     1000 
  624000    0.6482761   -1.8012896   0.97144173  -0.82984784   0.13279055    11853.387     1000 
  626000    0.6194521   -1.8132982   0.92824897  -0.88504926    0.1228248    11811.017     1000 
  628000   0.61490185   -1.7828397   0.92143042  -0.86140931   0.14413774    11683.894     1000 
  630000   0.64008255   -1.8364668   0.95916369  -0.87730312   0.12797801    11743.668     1000 
  632000   0.62317962   -1.7904428   0.93383466  -0.85660814    0.1414884    11829.642     1000 
  634000   0.59338863   -1.8212955   0.88919286  -0.93210262   0.13174364    11920.696     1000 
  636000    0.6578094   -1.7928681   0.98572739  -0.80714068   0.12711984    11863.221     1000 
  638000   0.63035418   -1.8445016   0.94458575  -0.89991581   0.13115721    11976.488     1000 
  640000   0.63859749   -1.7595714   0.95693833  -0.80263311   0.13207341    11898.355     1000 
  642000   0.65635512   -1.7803283   0.98354815  -0.79678017   0.13072596    11913.605     1000 
  644000   0.62401745   -1.8131348   0.93509015  -0.87804469   0.13244031    12027.938     1000 
  646000   0.63552344   -1.8217877   0.95233187  -0.86945583   0.13174727    12064.967     1000 
  648000   0.64833423   -1.8175706   0.97152885   -0.8460417   0.13241025    11916.359     1000 
  650000   0.61376113   -1.7845864   0.91972106  -0.86486532   0.13374283    11908.496     1000 
  652000   0.63448303   -1.8105987   0.95077281  -0.85982587   0.12608011    12108.334     1000 
  654000   0.63002882   -1.8116481   0.94409819  -0.86754988   0.12199636    12110.786     1000 
  656000    0.6268178   -1.8459681   0.93928647   -0.9066816   0.12394848    11959.829     1000 
  658000   0.62399594   -1.8528773   0.93505792  -0.91781939   0.12846963     12028.21     1000 
  660000   0.62359222   -1.8019996   0.93445294  -0.86754668   0.14115083    11789.412     1000 
  662000   0.62320694   -1.8065535    0.9338756  -0.87267792   0.14378993    11734.454     1000 
  664000   0.63702047   -1.8185056   0.95457517  -0.86393046   0.12551796    11929.335     1000 
  666000   0.63511583   -1.8082968   0.95172107  -0.85657573   0.12673336    12038.773     1000 
  668000   0.62456397   -1.7947506    0.9359091  -0.85884154   0.12244981    11955.472     1000 
  670000   0.62503035   -1.8343383   0.93660798  -0.89773035   0.12954471    11817.137     1000 
  672000   0.62095612   -1.8355847   0.93050274  -0.90508192   0.11097729     12147.13     1000 
  674000   0.60986252   -1.7588456   0.91387898  -0.84496657   0.12225815    11890.308     1000 
  676000   0.62074996   -1.8116171   0.93019381  -0.88142329   0.13652581    11589.492     1000 
  678000   0.61698332   -1.8185977    0.9245495  -0.89404822   0.13225682    11837.929     1000 
  680000   0.63944563   -1.7539586   0.95820928  -0.79574932   0.12330516    11898.081     1000 
  682000   0.59965618   -1.7613942   0.89858479  -0.86280945   0.12966141    11859.347     1000 
  684000   0.65198884    -1.817416   0.97700528   -0.8404107   0.13063662     11900.42     1000 
  686000   0.62571458   -1.8119535   0.93763329  -0.87432018    0.1251559    11825.079     1000 
  688000   0.63688848   -1.7981621   0.95437738  -0.84378471   0.13679809    11773.373     1000 
  690000   0.63699057   -1.8011847   0.95453037   -0.8466543   0.13549054     11920.75     1000 
  692000   0.63916101   -1.7879988   0.95778277  -0.83021601   0.13311799    11955.172     1000 
  694000   0.63285004   -1.8546126   0.94832579  -0.90628681   0.13864087    11800.073     1000 
  696000   0.61462858   -1.8025559   0.92102092  -0.88153501   0.11530786    12063.097     1000 
  698000   0.65462775   -1.7954285   0.98095968  -0.81446885   0.12345533    12177.378     1000 
  700000   0.62209981   -1.8297469   0.93221657  -0.89753036   0.13212022    11813.088     1000 
  702000   0.65868756   -1.7895914    0.9870433  -0.80254813   0.13792243    11896.762     1000 
  704000   0.63982813   -1.8046877   0.95878245  -0.84590529   0.13262281    11883.379     1000 
  706000   0.62247457   -1.8428979   0.93277814  -0.91011979   0.12677541    11951.047     1000 
  708000   0.60269622   -1.8125925   0.90314028  -0.90945222   0.11994305    12047.081     1000 
  710000   0.61691182   -1.8288018   0.92444236  -0.90435942   0.12984983    11851.703     1000 
  712000   0.64019541   -1.8286116   0.95933283  -0.86927876   0.13754816    11906.623     1000 
  714000   0.61140917   -1.7417674   0.91619665  -0.82557078   0.12555397    12098.679     1000 
  716000   0.62508237   -1.8077965   0.93668593  -0.87111061   0.12776761    11882.507     1000 
  718000   0.61427032   -1.8083967   0.92048407   -0.8879126   0.14014009    11662.472     1000 
  720000    0.6460745    -1.822929   0.96814264  -0.85478634   0.12746267    11978.631     1000 
  722000    0.6258383   -1.8524546   0.93781869  -0.91463592   0.13528612    11910.152     1000 
  724000   0.65242849   -1.7802502   0.97766409  -0.80258611   0.12632695    11940.673     1000 
  726000   0.62562778   -1.8521713   0.93750323  -0.91466812   0.12993301    12034.851     1000 
  728000   0.62323171   -1.7991295   0.93391272  -0.86521677   0.14075242    11906.874     1000 
  730000    0.6082117    -1.772541   0.91140524  -0.86113575   0.13168665    11798.752     1000 
  732000   0.61967299   -1.7931246   0.92857997  -0.86454458   0.13752414    11793.806     1000 
  734000   0.64183346   -1.8179493   0.96178744  -0.85616184   0.14398363     11895.03     1000 
  736000   0.60819665   -1.8032241   0.91138268  -0.89184138   0.14497346    11645.283     1000 
  738000   0.62604808   -1.7970823   0.93813305  -0.85894927   0.13395263    11812.609     1000 
  740000   0.59761695    -1.813834   0.89552901  -0.91830499   0.13392796    11793.848     1000 
  742000   0.61427988   -1.8282271    0.9204984  -0.90772867   0.11694295    12007.472     1000 
  744000   0.60414627   -1.8025677   0.90531319  -0.89725448   0.13581153    11699.399     1000 
  746000   0.62767295   -1.7798494   0.94056791  -0.83928149   0.12624263    11960.402     1000 
  748000   0.61979832   -1.7619038   0.92876779  -0.83313606   0.11506132    12056.408     1000 
  750000   0.60619573   -1.8062169    0.9083843  -0.89783259   0.13712429    11741.795     1000 
  752000   0.60344385   -1.8126439   0.90426061  -0.90838325   0.12345829    12063.741     1000 
  754000   0.65164359   -1.7909144   0.97648792  -0.81442646   0.14114423    11703.995     1000 
  756000   0.62558269   -1.7590027   0.93743566  -0.82156708   0.13383601    11832.213     1000 
  758000   0.65470374   -1.7616696   0.98107356  -0.78059603   0.13723904     11713.91     1000 
  760000   0.62637509   -1.8550286   0.93862307  -0.91640557   0.12546684    12043.485     1000 
  762000   0.62498409   -1.8069441   0.93653866  -0.87040543   0.12764612    11878.718     1000 
  764000   0.60410128   -1.7883767   0.90524577  -0.88313093   0.12978976    11848.323     1000 
  766000   0.62381679   -1.7821529   0.93478947  -0.84736345   0.13984378    11776.779     1000 
  768000   0.67701795   -1.8141003    1.0145114  -0.79958885   0.13000494    12000.426     1000 
  770000   0.64585613   -1.7924367   0.96781541  -0.82462127   0.11360868    12358.531     1000 
  772000    0.6140082   -1.8087945   0.92009128  -0.88870319   0.12503133    11975.628     1000 
  774000   0.59913221   -1.8185544   0.89779962  -0.92075478   0.13236112    11815.185     1000 
  776000   0.63389456   -1.8184997     0.949891  -0.86860873   0.11700916    12135.502     1000 
  778000   0.61398403   -1.8106635   0.92005507  -0.89060844   0.13562769    11667.655     1000 
  780000   0.64015587   -1.8000436   0.95927357  -0.84077006   0.13488148    11945.796     1000 
  782000   0.61891913   -1.8668758   0.92745032  -0.93942549   0.10975054     12220.86     1000 
  784000   0.61384059   -1.7645237   0.91984013  -0.84468354   0.13654593    11849.487     1000 
  786000   0.65065474    -1.778363   0.97500614   -0.8033569   0.12512064    12006.398     1000 
  788000   0.65086487   -1.8463944   0.97532101  -0.87107335   0.13928992    11878.368     1000 
  790000   0.62129293   -1.8111489   0.93100745   -0.8801414   0.14190468    11773.846     1000 
  792000   0.62746112   -1.8318498   0.94025049  -0.89159926   0.11405817    12179.982     1000 
  794000   0.61535795   -1.8184171   0.92211389  -0.89630324   0.12246595    12114.456     1000 
  796000   0.64289513   -1.7475351   0.96337836  -0.78415672   0.12707022    12008.715     1000 
  798000   0.62666576   -1.8408412   0.93905863  -0.90178258   0.13318294    11850.214     1000 
  800000   0.62781659   -1.8514031   0.94078317  -0.91061996   0.13020979    11903.304     1000 
  802000   0.61253058   -1.8480095   0.91787708  -0.93013247   0.13352498    11825.671     1000 
  804000   0.62012194   -1.8120909   0.92925273  -0.88283816   0.13853848    11908.495     1000 
  806000    0.6190423   -1.8545341   0.92763489  -0.92689925   0.12796749    11991.787     1000 
  808000   0.61934402   -1.8425603   0.92808701  -0.91447327   0.13307384    11833.683     1000 
  810000    0.6143563   -1.8112387   0.92061292  -0.89062581   0.13478048    11768.237     1000 
  812000   0.64949556   -1.7980466   0.97326909  -0.82477754    0.1240513    11886.244     1000 
  814000   0.64446963   -1.8060608   0.96573774  -0.84032308     0.134639    12031.284     1000 
  816000   0.62569088   -1.8371907   0.93759779  -0.89959292   0.12723664    11909.121     1000 
  818000    0.6484344   -1.8372548   0.97167894  -0.86557587   0.13313622    11935.005     1000 
  820000   0.65178021   -1.8448318   0.97669265  -0.86813917    0.1455702    11843.267     1000 
  822000    0.6503696   -1.8433591   0.97457885  -0.86878025   0.13394882    11955.415     1000 
  824000   0.65452015   -1.8023872   0.98079844  -0.82158878   0.13527051    11777.267     1000 
  826000    0.6180151   -1.7717974   0.92609562  -0.84570177    0.1365928    11817.872     1000 
  828000   0.61351841   -1.8091614   0.91935734  -0.88980401   0.11934046    11842.253     1000 
  830000   0.63179009   -1.8414319   0.94673745  -0.89469449    0.1114252    12117.931     1000 
  832000    0.6529133   -1.7816545   0.97839059  -0.80326392   0.12775388     11917.12     1000 
  834000   0.62801016   -1.8191985   0.94107322  -0.87812531   0.14117275    11908.613     1000 
  836000   0.62242236   -1.8189347    0.9326999   -0.8862348   0.12739638    12029.803     1000 
  838000   0.63567445   -1.8017846   0.95255817  -0.84922647   0.13063221     11966.53     1000 
  840000   0.60568956    -1.818084    0.9076258  -0.91045823   0.13045514    11849.407     1000 
  842000   0.65096793   -1.8223047   0.97547544  -0.84682923   0.12476434    11919.247     1000 
  844000   0.63254116   -1.8025753   0.94786293  -0.85471234    0.1244314    12064.767     1000 
  846000   0.61374478   -1.7558547   0.91969655  -0.83615813   0.11899774    12031.958     1000 
  848000   0.64386317   -1.7995281   0.96482895  -0.83469919   0.13618627    11846.311     1000 
  850000   0.60674251   -1.7809037   0.90920365  -0.87170003   0.13472947     11910.56     1000 
  852000   0.61172555   -1.7643172   0.91667073  -0.84764645     0.132947    11892.729     1000 
  854000   0.64452025   -1.7482836   0.96581359  -0.78246999   0.13332508    12027.396     1000 
  856000   0.61513801   -1.7387455    0.9217843  -0.81696124   0.13083013    11811.538     1000 
  858000   0.63835852   -1.8150212   0.95658024    -0.858441   0.13932583    12026.712     1000 
  860000   0.60607748   -1.8135878   0.90820711  -0.90538064   0.12587193    11898.788     1000 
  862000   0.64181008   -1.8483402   0.96175241  -0.88658783   0.12030659     12082.48     1000 
  864000   0.64064473   -1.7943251   0.96000613  -0.83431893   0.13488299    11775.902     1000 
  866000   0.62315051   -1.7877584   0.93379104  -0.85396737   0.12927536    12000.032     1000 
  868000   0.63049191   -1.8003813   0.94479213  -0.85558921   0.12774904      12015.7     1000 
  870000   0.63435376   -1.8058794   0.95057912  -0.85530026   0.12076611    11958.447     1000 
  872000   0.63895688    -1.818468   0.95747688  -0.86099112   0.12551378    12026.908     1000 
  874000   0.66762286   -1.7965892    1.0004329   -0.7961563   0.12743284    11902.314     1000 
  876000   0.63292196   -1.8131069   0.94843356   -0.8646733   0.14734921    11786.784     1000 
  878000   0.58318465   -1.8014812    0.8739022  -0.92757903   0.14251932    11803.659     1000 
  880000   0.66878918   -1.8330199    1.0021806  -0.83083935   0.13185848    11814.402     1000 
  882000   0.61778141    -1.806754   0.92574544  -0.88100857   0.12098692    11929.835     1000 
  884000   0.61999414   -1.8181008   0.92906121  -0.88903961   0.13219842    11975.549     1000 
  886000   0.63896358   -1.8127836   0.95748693  -0.85529671   0.13856577    12116.929     1000 
  888000   0.65447002   -1.8003243   0.98072332  -0.81960098   0.14635498    11806.297     1000 
  890000    0.6237188   -1.7856852   0.93464263  -0.85104257   0.13070458    11756.292     1000 
  892000   0.61850371   -1.7799095   0.92682781  -0.85308173   0.12286918    12147.757     1000 
  894000   0.65063001   -1.7622364   0.97496907  -0.78726732   0.13292699    12002.515     1000 
  896000   0.63333472   -1.7598613   0.94905208  -0.81080922   0.12426031    11966.673     1000 
  898000   0.62099281   -1.8069607   0.93055772  -0.87640294   0.13416697    11744.231     1000 
  900000   0.64295932   -1.8367589   0.96347455  -0.87328439   0.13542964    11915.962     1000 
  902000   0.60355245   -1.7471946   0.90442334  -0.84277127   0.13718764    11711.196     1000 
  904000   0.64249661   -1.7892766   0.96278117  -0.82649546   0.12592178    12061.139     1000 
  906000    0.6349475    -1.801883   0.95146883  -0.85041413   0.12609208    12024.449     1000 
  908000   0.63009856   -1.8082713   0.94420269   -0.8640686   0.11971902    12121.867     1000 
  910000   0.64828881   -1.7684149   0.97146079  -0.79695409   0.13728388    11809.662     1000 
  912000   0.62138232   -1.8086128   0.93114141  -0.87747136   0.13885306    11707.369     1000 
  914000   0.60430961   -1.8029751   0.90555796  -0.89741716   0.11158657     12032.01     1000 
  916000   0.62687941   -1.7658261    0.9393788  -0.82644727   0.13085569    11921.703     1000 
  918000   0.63100242   -1.8094494   0.94555713  -0.86389223   0.14561014    11604.782     1000 
  920000    0.6304763    -1.805448   0.94476873  -0.86067922   0.13657743     11870.09     1000 
  922000   0.62708451   -1.8247712   0.93968614  -0.88508507   0.11705824    11940.109     1000 
  924000   0.62942762   -1.7758745   0.94319729  -0.83267721   0.12591895    11919.648     1000 
  926000   0.63468533   -1.8255259   0.95107596  -0.87444994   0.12495343    12022.727     1000 
  928000   0.62681072   -1.7923051   0.93927586  -0.85302928   0.13492038    11809.584     1000 
  930000   0.65076792   -1.8459098   0.97517573  -0.87073402   0.14374238     11829.66     1000 
  932000   0.61634862   -1.8071942   0.92359841  -0.88359584   0.12767329    11894.913     1000 
  934000   0.63316692   -1.7932866   0.94880064  -0.84448594   0.12370736    11951.191     1000 
  936000   0.63437636   -1.7986411   0.95061297  -0.84802813   0.13679872    11891.338     1000 
  938000   0.60604785   -1.8333021   0.90816271  -0.92513943    0.1247701    12010.484     1000 
  940000   0.62834845   -1.7770522   0.94158015  -0.83547208   0.13979209    11897.103     1000 
  942000   0.64953026   -1.8334356   0.97332109  -0.86011449   0.12471618    11953.273     1000 
  944000     0.638032   -1.7691015   0.95609095  -0.81301051    0.1349198    11821.103     1000 
  946000   0.65000834   -1.8130585    0.9740375  -0.83902098   0.13286129    11847.422     1000 
  948000   0.61201951   -1.8534011   0.91711124  -0.93628981   0.13102558    11889.795     1000 
  950000   0.63801656   -1.8140627   0.95606782  -0.85799489   0.13047415    11771.316     1000 
  952000   0.61311034   -1.7919804   0.91874585  -0.87323451   0.12025868    12163.917     1000 
  954000   0.59997914   -1.8182488   0.89906874  -0.91918008   0.13059518    11905.309     1000 
  956000   0.65376368   -1.8201477   0.97966488  -0.84048279   0.14398828    11850.831     1000 
  958000   0.64658401   -1.8376704   0.96890613  -0.86876424   0.13208857    11857.324     1000 
  960000   0.64087217   -1.8268941   0.96034694  -0.86654717   0.11148719    12305.917     1000 
  962000   0.61851202   -1.8197224   0.92684025  -0.89288219   0.13145947    12021.021     1000 
  964000   0.61687857   -1.8100947   0.92439253  -0.88570219   0.13832845     11836.29     1000 
  966000   0.62195586   -1.7692701   0.93200085  -0.83726927   0.14084956    11752.849     1000 
  968000   0.66289218   -1.8412028   0.99334393  -0.84785891   0.12523234    12169.423     1000 
  970000   0.64238097   -1.8419915   0.96260788  -0.87938358   0.13909604    11928.811     1000 
  972000   0.62573299   -1.8034765   0.93766089  -0.86581562   0.13920073    11806.246     1000 
  974000   0.64131819   -1.7824466   0.96101531  -0.82143128   0.11476581    12081.549     1000 
  976000   0.65801992   -1.7871415   0.98604285  -0.80109868   0.11952858    12043.844     1000 
  978000   0.63994269   -1.7423404   0.95895412  -0.78338633   0.13146999    11964.334     1000 
  980000   0.63070689    -1.851345   0.94511427  -0.90623076   0.11474135    11920.746     1000 
  982000   0.63716623   -1.7653344    0.9547936  -0.81054076   0.12376768     12021.61     1000 
  984000   0.64605908   -1.7860399   0.96811954  -0.81792041   0.12753708    12013.429     1000 
  986000   0.62898473   -1.7904898   0.94253362  -0.84795618   0.12023632    11856.257     1000 
  988000   0.66505654   -1.8668282   0.99658723  -0.87024098   0.13095886    12087.507     1000 
  990000   0.63040297   -1.7686259   0.94465885  -0.82396705   0.13450533    11843.783     1000 
  992000   0.63814698   -1.8154201   0.95626325  -0.85915688   0.13208736    11891.041     1000 
  994000   0.66819994   -1.8228164    1.0012976  -0.82151882   0.12695426    11849.088     1000 
  996000   0.63615931   -1.7968461   0.95328473  -0.84356136   0.12738625    11822.218     1000 
  998000   0.63551084   -1.7650209   0.95231299  -0.81270789   0.11477969    11886.064     1000 
 1000000   0.62040379   -1.7355542   0.92967508  -0.80587915   0.13584487    11910.135     1000 
 1002000    0.6206291   -1.7820162   0.93001271  -0.85200347   0.12821892    12007.555     1000 
 1004000   0.61769153   -1.7903792   0.92561076  -0.86476841    0.1214421    11996.211     1000 
 1006000   0.63049671   -1.8004734   0.94479932  -0.85567407   0.14084874    11655.068     1000 
 1008000   0.61283991   -1.8120847    0.9183406  -0.89374408   0.12327656    11913.448     1000 
 1010000   0.62578559   -1.7757659    0.9377397  -0.83802619   0.14414958    11863.777     1000 
 1012000    0.6258214   -1.7493512   0.93779336  -0.81155786   0.13041273    11912.043     1000 
 1014000   0.64652645    -1.813851   0.96881989  -0.84503109   0.12614708    12105.786     1000 
 1016000   0.63466304   -1.8155277   0.95104257  -0.86448517   0.11327831    12001.581     1000 
 1018000   0.61918469    -1.766475   0.92784825   -0.8386268   0.12191244     12000.64     1000 
 1020000   0.60379547   -1.8164734   0.90478751  -0.91168589   0.12380903    12110.172     1000 
 1022000   0.64731187   -1.8344596   0.96999683  -0.86446276   0.12902773    11967.632     1000 
 1024000   0.67990576   -1.8056555    1.0188388  -0.78681674   0.13487912    11790.232     1000 
 1026000    0.6352556   -1.7926398   0.95193051  -0.84070925   0.12988633     11920.63     1000 
 1028000   0.60291112   -1.7864861   0.90346231  -0.88302374   0.12506736    11891.526     1000 
 1030000   0.62493304   -1.7886632   0.93646216  -0.85220105   0.13804278    11946.178     1000 
 1032000   0.63482294   -1.8068842   0.95128218  -0.85560203   0.13757199    11961.211     1000 
 1034000   0.63777394    -1.763001   0.95570425   -0.8072967   0.12836882    11798.451     1000 
 1036000   0.63011651   -1.8429345   0.94422959  -0.89870489   0.13887633     11811.43     1000 
 1038000   0.62715693   -1.7493473   0.93979467  -0.80955265   0.13781661     11882.69     1000 
 1040000   0.65317038   -1.8306976   0.97877582  -0.85192174   0.14844375    11825.818     1000 
 1042000   0.59348018   -1.7950821   0.88933005  -0.90575202   0.11798428     11919.11     1000 
 1044000   0.63514862   -1.7981226   0.95177021  -0.84635236   0.13136919     11924.15     1000 
 1046000   0.63861849   -1.7696825   0.95696981  -0.81271265   0.13599354    11698.045     1000 
 1048000   0.63118729    -1.856121   0.94583415  -0.91028688    0.1315701    12025.338     1000 
 1050000   0.62501654   -1.8031824   0.93658729   -0.8665951   0.12953107     11842.24     1000 
 1052000   0.64432353   -1.7721428   0.96551881  -0.80662397   0.13048647    11786.748     1000 
 1054000   0.63590671   -1.8483288   0.95290621  -0.89542262   0.12157481    12037.714     1000 
 1056000   0.62076618   -1.7553451   0.93021811  -0.82512701   0.11945312    11972.774     1000 
 1058000   0.62594814    -1.816457   0.93798329  -0.87847371   0.13648078    11794.705     1000 
 1060000   0.62008405   -1.8251236   0.92919594  -0.89592767   0.12514015    12014.502     1000 
 1062000   0.60836651   -1.8544636   0.91163721  -0.94282644   0.12012438    11999.762     1000 
 1064000   0.63639595   -1.8309483   0.95363933  -0.87730895    0.1361623    11960.477     1000 
 1066000   0.63396149   -1.7942748    0.9499913  -0.84428346   0.14465195    11754.135     1000 
 1068000   0.65955693   -1.7866731   0.98834607  -0.79832701   0.13283292    11837.465     1000 
 1070000   0.61863394   -1.8354788   0.92702296  -0.90845584   0.13746566    11791.802     1000 
 1072000   0.62379159   -1.8585369   0.93475169  -0.92378521   0.12358743     11973.01     1000 
 1074000   0.61785817   -1.7601953   0.92586047  -0.83433487   0.13231662    11872.701     1000 
 1076000   0.63533104   -1.8131807   0.95204356  -0.86113718   0.13229928    11997.015     1000 
 1078000   0.61668218    -1.879523   0.92409824   -0.9554248   0.11603273    11991.794     1000 
 1080000     0.616226   -1.8121527   0.92341466  -0.88873808   0.12339871    11997.737     1000 
 1082000   0.62340276   -1.8015961   0.93416904  -0.86742708    0.1274187    12018.355     1000 
 1084000   0.62153306    -1.821144    0.9313673  -0.88977665   0.12400784    12072.988     1000 
 1086000   0.63796665   -1.8156974   0.95599303  -0.85970439   0.13036365    11866.829     1000 
 1088000   0.62936701   -1.8174362   0.94310646  -0.87432977   0.13467437    11827.226     1000 
 1090000   0.62650306   -1.8635377   0.93881484   -0.9247229   0.12228074     12056.84     1000 
 1092000   0.62132179   -1.8253676   0.93105071  -0.89431693   0.12298956    11987.192     1000 
 1094000   0.63533615   -1.8358276   0.95205122   -0.8837764   0.12392992    12043.102     1000 
 1096000   0.61701557   -1.8098663   0.92459783  -0.88526851   0.11246031     12110.12     1000 
 1098000   0.62257657   -1.7764831   0.93293098  -0.84355216   0.13219488    11885.876     1000 
 1100000   0.66469221   -1.8116332   0.99604128  -0.81559193   0.14255776    11678.186     1000 
 1102000   0.61934442   -1.8471292   0.92808762  -0.91904159   0.13255399    11846.266     1000 
 1104000   0.58328589   -1.8302337   0.87405391  -0.95617981   0.12244442    11970.481     1000 
 1106000   0.62582571   -1.8083577   0.93779983  -0.87055789   0.13477369    12006.586     1000 
 1108000   0.63359484   -1.7701461   0.94944187   -0.8207042   0.11792361    12027.555     1000 
 1110000   0.63479475   -1.8153569   0.95123993  -0.86411694   0.13501807    11813.377     1000 
 1112000    0.5919272   -1.7832626   0.88700291  -0.89625967   0.13775016    11910.556     1000 
 1114000   0.61897932   -1.8164764   0.92754051  -0.88893585   0.14153829    11750.921     1000 
 1116000   0.61399928   -1.7757163   0.92007792  -0.85563836   0.13550322    11708.898     1000 
 1118000   0.62542944   -1.8135946   0.93720601  -0.87638862   0.13231714    11899.916     1000 
 1120000   0.60219617   -1.8297325   0.90239096  -0.92734151   0.12452221    11934.331     1000 
 1122000   0.61441274   -1.8167881   0.92069748  -0.89609063   0.11891982    11884.176     1000 
 1124000   0.63067609   -1.7881188   0.94506812  -0.84305071   0.12762526    11845.449     1000 
 1126000   0.62148469   -1.8331565   0.93129481  -0.90186168   0.12669351    11866.542     1000 
 1128000   0.62068513   -1.8074587   0.93009667  -0.87736205   0.12421276    12022.308     1000 
 1130000   0.66460821   -1.8143228    0.9959154  -0.81840743   0.13436602    12048.248     1000 
 1132000   0.64044984   -1.8017939   0.95971409  -0.84207979   0.13639086     11869.46     1000 
 1134000   0.60686856   -1.8307898   0.90939254   -0.9213973   0.11821991    11853.838     1000 
 1136000   0.64146968   -1.7668581   0.96124232  -0.80561574   0.12369504    11928.538     1000 
 1138000   0.63447646   -1.7525046   0.95076297  -0.80174164   0.13788374    11854.246     1000 
 1140000   0.64011909   -1.7957813   0.95921846   -0.8365628   0.13402866     11920.62     1000 
 1142000   0.63805643   -1.8233997   0.95612756  -0.86727216   0.13909015    11680.609     1000 
 1144000   0.64365663   -1.8144871   0.96451945  -0.84996765   0.13746932    11819.294     1000 
 1146000   0.60575674   -1.7963528   0.90772648  -0.88862632   0.12936659    11864.602     1000 
 1148000   0.62324577   -1.7928379   0.93393378  -0.85890409   0.11928367    12104.106     1000 
 1150000   0.60405253   -1.7994179   0.90517271  -0.89424518    0.1189598    11926.206     1000 
 1152000   0.60844488   -1.8419927   0.91175465   -0.9302381   0.13099916    12002.902     1000 
 1154000   0.64111335   -1.7636895   0.96070835  -0.80298117   0.14322433    11569.475     1000 
 1156000   0.63663862   -1.7795627   0.95400297  -0.82555973   0.12280064     12046.38     1000 
 1158000   0.62565586   -1.8238191   0.93754531  -0.88627376   0.12563487     12132.78     1000 
 1160000   0.63437287   -1.7512076   0.95060775  -0.80059987   0.13400845    11828.413     1000 
 1162000   0.63508603   -1.7648409   0.95167642  -0.81316451   0.13983725    11862.049     1000 
 1164000   0.62680167    -1.772969   0.93926231  -0.83370669   0.12899184    11908.715     1000 
 1166000   0.61460489   -1.7962668   0.92098542  -0.87528142   0.12609309    11968.885     1000 
 1168000   0.62016697   -1.7828073    0.9293202  -0.85348705    0.1224623     11913.07     1000 
 1170000   0.65767633   -1.7822663   0.98552797  -0.79673833   0.13293343    11875.003     1000 
 1172000    0.6393085   -1.7569159   0.95800378  -0.79891211   0.14271322    11747.845     1000 
 1174000   0.61886441   -1.7651843   0.92736832  -0.83781594    0.1447596    11700.444     1000 
 1176000   0.61925131   -1.7772197   0.92794809   -0.8492716   0.13640621    11855.819     1000 
 1178000   0.60434164   -1.7690849   0.90560595  -0.86347894   0.12347198     11932.58     1000 
 1180000    0.6574938   -1.7336982   0.98525446  -0.74844374   0.13839183    11888.949     1000 
 1182000   0.63062725   -1.8085629   0.94499494  -0.86356795   0.12547928    11950.588     1000 
 1184000   0.62630169   -1.7596981   0.93851308  -0.82118501   0.13192225     11989.68     1000 
 1186000   0.61912675   -1.8619492   0.92776143  -0.93418775   0.13049727    11772.394     1000 
 1188000   0.63264528    -1.768884   0.94801896  -0.82086508   0.13417866    11868.223     1000 
 1190000   0.63242677   -1.8211016   0.94769152  -0.87341008   0.14068912    11872.249     1000 
 1192000   0.63361103   -1.8033448   0.94946613  -0.85387867    0.1389942    11940.612     1000 
 1194000   0.64416889   -1.7973699   0.96528708  -0.83208277   0.13837577    11662.033     1000 
 1196000   0.61372471   -1.8554365   0.91966647  -0.93577001   0.11953231     12195.28     1000 
 1198000   0.63337774   -1.7843897   0.94911654  -0.83527314   0.11787908    12039.147     1000 
 1200000   0.60213255   -1.7531499   0.90229563  -0.85085422   0.12082383    11912.152     1000 
 1202000   0.64121597   -1.8296338   0.96086213  -0.86877168   0.12722258    11987.853     1000 
 1204000   0.63183739   -1.7996618   0.94680833  -0.85285348    0.1402484    11878.614     1000 
 1206000   0.64259895      -1.8498   0.96293453  -0.88686548   0.13585887    11930.347     1000 
 1208000   0.59299791   -1.8390289   0.88860736  -0.95042153   0.12463314    12022.237     1000 
 1210000   0.63967339   -1.7996757   0.95855058  -0.84112508    0.1385253    12060.942     1000 
 1212000   0.62824319   -1.7940141   0.94142242  -0.85259165   0.12093433    11957.828     1000 
 1214000   0.60509174    -1.830093   0.90672997  -0.92336301   0.13666753    12025.779     1000 
 1216000   0.65043321   -1.7814673   0.97467417  -0.80679309   0.12848779    11997.406     1000 
 1218000   0.61530513    -1.853971   0.92203473  -0.93193622   0.13006547    11940.799     1000 
 1220000   0.61527017    -1.789304   0.92198236  -0.86732165   0.13283315    11858.895     1000 
 1222000   0.60210307   -1.8134889   0.90225144  -0.91123749   0.12316825    11947.333     1000 
 1224000   0.61729591   -1.7725279   0.92501793     -0.84751   0.13313386    11952.794     1000 
 1226000   0.63839238   -1.7979752   0.95663098  -0.84134423   0.11982219    11961.408     1000 
 1228000   0.64915398   -1.7893229   0.97275724  -0.81656568   0.13543113    11953.563     1000 
 1230000   0.61063672   -1.7844052   0.91503913   -0.8693661   0.13697079    11914.927     1000 
 1232000    0.6192627   -1.8416304   0.92796516  -0.91366524   0.13163761    11943.615     1000 
 1234000   0.61694029   -1.7625519   0.92448502  -0.83806689   0.14017992    11832.802     1000 
 1236000   0.61047997   -1.8543576   0.91480424  -0.93955336   0.11957765    11943.642     1000 
 1238000   0.62453468   -1.7681001   0.93586521  -0.83223486   0.14602455     11832.37     1000 
 1240000   0.64366003    -1.814217   0.96452456  -0.84969244   0.13072032    11840.527     1000 
 1242000   0.65407834   -1.7337308   0.98013639  -0.75359441   0.12869786    11918.736     1000 
 1244000   0.63146341   -1.7959759   0.94624792  -0.84972794   0.13424766    11975.459     1000 
 1246000   0.61208924   -1.8440427   0.91721572  -0.92682702   0.13049646    12010.124     1000 
 1248000   0.61489524   -1.7385268   0.92142051  -0.81710627   0.11443105    11928.145     1000 
 1250000   0.64762329   -1.7843529    0.9704635  -0.81388943   0.14855255     11828.57     1000 
 1252000   0.60020639   -1.7600906   0.89940928  -0.86068137    0.1411591    11739.876     1000 
 1254000   0.62098547   -1.8402742   0.93054672  -0.90972749   0.12761973    11924.466     1000 
 1256000   0.61896093   -1.8087262   0.92751295  -0.88121329   0.13376711    11887.989     1000 
 1258000   0.64799983   -1.8138285   0.97102774  -0.84280076   0.11928905    11961.869     1000 
 1260000   0.65609579   -1.8153082   0.98315955  -0.83214868   0.14049635    11847.973     1000 
 1262000   0.63777542   -1.7871626   0.95570646  -0.83145613   0.11835146    12075.294     1000 
 1264000   0.64680079   -1.8524293   0.96923099  -0.88319835   0.13041656    11934.957     1000 
 1266000   0.61772446    -1.822204    0.9256601   -0.8965439   0.12226187    11939.251     1000 
 1268000   0.62635717   -1.7563869   0.93859622  -0.81779073   0.12573872    11769.583     1000 
 1270000   0.62085771   -1.7981147   0.93035528  -0.86775939   0.13164719    11762.445     1000 
 1272000   0.62876101   -1.7625527   0.94219838   -0.8203543   0.13058201    11874.906     1000 
 1274000   0.63253674   -1.8253155    0.9478563   -0.8774592   0.13102835    11853.157     1000 
 1276000   0.63614041    -1.774957   0.95325641   -0.8217006   0.14753284     11672.46     1000 
 1278000   0.63368015   -1.7768298    0.9495697  -0.82726007   0.12470623    11995.078     1000 
 1280000   0.61635095   -1.8045505    0.9236019  -0.88094862   0.12530708    12006.585     1000 
 1282000   0.63032792   -1.7519747   0.94454639  -0.80742831   0.12807121    12001.043     1000 
 1284000   0.63029385   -1.8134246   0.94449533  -0.86892924   0.14746436    11818.043     1000 
 1286000    0.6492268   -1.7933346   0.97286636  -0.82046828   0.11591637    11909.348     1000 
 1288000   0.66992872   -1.7970494    1.0038882  -0.79316123   0.13607686    11916.756     1000 
 1290000   0.62720346   -1.8009123   0.93986438  -0.86104792   0.11698988    12149.475     1000 
 1292000   0.63771203   -1.7535795   0.95561148    -0.797968   0.14072563    11846.587     1000 
 1294000   0.62620882   -1.7644306   0.93837392  -0.82605669    0.1324433    11898.948     1000 
 1296000   0.59789964   -1.7967418   0.89595261  -0.90078919   0.13011528    12020.644     1000 
 1298000   0.61641028   -1.7587399    0.9236908  -0.83504908   0.11322092    12044.903     1000 
 1300000   0.59679602   -1.7704122   0.89429884  -0.87611339   0.12657827    11724.464     1000 
 1302000   0.61845525   -1.8185325    0.9267552  -0.89177727   0.11634142    11963.741     1000 
 1304000   0.61354627   -1.7599323   0.91939909  -0.84053321   0.13711999    11813.843     1000 
 1306000   0.61897809   -1.7757768   0.92753866   -0.8482381   0.12632213    11930.942     1000 
 1308000   0.63025374    -1.789607   0.94443523  -0.84517178    0.1347924    11838.225     1000 
 1310000   0.62425091    -1.841168      0.93544  -0.90572802   0.13067124    12095.329     1000 
 1312000   0.61953678   -1.8103611   0.92837587   -0.8819852   0.12664396    12005.246     1000 
 1314000     0.653503   -1.8068942   0.97927425  -0.82761997   0.14129563     11856.96     1000 
 1316000   0.63782304   -1.8206806   0.95577782   -0.8649028   0.12380026     11818.35     1000 
 1318000   0.60762865   -1.7754574   0.91053153   -0.8649259   0.11413707    11970.434     1000 
 1320000   0.65298077   -1.7546455   0.97849168  -0.77615378   0.13619847    11915.919     1000 
 1322000   0.62283083   -1.8154104     0.933312  -0.88209842    0.1190713     11921.75     1000 
 1324000    0.6695602   -1.8347009     1.003336  -0.83136495   0.12867391    11935.767     1000 
 1326000   0.59374302   -1.7924018   0.88972392  -0.90267791   0.12872002     11952.27     1000 
 1328000   0.62879855   -1.8271211   0.94225462  -0.88486646   0.12413933    12142.108     1000 
 1330000   0.66745599   -1.7761373    1.0001828  -0.77595446   0.12888813    11983.065     1000 
 1332000   0.63420761   -1.8322167   0.95036011  -0.88185657   0.13356971    11977.457     1000 
 1334000    0.6339477   -1.7964222   0.94997063  -0.84645155   0.13347755    11909.594     1000 
 1336000   0.63848949   -1.8205693   0.95677649  -0.86379276   0.13582902    11872.798     1000 
 1338000    0.6130558   -1.7904468   0.91866411  -0.87178274   0.12486427    12001.983     1000 
 1340000   0.64564887   -1.7582749   0.96750482  -0.79077007   0.12926964    11911.787     1000 
 1342000   0.62121875   -1.7814353    0.9308963  -0.85053904   0.12823917    12042.837     1000 
 1344000    0.6301591    -1.794871   0.94429341  -0.85057755   0.12333377    12160.647     1000 
 1346000   0.61325938   -1.8359201   0.91896918  -0.91695092   0.12741735    11946.896     1000 
 1348000    0.6479856   -1.7871762   0.97100643   -0.8161698   0.12767795    11961.772     1000 
 1350000   0.63831057   -1.7330614    0.9565084  -0.77655301   0.13327045    11850.437     1000 
 1352000   0.63313274   -1.8364416   0.94874941  -0.88769215   0.14427768    11902.179     1000 
 1354000   0.63404151   -1.7671049    0.9501112  -0.81699368   0.13311943    11805.709     1000 
 1356000   0.64371947   -1.8207251   0.96461362  -0.85611143   0.13323511    11894.033     1000 
 1358000   0.64679765   -1.7838722   0.96922628  -0.81464587   0.13876871    11944.736     1000 
 1360000   0.62208909   -1.7723218   0.93220051  -0.84012126   0.14276581    11753.504     1000 
 1362000   0.62977373   -1.8159104   0.94371593  -0.87219451   0.13462816    11998.171     1000 
 1364000   0.64333898   -1.8370274   0.96404346  -0.87298398   0.12570285    11985.558     1000 
 1366000   0.64421622   -1.7965485   0.96535801  -0.83119048   0.12197704    12169.822     1000 
 1368000   0.63730887   -1.8201689   0.95500734  -0.86516155   0.13716739    11740.529     1000 
 1370000   0.61054587   -1.8093438   0.91490299  -0.89444084   0.14215006    11740.246     1000 
 1372000   0.59933753   -1.7975373   0.89810729  -0.89943006   0.13090083    12091.039     1000 
 1374000   0.61424616   -1.7704133   0.92044788   -0.8499654   0.13157789    11799.219     1000 
 1376000   0.61382315   -1.7943225     0.919814  -0.87450847   0.12186561    11985.429     1000 
 1378000   0.60211347   -1.7979857   0.90226703  -0.89571869   0.13126931    11816.651     1000 
 1380000   0.62765347   -1.7296776   0.94053872   -0.7891389   0.12991812    11976.546     1000 
 1382000   0.63165068   -1.8343833   0.94652854  -0.88785478   0.12800536    11889.838     1000 
 1384000    0.6400675   -1.8194454   0.95914115  -0.86030425   0.12524644    11956.636     1000 
 1386000    0.6241733   -1.8383232   0.93532369   -0.9029995   0.12028494    12011.627     1000 
 1388000    0.6463423   -1.7817921   0.96854393  -0.81324822   0.13181989    11888.211     1000 
 1390000   0.63429974   -1.8153896   0.95049816  -0.86489146   0.14702667    11807.629     1000 
 1392000   0.63241106   -1.7631364   0.94766797  -0.81546839   0.12623507     12009.41     1000 
 1394000   0.62641459   -1.8161592   0.93868226  -0.87747689   0.13007924    12029.233     1000 
 1396000   0.63113378   -1.8422576   0.94575398  -0.89650358   0.11787335    12070.062     1000 
 1398000   0.63900314   -1.7868218   0.95754621  -0.82927556   0.12510727    11908.935     1000 
 1400000     0.637341   -1.8120187   0.95505548  -0.85696318   0.11483461    12148.053     1000 
 1402000   0.66406843   -1.7693526   0.99510655  -0.77424609   0.12917147    11838.121     1000 
 1404000   0.62822655   -1.8515526   0.94139749  -0.91015508   0.13547085    11938.274     1000 
 1406000    0.6491695   -1.7971797   0.97278049  -0.82439923   0.13040369    11962.821     1000 
 1408000   0.64746599   -1.7628075   0.97022779  -0.79257974   0.13238112    11859.897     1000 
 1410000   0.61279281   -1.7777625   0.91827002  -0.85949249   0.14890591    11597.432     1000 
 1412000    0.6219363   -1.8192269   0.93197155  -0.88725537   0.12993392    11873.991     1000 
 1414000   0.64542232   -1.7860006   0.96716535  -0.81883526   0.12802749    11834.975     1000 
 1416000   0.61009246   -1.8007485   0.91422355  -0.88652495   0.12108492    11938.757     1000 
 1418000   0.62848215   -1.7889426    0.9417805  -0.84716214   0.12736615    12020.771     1000 
 1420000   0.61758583   -1.7826401   0.92545236  -0.85718775   0.11226208    12107.195     1000 
 1422000   0.60673974   -1.7916044   0.90919951  -0.88240493   0.13022319    11926.849     1000 
 1424000   0.65713975   -1.7774455   0.98472392  -0.79272155   0.13351123    11827.915     1000 
 1426000   0.64585144   -1.8242882   0.96780839  -0.85647976   0.12868297    12063.792     1000 
 1428000   0.64242433   -1.7949229   0.96267285  -0.83225008   0.11536049    12094.898     1000 
 1430000    0.6274086   -1.7841931   0.94017179  -0.84402127   0.12074954    12001.179     1000 
 1432000   0.59981674   -1.7868333   0.89882538  -0.88800789   0.12068048    11956.651     1000 
 1434000   0.64144177   -1.7752222   0.96120049  -0.81402167   0.14395621    11790.051     1000 
 1436000   0.63255535   -1.7669233    0.9478842  -0.81903907   0.11927248    11902.001     1000 
 1438000   0.62384457   -1.8129214   0.93483109  -0.87809029    0.1465405    11665.653     1000 
 1440000   0.63070018   -1.7735178   0.94510422  -0.82841355   0.13532737    11893.397     1000 
 1442000    0.6326908   -1.8241991   0.94808717  -0.87611189     0.118902    12080.727     1000 
 1444000   0.64224266   -1.7873305   0.96240063  -0.82492987   0.13312308    11889.308     1000 
 1446000   0.68177682   -1.8270444    1.0216426  -0.80540186   0.12704246    12137.969     1000 
 1448000   0.63494632   -1.8460727   0.95146706  -0.89460561   0.12419818    11987.117     1000 
 1450000   0.62188962   -1.8269944   0.93190159  -0.89509282   0.11200652     12037.13     1000 
 1452000   0.63699906   -1.7943201   0.95454309  -0.83977698   0.13195972    11746.884     1000 
 1454000   0.65064919   -1.7928054   0.97499781  -0.81780757   0.13899647    11831.014     1000 
 1456000   0.63203382   -1.7585401   0.94710268  -0.81143743   0.13203999    11964.309     1000 
 1458000   0.66779749   -1.8368938    1.0006945  -0.83619923   0.13747378    11925.972     1000 
 1460000   0.64092915   -1.7882446   0.96043233  -0.82781229   0.13590331    11876.963     1000 
 1462000   0.60513393   -1.7688735   0.90679319  -0.86208027   0.12572312    11778.609     1000 
 1464000   0.62690447   -1.7809739   0.93941635   -0.8415576   0.13104772    11856.445     1000 
 1466000   0.60823379   -1.8306233   0.91143833  -0.91918492   0.12885171    11888.203     1000 
 1468000   0.63112628    -1.808982   0.94574273  -0.86323928   0.13218525    11938.164     1000 
 1470000   0.64847824   -1.8268497   0.97174464  -0.85510505   0.12355318    11935.122     1000 
 1472000   0.64713114   -1.8030859   0.96972601  -0.83335992   0.12772354    12000.669     1000 
 1474000     0.656552   -1.7889799   0.98384317  -0.80513669   0.14295211    11781.853     1000 
 1476000   0.63971358   -1.8006699    0.9586108  -0.84205906   0.14192703    11863.977     1000 
 1478000   0.63218509    -1.824598   0.94732936  -0.87726863    0.1326201    11858.258     1000 
 1480000   0.64040225    -1.804416   0.95964278  -0.84477326   0.13741039    11789.738     1000 
 1482000   0.61047682   -1.8366313   0.91479952  -0.92183179   0.12632721    11946.158     1000 
 1484000   0.62720168    -1.798711   0.93986172  -0.85884928   0.11667541    12008.033     1000 
 1486000   0.61535867   -1.7996401   0.92211496   -0.8775251   0.12644427     11928.58     1000 
 1488000   0.61329701   -1.8210282   0.91902558  -0.90200258   0.11733523    11918.125     1000 
 1490000   0.62184198   -1.7705426    0.9318302  -0.83871238   0.13319561    12100.288     1000 
 1492000   0.61571532   -1.7326446   0.92264941  -0.80999516   0.12918549    11944.961     1000 
 1494000   0.63412767   -1.8357745   0.95024032  -0.88553415   0.13471057    11899.064     1000 
 1496000   0.64915595   -1.8563772   0.97276019  -0.88361706   0.11539661    12118.051     1000 
 1498000   0.64137862   -1.8215025   0.96110587  -0.86039663    0.1261516    12015.127     1000 
 1500000     0.620798   -1.8377219    0.9302658  -0.90745608   0.12679991    12072.772     1000 
 1502000   0.65018504   -1.7691735   0.97430229  -0.79487121   0.13246705    11970.191     1000 
 1504000   0.62530178   -1.7767917   0.93701472  -0.83977698   0.12451558    11890.192     1000 
 1506000   0.62051491   -1.7570527   0.92984159  -0.82721114   0.13428575    11836.749     1000 
 1508000   0.60481542   -1.8320004   0.90631591  -0.92568444   0.11859867    12062.663     1000 
 1510000   0.60986936   -1.8019242   0.91388923  -0.88803496    0.1114189     12120.59     1000 
 1512000   0.62847205   -1.7919038   0.94176536  -0.85013845   0.13567439    11958.697     1000 
 1514000   0.61644813   -1.7636805   0.92374752  -0.83993296   0.12416464    11786.686     1000 
 1516000   0.63579426   -1.7555185    0.9527377  -0.80278079   0.12091674    11948.682     1000 
 1518000   0.61335415   -1.8560392   0.91911119  -0.93692799   0.12411056    11999.094     1000 
 1520000   0.61451729   -1.8346401   0.92085415  -0.91378597    0.1152925    12062.625     1000 
 1522000   0.64784413   -1.7908099   0.97079443  -0.82001545   0.12838045    12041.022     1000 
 1524000   0.61700639   -1.8012431   0.92458408  -0.87665898   0.11854663    12045.706     1000 
 1526000   0.61991304   -1.8379352   0.92893969  -0.90899549   0.12404413    12079.134     1000 
 1528000   0.63216276   -1.7796325    0.9472959  -0.83233656   0.14910545    11661.852     1000 
 1530000   0.63469637    -1.810667    0.9510925  -0.85957447   0.13216467    11939.443     1000 
 1532000   0.64031296   -1.7497038   0.95950898  -0.79019479   0.12267799    12004.746     1000 
 1534000   0.61668342   -1.8070792   0.92410011  -0.88297907   0.12491019    11943.477     1000 
 1536000   0.63602593   -1.8141945   0.95308485  -0.86110966   0.13326648    11852.101     1000 
 1538000   0.63636376   -1.7788717   0.95359109  -0.82528059   0.13242699    11918.685     1000 
 1540000   0.63238633   -1.7912729   0.94763091  -0.84364196   0.14014808    12050.354     1000 
 1542000   0.60968388   -1.8502265   0.91361129  -0.93661526   0.11975275    12033.636     1000 
 1544000   0.64800704   -1.7984217   0.97103854  -0.82738315   0.13766197    11880.131     1000 
 1546000   0.60169866   -1.7976558   0.90164544  -0.89601034   0.12814559    11695.932     1000 
 1548000   0.60165489   -1.7925797   0.90157986  -0.89099988   0.11981959    12008.973     1000 
 1550000   0.63925521    -1.792169   0.95792393  -0.83424508   0.11536869    11966.421     1000 
 1552000   0.61033635   -1.8151295   0.91458902  -0.90054045   0.12530307    11999.909     1000 
 1554000   0.66145666   -1.7708935   0.99119281   -0.7797007    0.1244152    11961.348     1000 
 1556000   0.62174135   -1.8576209   0.93167941  -0.92594147   0.11828334    11861.936     1000 
 1558000   0.61873767   -1.8086307   0.92717839   -0.8814523    0.1358405    12068.601     1000 
 1560000   0.62099623    -1.791811   0.93056284  -0.86124812   0.12472251    12018.409     1000 
 1562000   0.65731588   -1.8473318   0.98498785  -0.86234395   0.12517851    11962.852     1000 
 1564000   0.62599505   -1.7868939   0.93805358  -0.84884036   0.12130544    11946.957     1000 
 1566000   0.64162763   -1.7797314   0.96147901  -0.81825237   0.13659914    11945.498     1000 
 1568000   0.65265214   -1.8223334   0.97799923  -0.84433417    0.1280458    11946.394     1000 
 1570000   0.65451632   -1.7880105    0.9807927   -0.8072178   0.13872693    11981.979     1000 
 1572000   0.65822549   -1.7851128    0.9863509  -0.79876186   0.12265068    11978.852     1000 
 1574000   0.64626773   -1.8590797   0.96843219  -0.89064753   0.13915837    11785.507     1000 
 1576000   0.62013737   -1.8156569   0.92927585  -0.88638107   0.12925641    11932.048     1000 
 1578000    0.6306019   -1.8530968   0.94495694  -0.90813987   0.13610818    11833.325     1000 
 1580000   0.61107148     -1.79538   0.91569061  -0.87968943   0.12719987     11981.04     1000 
 1582000   0.61519293   -1.8055873   0.92186661  -0.88372065   0.14053075    11690.508     1000 
 1584000   0.62229529   -1.8522289   0.93250949  -0.91971937   0.13445499     11855.15     1000 
 1586000   0.61367281   -1.8063582   0.91958871   -0.8867695   0.13972941    11833.095     1000 
 1588000   0.66032917   -1.8418926   0.98950325  -0.85238932   0.12830743    12020.346     1000 
[...]
 2614000   0.65723898   -1.7927752   0.98487262  -0.80790259   0.12714729     11994.94     1000 
 2616000   0.64288817    -1.812918   0.96336792  -0.84955011   0.13635754    11868.734     1000 
 2618000   0.64116326    -1.811479   0.96078315  -0.85069585   0.12576989    11997.789     1000 
 2620000   0.66477692   -1.7814827   0.99616822  -0.78531451   0.12857055    12085.333     1000 
 2622000   0.63500758   -1.7546341   0.95155886  -0.80307524   0.12126508    11958.175     1000 
 2624000   0.62568981   -1.8456773   0.93759617  -0.90808115   0.10500323    12275.742     1000 
 2626000    0.6364576   -1.8148406   0.95373171  -0.86110892   0.14589048    11715.237     1000 
 2628000   0.62217465   -1.8234698   0.93232871   -0.8911411   0.11329765    12139.026     1000 
 2630000   0.61121045   -1.7826215   0.91589887  -0.86672264   0.13266118    11914.052     1000 
 2632000   0.63064581    -1.794825   0.94502275  -0.84980228   0.12429698    11847.404     1000 
 2634000   0.61872548   -1.8105488   0.92716013  -0.88338871   0.12132499    11914.892     1000 
 2636000   0.65551164    -1.747741   0.98228419  -0.76545679   0.13672596     11730.74     1000 
 2638000   0.62141288   -1.7633586   0.93118721  -0.83217143   0.13711944    11754.962     1000 
 2640000   0.62155236   -1.8053549   0.93139622  -0.87395869   0.13040597    11923.015     1000 
 2642000   0.61208333   -1.7601472   0.91720687  -0.84294031   0.11917018    11934.054     1000 
 2644000    0.6254879   -1.7796391   0.93729362  -0.84234551   0.11676609     12148.73     1000 
 2646000   0.63921261   -1.7901784   0.95786009  -0.83231831   0.12910349    11974.336     1000 
 2648000   0.62437178   -1.8212529   0.93562112  -0.88563175   0.12316728    11879.976     1000 
 2650000   0.62917479   -1.7968595   0.94281842  -0.85404111   0.13019491    11950.192     1000 
 2652000   0.64102655   -1.7830335   0.96057828  -0.82245525   0.12277461    12009.924     1000 
 2654000   0.61060998   -1.8404021   0.91499906  -0.92540299   0.12693984    11867.051     1000 
 2656000   0.60068607   -1.8534144   0.90012807  -0.95328637   0.13345288    11822.746     1000 
 2658000   0.62629881   -1.8231743   0.93850876  -0.88466552   0.12227902    11943.674     1000 
 2660000   0.67207475   -1.7845004     1.007104  -0.77739638   0.13188911    12016.269     1000 
 2662000   0.63830687   -1.7726578   0.95650285  -0.81615497   0.13421499    11805.621     1000 
 2664000   0.63756292   -1.7781595   0.95538804  -0.82277151   0.12927149    11862.176     1000 
 2666000   0.62155981   -1.7779667   0.93140738  -0.84655931   0.13115459    11728.848     1000 
 2668000   0.62063335   -1.8002342   0.93001907  -0.87021516   0.13129703    11907.464     1000 
 2670000   0.63497936   -1.7688404   0.95151657  -0.81732384    0.1347648    11901.205     1000 
 2672000   0.61853094   -1.7848427   0.92686862  -0.85797406   0.14442882     11788.55     1000 
 2674000   0.62051134   -1.8517176   0.92983625  -0.92188133   0.12639454    12015.507     1000 
 2676000   0.63444004   -1.8124343   0.95070841  -0.86172593   0.13161421    11939.823     1000 
 2678000   0.62322131   -1.7396065   0.93389713  -0.80570939   0.12618399     12029.77     1000 
 2680000   0.63099532   -1.8814793   0.94554649  -0.93593281   0.12000149    12135.978     1000 
 2682000     0.604603   -1.8352527    0.9059976  -0.92925507   0.12747945    11972.981     1000 
 2684000   0.64209753    -1.827656   0.96218315  -0.86547282   0.12126414     12046.65     1000 
 2686000   0.64282765   -1.8433193   0.96327724  -0.88004205   0.12291216    12005.026     1000 
 2688000   0.64840562   -1.8298686   0.97163583   -0.8582328   0.13846611    11858.445     1000 
 2690000   0.62561749   -1.8476483    0.9374878  -0.91016052   0.13602389    11959.843     1000 
 2692000    0.6017351   -1.8045175   0.90170005  -0.90281741   0.11621055     12062.78     1000 
 2694000   0.56722218   -1.8444404   0.84998243  -0.99445801   0.11711362    12050.542     1000 
 2696000   0.61643756   -1.7521765   0.92373169  -0.82844483   0.13213876    11959.057     1000 
 2698000   0.63679657   -1.7731718   0.95423966  -0.81893216   0.12269495    12142.339     1000 
 2700000   0.60268822   -1.7882065    0.9031283  -0.88507819   0.13318285    11799.856     1000 
 2702000   0.62741363   -1.7759386   0.94017932  -0.83575928   0.11921888    11963.712     1000 
 2704000   0.63482447   -1.8292605   0.95128447  -0.87797602   0.11941117    12068.026     1000 
 2706000   0.63812394   -1.8082135   0.95622873   -0.8519848   0.13769679    11784.483     1000 
 2708000    0.6172125   -1.8415153   0.92489294  -0.91662235   0.12177822    12080.362     1000 
 2710000   0.62410278   -1.7806326   0.93521801  -0.84541455   0.14223678    11718.533     1000 
 2712000   0.64360403   -1.7956302   0.96444065  -0.83118954   0.13184825    11809.228     1000 
 2714000   0.63753689   -1.8427488   0.95534903  -0.88739982   0.12075773    11952.198     1000 
 2716000   0.65002372   -1.7658134   0.97406054  -0.79175285   0.11577558    12081.943     1000 
 2718000   0.60957202   -1.8586746   0.91344367  -0.94523093   0.13174564    11921.462     1000 
 2720000    0.6175082   -1.8004032   0.92533604  -0.87506718   0.13321835    11729.715     1000 
 2722000   0.63050793   -1.7576292   0.94481613  -0.81281304   0.13556717    11832.685     1000 
 2724000   0.62746555   -1.7392534   0.94025713  -0.79899628   0.13365874    11998.811     1000 
 2726000   0.63186776   -1.7951932   0.94685384  -0.84833939   0.13799405    11898.846     1000 
 2728000    0.6258538   -1.7821437   0.93784192  -0.84430175   0.13313024    12072.237     1000 
 2730000   0.64013317   -1.7968142   0.95923956  -0.83757464   0.12607043      11898.7     1000 
 2732000   0.59867639   -1.8092625   0.89711657  -0.91214595   0.11991822    11927.435     1000 
 2734000   0.62661949   -1.8405603    0.9389893  -0.90157102   0.12503966    12013.137     1000 
 2736000   0.64153531   -1.7864065   0.96134066  -0.82506585    0.1398973    11787.443     1000 
 2738000   0.62149949   -1.8326856   0.93131698  -0.90136864   0.12994025    11802.712     1000 
 2740000   0.62760479   -1.7772355   0.94046577  -0.83676975   0.12812807    11846.723     1000 
 2742000   0.61033086   -1.8047404    0.9145808  -0.89015965   0.14013979    11805.806     1000 
 2744000   0.64201829   -1.7568189   0.96206441  -0.79475446   0.13814189    11912.259     1000 
 2746000   0.62641043   -1.8170344   0.93867604   -0.8783584   0.11546678    12042.134     1000 
 2748000   0.64549231   -1.8909057   0.96727022  -0.92363543   0.13212253    11690.739     1000 
 2750000   0.65241676   -1.8532868   0.97764652  -0.87564032    0.1335041    12014.483     1000 
 2752000   0.61784077   -1.9041953   0.92583439  -0.97836087   0.11295586    12181.191     1000 
 2754000   0.62410154   -1.8508206   0.93521616  -0.91560447   0.12177949    11986.958     1000 
 2756000   0.63036509   -1.7834852   0.94460209  -0.83888311   0.12836498    11960.562     1000 
 2758000   0.63755524   -1.7877602   0.95537653  -0.83238366   0.12934899    12191.512     1000 
 2760000   0.63365616   -1.8458748   0.94953376  -0.89634101    0.1272686     12021.12     1000 
 2762000   0.62276373    -1.780187   0.93321145  -0.84697558   0.13128494    11867.844     1000 
 2764000   0.63511677   -1.7983639   0.95172247   -0.8466414   0.13067093    11954.097     1000 
 2766000   0.62406638   -1.7310321   0.93516347  -0.79586864   0.13129639    11748.313     1000 
 2768000   0.61591464   -1.8275527   0.92294808   -0.9046046   0.14128592    11735.011     1000 
 2770000   0.64281691   -1.8446156   0.96326115  -0.88135444   0.12711465    11946.174     1000 
 2772000   0.61715188   -1.8072423   0.92480209  -0.88244017   0.12793403    11957.704     1000 
 2774000   0.62567494   -1.8272919    0.9375739  -0.88971797   0.13430998    11877.264     1000 
 2776000   0.63664227   -1.8109745   0.95400844  -0.85696604   0.12815053    11984.197     1000 
 2778000    0.6358074   -1.7769089   0.95275739  -0.82415148   0.12822701    11946.506     1000 
 2780000   0.61732569   -1.8112117   0.92506254  -0.88614917   0.13949425    11879.199     1000 
 2782000   0.65364876   -1.8172775   0.97949267  -0.83778478   0.13860146    11785.429     1000 
 2784000   0.61879322   -1.8097473   0.92726164  -0.88248567    0.1368708    11936.375     1000 
 2786000    0.6233216   -1.7497246   0.93404742  -0.81567716   0.12532258    12050.334     1000 
 2788000   0.63904084   -1.8174587    0.9576027  -0.85985605   0.13218228    11928.665     1000 
 2790000   0.63839978   -1.8480222   0.95664207  -0.89138016   0.13569719    11844.658     1000 
 2792000   0.60147302   -1.8227803   0.90130732  -0.92147303   0.11790966     11957.55     1000 
 2794000   0.63045559   -1.8267204    0.9447377  -0.88198271   0.13298733    11825.355     1000 
 2796000   0.61749354   -1.8049137   0.92531406  -0.87959962   0.12095335    12135.822     1000 
 2798000   0.63199934   -1.7963034   0.94705101  -0.84925241   0.13248801     11899.38     1000 
 2800000   0.61882973   -1.8415675   0.92731634  -0.91425114   0.13288223    11888.898     1000 
 2802000    0.6515216   -1.7767736   0.97630512  -0.80046844   0.14283096    11635.408     1000 
 2804000   0.61479989    -1.792122   0.92127764  -0.87084441   0.14249463    11753.204     1000 
 2806000   0.62435387    -1.826536   0.93559428  -0.89094173   0.11593253    12236.214     1000 
 2808000   0.60798701   -1.7737193   0.91106854  -0.86265078   0.13594239    11873.933     1000 
 2810000   0.64365005   -1.8005742    0.9645096  -0.83606456   0.11522553    12059.781     1000 
 2812000   0.63006316     -1.79491   0.94414964  -0.85076032   0.13613087    11912.282     1000 
 2814000   0.62220216   -1.7443026   0.93236994  -0.81193269   0.12196138    11964.686     1000 
 2816000   0.61256864   -1.7944195   0.91793411  -0.87648537   0.13448977    11763.825     1000 
 2818000    0.6105193   -1.7972595   0.91486317  -0.88239632   0.11963336    12109.146     1000 
 2820000   0.59648308   -1.8378235    0.8938299  -0.94399363   0.11750333    11937.597     1000 
 2822000   0.65475076   -1.8700323   0.98114402  -0.88888831   0.11997007    12186.863     1000 
 2824000   0.63249651   -1.7183844   0.94779602  -0.77058833    0.1298532    11837.473     1000 
 2826000   0.63809827   -1.7583944   0.95619025  -0.80220412   0.13945002    11908.896     1000 
 2828000   0.61693444   -1.7789552   0.92447626  -0.85447891   0.13468376    11835.808     1000 
 2830000   0.59421568   -1.7921554   0.89043219  -0.90172316   0.13139546    11760.162     1000 
 2832000   0.64366762   -1.8312443   0.96453593  -0.86670839   0.11486632    12175.751     1000 
 2834000   0.61904889   -1.7762268   0.92764477  -0.84858201   0.14085725    11959.321     1000 
 2836000   0.65180302   -1.8187443   0.97672682  -0.84201752   0.13234987    11889.977     1000 
 2838000   0.63566359   -1.8058777   0.95254188  -0.85333584   0.13605445    11781.369     1000 
 2840000   0.63080888   -1.8097227    0.9452671  -0.86445561   0.13712956    11906.351     1000 
 2842000   0.61648739   -1.8177729   0.92380636  -0.89396658   0.13026554    11979.541     1000 
 2844000   0.66363524   -1.8126307   0.99445741  -0.81817324    0.1242624    11909.331     1000 
 2846000   0.64436401    -1.809525   0.96557947  -0.84394549   0.13593997    11974.722     1000 
 2848000   0.65883403   -1.7761581   0.98726279  -0.78889528   0.12259312    11875.214     1000 
 2850000   0.62311114   -1.8010471   0.93373204   -0.8673151    0.1225504    11990.592     1000 
 2852000   0.61271052   -1.8090729   0.91814671  -0.89092621   0.13054816    12072.804     1000 
 2854000   0.63349084   -1.8147118   0.94928603  -0.86542575   0.13032255    12064.128     1000 
 2856000   0.60959551   -1.8214099   0.91347888  -0.90793098   0.14163189    11752.313     1000 
 2858000   0.57589544    -1.801086   0.86297932   -0.9381067    0.1293051    11983.566     1000 
 2860000   0.62864725   -1.8061703    0.9420279  -0.86414237    0.1286193    11945.301     1000 
 2862000   0.62929256   -1.7920684    0.9429949  -0.84907355   0.12991528    12005.478     1000 
 2864000   0.61898916   -1.8004074   0.92755526  -0.87285209   0.13938938    11632.261     1000 
 2866000   0.62488515   -1.7959254   0.93639039  -0.85953502   0.12309194    11963.152     1000 
 2868000   0.63226652   -1.7952387   0.94745139  -0.84778735   0.11943147    11918.044     1000 
 2870000   0.61898995   -1.8092288   0.92755644  -0.88167237   0.12010997    12104.388     1000 
 2872000   0.63137385   -1.8269348   0.94611372  -0.88082113   0.12650285    11922.169     1000 
 2874000   0.64279305   -1.7626884   0.96322539  -0.79946299   0.13258429    11871.649     1000 
 2876000   0.61888978   -1.8038536   0.92740633  -0.87644725   0.12418838    12066.863     1000 
 2878000   0.62415246   -1.8264628   0.93529245  -0.89117035    0.1287957    11795.411     1000 
 2880000   0.63446634   -1.7934902   0.95074782  -0.84274237   0.13033776    12022.972     1000 
 2882000   0.62725027   -1.7931968   0.93993453  -0.85326229   0.13882039     11710.51     1000 
 2884000   0.67768992   -1.7942506    1.0155183  -0.77873227   0.13643404    12048.581     1000 
 2886000   0.62822146   -1.8130439   0.94138986  -0.87165405    0.1328413     11791.63     1000 
 2888000   0.60563277   -1.8200833    0.9075407  -0.91254255   0.13185372     12007.82     1000 
 2890000   0.64747324   -1.8240537   0.97023865  -0.85381505   0.14684733      11714.8     1000 
 2892000    0.6252816   -1.8417258   0.93698447  -0.90474132   0.11201391    12309.405     1000 
 2894000    0.6367035   -1.8326218   0.95410019  -0.87852163   0.10960612    11931.184     1000 
 2896000    0.5997009    -1.803224    0.8986518  -0.90457221    0.1191249    12067.321     1000 
 2898000   0.64818732     -1.82134    0.9713087  -0.85003126   0.13311176     11956.11     1000 
 2900000   0.64342728   -1.8765239   0.96417578  -0.91234815   0.11423341    11988.069     1000 
 2902000   0.60864976   -1.8065096   0.91206166  -0.89444789   0.12076014    12111.522     1000 
 2904000   0.62317081   -1.7728854   0.93382145   -0.8390639   0.11646445    11978.541     1000 
 2906000   0.62614282   -1.8118193   0.93827501  -0.87354427     0.135568    11725.837     1000 
 2908000   0.61065616   -1.8242251   0.91506825  -0.90915688   0.11930025    11907.721     1000 
 2910000   0.64401128   -1.7925873   0.96505091  -0.82753641   0.14236425    11820.695     1000 
 2912000   0.63664072   -1.8043384   0.95400612  -0.85033227   0.12666938    12087.349     1000 
 2914000   0.61184258    -1.794535    0.9168461  -0.87768894   0.12952663    11806.533     1000 
 2916000    0.5981992   -1.8265043    0.8964015  -0.93010278   0.11662614    12163.346     1000 
 2918000   0.65896115   -1.8473313   0.98745328  -0.85987801   0.12660552    11904.143     1000 
 2920000   0.60774895   -1.8035644   0.91071181  -0.89285256   0.14099452    11861.988     1000 
 2922000   0.61618561   -1.8427082   0.92335413  -0.91935408   0.12486393    11935.878     1000 
 2924000    0.6619799   -1.8064153   0.99197688  -0.81443842   0.12187863    12103.643     1000 
 2926000   0.62166255   -1.8279188   0.93156134  -0.89635741   0.13394395    11880.595     1000 
 2928000   0.65476354   -1.8175241   0.98116317  -0.83636089   0.14241623    11874.354     1000 
 2930000   0.64937878    -1.851885    0.9730941  -0.87879088   0.13310514    11927.111     1000 
 2932000   0.63881772   -1.7819443   0.95726835  -0.82467592   0.12288653    12002.881     1000 
 2934000   0.63013844   -1.7953749   0.94426245   -0.8511124   0.12817612    11888.645     1000 
 2936000   0.60920609   -1.7701569   0.91289533  -0.85726162   0.13184785    11860.716     1000 
 2938000   0.61241359   -1.8189955   0.91770177  -0.90129368   0.13651387    11769.627     1000 
 2940000   0.63209929   -1.8398567   0.94720078  -0.89265587   0.12530961    11894.793     1000 
 2942000    0.5993693   -1.7903979    0.8981549  -0.89224305   0.11933996    12118.475     1000 
 2944000   0.62390563   -1.9031467   0.93492259  -0.96822414   0.12102215    12063.476     1000 
 2946000   0.66398828   -1.8121695   0.99498644  -0.81718304   0.12261934    11968.214     1000 
 2948000   0.62884041   -1.8282199   0.94231736  -0.88590256   0.12774129    12000.306     1000 
 2950000   0.63265699   -1.7214388   0.94803649  -0.77340233   0.12531953    12096.717     1000 
 2952000    0.6494251   -1.7892458   0.97316352  -0.81608227   0.13990485    11836.628     1000 
 2954000   0.63164656   -1.7663209   0.94652237  -0.81979853   0.14078364    11804.908     1000 
 2956000   0.65571913   -1.8597434   0.98259512  -0.87714831   0.12258996    12038.826     1000 
 2958000   0.65206816   -1.8269551   0.97712414  -0.84983094   0.11966347    12127.904     1000 
 2960000   0.61080469   -1.8297438   0.91529083  -0.91445296   0.14419332    11785.002     1000 
 2962000   0.63088833   -1.7765244   0.94538616  -0.83113828   0.13040245    11908.699     1000 
 2964000   0.65163648   -1.8175159   0.97647727  -0.84103863   0.13182135    11919.778     1000 
 2966000   0.59957434    -1.773833   0.89846215  -0.87537086   0.12651879    11888.473     1000 
 2968000   0.61483794   -1.8178246   0.92133465  -0.89648997   0.12235904     12008.09     1000 
 2970000   0.65893329   -1.7948301   0.98741153  -0.80741854   0.13677416    11924.087     1000 
 2972000   0.62623815    -1.859692   0.93841787  -0.92127417   0.13547497     11767.66     1000 
 2974000   0.61165667   -1.8078518   0.91656752  -0.89128428   0.12470637    11906.696     1000 
 2976000   0.61792755   -1.8000569   0.92596444  -0.87409246   0.11840682    11908.789     1000 
 2978000   0.63019418    -1.793334   0.94434599    -0.848988   0.12577156    11746.328     1000 
 2980000   0.62431782   -1.7740046   0.93554025  -0.83846438   0.13555661    12015.648     1000 
 2982000    0.6337767   -1.8230735   0.94971438  -0.87335908   0.12882657    11869.185     1000 
 2984000   0.62719149   -1.8132158   0.93984644  -0.87336935   0.12817306    11905.858     1000 
 2986000   0.64629671   -1.8005972   0.96847562  -0.83212157   0.13419635    11798.471     1000 
 2988000    0.6361512   -1.8167849   0.95327258  -0.86351229    0.1205836    11986.287     1000 
 2990000    0.6407005   -1.8197385   0.96008969  -0.85964881   0.13839608    12076.217     1000 
 2992000   0.63199576    -1.821792   0.94704564  -0.87474641   0.12376998    12106.462     1000 
 2994000   0.60833776    -1.784461   0.91159414   -0.8728669   0.12798289    11799.188     1000 
 2996000   0.63588462   -1.8295737    0.9528731  -0.87670063     0.130624    12069.743     1000 
 2998000   0.63705155   -1.7536363   0.95462176  -0.79901455   0.11916466    12023.158     1000 
 3000000   0.62331599   -1.8336836   0.93403902  -0.89964461   0.11779533    12042.398     1000 
Loop time of 1160.55 on 1 procs for 3000000 steps with 1000 atoms

Performance: 1116708.826 tau/day, 2584.974 timesteps/s
100.0% CPU use with 1 MPI tasks x 1 OpenMP threads

MPI task timing breakdown:
Section |  min time  |  avg time  |  max time  |%varavg| %total
---------------------------------------------------------------
Pair    | 908.69     | 908.69     | 908.69     |   0.0 | 78.30
Neigh   | 147.21     | 147.21     | 147.21     |   0.0 | 12.68
Comm    | 25.019     | 25.019     | 25.019     |   0.0 |  2.16
Output  | 0.019351   | 0.019351   | 0.019351   |   0.0 |  0.00
Modify  | 74.278     | 74.278     | 74.278     |   0.0 |  6.40
Other   |            | 5.335      |            |       |  0.46

Nlocal:        1000.00 ave        1000 max        1000 min
Histogram: 1 0 0 0 0 0 0 0 0 0
Nghost:        2152.00 ave        2152 max        2152 min
Histogram: 1 0 0 0 0 0 0 0 0 0
Neighs:        25830.0 ave       25830 max       25830 min
Histogram: 1 0 0 0 0 0 0 0 0 0

Total # of neighbors = 25830
Ave neighs/atom = 25.830000
Neighbor list builds = 150000
Dangerous builds not checked

Total wall time: 0:19:20
