LAMMPS (3 Mar 2020)
# ----------------------- Inicialização -----------------------

units			lj
atom_style 		atomic
dimension 		3
boundary 		p p p

# -------------------- Criação dos Átomos ---------------------

read_data 		topologia.txt
  orthogonal box = (0 0 0) to (21.54 21.54 21.54)
  1 by 2 by 2 MPI processor grid
  reading atoms ...
  1000 atoms
  read_data CPU = 0.00195354 secs

velocity 		all create ${temp} 87287 rot yes dist gaussian
velocity 		all create 0.55 87287 rot yes dist gaussian

# ------------------ Interação Interatômica -------------------

pair_style		table linear 1600
pair_coeff		1 1 force.table AA 8.0
WARNING: 3 of 1600 force values in table are inconsistent with -dE/dr.
  Should only be flagged at inflection points (src/pair_table.cpp:483)
pair_coeff		1 2 force.table AB 8.0
WARNING: 1 of 1600 force values in table are inconsistent with -dE/dr.
  Should only be flagged at inflection points (src/pair_table.cpp:483)
pair_coeff		2 2 force.table BB 8.0
pair_write		1 1 1600 r 0.008 8.0 table.check AA
Neighbor list info ...
  update every 1 steps, delay 10 steps, check yes
  max neighbors/atom: 2000, page size: 100000
  master list distance cutoff = 8.3
  ghost atom cutoff = 8.3
  binsize = 4.15, bins = 6 6 6
  1 neighbor lists, perpetual/occasional/extra = 1 0 0
  (1) pair table, perpetual
      attributes: half, newton on
      pair build: half/bin/atomonly/newton
      stencil: half/bin/3d/newton
      bin: standard
pair_write		1 2 1600 r 0.008 8.0 table.check AB
pair_write		2 2 1600 r 0.008 8.0 table.check BB

neighbor 		0.3 bin
neigh_modify		every 20 delay 0 check no

# ------------------------- Ensemble --------------------------------------

fix 1			all npt temp ${temp} ${temp} 0.5 iso ${press} ${press} 5
fix 1			all npt temp 0.55 ${temp} 0.5 iso ${press} ${press} 5
fix 1			all npt temp 0.55 0.55 0.5 iso ${press} ${press} 5
fix 1			all npt temp 0.55 0.55 0.5 iso 0.13 ${press} 5
fix 1			all npt temp 0.55 0.55 0.5 iso 0.13 0.13 5

# ---------------------- Função de Distribuição Radial -----------------------

#compute RDF 		all rdf 2000 1 1 1 2 2 2
#fix 2 			all ave/time 1 2000 2000 c_RDF[*] file rdf.data mode vector

# ------------------------- Execução ---------------------------

timestep 		0.005
thermo_style		custom step temp pe ke etotal press vol atoms
thermo			2000
run			3000000
Per MPI rank memory allocation (min/avg/max) = 2.675 | 2.675 | 2.675 Mbytes
Step Temp PotEng KinEng TotEng Press Volume Atoms 
       0         0.55  -0.27630975     0.824175   0.54786525    0.5824784    9993.9483     1000 
    2000    0.5492788   -1.9226444   0.82309428   -1.0995501   0.13061362    11303.382     1000 
    4000   0.53832585   -1.9169889   0.80668129   -1.1103076   0.13648293    11265.274     1000 
    6000   0.56900559   -1.9098705   0.85265487   -1.0572157   0.13591719    11118.408     1000 
    8000   0.53346233   -1.9782744   0.79939329   -1.1788811   0.12658562    11233.811     1000 
   10000   0.57900854   -1.9482299    0.8676443   -1.0805856   0.12655416    11284.052     1000 
   12000   0.54827904   -2.0321017   0.82159614   -1.2105056   0.13126744    11415.826     1000 
   14000   0.53162248   -1.9691206   0.79663628   -1.1724843   0.12563226    11282.796     1000 
   16000   0.58406227   -1.9323337   0.87521731   -1.0571164   0.14036153    11207.082     1000 
   18000   0.53552862   -1.9076762   0.80248964   -1.1051866   0.12471832    11341.377     1000 
   20000   0.54588741   -1.9861078   0.81801228   -1.1680955   0.12636554    11433.822     1000 
   22000    0.5518216   -1.9664226   0.82690467   -1.1395179   0.11950365    11396.533     1000 
   24000   0.53612747   -1.9504185   0.80338702   -1.1470314   0.14185894    11289.345     1000 
   26000   0.52972503   -1.9419052   0.79379295   -1.1481122   0.12812997    11276.725     1000 
   28000   0.52721427    -1.962034   0.79003059   -1.1720034    0.1151605     11557.23     1000 
   30000   0.55311366   -1.9670557   0.82884082   -1.1382149   0.12706053    11393.316     1000 
   32000   0.54897108   -1.9261153   0.82263316   -1.1034822   0.14441893    11172.132     1000 
   34000   0.54592996   -1.9636549   0.81807604   -1.1455789   0.11885854    11438.638     1000 
   36000   0.53243293   -1.9646955   0.79785075   -1.1668447   0.13979309    11287.903     1000 
   38000   0.54165059    -1.961144   0.81166341   -1.1494806   0.13461709    11287.893     1000 
   40000   0.57467757   -1.9627617   0.86115434   -1.1016074   0.12047936    11454.011     1000 
   42000   0.54768165   -1.9766697   0.82070096   -1.1559687   0.12203262    11332.983     1000 
   44000   0.57426056   -1.9284781   0.86052945   -1.0679486   0.11787659    11446.622     1000 
   46000   0.55028353    -1.963242   0.82459987   -1.1386422   0.13378813    11098.128     1000 
   48000    0.5290199    -1.918482   0.79273632   -1.1257457   0.14088354    11356.774     1000 
   50000   0.54195089   -1.9150525   0.81211341   -1.1029391   0.12524787    11298.915     1000 
   52000   0.55511094   -1.9088828   0.83183374    -1.077049    0.1489308    10986.601     1000 
   54000   0.53664574   -1.9712839   0.80416364   -1.1671202   0.12340514    11456.731     1000 
   56000   0.55303257   -1.9263947   0.82871931   -1.0976754   0.13140632     11416.65     1000 
   58000   0.55524119   -1.9521456   0.83202892   -1.1201167   0.13919971    11267.901     1000 
   60000   0.55284044   -1.9669209   0.82843141   -1.1384894   0.14132448    11291.819     1000 
   62000   0.54342793   -1.9819854   0.81432675   -1.1676586   0.13068018    11396.698     1000 
   64000   0.55851834   -1.9416533   0.83693973   -1.1047135   0.11496749    11501.352     1000 
   66000   0.53632223   -2.0057786   0.80367886   -1.2020998   0.11997036    11513.512     1000 
   68000   0.55062563   -1.9640046   0.82511251   -1.1388921   0.14445777    11156.933     1000 
   70000   0.54858348   -1.9541226   0.82205235   -1.1320702   0.12873515    11334.113     1000 
   72000   0.54767132   -1.9538455   0.82068548     -1.13316   0.13679406    11268.023     1000 
   74000   0.58044043   -1.9980776   0.86978999   -1.1282876   0.13050055    11487.028     1000 
   76000   0.55441217   -1.9156495   0.83078664   -1.0848629   0.12282692    11347.774     1000 
   78000   0.53929598   -1.9278278   0.80813503   -1.1196927   0.12525311    11169.672     1000 
   80000   0.57788583   -1.9354134   0.86596192   -1.0694515   0.12882905    11295.582     1000 
   82000    0.5391393   -2.0091635   0.80790024   -1.2012633   0.12482868    11439.243     1000 
   84000   0.53237228   -1.9652311   0.79775986   -1.1674712   0.12806597    11304.426     1000 
   86000   0.56422434   -1.9744154   0.84549017   -1.1289253   0.13114705    11325.114     1000 
   88000   0.53810577   -1.9597979    0.8063515   -1.1534464   0.11389357    11470.989     1000 
   90000   0.52304222   -1.8967365   0.78377877   -1.1129577   0.12929508    11265.981     1000 
   92000   0.53943442   -1.9546549   0.80834247   -1.1463124   0.11632993    11437.202     1000 
   94000   0.53881303   -1.9646804   0.80741132   -1.1572691   0.14288282    11351.154     1000 
   96000   0.53434671   -1.9869483   0.80071854   -1.1862298   0.11910415    11372.153     1000 
   98000   0.53862824   -1.9436497   0.80713442   -1.1365153   0.12564162    11251.089     1000 
  100000   0.56050264   -1.9314573   0.83991321   -1.0915441   0.14858369    11221.908     1000 
  102000   0.54069883   -2.0200172    0.8102372     -1.20978    0.1265195    11431.397     1000 
  104000    0.5474528   -1.9734655   0.82035802   -1.1531075   0.12377992    11356.977     1000 
  106000   0.54551851   -1.9319728   0.81745948   -1.1145133    0.1164313    11558.381     1000 
  108000   0.54243238   -1.9382431   0.81283492   -1.1254082   0.13222622    11431.835     1000 
  110000   0.54269551   -2.0057116   0.81322922   -1.1924824   0.13107849    11439.256     1000 
  112000   0.53906106   -1.9597742     0.807783   -1.1519912   0.12708746    11363.654     1000 
  114000   0.54458086   -1.9767427   0.81605441   -1.1606883   0.13568064    11316.093     1000 
  116000   0.54169601   -2.0118928   0.81173148   -1.2001614   0.11974712    11569.615     1000 
  118000   0.55125621   -1.9584261   0.82605743   -1.1323686   0.12258931     11387.75     1000 
  120000   0.55773511   -2.0013862   0.83576606   -1.1656202   0.11927988    11485.831     1000 
  122000   0.54328004   -1.9801511   0.81410514    -1.166046   0.12469354    11377.284     1000 
  124000   0.56053777   -2.0111999   0.83996584   -1.1712341   0.13354395    11287.066     1000 
  126000   0.53209647   -1.9451149   0.79734656   -1.1477683    0.1244249    11286.951     1000 
  128000   0.55341771   -1.9546503   0.82929644   -1.1253539   0.11944053     11494.66     1000 
  130000   0.54048014   -1.9783481   0.80990949   -1.1684386   0.12348862    11354.605     1000 
  132000   0.52019289   -1.9359856   0.77950905   -1.1564766     0.126816    11404.067     1000 
  134000   0.53654863   -1.9743479   0.80401812   -1.1703298   0.13139921     11440.88     1000 
  136000   0.54695527   -1.9732849   0.81961247   -1.1536724   0.13347244    11289.947     1000 
  138000   0.55360763   -1.9652267   0.82958104   -1.1356457   0.12778442    11451.351     1000 
  140000   0.53881476   -1.9954064   0.80741391   -1.1879925   0.11114143    11404.659     1000 
  142000   0.53496194   -1.9651971   0.80164046   -1.1635566   0.12550399      11364.3     1000 
  144000   0.54452807   -1.9990008   0.81597531   -1.1830255   0.11227154    11540.261     1000 
  146000   0.53905367   -1.9266641   0.80777192   -1.1188922   0.13200349    11366.389     1000 
  148000   0.53204667    -1.951723   0.79727194   -1.1544511   0.12460699    11468.215     1000 
  150000   0.54767581   -1.8995988    0.8206922   -1.0789066    0.1241444    11430.624     1000 
  152000   0.57578611   -1.9099419   0.86281548   -1.0471264   0.13049929    11269.013     1000 
  154000   0.55825515   -1.9632575   0.83654534   -1.1267122   0.12850792     11369.55     1000 
  156000   0.57272101   -1.9337673   0.85822243   -1.0755449   0.13571276    11265.338     1000 
  158000   0.55906034   -1.9535419   0.83775192   -1.1157899   0.12603454    11241.591     1000 
  160000   0.53483515   -1.9627162   0.80145047   -1.1612657   0.13620219    11428.011     1000 
  162000   0.54422727   -1.9263585   0.81552456   -1.1108339   0.13793181    11340.034     1000 
  164000   0.56487286   -1.8856212   0.84646198   -1.0391592   0.12794076    11272.897     1000 
  166000   0.53622244   -1.9315299   0.80352933   -1.1280006   0.13638103    11286.207     1000 
  168000   0.53839344   -1.9456446   0.80678257    -1.138862   0.12887728     11368.25     1000 
  170000   0.55722154   -1.9436255   0.83499648    -1.108629    0.1195942    11549.966     1000 
  172000    0.5459094    -1.932758   0.81804524   -1.1147128   0.12118789    11528.762     1000 
  174000   0.53833094    -1.979247   0.80668891   -1.1725581   0.13179061    11254.337     1000 
  176000   0.55035102   -1.9559776     0.824701   -1.1312766   0.13444549    11318.507     1000 
  178000   0.54403082   -1.9701913   0.81523019   -1.1549611   0.12866679    11269.058     1000 
  180000   0.56194826   -1.9467582   0.84207946   -1.1046787   0.13019227    11258.443     1000 
  182000   0.58671131    -1.972424   0.87918689   -1.0932371   0.13630602    11335.258     1000 
  184000   0.53357634   -1.9482899   0.79956415   -1.1487257   0.12525823     11482.27     1000 
  186000   0.56563298   -1.9637276   0.84760102   -1.1161266   0.13130928    11303.367     1000 
  188000    0.5313253   -2.0016828   0.79619096   -1.2054918    0.1311229    11317.135     1000 
  190000   0.54317518   -1.9243624   0.81394801   -1.1104144    0.1284124     11266.89     1000 
  192000   0.53381058   -1.9700826   0.79991516   -1.1701675   0.13076184    11310.746     1000 
  194000   0.54627109   -1.9883386   0.81858723   -1.1697513   0.13198901    11345.311     1000 
  196000   0.55718065   -1.9912892   0.83493521    -1.156354    0.1317803    11212.511     1000 
  198000   0.55632706      -1.9976    0.8336561   -1.1639439   0.11996704    11508.151     1000 
  200000   0.54105448   -1.9439069   0.81077013   -1.1331368   0.14051118    11293.247     1000 
  202000   0.55855335   -1.9370293    0.8369922   -1.1000371   0.13769671     11245.77     1000 
  204000   0.51047179   -1.9251077   0.76494197   -1.1601657   0.12920415    11172.174     1000 
  206000    0.5398559   -1.9421002   0.80897406   -1.1331262   0.12625185    11363.142     1000 
  208000   0.53421039   -1.9579992   0.80051428    -1.157485      0.12779    11295.891     1000 
  210000   0.53300588   -1.9940287   0.79870931   -1.1953194   0.11763002    11421.342     1000 
  212000   0.54477624   -1.9638877    0.8163472   -1.1475405   0.11245034    11523.947     1000 
  214000   0.53957325   -1.8916991   0.80855051   -1.0831486   0.13439814    11320.066     1000 
  216000   0.56477176   -1.9395867   0.84631048   -1.0932762   0.13403091    11224.216     1000 
  218000   0.55239928   -1.9159148   0.82777032   -1.0881444   0.11716106    11323.839     1000 
  220000   0.54822683   -1.9454424    0.8215179   -1.1239245   0.12752557     11284.81     1000 
  222000   0.56289107   -1.9801959   0.84349227   -1.1367036   0.14471978      11206.4     1000 
  224000   0.56953745   -1.9449008   0.85345187    -1.091449   0.14495604     11264.29     1000 
  226000   0.56978263   -1.9180713   0.85381926    -1.064252   0.14125343    11280.256     1000 
  228000   0.53436877   -1.9896587    0.8007516   -1.1889071   0.11731577    11558.476     1000 
  230000    0.5525382   -1.9652689   0.82797849   -1.1372904   0.12327454    11473.993     1000 
  232000   0.57228866   -2.0049585   0.85757456   -1.1473839   0.13493403    11385.527     1000 
  234000   0.54409102    -1.942603    0.8153204   -1.1272826   0.13348477     11262.37     1000 
  236000   0.54734583   -1.9269309   0.82019773   -1.1067331   0.12805254    11225.353     1000 
  238000   0.56034067   -2.0018165    0.8396705    -1.162146   0.10915192    11483.471     1000 
  240000   0.53665221   -1.9676691   0.80417333   -1.1634958   0.12244062    11418.082     1000 
  242000   0.54858861   -1.9809236   0.82206003   -1.1588635   0.12296993    11473.351     1000 
  244000   0.52957957    -1.923366   0.79357498    -1.129791   0.13575808    11261.226     1000 
  246000   0.54091133   -1.9602582   0.81055562   -1.1497026   0.13651701    11461.044     1000 
  248000   0.55051757   -1.9724363   0.82495058   -1.1474857    0.1143143    11379.919     1000 
  250000   0.54993911   -1.9585214   0.82408375   -1.1344377   0.12348559    11497.728     1000 
  252000   0.52414375   -1.9434219    0.7854294   -1.1579925   0.12428528      11441.9     1000 
  254000   0.51072946   -1.9998024   0.76532809   -1.2344744   0.11807083    11459.439     1000 
  256000    0.5412398    -1.924997   0.81104783   -1.1139491   0.12539976    11312.438     1000 
  258000   0.56606755   -1.9392992   0.84825222   -1.0910469   0.14066354    11114.157     1000 
  260000   0.54217178   -1.9576172   0.81244442   -1.1451728   0.11938383    11297.516     1000 
  262000   0.55575402   -1.9574244    0.8327974    -1.124627   0.13868719    11336.823     1000 
  264000   0.53838219   -1.9198722   0.80676571   -1.1131064   0.13247613    11233.654     1000 
  266000    0.5390477   -1.9229038   0.80776298   -1.1151408   0.12502426    11282.007     1000 
  268000    0.5381539   -1.9432655   0.80642361   -1.1368419   0.12496648    11098.922     1000 
  270000   0.52571216   -1.9750472   0.78777967   -1.1872675   0.12286941    11338.567     1000 
  272000   0.57200586   -1.9860916   0.85715079   -1.1289408   0.12868351     11360.67     1000 
  274000   0.54482223   -1.9801732   0.81641611   -1.1637571   0.12739664    11346.992     1000 
  276000   0.51850939   -1.9517472   0.77698633   -1.1747609   0.13384665    11287.536     1000 
  278000   0.54176008   -1.9586757   0.81182748   -1.1468482   0.12367087    11258.507     1000 
  280000   0.56265775    -1.988702   0.84314264   -1.1455594   0.12770052    11426.267     1000 
  282000   0.54858165   -1.9273215   0.82204961   -1.1052719   0.12837659    11306.704     1000 
  284000    0.5532943   -1.9536362   0.82911151   -1.1245247   0.13196309    11330.629     1000 
  286000   0.55571704   -1.9467792   0.83274199   -1.1140372   0.12271702     11500.02     1000 
  288000   0.53013255   -1.9807761   0.79440363   -1.1863725   0.12464475    11347.946     1000 
  290000   0.54332549   -1.9845279   0.81417325   -1.1703546   0.12789184    11431.184     1000 
  292000   0.54480509     -1.91737   0.81639043   -1.1009796   0.13305562    11203.939     1000 
  294000    0.5351407   -1.9890123   0.80190834    -1.187104   0.13669851    11328.449     1000 
  296000   0.51878603   -1.9574883   0.77740087   -1.1800874   0.12803983    11279.552     1000 
  298000   0.55931042   -1.9422572   0.83812667   -1.1041305   0.13990561     11262.89     1000 
  300000   0.54877694    -1.951962   0.82234224   -1.1296198   0.12770206    11319.973     1000 
  302000   0.57064742    -1.943982   0.85511516   -1.0888668   0.12023135     11457.71     1000 
  304000   0.52760241   -1.9852878   0.79061222   -1.1946756   0.11907577     11396.22     1000 
  306000   0.54835529   -1.8965592    0.8217104   -1.0748488   0.13271188    11329.772     1000 
  308000   0.53926636   -1.9338836   0.80809064    -1.125793    0.1311813    11299.022     1000 
  310000   0.57252733   -2.0034239   0.85793221   -1.1454916    0.1350418    11274.403     1000 
  312000   0.55565806   -1.9242161   0.83265361   -1.0915625   0.14464523    11142.524     1000 
  314000   0.55523746   -1.9268677   0.83202333   -1.0948444   0.14373626     11111.82     1000 
  316000    0.5553973   -1.9995547   0.83226286   -1.1672918   0.12125097    11489.812     1000 
  318000   0.55551218   -1.8865542     0.832435   -1.0541192   0.12476748    11210.473     1000 
  320000   0.57896453   -1.9910821   0.86757834   -1.1235038   0.12731615    11390.608     1000 
  322000   0.54900877   -1.9461542   0.82268965   -1.1234645   0.11893492    11387.759     1000 
  324000   0.56314422   -1.9287275   0.84387161   -1.0848559   0.12657202    11336.797     1000 
  326000   0.54965416   -1.9627741   0.82365676   -1.1391174    0.1204652    11566.753     1000 
  328000   0.56347561   -1.9779374   0.84436821   -1.1335692   0.13270534    11268.322     1000 
  330000   0.54187264   -1.9098294   0.81199615   -1.0978333   0.12799598    11245.423     1000 
  332000   0.54681502   -1.9031217    0.8194023   -1.0837194   0.13385666    11303.752     1000 
  334000   0.54643936    -1.957054   0.81883939   -1.1382147   0.14191796    11347.307     1000 
  336000   0.54932443   -1.9681666   0.82316266   -1.1450039   0.12415804    11459.682     1000 
  338000   0.56672418   -1.9325068   0.84923618   -1.0832706   0.12627407    11286.721     1000 
  340000   0.59536384   -1.9263495   0.89215272   -1.0341968   0.15048018    11139.672     1000 
  342000   0.54672405   -1.8998323   0.81926598   -1.0805663   0.13638893        11183     1000 
  344000   0.55254698   -1.9843147   0.82799165    -1.156323   0.12389221    11441.058     1000 
  346000   0.54696016   -1.8996954   0.81961981   -1.0800756    0.1390086    11096.477     1000 
  348000   0.55608216   -1.9572803   0.83328912   -1.1239912   0.13655664     11452.71     1000 
  350000   0.58337625   -1.9691988   0.87418931   -1.0950095   0.12143918    11350.515     1000 
  352000   0.57041576   -1.9837092   0.85476802   -1.1289412    0.1255882    11444.237     1000 
  354000   0.54565992   -1.9787585   0.81767139   -1.1610871   0.12685705    11375.256     1000 
  356000   0.55714807   -1.9540433   0.83488639    -1.119157   0.11910394     11455.61     1000 
  358000   0.55488288   -1.9373376     0.831492   -1.1058456   0.13212164    11150.132     1000 
  360000   0.55984621   -1.9493114   0.83892955   -1.1103818   0.14344892    11188.232     1000 
  362000   0.55731395   -1.9827582   0.83513495   -1.1476233   0.11962206    11430.648     1000 
  364000   0.53895432   -1.8975991   0.80762305    -1.089976   0.12882654    11441.527     1000 
  366000    0.5717384   -2.0047781   0.85674999   -1.1480281   0.11978438     11467.94     1000 
  368000   0.53309673   -1.9558052   0.79884545   -1.1569598   0.12930908    11236.155     1000 
  370000   0.56510112   -1.9787783   0.84680403   -1.1319743   0.12542634     11408.43     1000 
  372000   0.54464189     -1.99004   0.81614588   -1.1738941    0.1455494    11123.443     1000 
  374000    0.5635498   -1.8704766   0.84447937   -1.0259973   0.13154266    11256.638     1000 
  376000   0.56224294   -1.9238023   0.84252104   -1.0812813   0.12890686    11244.365     1000 
  378000   0.53533976   -1.9728599   0.80220663   -1.1706532   0.11858423    11444.343     1000 
  380000   0.55972324    -1.986707   0.83874527   -1.1479617   0.13903259    11229.089     1000 
  382000   0.53961655   -1.9413598   0.80861541   -1.1327444   0.12128429     11168.84     1000 
  384000    0.5464151   -1.9314635   0.81880303   -1.1126604   0.12081517    11246.063     1000 
  386000   0.55902238   -1.9900257   0.83769503   -1.1523306   0.12634546    11434.978     1000 
  388000   0.55695283   -1.9780718   0.83459382    -1.143478   0.12958195    11463.552     1000 
  390000   0.53626443   -1.9841278   0.80359225   -1.1805356    0.1362608    11338.589     1000 
  392000    0.5596652   -1.9645769    0.8386583   -1.1259186   0.12943857    11381.556     1000 
  394000   0.51670301    -1.961077   0.77427946   -1.1867975   0.12219162    11334.167     1000 
  396000   0.54304708   -1.9637472   0.81375605   -1.1499912   0.12060004    11521.507     1000 
  398000    0.5531245   -1.9430443   0.82885706   -1.1141872   0.13857438    11264.307     1000 
  400000   0.54203592   -1.9656803   0.81224082   -1.1534394   0.13142438    11307.336     1000 
  402000   0.56190677   -1.9810094    0.8420173   -1.1389921   0.12655393     11504.85     1000 
  404000   0.54916797   -1.9330227   0.82292821   -1.1100945    0.1280267    11352.039     1000 
  406000   0.55076437   -1.9410744   0.82532041    -1.115754    0.1149539    11482.103     1000 
  408000   0.55013122   -1.9936608   0.82437164   -1.1692892   0.11873232    11469.464     1000 
  410000   0.55130068    -1.953869   0.82612407   -1.1277449   0.12610452    11366.586     1000 
  412000   0.52805433   -1.9925264   0.79128942    -1.201237    0.1348961    11275.712     1000 
  414000   0.57587789   -1.9573753   0.86295302   -1.0944223   0.13805395    11366.386     1000 
  416000   0.53707995   -1.9235134   0.80481431   -1.1186991     0.120218    11428.107     1000 
  418000    0.5711141   -1.9761126   0.85581448   -1.1202981   0.14289929    11333.199     1000 
  420000   0.54499707   -1.9335505   0.81667811   -1.1168724   0.11595635    11389.214     1000 
  422000   0.57112345   -1.9317161   0.85582849   -1.0758876   0.13499389    11258.414     1000 
  424000   0.54993363   -2.0077583   0.82407555   -1.1836828   0.14729033    11179.162     1000 
  426000   0.56832965   -1.9123576   0.85164197   -1.0607156   0.11872582    11296.931     1000 
  428000   0.57230483   -1.9335411   0.85759878   -1.0759423   0.12154291     11351.21     1000 
  430000   0.55296706   -1.9702872   0.82862114    -1.141666   0.13864431    11184.905     1000 
  432000   0.55870556   -1.9527595   0.83722028   -1.1155392   0.12431505    11263.632     1000 
  434000   0.57044961   -1.9627982   0.85481873   -1.1079795   0.12779957    11415.066     1000 
  436000   0.54856837   -2.0061068   0.82202971   -1.1840771   0.12234324    11520.055     1000 
  438000   0.55761665   -1.9644297   0.83558855   -1.1288412   0.12378658    11439.427     1000 
  440000   0.54552045    -1.937666    0.8174624   -1.1202036   0.14698571    11203.245     1000 
  442000   0.54941053   -1.9081199   0.82329168   -1.0848282   0.12270519    11377.045     1000 
  444000   0.51999671   -1.9701266   0.77921507   -1.1909115   0.11800182    11462.117     1000 
  446000   0.56398217   -1.9256361   0.84512728   -1.0805088   0.13086902    11184.205     1000 
  448000   0.57326128   -1.9205915   0.85903202   -1.0615595   0.13076962    11384.512     1000 
  450000   0.56613157   -1.9034396   0.84834816   -1.0550914    0.1255474    11279.131     1000 
  452000   0.55042187   -1.9875458   0.82480718   -1.1627387   0.12111383    11440.729     1000 
  454000   0.55074084   -1.9628208   0.82528515   -1.1375357   0.14105559    11041.144     1000 
  456000   0.54526308   -1.9570305   0.81707673   -1.1399538   0.12899728    11293.013     1000 
  458000   0.52054711   -1.9326475   0.78003984   -1.1526076   0.13593602    11242.244     1000 
  460000   0.53612267   -1.9793829   0.80337981   -1.1760031   0.12547518    11319.596     1000 
  462000   0.54563254   -1.9392156   0.81763037   -1.1215852   0.14087691    11173.862     1000 
  464000   0.55706314   -1.9762545   0.83475911   -1.1414954   0.13362542    11266.818     1000 
  466000    0.5369339   -1.9614155   0.80459545   -1.1568201    0.1350456    11268.148     1000 
  468000   0.55057224   -1.9724213    0.8250325   -1.1473888    0.1259066    11513.008     1000 
  470000    0.5546882    -1.930604   0.83120026   -1.0994038   0.13486896    11276.701     1000 
  472000   0.54643782   -1.9032431   0.81883707    -1.084406   0.13306971    11282.302     1000 
  474000   0.55336247   -1.9428606   0.82921365   -1.1136469   0.13368398    11277.742     1000 
  476000   0.58539647   -1.9427118   0.87721661   -1.0654952   0.13642793     11256.19     1000 
  478000   0.54651453   -1.9167619   0.81895202   -1.0978099   0.13871536    11254.021     1000 
  480000   0.55564939   -1.9919037   0.83264061   -1.1592631   0.12978813    11347.943     1000 
  482000   0.55179379   -1.9578649     0.826863   -1.1310019   0.12266779    11520.131     1000 
  484000   0.54080595   -1.9126911   0.81039772   -1.1022934   0.12881599    11289.388     1000 
  486000   0.54029477   -2.0251446   0.80963171   -1.2155129   0.11537428    11532.213     1000 
  488000   0.55743781   -1.9180823   0.83532056   -1.0827617   0.14454272     11187.94     1000 
  490000   0.55674491   -1.9893419   0.83428224   -1.1550596    0.1317728    11265.093     1000 
  492000   0.56362007   -1.9374262   0.84458468   -1.0928415   0.13745375    11268.465     1000 
  494000    0.5463043    -1.959449     0.818637    -1.140812   0.14007698    11203.541     1000 
  496000   0.55076867    -1.914181   0.82532686   -1.0888541   0.12473519    11285.938     1000 
  498000   0.57095684    -1.993254   0.85557883   -1.1376751    0.1235709    11300.115     1000 
  500000   0.53779703   -1.9694582   0.80588885   -1.1635694   0.12125431    11474.989     1000 
  502000   0.56957005   -1.9250538   0.85350072   -1.0715531   0.14201304    11215.371     1000 
  504000   0.55680799   -1.9527005   0.83437677   -1.1183238   0.12539394     11404.39     1000 
  506000   0.56760824   -1.9487036   0.85056095   -1.0981426   0.11760112    11256.839     1000 
  508000   0.55804941   -1.9695947   0.83623704   -1.1333577   0.13012114    11234.782     1000 
  510000   0.53276028    -1.950312   0.79834128   -1.1519707   0.13923334    11219.968     1000 
  512000    0.5385581   -1.9614031   0.80702931   -1.1543737   0.12607803    11379.369     1000 
  514000   0.56145334   -1.9327162   0.84133782   -1.0913784    0.1293117    11341.952     1000 
  516000   0.56048434   -2.0033552   0.83988578   -1.1634694   0.12498875    11527.518     1000 
  518000   0.55155752   -1.9683853   0.82650894   -1.1418764   0.13064626    11361.162     1000 
  520000   0.53580399   -1.9206489   0.80290228   -1.1177466   0.13051346    11256.781     1000 
  522000   0.53478931   -1.9793959   0.80138178   -1.1780141   0.12170845    11335.623     1000 
  524000   0.53772264   -1.9594702   0.80577738   -1.1536928   0.13071179    11278.279     1000 
  526000   0.55013779   -2.0069786   0.82438149   -1.1825971   0.14826272    11235.861     1000 
  528000   0.55942836   -1.9136749    0.8383034   -1.0753715    0.1302915     11135.75     1000 
  530000   0.56065587   -1.9633898   0.84014282    -1.123247   0.14130063      11286.2     1000 
  532000   0.53732233   -1.9282035   0.80517752    -1.123026   0.11720972    11469.745     1000 
  534000   0.53712693   -1.9188244   0.80488471   -1.1139397   0.13617667    11178.666     1000 
  536000   0.55659416   -1.9719954   0.83405635    -1.137939     0.123039    11315.583     1000 
  538000   0.55294451   -1.9487971   0.82858734   -1.1202098   0.12924709    11266.201     1000 
  540000   0.53995404   -1.9635383   0.80912113   -1.1544172   0.11973128    11570.532     1000 
  542000   0.54488505   -1.9393186   0.81651024   -1.1228084   0.12897487    11352.907     1000 
  544000   0.55762976   -1.9842186    0.8356082   -1.1486104   0.13934894    11372.659     1000 
  546000   0.56569264   -1.9448057   0.84769043   -1.0971152   0.13944659    11253.479     1000 
  548000      0.53596   -1.9660755   0.80313606   -1.1629395   0.12591126    11318.949     1000 
  550000   0.55233219   -1.9914753   0.82766978   -1.1638055   0.14779377    11279.507     1000 
  552000   0.54285166   -1.9391453   0.81346322    -1.125682   0.12279787    11458.308     1000 
  554000   0.55075317   -1.9902771   0.82530363   -1.1649735   0.12599586    11627.942     1000 
  556000   0.53793823   -2.0004937   0.80610044   -1.1943933   0.13032178    11332.109     1000 
  558000   0.53294322   -1.9754166   0.79861541   -1.1768012   0.12583781    11312.497     1000 
  560000    0.5789988   -1.9311407    0.8676297    -1.063511   0.14798585    11346.634     1000 
  562000   0.56065501   -1.9241199   0.84014153   -1.0839783    0.1365352     11261.63     1000 
  564000   0.56150271   -1.9980988   0.84141182    -1.156687   0.14126125    11274.067     1000 
  566000   0.52932739   -1.9818514   0.79319709   -1.1886543   0.12232867    11358.265     1000 
  568000   0.53484084     -1.96354   0.80145899    -1.162081   0.13003932    11330.302     1000 
  570000   0.56094145   -1.9492219   0.84057076   -1.1086512    0.1263798    11260.794     1000 
  572000   0.55610198   -1.9942304   0.83331881   -1.1609116   0.12258181    11602.269     1000 
  574000   0.55096369   -2.0161762   0.82561908   -1.1905571   0.11811546    11421.993     1000 
  576000    0.5697582   -1.9615838   0.85378266   -1.1078011   0.13156592    11180.887     1000 
  578000   0.54485013   -1.9547397   0.81645792   -1.1382818   0.11939719    11360.478     1000 
  580000   0.56766135   -1.9288267   0.85064054   -1.0781862    0.1356848     11203.25     1000 
  582000   0.54524669   -1.9326202   0.81705216    -1.115568   0.12230879    11260.021     1000 
  584000    0.5526581   -1.9348523   0.82815817   -1.1066941   0.14729911     11205.22     1000 
  586000     0.546078   -1.9913312   0.81829788   -1.1730333   0.12683117    11467.398     1000 
  588000   0.56957555   -1.9720776   0.85350897   -1.1185687       0.1333    11252.311     1000 
  590000    0.5378031   -1.9794036   0.80589794   -1.1735057   0.12810002    11204.617     1000 
  592000   0.57131364   -1.9580832   0.85611348   -1.1019697   0.12651594    11318.978     1000 
  594000   0.54839859   -2.0278537   0.82177528   -1.2060785   0.11768278    11341.216     1000 
  596000   0.53723864   -1.9589427    0.8050521   -1.1538906   0.13466994    11382.986     1000 
  598000   0.56266157   -2.0031315   0.84314836   -1.1599831   0.14115674    11175.069     1000 
  600000   0.54754312    -1.980869   0.82049337   -1.1603756   0.13644195    11327.323     1000 
  602000   0.57907058   -1.9277772   0.86773727   -1.0600399   0.13211423    11392.554     1000 
  604000   0.53743934   -1.9326156   0.80535285   -1.1272628   0.12281726     11460.94     1000 
  606000   0.55238649   -2.0009348   0.82775116   -1.1731836    0.1230238    11386.618     1000 
  608000    0.5523755   -1.9728527   0.82773468    -1.145118   0.14056852    11306.811     1000 
  610000   0.56860359   -1.9652671   0.85205248   -1.1132146   0.12738329    11347.601     1000 
  612000   0.55345425   -1.9636133    0.8293512   -1.1342621   0.13466143    11255.588     1000 
  614000   0.53066994   -1.9375172    0.7952089   -1.1423083   0.13518564    11256.354     1000 
  616000   0.54513941   -1.9449377    0.8168914   -1.1280463   0.13417734    11239.152     1000 
  618000   0.56172753   -2.0194535    0.8417487   -1.1777048   0.12835802    11382.037     1000 
  620000   0.54833879   -1.8854934   0.82168567   -1.0638077   0.14277796    11077.751     1000 
  622000   0.55162854   -1.9576767   0.82661537   -1.1310614   0.13604727    11209.835     1000 
  624000   0.55546874   -1.9639461    0.8323699   -1.1315762   0.12805184    11400.751     1000 
  626000   0.56135875   -1.9264606   0.84119609   -1.0852645   0.13161515        11194     1000 
  628000   0.56733615   -1.9770578   0.85015322   -1.1269046    0.1306445    11314.367     1000 
  630000   0.57296148   -1.9344234   0.85858277   -1.0758406    0.1276147    11235.577     1000 
  632000   0.54618629   -1.9929517   0.81846016   -1.1744915   0.13351166     11317.22     1000 
  634000   0.53872886   -1.9196459   0.80728519   -1.1123607   0.12904261     11306.76     1000 
  636000   0.56020662   -1.9799119   0.83946962   -1.1404423   0.13081663    11425.443     1000 
  638000   0.58723785   -1.9276464   0.87997591   -1.0476705   0.14645071     11194.93     1000 
  640000   0.52266202   -1.9721053   0.78320903   -1.1888962   0.12654079    11347.431     1000 
  642000   0.52002521   -1.9638886   0.77925778   -1.1846308   0.12574295    11401.024     1000 
  644000   0.54822459   -1.9583501   0.82151455   -1.1368356   0.12908591    11399.443     1000 
  646000   0.54921331   -1.9326225   0.82299615   -1.1096263   0.12354236    11231.471     1000 
  648000   0.52177587   -2.0123671   0.78188115    -1.230486   0.12992341    11485.936     1000 
  650000   0.54282535   -1.9932745   0.81342379   -1.1798508   0.11743159    11446.488     1000 
  652000   0.54757359   -1.9370587   0.82053903   -1.1165197   0.13126324    11232.348     1000 
  654000   0.58207847   -1.9668333   0.87224458   -1.0945887   0.12579274    11308.433     1000 
  656000    0.5792586   -1.9806972   0.86801901   -1.1126782   0.13067817    11338.308     1000 
  658000   0.58541417   -1.9692312   0.87724313   -1.0919881   0.12717199    11419.048     1000 
  660000   0.55527324   -2.0051203   0.83207695   -1.1730433   0.11857176     11345.59     1000 
  662000   0.57847185   -1.9142244   0.86684007   -1.0473843   0.13669552    11188.672     1000 
  664000   0.53977483   -1.9950925   0.80885258   -1.1862399   0.10887115     11494.87     1000 
  666000   0.55016703   -1.8950955    0.8244253   -1.0706702   0.14124607    11269.741     1000 
  668000   0.55871818   -1.9506608   0.83723919   -1.1134216   0.13953173    11279.263     1000 
  670000   0.56248557   -1.9938805   0.84288462   -1.1509959    0.1190676    11370.141     1000 
  672000   0.54134812   -2.0032659   0.81121016   -1.1920558   0.12770817    11424.887     1000 
  674000   0.55841043   -1.9379349   0.83677803   -1.1011568   0.12516704    11300.803     1000 
  676000   0.56417048   -2.0413847   0.84540947   -1.1959753   0.13262693    11407.206     1000 
  678000   0.53629822   -1.9347578   0.80364288   -1.1311149   0.12288515    11501.747     1000 
  680000   0.57381366   -1.9608895   0.85985977   -1.1010297   0.13069362     11274.39     1000 
  682000   0.57357267   -1.9493576   0.85949865    -1.089859   0.11901731    11300.801     1000 
  684000   0.53796941    -1.912857   0.80614715   -1.1067099   0.12730602    11342.257     1000 
  686000   0.53913309   -1.9907314   0.80789094   -1.1828404   0.12446012    11346.798     1000 
  688000   0.55522163   -1.9398334   0.83199962   -1.1078338   0.12118896    11286.793     1000 
  690000   0.56692387   -1.9631347   0.84953542   -1.1135993   0.13291506    11367.193     1000 
  692000   0.54589702   -1.9854574   0.81802669   -1.1674307   0.11323331    11391.881     1000 
  694000    0.5406708   -1.9209411    0.8101952   -1.1107459   0.13008792    11267.513     1000 
  696000   0.59098591   -2.0187039   0.88559239   -1.1331115   0.12787047    11424.809     1000 
  698000   0.55763352   -1.9694044   0.83561384   -1.1337906   0.12565383    11394.535     1000 
  700000   0.55104475   -1.9283845   0.82574055    -1.102644    0.1409851    11151.278     1000 
  702000    0.5338754    -1.987959   0.80001229   -1.1879467   0.12350528    11412.295     1000 
  704000   0.47504154    -1.970738   0.71184975   -1.2588883   0.12820514    11250.915     1000 
  706000   0.53893775   -1.9743866   0.80759822   -1.1667884   0.13514305    11233.318     1000 
  708000   0.53875386   -1.9661347   0.80732266   -1.1588121   0.13536677    11224.138     1000 
  710000   0.57005204   -1.9592095   0.85422298   -1.1049865   0.12619147    11394.689     1000 
  712000   0.52666527   -1.9227876   0.78920791   -1.1335797   0.12323581    11428.328     1000 
  714000   0.52822318   -1.9429959   0.79154244   -1.1514535   0.13044385    11258.971     1000 
  716000   0.55511619   -1.9696146   0.83184161    -1.137773   0.11331124    11576.061     1000 
  718000   0.54469173   -1.9416939   0.81622055   -1.1254733   0.12454225    11350.816     1000 
  720000   0.54806771   -1.9459352   0.82127946   -1.1246558   0.11705962    11354.939     1000 
  722000   0.54615665   -1.9460674   0.81841574   -1.1276517     0.118402    11612.349     1000 
  724000   0.55169004   -1.9677723   0.82670752   -1.1410648   0.12423423    11407.406     1000 
  726000   0.54421313   -1.9162202   0.81550337   -1.1007168   0.12682878    11295.765     1000 
  728000   0.56396313   -1.9901673   0.84509876   -1.1450685   0.12234135    11491.682     1000 
  730000   0.54167502   -1.9688078   0.81170001   -1.1571078   0.13004484    11321.784     1000 
  732000   0.55080151   -1.9584143   0.82537606   -1.1330383    0.1282571    11383.754     1000 
  734000   0.52426325   -1.9683036   0.78560849   -1.1826951   0.13651369    11332.942     1000 
  736000   0.55305893   -1.9612934    0.8287588   -1.1325346   0.11326587    11387.939     1000 
  738000   0.54945804   -1.9514891   0.82336287   -1.1281262   0.13173236    11318.717     1000 
  740000     0.547343   -1.9667968   0.82019349   -1.1466033   0.13163148    11405.651     1000 
  742000   0.57595941   -1.8930239   0.86307517   -1.0299487    0.1353844     11289.44     1000 
  744000   0.54044655   -1.9037229   0.80985915   -1.0938638   0.12244034    11254.447     1000 
  746000   0.54592019   -1.9735948   0.81806141   -1.1555334    0.1318285    11317.168     1000 
  748000   0.54636301   -1.9488821   0.81872497   -1.1301572   0.13539343    11252.747     1000 
  750000   0.55317848   -1.9136598   0.82893795   -1.0847219    0.1416523    11278.283     1000 
  752000   0.54646483    -1.954935   0.81887754   -1.1360575   0.13002087    11197.844     1000 
  754000   0.55015851    -1.928636   0.82441252   -1.1042235   0.14425436    11173.122     1000 
  756000   0.56219714   -1.9694962   0.84245241   -1.1270438   0.13125372    11427.063     1000 
  758000   0.55886824   -1.9561908   0.83746406   -1.1187267   0.12287065    11434.745     1000 
  760000   0.53985473   -1.9070112   0.80897232   -1.0980389   0.12275615    11409.559     1000 
  762000   0.54918516   -1.9804515   0.82295397   -1.1574975   0.13558205    11314.498     1000 
  764000   0.52025007   -1.9528367   0.77959473    -1.173242   0.11911908    11430.979     1000 
  766000   0.53992389   -1.9295794   0.80907595   -1.1205035   0.13265008    11335.338     1000 
  768000    0.5689255   -1.9798032   0.85253486   -1.1272684   0.12101929    11496.424     1000 
  770000    0.5677942   -1.9573488   0.85083961   -1.1065092   0.12805937    11434.968     1000 
  772000   0.54139259   -1.8987305   0.81127679   -1.0874537   0.12132218    11401.399     1000 
  774000   0.53633223   -1.9554684   0.80369384   -1.1517746   0.14621108    11223.895     1000 
  776000   0.51932398   -1.9432247   0.77820699   -1.1650177   0.11608036    11349.816     1000 
  778000   0.56685621    -1.975633   0.84943404   -1.1261989    0.1289975    11356.713     1000 
  780000   0.54567563   -1.9486251   0.81769493   -1.1309302   0.12988136    11291.479     1000 
  782000   0.55686137   -1.9446901   0.83445676   -1.1102333   0.13098649    11351.371     1000 
  784000   0.56610981   -1.9769092   0.84831556   -1.1285937   0.12342406    11408.282     1000 
  786000   0.54310948   -1.9287248   0.81384956   -1.1148752   0.12010456    11456.353     1000 
  788000   0.56620274   -1.9567018    0.8484548    -1.108247   0.12946556     11348.49     1000 
  790000   0.56054424    -1.961867   0.83997555   -1.1218914   0.11688266    11372.724     1000 
  792000   0.54219344   -1.9686595   0.81247687   -1.1561827   0.13488552     11409.52     1000 
  794000   0.56496226   -1.9331598   0.84659594   -1.0865639   0.14122995    11305.506     1000 
  796000   0.53338565   -1.9219564   0.79927839    -1.122678   0.13245543    11291.503     1000 
  798000    0.5298498   -1.9764702   0.79397992   -1.1824903   0.13388437    11304.389     1000 
  800000   0.55010461   -1.9282826   0.82433176   -1.1039508   0.11857532    11404.054     1000 
  802000   0.54968389   -1.9469936    0.8237013   -1.1232923   0.14318644    11290.015     1000 
  804000   0.53068153   -1.9742049   0.79522627   -1.1789787   0.12591614    11445.386     1000 
  806000   0.53521421   -1.9818883   0.80201849   -1.1798698   0.14344061    11282.833     1000 
  808000    0.5420628   -1.9395875    0.8122811   -1.1273064   0.12767121    11234.183     1000 
  810000   0.53609658   -1.9803258   0.80334073    -1.176985   0.11269696    11456.289     1000 
  812000    0.5619268   -1.9369263   0.84204731    -1.094879   0.13915312    11175.343     1000 
  814000   0.56354161   -1.9539324   0.84446711   -1.1094653   0.12898816    11407.066     1000 
  816000   0.57161916   -1.9485086   0.85657132   -1.0919373   0.12799515    11351.526     1000 
  818000   0.56667132   -1.9432968   0.84915697   -1.0941398   0.12116894    11459.781     1000 
  820000   0.52876899   -1.9379428   0.79236034   -1.1455824    0.1318165    11293.918     1000 
  822000     0.549298   -1.8956181   0.82312305   -1.0724951   0.13702777    11114.199     1000 
  824000    0.5405095   -2.0037211   0.80995348   -1.1937676   0.13261545    11370.245     1000 
  826000   0.56035219   -1.9496765   0.83968776   -1.1099888   0.13542013    11172.823     1000 
  828000    0.5648177   -1.8801457   0.84637932   -1.0337664   0.13702314    11253.838     1000 
  830000   0.54605029    -1.981729   0.81825636   -1.1634726   0.12656715    11402.759     1000 
  832000   0.55966775   -1.9157941   0.83866212   -1.0771319   0.13105641    11342.561     1000 
  834000   0.55023374   -1.9820111   0.82452525   -1.1574859   0.12445019    11454.739     1000 
  836000   0.53890389   -1.9538519   0.80754748   -1.1463044   0.12886151    11350.337     1000 
  838000   0.57215341    -2.009348   0.85737189   -1.1519761    0.1063153    11771.378     1000 
  840000   0.55463546   -1.9474385   0.83112124   -1.1163172   0.11992086     11354.67     1000 
  842000   0.54849495   -2.0020887   0.82191968    -1.180169   0.13017009    11445.583     1000 
  844000   0.53750125   -1.9587426   0.80544562    -1.153297   0.12132954    11349.499     1000 
  846000   0.55259966   -1.8982081    0.8280706   -1.0701375   0.13470966    11322.017     1000 
  848000   0.56148255   -1.9045051   0.84138159   -1.0631235   0.13803771    11336.248     1000 
  850000   0.54840765   -1.9192596   0.82178886   -1.0974707   0.13244169    11292.543     1000 
  852000   0.54057982   -1.8833507   0.81005886   -1.0732918    0.1422453    11087.626     1000 
  854000   0.52905502   -1.9724635   0.79278895   -1.1796745   0.13871048     11207.68     1000 
  856000   0.53573793   -1.9562955   0.80280329   -1.1534922   0.11268478    11498.412     1000 
  858000    0.5319416   -1.9341686   0.79711448   -1.1370542   0.12654746    11338.317     1000 
  860000   0.55714906   -1.9164758   0.83488787   -1.0815879     0.119475    11444.449     1000 
  862000   0.55517707   -2.0123138   0.83193284   -1.1803809   0.12457918     11361.53     1000 
  864000   0.53318923   -1.9397199   0.79898405   -1.1407358   0.11717788    11449.618     1000 
  866000   0.53026799   -1.9400178   0.79460659   -1.1454112   0.14011215    11169.679     1000 
  868000   0.53324053   -1.8964804   0.79906093   -1.0974195   0.13136025    11265.128     1000 
  870000   0.55185029   -1.9213642   0.82694766   -1.0944165   0.13883802    11160.591     1000 
  872000   0.54699464   -1.9668696   0.81967147   -1.1471982    0.1205671    11369.953     1000 
  874000   0.53471545   -1.9258021   0.80127111   -1.1245309   0.13097166    11195.926     1000 
  876000   0.54744711   -2.0240127   0.82034949   -1.2036632   0.12476059    11418.351     1000 
  878000   0.55110753   -1.9898952   0.82583463   -1.1640606   0.13300324    11389.996     1000 
  880000   0.55751147   -1.9711465   0.83543093   -1.1357156   0.12902219    11427.409     1000 
  882000   0.53894454   -1.9680146    0.8076084   -1.1604062   0.13260851    11308.049     1000 
  884000   0.53644147   -1.9352993   0.80385754   -1.1314418   0.12789353    11364.248     1000 
  886000   0.56401814   -1.9544639   0.84518118   -1.1092827   0.12837627     11257.45     1000 
  888000   0.54038637   -1.9509432   0.80976897   -1.1411743   0.13084154    11480.836     1000 
  890000   0.56730526   -1.9251933   0.85010694   -1.0750864   0.12960848    11467.478     1000 
  892000   0.57094357   -1.9759293   0.85555894   -1.1203704   0.13682051    11253.881     1000 
  894000   0.52804547   -1.9382514   0.79127614   -1.1469752    0.1328193    11164.959     1000 
  896000   0.52263236   -1.9564855   0.78316459   -1.1733209   0.13810209     11293.96     1000 
  898000    0.5623404    -2.019418    0.8426671   -1.1767509   0.14313026    11293.896     1000 
  900000   0.55565857   -1.9991113   0.83265436    -1.166457   0.13267963    11327.481     1000 
  902000    0.5410143   -1.9788733   0.81070993   -1.1681633   0.12165621     11367.84     1000 
  904000   0.56727178   -1.9679354   0.85005676   -1.1178787   0.13311313    11349.715     1000 
  906000   0.53959177   -1.9482828   0.80857827   -1.1397046   0.11189629    11568.955     1000 
  908000   0.54556752   -1.9554348   0.81753293   -1.1379019   0.13413709    11308.047     1000 
  910000   0.54088179   -1.9792356   0.81051136   -1.1687242   0.12729058    11226.046     1000 
  912000    0.5854286   -1.9920412   0.87726476   -1.1147764   0.13670127    11215.531     1000 
  914000   0.55679529   -1.9664523   0.83435774   -1.1320946   0.13161888    11392.671     1000 
  916000    0.5672518   -1.9630329   0.85002682   -1.1130061    0.1347035     11278.64     1000 
  918000   0.52947388   -2.0139161    0.7934166   -1.2204995   0.12388695    11426.683     1000 
  920000   0.55667137   -1.9145932   0.83417205   -1.0804212    0.1302956    11300.639     1000 
  922000   0.53605535   -1.9239485   0.80327894   -1.1206696   0.12418088    11174.415     1000 
  924000   0.57482848   -1.9565848   0.86138048   -1.0952043   0.12942951    11280.868     1000 
  926000   0.53161169   -1.9442979   0.79662011   -1.1476778   0.13607386    11360.065     1000 
  928000   0.56065075    -1.997891   0.84013514   -1.1577558   0.12905339    11413.889     1000 
  930000    0.5720816   -1.9351586   0.85726428   -1.0778943   0.12754703    11430.376     1000 
  932000   0.55678424    -1.961964   0.83434119   -1.1276228   0.12662429    11312.247     1000 
  934000   0.55711699   -1.9721345   0.83483981   -1.1372947   0.12810345    11391.902     1000 
  936000   0.54503532   -1.9268248   0.81673542   -1.1100894    0.1223757    11246.631     1000 
  938000   0.57935059   -1.9404092   0.86815686   -1.0722523    0.1298035    11283.369     1000 
  940000   0.53935215   -1.8983902    0.8082192    -1.090171    0.1205871    11134.915     1000 
  942000    0.5867478   -1.9694744   0.87924158   -1.0902328   0.13897105    11356.597     1000 
  944000   0.54065527   -1.9385551   0.81017192   -1.1283832   0.12010934    11491.943     1000 
  946000   0.56030619   -1.9171385   0.83961883   -1.0775196   0.13297856    11110.229     1000 
  948000    0.5440164   -1.9673822   0.81520857   -1.1521736   0.13986438    11255.334     1000 
  950000    0.5512103   -2.0158906   0.82598863    -1.189902   0.12475331    11421.257     1000 
  952000    0.5146936   -1.9153807   0.77126835   -1.1441123   0.12925728    11292.259     1000 
  954000   0.56023708   -1.8923621   0.83951527   -1.0528468   0.12691989    11188.801     1000 
  956000   0.54855488   -1.9652548   0.82200949   -1.1432453   0.13340894    11373.271     1000 
  958000    0.5759042   -1.9331752   0.86299244   -1.0701828    0.1351303    11305.924     1000 
  960000   0.53335774   -1.9073408   0.79923657   -1.1081042   0.14361972    11162.158     1000 
  962000   0.54391351   -1.9310393   0.81505439   -1.1159849   0.14592794    11061.004     1000 
  964000   0.54138805   -1.9062414      0.81127   -1.0949714   0.12965406    11342.195     1000 
  966000   0.54267406   -1.9313207   0.81319708   -1.1181236   0.11673188    11391.996     1000 
  968000   0.55602923   -1.9616152   0.83320981   -1.1284053   0.14426959    11205.071     1000 
  970000   0.54871221   -1.9727121   0.82224525   -1.1504668   0.13793416    11150.511     1000 
  972000     0.555146   -1.9433128   0.83188629   -1.1114265   0.11212692    11417.492     1000 
  974000   0.53877161   -1.9759723   0.80734926    -1.168623   0.11589016     11387.01     1000 
  976000    0.5541476    -1.981584   0.83039017   -1.1511938   0.13338686    11369.461     1000 
  978000   0.54497716   -1.9575182   0.81664827   -1.1408699   0.12971712    11434.929     1000 
  980000   0.51561806   -1.9360737   0.77265366   -1.1634201   0.10951802    11367.568     1000 
  982000   0.53173137   -1.9888681   0.79679947   -1.1920686    0.1279064    11335.288     1000 
  984000   0.54298528   -1.9324547   0.81366345   -1.1187913   0.12693069    11355.607     1000 
  986000    0.5911224   -1.9401472   0.88579691   -1.0543502   0.12867878    11343.278     1000 
  988000   0.53169189   -1.9380429   0.79674029   -1.1413026    0.1451521    11236.258     1000 
  990000   0.53292399   -1.9283337    0.7985866   -1.1297471   0.13513135    11183.094     1000 
  992000   0.56942656   -1.9756542    0.8532857   -1.1223685   0.13464882    11262.824     1000 
  994000   0.53216757   -1.9691756    0.7974531   -1.1717225   0.12698745    11168.124     1000 
  996000   0.51682362    -1.949838    0.7744602   -1.1753778    0.1317193    11334.433     1000 
  998000   0.54512654   -1.9427345   0.81687213   -1.1258624   0.13056063    11206.878     1000 
 1000000    0.5537827   -1.9547427   0.82984337   -1.1248993   0.13136186    11262.638     1000 
 1002000   0.56080051   -1.9634877   0.84035956   -1.1231281   0.13395109    11322.617     1000 
 1004000   0.57456644   -1.9898161   0.86098782   -1.1288283   0.13286394     11340.05     1000 
 1006000   0.54413721   -1.9420644   0.81538961   -1.1266748   0.12972078    11298.104     1000 
 1008000   0.54231907   -1.9158511   0.81266513    -1.103186    0.1270418    11222.111     1000 
 1010000   0.55693901    -1.976456   0.83457311   -1.1418828   0.12766263    11339.064     1000 
 1012000   0.54470356   -1.9800049   0.81623828   -1.1637666   0.13664769    11255.321     1000 
 1014000   0.56333865   -1.9457056   0.84416297   -1.1015426   0.13715066    11221.027     1000 
 1016000   0.55192312   -1.9654683    0.8270568   -1.1384115   0.12820094     11256.73     1000 
 1018000   0.55088535   -1.9759082    0.8255017   -1.1504065   0.13369155    11422.603     1000 
 1020000   0.55974057   -1.9212299   0.83877124   -1.0824586   0.12772071     11253.87     1000 
 1022000   0.56014902   -1.9391466   0.83938331   -1.0997633   0.14234368    11170.361     1000 
 1024000   0.55258862   -1.9264137   0.82805404   -1.0983596   0.13147403    11201.011     1000 
 1026000    0.5702951   -1.9353193   0.85458721   -1.0807321    0.1290407    11290.933     1000 
 1028000   0.54229713   -1.9426435   0.81263225   -1.1300113   0.12318627    11382.435     1000 
 1030000   0.54061952   -1.9843725   0.81011834   -1.1742542   0.12471501    11409.192     1000 
 1032000   0.52892228   -1.9691139   0.79259003   -1.1765238   0.13066731    11205.064     1000 
 1034000   0.56483327   -1.9582099   0.84640265   -1.1118072    0.1363094    11273.265     1000 
 1036000   0.56733738   -1.9673747   0.85015506   -1.1172197    0.1304095    11359.757     1000 
 1038000   0.57437945   -1.9975665    0.8607076   -1.1368589   0.13523789    11226.734     1000 
 1040000   0.55642935   -1.9710597   0.83380938   -1.1372503   0.13194141    11296.467     1000 
 1042000   0.54011591   -1.9202519    0.8093637   -1.1108882   0.13418162    11213.136     1000 
 1044000   0.54241079    -1.967184   0.81280257   -1.1543815   0.12582438    11406.483     1000 
 1046000   0.55084495   -1.9293572   0.82544115   -1.1039161   0.13312122    11292.364     1000 
 1048000   0.51986196   -1.9523763   0.77901314   -1.1733631   0.13008245    11304.758     1000 
 1050000   0.53957836   -1.9489535   0.80855817   -1.1403953   0.12853089    11457.681     1000 
 1052000   0.56595757   -1.9419669   0.84808741   -1.0938795    0.1344188     11220.05     1000 
 1054000    0.5457373   -1.9596192   0.81778735   -1.1418318   0.13261463     11322.93     1000 
 1056000   0.52675389   -1.9563243    0.7893407   -1.1669836   0.13061319    11331.244     1000 
 1058000   0.53563373   -1.9793884   0.80264714   -1.1767413   0.13498818    11342.271     1000 
 1060000   0.55362385   -1.9963091   0.82960534   -1.1667038   0.13050218     11292.34     1000 
 1062000   0.53749772   -1.9500164   0.80544033   -1.1445761   0.12781934    11233.549     1000 
 1064000   0.57052471   -1.9524631   0.85493128   -1.0975318   0.13378464    11332.219     1000 
 1066000   0.54934378   -1.9552628   0.82319165   -1.1320712   0.13338035    11385.992     1000 
 1068000   0.56179038   -1.9163571   0.84184288   -1.0745142   0.12871411    11364.319     1000 
 1070000   0.57030144   -1.9463588    0.8545967   -1.0917621   0.14239506    11261.527     1000 
 1072000   0.56374888   -1.9239885    0.8447777   -1.0792108   0.13381795    11100.272     1000 
 1074000    0.5227573   -1.9254469   0.78335182   -1.1420951   0.12517775    11278.524     1000 
 1076000   0.56374598   -1.9944189   0.84477335   -1.1496455     0.122499    11522.098     1000 
 1078000   0.58230917   -1.9280312   0.87259029    -1.055441   0.13518404    11250.588     1000 
 1080000   0.55282283   -1.9666381   0.82840501   -1.1382331   0.13822206    11312.039     1000 
 1082000   0.53683893     -1.92501   0.80445313   -1.1205568   0.12921415     11313.06     1000 
 1084000   0.54533567   -1.9440781   0.81718551   -1.1268926   0.11854252    11388.069     1000 
 1086000   0.54839377   -1.9805026   0.82176807   -1.1587346   0.13489174    11327.604     1000 
 1088000   0.57281344   -1.9064908   0.85836094   -1.0481298   0.13387167    11251.745     1000 
 1090000   0.55274786   -1.9725515   0.82829266   -1.1442588   0.11891847    11350.635     1000 
 1092000   0.56035104   -1.8763414   0.83968603   -1.0366554   0.14035574    11185.615     1000 
 1094000    0.5603574   -1.9653863   0.83969556   -1.1256907   0.13376616    11320.655     1000 
 1096000   0.55935005   -1.9194722   0.83818605   -1.0812861   0.14051624    11312.552     1000 
 1098000   0.57035435   -1.9640718     0.854676   -1.1093958   0.12818337    11388.928     1000 
 1100000   0.53034655   -1.9147087   0.79472431   -1.1199844    0.1424343    11119.278     1000 
 1102000   0.55657776   -1.9511153   0.83403177   -1.1170835   0.13592992    11276.908     1000 
 1104000   0.57034925   -1.9652788   0.85466836   -1.1106104   0.12717637    11396.801     1000 
 1106000   0.56927397   -1.9219736   0.85305705   -1.0689165   0.14212412    11219.843     1000 
 1108000   0.55094988   -1.9201456    0.8255984   -1.0945472   0.12576818    11233.949     1000 
 1110000   0.55279233   -1.9513101    0.8283593   -1.1229508   0.12097913    11449.235     1000 
 1112000   0.55957419   -2.0371451   0.83852192   -1.1986231   0.12197563    11361.485     1000 
 1114000   0.56981043   -1.9664317   0.85386092   -1.1125708   0.14383043    11261.686     1000 
 1116000   0.54658298   -1.9481471   0.81905459   -1.1290925   0.12235091    11323.885     1000 
 1118000   0.56126998   -1.9637841   0.84106307    -1.122721   0.13449321    11353.528     1000 
 1120000   0.55495212   -1.9786635   0.83159576   -1.1470678   0.13553927    11299.404     1000 
 1122000   0.52416729   -1.9326923   0.78546469   -1.1472276   0.12889641    11343.988     1000 
 1124000   0.52614221   -1.9492248    0.7884241   -1.1608007   0.13458732     11174.17     1000 
 1126000   0.56445677   -1.9767796   0.84583847   -1.1309411     0.118683     11365.41     1000 
 1128000   0.52322126   -1.9383925   0.78404706   -1.1543454   0.12767383    11257.923     1000 
 1130000   0.55328909   -2.0102869    0.8291037   -1.1811832    0.1368905    11208.389     1000 
 1132000   0.53892918    -1.945666   0.80758537   -1.1380806   0.11582982     11361.75     1000 
 1134000   0.55034984   -1.9960622   0.82469924    -1.171363   0.12639068    11409.066     1000 
 1136000   0.54636706   -1.9731845   0.81873103   -1.1544535   0.12941387    11310.641     1000 
 1138000   0.53702292    -1.951419   0.80472885   -1.1466901   0.11084045    11380.739     1000 
 1140000   0.54795538   -1.9557168   0.82111113   -1.1346057   0.13625575    11227.933     1000 
 1142000   0.52758059   -1.9406698   0.79057951   -1.1500903   0.13098838    11368.907     1000 
 1144000   0.55784816   -1.9293584   0.83593547   -1.0934229    0.1410993    11175.039     1000 
 1146000   0.53996287   -1.9624757   0.80913436   -1.1533413   0.12997263    11205.891     1000 
 1148000   0.54695051   -1.8945694   0.81960534   -1.0749641    0.1233663     11312.84     1000 
 1150000   0.55870135   -1.9311946   0.83721397   -1.0939806   0.12488543    11311.423     1000 
 1152000   0.55490324   -1.9830958   0.83152251   -1.1515733   0.13955904    11331.666     1000 
 1154000   0.56105869   -1.9805642   0.84074644   -1.1398178   0.13930738     11298.45     1000 
 1156000   0.55959718   -1.9748835   0.83855638   -1.1363272   0.12624368    11472.839     1000 
 1158000   0.53574511   -1.9099405   0.80281404   -1.1071264   0.12129865    11328.001     1000 
 1160000   0.53960049   -1.9777641   0.80859134   -1.1691728   0.13712253    11333.031     1000 
 1162000   0.56883729   -1.9657343   0.85240267   -1.1133316   0.12338346    11436.229     1000 
 1164000   0.56853354   -1.9636567   0.85194751   -1.1117092   0.14094583    11282.201     1000 
 1166000    0.5459615   -1.9093125   0.81812331   -1.0911892   0.13758205    11229.345     1000 
 1168000   0.55649075   -1.9790928   0.83390139   -1.1451914   0.12745038    11401.571     1000 
 1170000   0.54862329   -1.9745666     0.822112   -1.1524546   0.13960412    11320.263     1000 
 1172000   0.55535492   -1.9472066   0.83219934   -1.1150073   0.13150992    11394.584     1000 
 1174000   0.57013987    -1.982485    0.8543546   -1.1281304   0.13838045     11222.52     1000 
 1176000   0.55793419   -2.0098903   0.83606438   -1.1738259   0.12707801    11322.914     1000 
 1178000   0.53574055   -1.9929111   0.80280721   -1.1901039   0.12468736    11326.004     1000 
 1180000   0.54784802   -1.9021765   0.82095026   -1.0812262    0.1327331    11264.316     1000 
 1182000   0.51911031   -1.9119905    0.7778868   -1.1341037    0.1345639    11193.733     1000 
 1184000    0.5341812   -1.9319885   0.80047053   -1.1315179   0.12310577    11291.855     1000 
 1186000   0.55569275   -1.9026179   0.83270559   -1.0699124   0.12721179    11325.285     1000 
 1188000   0.57202482   -1.9453077    0.8571792   -1.0881286   0.13871667    11254.223     1000 
 1190000   0.55080241   -1.8931034   0.82537741    -1.067726   0.12888504    11247.199     1000 
 1192000   0.56656805   -1.9355988   0.84900222   -1.0865966   0.13437711    11353.533     1000 
 1194000   0.55048537   -1.9263727   0.82490233   -1.1014703   0.12606056    11399.708     1000 
 1196000   0.54808354   -1.8900807   0.82130319   -1.0687775   0.12672502    11082.641     1000 
 1198000   0.54725015   -1.9430645   0.82005435   -1.1230102   0.12052888    11331.451     1000 
 1200000   0.54303037   -1.9652815   0.81373101   -1.1515505    0.1310846    11368.666     1000 
 1202000   0.54140333   -1.9140789    0.8112929    -1.102786   0.12456275    11218.823     1000 
 1204000   0.54474973   -1.9860806   0.81630747   -1.1697731   0.12619791    11290.819     1000 
 1206000   0.55065174   -1.9608192   0.82515163   -1.1356676   0.14289595    11246.461     1000 
 1208000   0.54096076   -1.8882294    0.8106297   -1.0775997   0.12359302    11216.772     1000 
 1210000   0.55068888   -1.9803693   0.82520728    -1.155162   0.12729201    11286.149     1000 
 1212000   0.56449173   -1.9167881   0.84589086   -1.0708973   0.13412648    11126.822     1000 
 1214000     0.549092   -1.9501485   0.82281437   -1.1273342   0.13648269    11315.725     1000 
 1216000   0.53896574   -1.9360383   0.80764016   -1.1283981    0.1175694    11429.212     1000 
 1218000   0.57863975   -1.9304199   0.86709166   -1.0633282   0.13575315    11334.664     1000 
 1220000   0.54898664   -1.9210633   0.82265648   -1.0984069   0.11556395    11594.026     1000 
 1222000   0.54408988   -1.9097423   0.81531868   -1.0944237   0.13170848    11449.924     1000 
 1224000   0.56856669    -1.997591   0.85199718   -1.1455938   0.12047172    11481.098     1000 
 1226000   0.53803702   -1.9213623   0.80624847   -1.1151138   0.12539779        11204     1000 
 1228000   0.53429493   -1.9097602   0.80064095   -1.1091193    0.1363072    11372.804     1000 
 1230000   0.57792286   -1.9746668    0.8660174   -1.1086494   0.13459238    11252.722     1000 
 1232000   0.55965703   -1.9121016   0.83864605   -1.0734555   0.12543656    11448.244     1000 
 1234000   0.52611849   -1.9856361   0.78838856   -1.1972476   0.12463217    11361.959     1000 
 1236000   0.54669613   -1.9630477   0.81922414   -1.1438235   0.12985576    11411.833     1000 
 1238000   0.57418542   -1.9331655   0.86041685   -1.0727486   0.13457104    11267.407     1000 
 1240000   0.55713539   -1.9620033   0.83486738    -1.127136   0.11112758    11539.895     1000 
 1242000   0.56084926   -1.9490269   0.84043262   -1.1085943   0.13698152    11131.453     1000 
 1244000   0.55357641   -1.9230383   0.82953425   -1.0935041   0.13851415    11254.907     1000 
 1246000   0.57292351   -1.8907141   0.85852588   -1.0321883   0.14406064    11181.168     1000 
 1248000   0.53872192   -1.9723205   0.80727479   -1.1650457   0.12605817    11316.152     1000 
 1250000   0.57047807   -1.9836304   0.85486139    -1.128769   0.13352998    11348.279     1000 
 1252000   0.55900751   -1.9304189   0.83767276   -1.0927461   0.13925782    11189.889     1000 
 1254000   0.55186839   -1.9357544   0.82697478   -1.1087796   0.13381401    11208.639     1000 
 1256000   0.53098564   -1.9344795   0.79568198   -1.1387975   0.12333274     11334.44     1000 
 1258000   0.53230066   -1.8981648   0.79765254   -1.1005123   0.13198123    11415.796     1000 
 1260000   0.55226183   -1.9755167   0.82756435   -1.1479523   0.12914175    11350.148     1000 
 1262000   0.54407946   -1.9121215   0.81530308   -1.0968185   0.13765741    11131.845     1000 
 1264000   0.55553091   -1.9959476   0.83246307   -1.1634846   0.12439009    11437.408     1000 
 1266000   0.54915416   -1.9709646   0.82290751   -1.1480571   0.12366793    11420.814     1000 
 1268000   0.57064276   -1.9289553   0.85510817   -1.0738471   0.13817955    11176.802     1000 
 1270000   0.54492181   -1.9609138   0.81656533   -1.1443485    0.1300642    11221.969     1000 
 1272000   0.55446169   -1.9296291   0.83086084   -1.0987682   0.13461493    11200.707     1000 
 1274000   0.54632664   -2.0062555   0.81867048    -1.187585   0.12431741    11429.966     1000 
 1276000   0.54606174   -1.9337496   0.81827352   -1.1154761   0.13868017    11117.906     1000 
 1278000   0.53527146   -1.9501407   0.80210428   -1.1480364   0.13138104    11284.916     1000 
 1280000   0.54872231   -1.9848291   0.82226039   -1.1625687   0.12232684    11419.879     1000 
 1282000   0.55493554   -1.9334765    0.8315709   -1.1019056   0.14790508    11272.415     1000 
 1284000   0.53778667   -1.9576538   0.80587333   -1.1517805   0.14289944    11218.953     1000 
 1286000   0.56824213   -1.9492025   0.85151083   -1.0976917    0.1253913    11460.207     1000 
 1288000   0.56572664   -1.9872705   0.84774137   -1.1395291   0.12593638    11411.233     1000 
 1290000    0.5412214   -1.9594253   0.81102026    -1.148405   0.12967253    11328.942     1000 
 1292000   0.55038199   -1.9476618   0.82474741   -1.1229144   0.13796672    11439.465     1000 
 1294000   0.54703954   -1.9628874   0.81973875   -1.1431487   0.12727631    11354.236     1000 
 1296000   0.57150705    -1.980832   0.85640331   -1.1244286   0.13039222    11331.937     1000 
 1298000   0.54571476   -1.9933152   0.81775356   -1.1755616   0.13180597    11320.372     1000 
 1300000   0.56497077   -1.9485877    0.8466087    -1.101979   0.12289584    11373.784     1000 
 1302000   0.56957084   -1.8635582    0.8535019   -1.0100563   0.11753071    11394.403     1000 
 1304000    0.5594568   -1.9396605   0.83834601   -1.1013145   0.13079166    11277.397     1000 
 1306000    0.5417188   -1.9187523   0.81176561   -1.1069867   0.13495913    11270.622     1000 
 1308000   0.54914067   -1.9928941   0.82288729   -1.1700068   0.12126418    11470.923     1000 
 1310000    0.5744127   -1.9369393   0.86075744   -1.0761819   0.14628177    11085.351     1000 
 1312000   0.56262243   -1.9486394   0.84308971   -1.1055497    0.1107279    11625.782     1000 
 1314000    0.5768457   -1.9242903   0.86440328    -1.059887   0.13408661    11252.434     1000 
 1316000    0.5221297   -1.9270811   0.78241136   -1.1446697   0.12380841     11369.96     1000 
 1318000   0.53545997   -1.9824383   0.80238676   -1.1800516   0.12887037    11358.832     1000 
 1320000   0.54291801   -1.9522219   0.81356263   -1.1386593   0.12739928    11473.824     1000 
 1322000   0.54854511   -1.9202814   0.82199484   -1.0982866   0.13066866    11116.441     1000 
 1324000   0.53669788   -1.9262582   0.80424177   -1.1220165   0.14254564    11076.741     1000 
 1326000   0.55715589   -1.9547482   0.83489809   -1.1198501   0.13217783    11400.706     1000 
 1328000   0.54642176   -2.0417622   0.81881301   -1.2229491   0.13241433    11450.227     1000 
 1330000   0.56604112   -1.9182239   0.84821261   -1.0700113   0.13810165    11256.488     1000 
 1332000   0.56226543   -1.9603144   0.84255475   -1.1177596   0.12034804    11476.334     1000 
 1334000   0.53352248   -1.9587249   0.79948344   -1.1592415   0.11405755    11451.757     1000 
 1336000   0.56045501   -1.9497542   0.83984183   -1.1099123   0.13452096    11291.837     1000 
 1338000   0.57911773    -1.922367   0.86780792   -1.0545591    0.1464713    11039.816     1000 
 1340000   0.53904735   -1.9359633   0.80776245   -1.1282009   0.13093442    11301.529     1000 
 1342000   0.56225743   -1.9734158   0.84254276   -1.1308731   0.13577889    11249.217     1000 
 1344000   0.52979856   -1.9957941   0.79390315   -1.2018909   0.13606322    11224.671     1000 
 1346000   0.52710718   -1.9496673   0.78987011   -1.1597972    0.1189496    11345.539     1000 
 1348000   0.57602289   -1.9431613    0.8631703    -1.079991   0.12782122    11371.572     1000 
 1350000   0.54308965   -2.0048371   0.81381984   -1.1910173   0.11159794    11547.561     1000 
 1352000   0.58050221   -1.9317067   0.86988256   -1.0618242   0.12840587    11362.099     1000 
 1354000   0.51472533   -1.9359882   0.77131591   -1.1646723   0.11786192    11449.523     1000 
 1356000   0.55548568   -1.9560284    0.8323953   -1.1236331   0.12307294    11359.595     1000 
 1358000   0.56501334   -1.9986606   0.84667249   -1.1519881     0.126229    11382.629     1000 
 1360000   0.56517767   -1.9888283   0.84691874   -1.1419096    0.1206651    11485.627     1000 
 1362000   0.54235639   -1.9321085   0.81272105   -1.1193875   0.14088217     11267.29     1000 
 1364000   0.55792722   -1.9857962   0.83605394   -1.1497423   0.12312697    11283.792     1000 
 1366000    0.5354777   -1.9822428   0.80241334   -1.1798294   0.12945564    11341.521     1000 
 1368000   0.56021547   -1.9653944   0.83948287   -1.1259115   0.13834762     11263.96     1000 
 1370000   0.54940264   -1.9665892   0.82327985   -1.1433094   0.12732968    11335.124     1000 
 1372000   0.56119877   -2.0071383   0.84095636    -1.166182   0.13353075    11354.732     1000 
 1374000   0.55270351   -1.9804758   0.82822622   -1.1522496   0.14681611    11185.954     1000 
 1376000   0.54225587   -1.9405003   0.81257042   -1.1279298   0.13288013    11341.343     1000 
 1378000   0.55189147    -1.950555   0.82700936   -1.1235457   0.13649104    11222.584     1000 
 1380000   0.54364399   -1.9703581   0.81465052   -1.1557076   0.13543637    11322.543     1000 
 1382000   0.53720892   -1.9575531   0.80500757   -1.1525455   0.12998791    11137.777     1000 
 1384000   0.56875685   -2.0102318   0.85228214   -1.1579496   0.14177871    11242.278     1000 
 1386000   0.55072808   -1.9867894   0.82526603   -1.1615234   0.13867425    11247.127     1000 
 1388000   0.56827881   -1.9838073    0.8515658   -1.1322415   0.13341862    11320.403     1000 
 1390000   0.54455207   -1.9399413   0.81601128     -1.12393   0.13437979    11310.934     1000 
 1392000   0.52343466   -1.9095575   0.78436683   -1.1251907   0.12413044    11416.038     1000 
 1394000   0.54365202   -1.9740343   0.81466255   -1.1593717   0.13369836    11324.552     1000 
 1396000    0.5542159   -1.9133679   0.83049253   -1.0828754   0.12138352    11332.033     1000 
 1398000   0.56092046   -1.9716314   0.84053931   -1.1310921   0.13902417    11372.892     1000 
 1400000   0.52942696   -1.9471334   0.79334629   -1.1537872   0.11951773    11331.984     1000 
 1402000   0.53450595   -1.9503681   0.80095717   -1.1494109   0.12736521    11331.068     1000 
 1404000   0.55044239   -1.9187193   0.82483792   -1.0938814   0.12995006    11317.184     1000 
 1406000   0.56398441   -1.9171006   0.84513064     -1.07197   0.11805722    11378.678     1000 
 1408000   0.54042408   -1.9418433   0.80982548   -1.1320178   0.13282552    11215.516     1000 
 1410000   0.55988428    -1.929676   0.83898659   -1.0906894   0.13267484    11435.811     1000 
 1412000   0.55280309   -1.9242981   0.82837544   -1.0959226   0.13340632     11312.31     1000 
 1414000   0.53996214    -1.964316   0.80913326   -1.1551827   0.11145703    11510.498     1000 
 1416000   0.53041567   -1.9426239   0.79482788    -1.147796   0.12329758    11408.302     1000 
 1418000   0.54220437   -1.9664969   0.81249324   -1.1540037   0.13407687    11329.582     1000 
 1420000   0.55008279   -1.9684592   0.82429907   -1.1441601   0.13777776      11313.7     1000 
 1422000   0.56133359   -1.9668784   0.84115839     -1.12572   0.12809448    11255.279     1000 
 1424000   0.55343848   -1.9837973   0.82932756   -1.1544698   0.13624091    11261.878     1000 
 1426000   0.54850401   -1.9453822   0.82193326    -1.123449   0.13469951    11318.472     1000 
 1428000   0.54330784   -1.9943244    0.8141468   -1.1801776   0.12757231    11461.751     1000 
 1430000     0.549108   -1.9414204   0.82283834    -1.118582    0.1342351    11274.199     1000 
 1432000   0.54376635   -1.9429512   0.81483387   -1.1281173    0.1294014    11315.031     1000 
 1434000    0.5581804   -1.9253785   0.83643332   -1.0889451   0.13133684    11319.705     1000 
 1436000   0.56191327   -1.8975348   0.84202704   -1.0555078   0.12765964    11216.241     1000 
 1438000   0.54007577    -1.940498   0.80930355   -1.1311945   0.12189817    11246.494     1000 
 1440000   0.53594997   -1.9921093   0.80312103   -1.1889883   0.13405301    11280.737     1000 
 1442000   0.53743837   -1.9249738    0.8053514   -1.1196224   0.13488949    11242.004     1000 
 1444000   0.52531638   -1.9916865    0.7871866   -1.2044999   0.11367681    11633.392     1000 
 1446000   0.55481333   -1.9357384   0.83138777   -1.1043506   0.13171717    11261.484     1000 
 1448000   0.54729704   -1.9490044   0.82012462   -1.1288798   0.13005839    11374.407     1000 
 1450000   0.54408393   -1.9488449   0.81530977   -1.1335351   0.12641273    11304.258     1000 
 1452000   0.55472339     -1.89023     0.831253    -1.058977   0.13210227    11327.296     1000 
 1454000   0.55036357   -1.9589554   0.82471981   -1.1342356   0.12572736    11398.662     1000 
 1456000   0.55910435   -1.9066456   0.83781787   -1.0688277   0.13814598    11243.882     1000 
 1458000    0.5687165   -1.9785684   0.85222167   -1.1263468      0.12932    11425.778     1000 
 1460000   0.54051374   -1.9827124   0.80995984   -1.1727526   0.13026966    11286.795     1000 
 1462000   0.55532348   -1.9722544   0.83215224   -1.1401022   0.13100194    11317.519     1000 
 1464000   0.52095072   -1.9522833   0.78064465   -1.1716387   0.11693512    11285.185     1000 
 1466000   0.56059485   -1.9402702   0.84005138   -1.1002189   0.13270815    11287.855     1000 
 1468000    0.5615711   -1.9487955    0.8415143   -1.1072812   0.13505692    11122.023     1000 
 1470000   0.55110739   -1.9057832   0.82583442   -1.0799488   0.14267942    11272.552     1000 
 1472000   0.55540354   -1.9634854    0.8322722   -1.1312132   0.12392524    11288.037     1000 
 1474000   0.53505396   -1.9170293   0.80177836    -1.115251   0.13601349     11138.74     1000 
 1476000    0.5472779   -1.9348631   0.82009594   -1.1147671   0.11677232    11294.982     1000 
 1478000   0.55918292   -1.9954768   0.83793561   -1.1575412    0.1255025    11335.017     1000 
 1480000   0.55559843    -2.012136   0.83256425   -1.1795718   0.11992224    11431.499     1000 
 1482000   0.54931327   -1.9126067   0.82314593   -1.0894608   0.12879043    11481.953     1000 
 1484000   0.54820621   -1.9323971   0.82148701   -1.1109101   0.12347603    11373.455     1000 
 1486000    0.5461844     -1.94951   0.81845733   -1.1310526   0.14310275    11193.295     1000 
 1488000   0.55902314   -1.9198136   0.83769617   -1.0821174   0.12762797    11274.326     1000 
 1490000      0.51302   -1.9440242   0.76876047   -1.1752637   0.12793013    11245.055     1000 
 1492000   0.59412778   -1.9886713   0.89030047   -1.0983708   0.14061319     11301.84     1000 
 1494000   0.53857621   -1.9704288   0.80705646   -1.1633723    0.1359008    11315.334     1000 
 1496000   0.53260381   -1.9559152   0.79810682   -1.1578084   0.14083296    11253.807     1000 
 1498000   0.53988741   -1.9515308   0.80902128   -1.1425095   0.13075255    11339.628     1000 
 1500000   0.52846748   -1.9158234   0.79190851   -1.1239149   0.13077364    11275.933     1000 
 1502000   0.55176621   -1.9880028   0.82682166   -1.1611811   0.12178735    11425.922     1000 
 1504000   0.54805491   -1.9405208   0.82126028   -1.1192605   0.12602829    11399.977     1000 
 1506000   0.52753319   -2.0203015   0.79050849    -1.229793   0.12394544    11459.958     1000 
 1508000   0.56642326   -1.9972496   0.84878526   -1.1484643    0.1340331    11291.412     1000 
 1510000   0.54204683   -1.9639477   0.81225718   -1.1516905   0.14459675    11152.975     1000 
 1512000   0.55174318   -1.9354456   0.82678716   -1.1086584   0.12813379    11328.314     1000 
 1514000   0.54365229   -1.8965849   0.81466295   -1.0819219   0.13400021    11286.657     1000 
 1516000   0.56567933   -1.9314941   0.84767048   -1.0838236   0.14086122    11177.471     1000 
 1518000   0.54624777   -1.9467259   0.81855228   -1.1281737   0.13192204    11212.017     1000 
 1520000   0.53894524   -1.9292234   0.80760944    -1.121614   0.11743507    11420.629     1000 
 1522000   0.53303109   -2.0045158   0.79874709   -1.2057687   0.12253612    11442.212     1000 
 1524000   0.53091683   -1.9391105   0.79557887   -1.1435317   0.12946902    11353.588     1000 
 1526000   0.54668667   -1.9306054   0.81920997   -1.1113954   0.13739143    11221.286     1000 
 1528000   0.55319827   -1.9143329   0.82896761   -1.0853652   0.13165752    11289.637     1000 
 1530000    0.5629578   -1.9852809   0.84359226   -1.1416887   0.13440466    11519.497     1000 
 1532000   0.54612135   -1.9028491   0.81836285   -1.0844862   0.13517507     11055.84     1000 
 1534000   0.54938282    -1.963437   0.82325015   -1.1401868   0.12649123    11321.725     1000 
 1536000   0.54736043   -1.8951109   0.82021961   -1.0748913   0.11136918    11390.318     1000 
 1538000   0.51790197   -1.9755406   0.77607611   -1.1994645   0.12572543    11274.694     1000 
 1540000   0.55940517   -1.9142308   0.83826865   -1.0759622   0.13759344    11255.524     1000 
 1542000   0.54149693   -1.9215853   0.81143315   -1.1101521   0.12340665    11444.064     1000 
 1544000   0.55808839    -1.968495   0.83629545   -1.1321996   0.13125964    11329.707     1000 
 1546000   0.53090065   -1.9186961   0.79555463   -1.1231415   0.13505612    11271.114     1000 
 1548000   0.54238195   -1.9770466   0.81275935   -1.1642873   0.13485655    11284.152     1000 
 1550000   0.55592338   -1.9058827   0.83305119   -1.0728315   0.12438726    11281.711     1000 
 1552000    0.5472926   -1.9303888   0.82011795   -1.1102709   0.14542363    11304.084     1000 
 1554000     0.551811    -1.949882   0.82688879   -1.1229932   0.13074243    11217.011     1000 
 1556000   0.55795052   -1.9811681   0.83608885   -1.1450792   0.14241125    11144.957     1000 
 1558000   0.54151064    -1.927609   0.81145369   -1.1161553   0.11901576    11387.415     1000 
 1560000   0.53842505   -1.9663399   0.80682994     -1.15951   0.13280112    11276.621     1000 
 1562000   0.53386407   -1.9763795   0.79999531   -1.1763842   0.12431694    11338.015     1000 
 1564000   0.54565401   -1.9392534   0.81766253   -1.1215908   0.13035347    11454.504     1000 
 1566000   0.54644145   -1.9063014   0.81884252   -1.0874589   0.13561167    11250.813     1000 
 1568000   0.55114105   -2.0085973   0.82588487   -1.1827124   0.12465442    11335.502     1000 
 1570000   0.54086863     -1.97196   0.81049164   -1.1614684   0.12541993    11450.114     1000 
 1572000   0.53817422   -1.9563914   0.80645406   -1.1499373   0.14618711    11163.469     1000 
 1574000   0.54509653   -1.9518238   0.81682714   -1.1349966   0.14711567    11155.077     1000 
 1576000   0.56238238   -1.9388045   0.84272999   -1.0960745   0.13275765    11324.384     1000 
 1578000   0.53359253   -1.9546983    0.7995884   -1.1551099   0.10959884    11461.018     1000 
 1580000   0.54264008   -1.9104003   0.81314617   -1.0972542   0.12881534    11453.392     1000 
 1582000    0.5634932   -2.0031626   0.84439457    -1.158768   0.13843481    11323.899     1000 
 1584000   0.55546484   -1.9591288   0.83236406   -1.1267648   0.12330796    11265.896     1000 
 1586000   0.55099465   -1.9485314   0.82566549   -1.1228659   0.14306887    11342.281     1000 
 1588000   0.53674107   -1.9154191   0.80430649   -1.1111126   0.12743887    11326.086     1000 
 1590000   0.54517919   -1.9544005   0.81695101   -1.1374495    0.1314627    11308.526     1000 
 1592000   0.52992732    -1.862657   0.79409608   -1.0685609   0.12811987    11372.347     1000 
 1594000   0.56012785   -2.0007695   0.83935159   -1.1614179   0.14037974    11330.107     1000 
 1596000   0.55708494   -1.9722198   0.83479178    -1.137428   0.13620396    11342.603     1000 
[...]
 2612000   0.55540928   -1.9360762    0.8322808   -1.1037954   0.12980637    11326.406     1000 
 2614000   0.55736406     -1.95668   0.83521005   -1.1214699   0.11492477    11488.489     1000 
 2616000   0.57026703   -1.9525642   0.85454515   -1.0980191     0.129656    11312.683     1000 
 2618000    0.5396508   -1.9800417   0.80866672    -1.171375   0.13173662    11280.256     1000 
 2620000    0.5445938   -1.9437329    0.8160738   -1.1276591   0.12453533    11487.112     1000 
 2622000   0.57198988   -1.9323672   0.85712684   -1.0752404   0.14262657    11232.385     1000 
 2624000   0.55914689   -1.9547944   0.83788162   -1.1169128   0.13033724    11253.188     1000 
 2626000   0.54720383   -1.9569909   0.81998493    -1.137006   0.13336649    11224.116     1000 
 2628000    0.5469957   -1.9388691   0.81967306   -1.1191961   0.12981166    11342.907     1000 
 2630000   0.55164877    -1.959104   0.82664569   -1.1324583   0.12949591     11448.24     1000 
 2632000   0.55025176   -1.9483592   0.82455226    -1.123807   0.13197697     11348.46     1000 
 2634000   0.56530527   -1.9462057   0.84710995   -1.0990958   0.12753223    11389.574     1000 
 2636000   0.53166995   -1.9881234   0.79670742    -1.191416   0.13643499    11255.062     1000 
 2638000   0.57006735   -1.9784536   0.85424592   -1.1242077   0.13362741    11407.251     1000 
 2640000   0.54083047   -1.9927485   0.81043446    -1.182314   0.12792979    11320.376     1000 
 2642000   0.55432273   -1.9566466   0.83065261    -1.125994   0.12659543    11367.153     1000 
 2644000   0.54666616   -1.9211383   0.81917923   -1.1019591   0.13406176    11210.989     1000 
 2646000   0.53804784   -1.9587367   0.80626469   -1.1524721     0.121419    11371.247     1000 
 2648000   0.53658946   -1.9632613   0.80407931    -1.159182   0.12447916    11421.613     1000 
 2650000   0.53130595   -1.9316039   0.79616196   -1.1354419   0.14860645    11121.146     1000 
 2652000   0.55841604   -1.9618344   0.83678644    -1.125048   0.10949418    11506.578     1000 
 2654000   0.53639203   -2.0030996   0.80378346   -1.1993162   0.11761522    11493.349     1000 
 2656000   0.55961039   -1.9148926   0.83857617   -1.0763164   0.13757993    11222.205     1000 
 2658000   0.56833721   -1.9368134   0.85165331   -1.0851601   0.12655725    11220.053     1000 
 2660000   0.53290236   -1.9709993   0.79855418   -1.1724451   0.12018643    11256.184     1000 
 2662000   0.55579093   -1.9815942   0.83285272   -1.1487415   0.12123385    11314.417     1000 
 2664000   0.56712551   -1.9906418   0.84983758   -1.1408043   0.11885934    11390.172     1000 
 2666000    0.5619527   -1.9498047   0.84208613   -1.1077186   0.12747657    11275.909     1000 
 2668000   0.54822014   -1.9176464   0.82150787   -1.0961385   0.13327836    11292.598     1000 
 2670000    0.5365327   -1.9475023   0.80399425    -1.143508   0.12807135    11208.134     1000 
 2672000   0.54524223   -1.9404778   0.81704549   -1.1234323   0.13180607    11165.462     1000 
 2674000   0.55487951   -1.9194198   0.83148694   -1.0879329   0.13013913    11412.419     1000 
 2676000   0.55242681   -1.9451091   0.82781158   -1.1172975   0.14103235    11274.848     1000 
 2678000   0.54156341   -1.9634667   0.81153277   -1.1519339   0.14784593     11200.81     1000 
 2680000    0.5581927   -1.9742854   0.83645176   -1.1378336   0.12172249    11426.297     1000 
 2682000   0.55254127   -1.8534858   0.82798309   -1.0255027   0.12293858    11413.109     1000 
 2684000   0.55372002   -1.9539855   0.82974945    -1.124236    0.1285567    11414.029     1000 
 2686000   0.53119246    -1.970822   0.79599189   -1.1748301   0.12093458    11294.578     1000 
 2688000   0.56036679   -1.9441538   0.83970963   -1.1044442   0.13856344    11124.268     1000 
 2690000    0.5688185   -1.8875285   0.85237453   -1.0351539   0.13120281    11241.842     1000 
 2692000    0.5358296   -1.9252754   0.80294066   -1.1223348   0.13728589    11311.703     1000 
 2694000   0.56444632   -1.9251441   0.84582281   -1.0793213   0.13445441    11191.231     1000 
 2696000    0.5583488   -1.9823011   0.83668567   -1.1456154   0.13413711    11186.077     1000 
 2698000    0.5601008   -1.9418855   0.83931105   -1.1025744   0.12998432    11315.514     1000 
 2700000   0.55050167    -1.964831   0.82492675   -1.1399043   0.13105291    11366.641     1000 
 2702000   0.56647594   -1.9652626    0.8488642   -1.1163984   0.12789355    11422.746     1000 
 2704000   0.55593055   -1.9259989   0.83306192    -1.092937   0.14050143     11159.04     1000 
 2706000   0.56446657   -1.9805474   0.84585316   -1.1346943   0.12476176    11392.645     1000 
 2708000   0.55895993   -1.9335761   0.83760145   -1.0959747   0.13414278    11363.293     1000 
 2710000   0.56470447   -1.9495953   0.84620965   -1.1033856   0.14381302    11310.644     1000 
 2712000   0.54916914   -1.9525518   0.82292995   -1.1296218   0.12734683    11415.504     1000 
 2714000   0.53242187   -1.9340487   0.79783417   -1.1362146   0.13160979    11243.932     1000 
 2716000   0.55063603   -1.9319905   0.82512809   -1.1068624   0.13123028    11327.594     1000 
 2718000   0.55858547   -1.9908425   0.83704032   -1.1538022   0.12490834    11369.626     1000 
 2720000   0.54808108   -1.9225374    0.8212995   -1.1012379     0.127228    11266.993     1000 
 2722000   0.54874295   -1.9542777   0.82229131   -1.1319864   0.13365338    11221.428     1000 
 2724000   0.56156798   -1.9616946   0.84150962    -1.120185    0.1294227    11299.415     1000 
 2726000   0.54372747   -1.9764696   0.81477562    -1.161694   0.13111595    11324.861     1000 
 2728000   0.56099591   -1.9115399   0.84065237   -1.0708875   0.13806651    11077.857     1000 
 2730000   0.55350119   -1.9558396   0.82942154   -1.1264181   0.14238705      11123.4     1000 
 2732000   0.53343551    -1.937523   0.79935312   -1.1381699   0.12740736    11348.511     1000 
 2734000   0.54866521   -1.9192082   0.82217481   -1.0970334   0.12305226    11395.861     1000 
 2736000   0.56759033   -1.9702168   0.85053411   -1.1196826   0.13597957    11330.855     1000 
 2738000   0.58409059   -2.0209102   0.87525975   -1.1456505   0.11759706      11540.7     1000 
 2740000   0.54227632   -1.9068747   0.81260106   -1.0942736   0.13075134    11378.823     1000 
 2742000   0.55221575   -1.9500974    0.8274953   -1.1226021   0.13835597    11195.637     1000 
 2744000    0.5493862   -1.9894209   0.82325523   -1.1661657   0.12537652    11384.698     1000 
 2746000   0.53949451   -1.9113669   0.80843253   -1.1029344   0.13357333    11189.393     1000 
 2748000   0.55269847   -1.9413307   0.82821866    -1.113112   0.14166178    11325.101     1000 
 2750000   0.55759955   -1.9394705   0.83556293   -1.1039076   0.13895969    11196.395     1000 
 2752000   0.54651193   -1.9690749   0.81894813   -1.1501267   0.12760104     11310.68     1000 
 2754000   0.54446662   -1.9751781   0.81588323   -1.1592948   0.12636055    11494.489     1000 
 2756000   0.56843973   -1.9575047   0.85180693   -1.1056977   0.12587132    11491.251     1000 
 2758000   0.55318331   -1.9930817    0.8289452   -1.1641365   0.13293504    11359.833     1000 
 2760000   0.56897811   -1.9698562    0.8526137   -1.1172425   0.13277323    11217.521     1000 
 2762000   0.58052336   -1.9991256   0.86991426   -1.1292113   0.13440268    11254.208     1000 
 2764000   0.53487327   -2.0013066   0.80150759    -1.199799    0.1235146    11361.141     1000 
 2766000   0.54536123   -1.9629551   0.81722381   -1.1457313   0.13576602    11107.475     1000 
 2768000   0.56766163    -1.979757   0.85064095    -1.129116   0.12585675     11302.06     1000 
 2770000   0.57019777   -1.9402268   0.85444136   -1.0857854   0.13258883    11471.253     1000 
 2772000   0.52971321   -1.9699013   0.79377525   -1.1761261   0.13293656    11248.191     1000 
 2774000   0.56384831   -1.9391718   0.84492669   -1.0942451   0.12554533    11296.261     1000 
 2776000    0.5774902   -1.9809313   0.86536906   -1.1155622   0.13472058      11414.9     1000 
 2778000    0.5584283   -1.9327073   0.83680481   -1.0959025   0.13112902    11225.452     1000 
 2780000   0.52808741   -1.9028367   0.79133898   -1.1114977   0.13359305    11216.703     1000 
 2782000   0.54851938   -1.9083559   0.82195629   -1.0863996    0.1258139    11334.508     1000 
 2784000   0.54142098   -1.9009914   0.81131934    -1.089672   0.14398885    11076.376     1000 
 2786000   0.52854232   -1.9550011   0.79202066   -1.1629804   0.12852867     11336.57     1000 
 2788000   0.54219081   -1.8758889   0.81247293    -1.063416   0.14448949    11190.283     1000 
 2790000   0.59132181   -1.9744989   0.88609573   -1.0884032    0.1363558    11349.323     1000 
 2792000   0.55664316   -1.9615382   0.83412977   -1.1274084   0.12372346    11466.331     1000 
 2794000   0.55701117   -1.8965963   0.83468124   -1.0619151   0.12721202    11358.956     1000 
 2796000   0.53792693    -1.953904   0.80608351   -1.1478204   0.12882322    11340.707     1000 
 2798000   0.56024277   -1.9554488   0.83952379    -1.115925   0.13394461    11190.723     1000 
 2800000    0.5678766   -1.9745919   0.85096309   -1.1236288     0.142316    11247.438     1000 
 2802000   0.54112697   -2.0092689   0.81087877   -1.1983901   0.13427807     11310.11     1000 
 2804000    0.5503889   -1.9626524   0.82475777   -1.1378947   0.12826453    11331.326     1000 
 2806000    0.5509816   -1.9529475   0.82564592   -1.1273016   0.13499867    11325.959     1000 
 2808000   0.54563773    -2.009788   0.81763814   -1.1921499   0.12474327    11407.993     1000 
 2810000   0.55185208   -1.9275301   0.82695034   -1.1005798   0.13082271    11380.052     1000 
 2812000   0.57774551   -1.9093967   0.86575165   -1.0436451   0.12130026    11407.067     1000 
 2814000   0.55251566    -1.938719   0.82794471   -1.1107743   0.13054474    11296.739     1000 
 2816000   0.55578743   -1.9534738   0.83284746   -1.1206263   0.13911682    11227.501     1000 
 2818000   0.52671264   -1.9522081   0.78927889   -1.1629292   0.12826666    11361.848     1000 
 2820000    0.5475307   -1.9685063   0.82047476   -1.1480316   0.11601839    11477.219     1000 
 2822000   0.55667657   -2.0070733   0.83417984   -1.1728935    0.1267562    11399.079     1000 
 2824000   0.55544894   -1.9335277   0.83234023   -1.1011875   0.12910694    11220.862     1000 
 2826000    0.5517894   -1.9427363   0.82685641   -1.1158799   0.13195148    11389.529     1000 
 2828000   0.55309061   -1.9468265   0.82880627   -1.1180203   0.12955445     11215.68     1000 
 2830000   0.53847955   -2.0037432   0.80691161   -1.1968316   0.12670576    11326.651     1000 
 2832000   0.54477187    -1.913679   0.81634065   -1.0973383   0.14307709    11215.576     1000 
 2834000   0.53827388   -1.9728863    0.8066034   -1.1662829   0.14791545    11308.913     1000 
 2836000   0.53044948    -1.956349   0.79487855   -1.1614705   0.12264922    11404.802     1000 
 2838000   0.57815402   -1.9147097    0.8663638   -1.0483459    0.1383336    11257.658     1000 
 2840000   0.54215572   -1.9507735   0.81242034   -1.1383531   0.12575082    11381.667     1000 
 2842000   0.55210849    -1.962208   0.82733457   -1.1348735   0.13140567    11407.114     1000 
 2844000   0.52376004   -1.9490033   0.78485441   -1.1641489   0.12396738    11318.908     1000 
 2846000   0.55623846   -1.9546134   0.83352334   -1.1210901   0.12383857    11334.801     1000 
 2848000   0.55124004   -1.9617161   0.82603319   -1.1356829    0.1305027    11245.094     1000 
 2850000   0.55053628   -1.9279532   0.82497862   -1.1029746    0.1232335    11329.467     1000 
 2852000   0.52763747   -1.9641138   0.79066474    -1.173449   0.12412115    11559.246     1000 
 2854000   0.55025764   -1.9452751   0.82456107   -1.1207141   0.12335285    11635.307     1000 
 2856000   0.55505642   -1.9403774   0.83175204   -1.1086254   0.12145818    11421.882     1000 
 2858000   0.55558053   -1.9276414   0.83253743   -1.0951039   0.12233025    11406.013     1000 
 2860000   0.54941765   -1.8842087   0.82330235   -1.0609063   0.12666382     11258.38     1000 
 2862000   0.55706327   -1.8972888   0.83475931   -1.0625295   0.12803171    11295.882     1000 
 2864000   0.55854094   -1.9935528   0.83697359   -1.1565792   0.13476471     11301.83     1000 
 2866000   0.55237774   -1.9250288   0.82773805   -1.0972907   0.12433399    11323.123     1000 
 2868000   0.56190886   -2.0071064   0.84202043   -1.1650859   0.10540755    11576.923     1000 
 2870000   0.54618387   -1.9568535   0.81845653    -1.138397       0.1437    11135.506     1000 
 2872000   0.53691245   -1.9191977    0.8045633   -1.1146344   0.13759607     11250.94     1000 
 2874000    0.5507566   -1.9461359   0.82530877   -1.1208271   0.10618237    11579.488     1000 
 2876000   0.55809435   -1.9242934   0.83630439    -1.087989   0.12335582    11394.532     1000 
 2878000   0.55044619   -1.9439533   0.82484361   -1.1191096   0.13156793    11187.416     1000 
 2880000   0.56764376   -1.9318704   0.85061418   -1.0812562   0.14154291    11213.363     1000 
 2882000   0.56431724   -1.9747024   0.84562939    -1.129073   0.12978394    11458.891     1000 
 2884000   0.57312718   -1.9620035   0.85883107   -1.1031725   0.15541767    11269.144     1000 
 2886000   0.56934876   -1.9608523   0.85316911   -1.1076832   0.12457914    11439.636     1000 
 2888000   0.56979929   -1.9235875   0.85384424   -1.0697432   0.14123025     11212.79     1000 
 2890000    0.5428825    -1.962147   0.81350943   -1.1486376   0.12180079    11450.543     1000 
 2892000   0.55454808   -1.9685914   0.83099029   -1.1376011     0.130682    11169.764     1000 
 2894000   0.56838601   -1.9652936   0.85172643   -1.1135672   0.13499558    11277.505     1000 
 2896000    0.5498133    -1.956296   0.82389523   -1.1324008   0.12272447    11347.733     1000 
 2898000   0.56703733   -1.9872602   0.84970543   -1.1375547   0.13735988    11161.811     1000 
 2900000   0.55499801   -1.9648923   0.83166452   -1.1332278   0.13353919    11344.408     1000 
 2902000   0.54468675   -1.9545699    0.8162131   -1.1383568   0.13337413    11263.543     1000 
 2904000   0.52079365   -1.9492251   0.78040928   -1.1688158   0.11510622    11243.949     1000 
 2906000   0.52727704   -1.9308962   0.79012464   -1.1407715   0.13191288      11347.8     1000 
 2908000   0.55058924   -1.9755269   0.82505798   -1.1504689   0.13784637    11251.857     1000 
 2910000   0.55755421   -1.9989957   0.83549499   -1.1635007   0.13212178    11480.098     1000 
 2912000   0.54673673   -1.9398296   0.81928499   -1.1205446   0.13048542    11353.542     1000 
 2914000    0.5463706   -1.9806509   0.81873634   -1.1619145   0.13598456    11431.822     1000 
 2916000    0.5327765   -1.9083182   0.79836558   -1.1099526   0.12941055     11329.73     1000 
 2918000   0.55876431    -2.003605   0.83730832   -1.1662967   0.13431378     11336.88     1000 
 2920000   0.54097255   -1.9686401   0.81064736   -1.1579927   0.14013556    11238.444     1000 
 2922000   0.55964225   -1.9692552   0.83862391   -1.1306313   0.13032292    11307.099     1000 
 2924000   0.56807927   -2.0039122   0.85126678   -1.1526454   0.13599512     11195.71     1000 
 2926000   0.54170921   -1.9381129   0.81175126   -1.1263616   0.13269219    11146.479     1000 
 2928000   0.54020801   -2.0138913   0.80950171   -1.2043896   0.12840965    11363.531     1000 
 2930000   0.54447052   -1.9358049   0.81588908   -1.1199158   0.12136663    11426.011     1000 
 2932000   0.54834668   -1.9605024   0.82169751   -1.1388049   0.13263916    11321.291     1000 
 2934000   0.56095141   -1.9793146   0.84058568   -1.1387289   0.13062947    11343.323     1000 
 2936000   0.56477411   -1.9044583     0.846314   -1.0581443    0.1336156     11244.69     1000 
 2938000    0.5736105   -1.9335593   0.85955533    -1.074004   0.11974654    11385.365     1000 
 2940000   0.53741338   -1.9296388   0.80531395   -1.1243249   0.12939458     11159.63     1000 
 2942000    0.5670641   -1.9256053   0.84974555   -1.0758598   0.13227634    11259.237     1000 
 2944000   0.54498268   -1.9637758   0.81665654   -1.1471192    0.1275431    11399.327     1000 
 2946000   0.57235023   -1.9793593   0.85766682   -1.1216925   0.13510325    11271.313     1000 
 2948000   0.55222228   -1.9141768   0.82750508   -1.0866718   0.12351458    11446.169     1000 
 2950000   0.57189638   -1.9791191   0.85698672   -1.1221324   0.11516229    11524.272     1000 
 2952000   0.54498841   -1.9523816   0.81666514   -1.1357164   0.13261204    11377.906     1000 
 2954000   0.53749606   -1.9474422   0.80543785   -1.1420043   0.12682599    11452.865     1000 
 2956000   0.57583207   -1.9354543   0.86288435   -1.0725699   0.13623582     11271.52     1000 
 2958000   0.55873884   -1.9349558   0.83727015   -1.0976857   0.12580207    11377.945     1000 
 2960000   0.56025248    -1.981116   0.83953835   -1.1415776   0.14064895    11202.548     1000 
 2962000   0.53704479   -2.0303496   0.80476161    -1.225588   0.11328674    11515.992     1000 
 2964000   0.54844842   -1.9139731   0.82184996   -1.0921232    0.1350978    11318.771     1000 
 2966000   0.54479119   -1.9609553    0.8163696   -1.1445857    0.1390522    11257.861     1000 
 2968000   0.52680798   -1.9865014   0.78942175   -1.1970796   0.13682245    11346.259     1000 
 2970000    0.5544976   -1.8825434   0.83091465   -1.0516288   0.14314985    11206.735     1000 
 2972000    0.5335543   -1.9191491   0.79953111    -1.119618   0.14023871    11274.705     1000 
 2974000   0.53567449   -1.9135785   0.80270823   -1.1108703   0.13889752    11116.468     1000 
 2976000   0.54240052   -1.9892448   0.81278718   -1.1764577   0.12457602    11299.477     1000 
 2978000   0.57148519   -1.9198251   0.85637056   -1.0634545   0.12585353     11321.01     1000 
 2980000    0.5500423   -1.9613036   0.82423839   -1.1370652   0.13684778    11107.531     1000 
 2982000   0.56766035   -1.9713685   0.85063903   -1.1207295   0.12502005    11393.507     1000 
 2984000   0.54251732   -1.9866947   0.81296221   -1.1737325   0.13333179    11219.152     1000 
 2986000   0.57406219   -1.9390193    0.8602322   -1.0787871   0.12692648    11320.608     1000 
 2988000   0.55244977   -1.9828831   0.82784597   -1.1550371   0.14305342    11302.248     1000 
 2990000   0.55700988   -1.9676427   0.83467931   -1.1329634   0.12859303    11368.356     1000 
 2992000   0.53972428   -1.9279566   0.80877684   -1.1191798   0.12638056    11589.748     1000 
 2994000   0.52618266   -1.9550294   0.78848472   -1.1665447   0.13762386    11311.354     1000 
 2996000   0.54017568    -1.956597   0.80945326   -1.1471438     0.126765    11365.027     1000 
 2998000   0.54883816   -1.9772559   0.82243398   -1.1548219   0.12258099    11435.634     1000 
 3000000   0.53229022   -1.9487214   0.79763689   -1.1510845   0.13657398    11204.609     1000 
Loop time of 1951.54 on 4 procs for 3000000 steps with 1000 atoms

Performance: 664090.757 tau/day, 1537.247 timesteps/s
96.8% CPU use with 4 MPI tasks x no OpenMP threads

MPI task timing breakdown:
Section |  min time  |  avg time  |  max time  |%varavg| %total
---------------------------------------------------------------
Pair    | 1465       | 1538       | 1607.3     | 136.9 | 78.81
Neigh   | 115.02     | 116.85     | 118.66     |  12.8 |  5.99
Comm    | 170.26     | 241.45     | 316.32     | 355.0 | 12.37
Output  | 0.027794   | 0.030956   | 0.040142   |   3.0 |  0.00
Modify  | 45.952     | 46.06      | 46.193     |   1.5 |  2.36
Other   |            | 9.117      |            |       |  0.47

Nlocal:    250 ave 251 max 249 min
Histogram: 1 0 0 0 0 2 0 0 0 1
Nghost:    2439 ave 2454 max 2425 min
Histogram: 1 0 0 0 2 0 0 0 0 1
Neighs:    26519 ave 27591 max 25405 min
Histogram: 1 0 1 0 0 0 0 1 0 1

Total # of neighbors = 106076
Ave neighs/atom = 106.076
Neighbor list builds = 150000
Dangerous builds not checked

Total wall time: 0:32:31
