LAMMPS (3 Mar 2020)
# ----------------------- Inicialização -----------------------

units			lj
atom_style 		atomic
dimension 		3
boundary 		p p p

# -------------------- Criação dos Átomos ---------------------

read_data 		topologia.txt
  orthogonal box = (0 0 0) to (21.54 21.54 21.54)
  1 by 2 by 2 MPI processor grid
  reading atoms ...
  1000 atoms
  read_data CPU = 0.00135583 secs

velocity 		all create ${temp} 87287 rot yes dist gaussian
velocity 		all create 0.75 87287 rot yes dist gaussian

# ------------------ Interação Interatômica -------------------

pair_style		table linear 1300
pair_coeff		1 1 force.table AA 6.5
WARNING: 2 of 1300 force values in table are inconsistent with -dE/dr.
  Should only be flagged at inflection points (src/pair_table.cpp:483)
pair_coeff		1 2 force.table AB 6.5
WARNING: 1 of 1300 force values in table are inconsistent with -dE/dr.
  Should only be flagged at inflection points (src/pair_table.cpp:483)
pair_coeff		2 2 force.table BB 6.5
pair_write		1 1 1600 r 0.008 6.5 table.check AA
Neighbor list info ...
  update every 1 steps, delay 10 steps, check yes
  max neighbors/atom: 2000, page size: 100000
  master list distance cutoff = 6.8
  ghost atom cutoff = 6.8
  binsize = 3.4, bins = 7 7 7
  1 neighbor lists, perpetual/occasional/extra = 1 0 0
  (1) pair table, perpetual
      attributes: half, newton on
      pair build: half/bin/atomonly/newton
      stencil: half/bin/3d/newton
      bin: standard
pair_write		1 2 1600 r 0.008 6.5 table.check AB
pair_write		2 2 1600 r 0.008 6.5 table.check BB

neighbor 		0.3 bin
neigh_modify	every 20 delay 0 check no

# ------------------------- Ensemble --------------------------------------

fix 1			all npt temp ${temp} ${temp} 0.5 iso ${press} ${press} 5
fix 1			all npt temp 0.75 ${temp} 0.5 iso ${press} ${press} 5
fix 1			all npt temp 0.75 0.75 0.5 iso ${press} ${press} 5
fix 1			all npt temp 0.75 0.75 0.5 iso 0.13 ${press} 5
fix 1			all npt temp 0.75 0.75 0.5 iso 0.13 0.13 5

# ---------------------- Função de Distribuição Radial -----------------------

#compute RDF 	all rdf 2000 1 1 1 2 2 2
#fix 2 			all ave/time 1 2000 2000 c_RDF[*] file rdf.data mode vector

# ------------------------- Execução ---------------------------

timestep 		0.005
thermo_style	custom step temp pe ke etotal press vol atoms
thermo			2000
run				3000000
Per MPI rank memory allocation (min/avg/max) = 2.675 | 2.675 | 2.675 Mbytes
Step Temp PotEng KinEng TotEng Press Volume Atoms 
       0         0.75   0.20088932     1.123875    1.3247643   0.87834148    9993.9483     1000 
    2000   0.75193219   -1.5867204    1.1267704  -0.45995004   0.13626863    11708.275     1000 
    4000   0.75580906   -1.6457862    1.1325799  -0.51320632   0.12762547    11844.147     1000 
    6000     0.772799    -1.560343    1.1580393   -0.4023037    0.1377662    11628.726     1000 
    8000   0.73635499   -1.6037738    1.1034279   -0.5003458   0.12810147    11854.908     1000 
   10000   0.74673783   -1.6295103    1.1189866  -0.51052369   0.14755439    11642.714     1000 
   12000   0.75795203   -1.6571575    1.1357911  -0.52136638    0.1242207    11869.399     1000 
   14000   0.73556986   -1.5839166    1.1022514  -0.48166519   0.12638762     11667.13     1000 
   16000   0.73655337   -1.6686474    1.1037252  -0.56492222   0.12187213    11892.208     1000 
   18000   0.74283951   -1.6938732     1.113145  -0.58072821   0.14017217    11725.394     1000 
   20000   0.71669241   -1.6595586    1.0739636  -0.58559499   0.13214642    11733.965     1000 
   22000   0.74012939   -1.6828355    1.1090839  -0.57375162   0.11312937    12050.373     1000 
   24000   0.76377879   -1.6652201    1.1445225  -0.52069759   0.11741337     11925.49     1000 
   26000   0.75578824   -1.6251864    1.1325487  -0.49263772   0.13901526    11509.021     1000 
   28000   0.73801181   -1.6593966    1.1059107  -0.55348593   0.12727577    11796.064     1000 
   30000   0.72840306   -1.6333943     1.091512  -0.54188235   0.12585867    11716.698     1000 
   32000   0.75356613   -1.6681424    1.1292188  -0.53892358   0.14999263     11690.11     1000 
   34000   0.73756946    -1.601593    1.1052478  -0.49634516   0.13795169    11743.227     1000 
   36000   0.75968402   -1.6473803    1.1383865  -0.50899378   0.13010737    11924.054     1000 
   38000   0.74728419   -1.6238744    1.1198054  -0.50406907   0.12004788    11857.768     1000 
   40000   0.76758271   -1.6238509    1.1502227  -0.47362823   0.13933451    11482.787     1000 
   42000   0.74433127   -1.6318011    1.1153804  -0.51642066   0.12682508    11682.804     1000 
   44000   0.71611275   -1.6907663     1.073095  -0.61767133   0.12458241    11990.035     1000 
   46000   0.77526814   -1.5763807    1.1617393   -0.4146414   0.12912721    11824.975     1000 
   48000    0.7422142   -1.6380329     1.112208  -0.52582488   0.12797691    11858.765     1000 
   50000   0.73424028   -1.6532026    1.1002591  -0.55294355   0.11806787    11922.841     1000 
   52000   0.75156994   -1.6948605    1.1262276  -0.56863292   0.12131687    11938.686     1000 
   54000   0.74569483   -1.6442922    1.1174237  -0.52686854   0.14100351    11559.223     1000 
   56000   0.74323301   -1.6812818    1.1137347  -0.56754716   0.13342308    11817.463     1000 
   58000   0.74941169   -1.6144767    1.1229934  -0.49148328   0.12651296    11752.121     1000 
   60000   0.73239013   -1.6895338    1.0974866  -0.59204717   0.12562476    11779.412     1000 
   62000   0.71125965   -1.6392869    1.0658226  -0.57346435   0.11828511    11897.077     1000 
   64000   0.72698185   -1.6327477    1.0893823   -0.5433654   0.13086261    11910.536     1000 
   66000   0.73474988   -1.6560534    1.1010227  -0.55503066   0.12737139    11905.349     1000 
   68000   0.75783147   -1.6297264    1.1356105  -0.49411591   0.14198454    11567.007     1000 
   70000   0.73676196   -1.6339076    1.1040378  -0.52986983   0.13083211    11802.365     1000 
   72000   0.77452684   -1.7050583    1.1606285   -0.5444298   0.13768268    11812.718     1000 
   74000   0.75460755   -1.6403765    1.1307794  -0.50959712   0.11683742    11955.187     1000 
   76000   0.75458332   -1.6986458    1.1307431  -0.56790271   0.12313828    11914.325     1000 
   78000   0.74012979   -1.5791893    1.1090845  -0.47010478     0.130967    11924.656     1000 
   80000   0.75995321   -1.6090604    1.1387899  -0.47027056   0.12691245    11666.602     1000 
   82000   0.74354997   -1.6469244    1.1142096  -0.53271472   0.12786878    11784.921     1000 
   84000    0.7490254   -1.6633577    1.1224146  -0.54094311   0.11864165    11788.546     1000 
   86000   0.73699905   -1.6448823    1.1043931  -0.54048922   0.12819159    11787.509     1000 
   88000   0.74027454   -1.6535769    1.1093014  -0.54427554   0.14421235    11703.532     1000 
   90000   0.74167089   -1.5560122    1.1113938  -0.44461839   0.14087552     11685.22     1000 
   92000   0.73987775   -1.6513539    1.1087068  -0.54264706   0.10698361    12165.528     1000 
   94000   0.76855474   -1.6812506    1.1516793  -0.52957131   0.13035903    11778.686     1000 
   96000   0.72857109   -1.6843467    1.0917638  -0.59258288   0.11855973    12137.323     1000 
   98000   0.75543466   -1.7025013    1.1320188  -0.57048243   0.11669341    11926.351     1000 
  100000   0.74500552    -1.636449    1.1163908  -0.52005827   0.13615274    11451.955     1000 
  102000   0.72946763   -1.6100517    1.0931072  -0.51694447   0.13488675    11755.614     1000 
  104000   0.78971437   -1.6669314     1.183387  -0.48354444   0.12999297    11806.326     1000 
  106000   0.75439584   -1.5954059    1.1304622  -0.46494371   0.14578541    11712.844     1000 
  108000   0.75293837   -1.6774312    1.1282782  -0.54915309   0.13754632    11804.441     1000 
  110000   0.76485347   -1.6092502    1.1461329  -0.46311723   0.13347223    11656.369     1000 
  112000   0.70846081   -1.6898896    1.0616285  -0.62826111   0.12493288     11768.48     1000 
  114000   0.73540278   -1.6741829    1.1020011  -0.57218179   0.13710338    11526.275     1000 
  116000   0.78700127   -1.5989157    1.1793214  -0.41959427   0.14857815    11543.543     1000 
  118000   0.75164567   -1.6222855     1.126341  -0.49594442   0.12445258    11744.257     1000 
  120000   0.78526567   -1.6368867    1.1767206  -0.46016613   0.12789256    11818.238     1000 
  122000   0.76933021   -1.6105711    1.1528413  -0.45772975   0.13507815    11615.209     1000 
  124000   0.75303633   -1.6090023    1.1284249   -0.4805774   0.13800054    11733.932     1000 
  126000   0.73210152   -1.6187056    1.0970541  -0.52165148   0.13160838    12019.238     1000 
  128000   0.73332291   -1.7023096    1.0988844   -0.6034252    0.1222729     11915.91     1000 
  130000   0.76818576   -1.6029149    1.1511264  -0.45178851   0.13322743    11803.282     1000 
  132000   0.71869671   -1.6561047     1.076967  -0.57913768   0.13167049    11812.934     1000 
  134000   0.75601757   -1.6372676    1.1328923  -0.50437527   0.13792974    11798.675     1000 
  136000   0.76062939   -1.6017306    1.1398031  -0.46192748   0.12989604    11746.731     1000 
  138000   0.75373723   -1.6710314    1.1294752  -0.54155614    0.1272499    11780.885     1000 
  140000   0.77080656   -1.5850824    1.1550536  -0.43002874   0.13042625    11828.397     1000 
  142000   0.74012924   -1.6283271    1.1090837  -0.51924342   0.13904888    11789.637     1000 
  144000   0.74923139   -1.6481572    1.1227232  -0.52543396   0.12704814    11999.934     1000 
  146000    0.7707884   -1.6616027    1.1550264  -0.50657627   0.13629528    11565.578     1000 
  148000   0.75864621   -1.5950115    1.1368313  -0.45818019    0.1264222    11748.369     1000 
  150000   0.77743135   -1.6267135    1.1649809  -0.46173262   0.13712727    11786.668     1000 
  152000   0.73283579   -1.6821112    1.0981544  -0.58395679   0.13624103    11821.853     1000 
  154000   0.74938153    -1.605356    1.1229482  -0.48240782   0.12123297    11658.325     1000 
  156000   0.73412249   -1.6776248    1.1000826  -0.57754226   0.13955354    11627.156     1000 
  158000   0.75935269   -1.6976403      1.13789  -0.55975028   0.12190075    11988.325     1000 
  160000   0.74483551   -1.6469122     1.116136  -0.53077614   0.13914893    11773.291     1000 
  162000   0.71835924   -1.6305185    1.0764613  -0.55405717   0.13193717    11710.899     1000 
  164000   0.73705967   -1.6598976    1.1044839  -0.55541366   0.11974336    11833.613     1000 
  166000   0.72493475    -1.627115    1.0863147  -0.54080028   0.12497578    12090.756     1000 
  168000   0.73531865   -1.6115416     1.101875  -0.50966657   0.13444691    11608.157     1000 
  170000    0.7556296   -1.6547051     1.132311   -0.5223941   0.12542254    11951.055     1000 
  172000   0.74769296   -1.6386934    1.1204179  -0.51827554   0.14288747    11715.839     1000 
  174000   0.78535719   -1.6008245    1.1768577  -0.42396673   0.13875295    11616.941     1000 
  176000   0.73602171   -1.6438338    1.1029285  -0.54090525   0.12381391    11858.587     1000 
  178000     0.780445    -1.615493    1.1694968  -0.44599619   0.13691658    11848.476     1000 
  180000   0.79199503   -1.6048781    1.1868046  -0.41807356   0.12132851    11921.922     1000 
  182000   0.74304662     -1.60522    1.1134554  -0.49176468   0.13156767    11772.382     1000 
  184000   0.74354714   -1.6867949    1.1142054  -0.57258949   0.13114943    11777.057     1000 
  186000   0.76345591   -1.6189557    1.1440387  -0.47491702   0.13946034    11676.517     1000 
  188000   0.72843973   -1.6135828    1.0915669  -0.52201591   0.13001113    11688.526     1000 
  190000   0.72330384   -1.6551927    1.0838708  -0.57132192   0.12382817    11908.102     1000 
  192000    0.7179323   -1.5968486    1.0758215  -0.52102709   0.12429549    11758.043     1000 
  194000   0.72599235   -1.6394392    1.0878995   -0.5515397   0.13639698    11885.264     1000 
  196000   0.73607709   -1.6190855    1.1030115  -0.51607403   0.13094454    11892.791     1000 
  198000   0.74233225   -1.6059292    1.1123849  -0.49354433   0.13781862    11524.585     1000 
  200000   0.74811329   -1.6492661    1.1210478  -0.52821835   0.12703599    11887.205     1000 
  202000   0.74747203   -1.6700985    1.1200868  -0.55001163   0.14880897    11547.739     1000 
  204000   0.73227309   -1.6349269    1.0973112  -0.53761569   0.12944394    11784.176     1000 
  206000   0.72749559    -1.604772    1.0901521  -0.51461988   0.13769019    11728.209     1000 
  208000    0.7549395   -1.6434661    1.1312768  -0.51218922    0.1414945    11598.965     1000 
  210000   0.76639968   -1.6650361    1.1484499  -0.51658623   0.12875621    11926.412     1000 
  212000   0.78736871   -1.6063762     1.179872  -0.42650415   0.13853462    11364.351     1000 
  214000   0.74390782   -1.6138924    1.1147459  -0.49914656   0.11913795    11912.115     1000 
  216000   0.73459311   -1.6913324    1.1007878  -0.59054464   0.12557845     11680.28     1000 
  218000   0.74037367   -1.6961554    1.1094499  -0.58670549   0.12469722    11779.594     1000 
  220000   0.75048195   -1.6397518    1.1245972  -0.51515464   0.14442189    11597.214     1000 
  222000   0.75103872   -1.6121275    1.1254315  -0.48669594   0.12671472     11875.13     1000 
  224000   0.75796946   -1.6176423    1.1358172  -0.48182504   0.13869557    11702.753     1000 
  226000    0.7233546    -1.640138    1.0839469  -0.55619115   0.12700093     11758.22     1000 
  228000   0.74930232   -1.6143386    1.1228295   -0.4915091   0.14789775    11465.687     1000 
  230000   0.76393655   -1.6489372    1.1447589  -0.50417823   0.12784576    11775.328     1000 
  232000   0.72804747   -1.5898454    1.0909791  -0.49886629   0.14461262    11610.956     1000 
  234000   0.71699108   -1.6429236    1.0744111  -0.56851249   0.12906249     11769.47     1000 
  236000   0.77695971   -1.6382798    1.1642741  -0.47400571    0.1407539    11840.848     1000 
  238000    0.7365302   -1.6233035    1.1036905  -0.51961296   0.13189142    11601.259     1000 
  240000   0.73550828   -1.6626032    1.1021592  -0.56044405   0.13131791    11671.872     1000 
  242000   0.72147028   -1.6973449    1.0811232  -0.61622172   0.12636594    11645.058     1000 
  244000   0.73831763   -1.6481497     1.106369  -0.54178078   0.12061145    11999.571     1000 
  246000   0.72644667    -1.647282    1.0885803  -0.55870165   0.12664607    11724.155     1000 
  248000   0.76470013   -1.6253419    1.1459032  -0.47943873   0.13213502    11706.572     1000 
  250000   0.72958048   -1.6355239    1.0932764   -0.5422475   0.12866629    11792.791     1000 
  252000   0.76743073   -1.6644031    1.1499949  -0.51440812   0.12448086    11716.619     1000 
  254000   0.75459547   -1.6703394    1.1307613   -0.5395781   0.14737027    11553.916     1000 
  256000   0.76657613   -1.6435788    1.1487143  -0.49486449   0.13101058    11807.343     1000 
  258000   0.72735861   -1.6383425    1.0899469  -0.54839559   0.12419879    11780.275     1000 
  260000   0.73161855   -1.6020485    1.0963304  -0.50571808   0.12785724    11702.029     1000 
  262000   0.72121107   -1.6631653    1.0807348  -0.58243051    0.1157329    12054.923     1000 
  264000   0.73942642   -1.5665986    1.1080305  -0.45856812   0.13676606    11742.204     1000 
  266000    0.7804129   -1.6597059    1.1694487  -0.49025713   0.13054261    11817.342     1000 
  268000   0.74941626   -1.6481452    1.1230003  -0.52514492    0.1226367    12072.936     1000 
  270000   0.74486653   -1.6687749    1.1161825  -0.55259237    0.1429151    11574.175     1000 
  272000   0.75160911   -1.6400638    1.1262862  -0.51377753   0.12353044    11929.648     1000 
  274000   0.75670377   -1.6708308    1.1339206  -0.53691023   0.12829328     11798.89     1000 
  276000    0.7690978   -1.6075967    1.1524931  -0.45510366   0.14067741    11708.043     1000 
  278000   0.70146921   -1.6454868    1.0511516  -0.59433518   0.12062004    11832.423     1000 
  280000    0.7367225   -1.6094751    1.1039787  -0.50549644    0.1284365    11744.428     1000 
  282000   0.73244472   -1.5848925    1.0975684   -0.4873241   0.13395107    11873.646     1000 
  284000   0.75392786   -1.6415002    1.1297609  -0.51173928   0.12485334     11809.31     1000 
  286000   0.78673222   -1.6030546    1.1789182  -0.42413637   0.13294886    11694.138     1000 
  288000   0.75554869   -1.6910747    1.1321897  -0.55888497   0.12490552    11717.332     1000 
  290000   0.78634478   -1.6547622    1.1783377  -0.47642451    0.1248473    11879.102     1000 
  292000   0.71231176   -1.6208069    1.0673992  -0.55340776   0.14272716    11437.981     1000 
  294000   0.81072873    -1.599759     1.214877  -0.38488203   0.13489193    11641.915     1000 
  296000   0.74908889    -1.681571    1.1225097   -0.5590613   0.12985265    11778.186     1000 
  298000   0.77740875   -1.6477954     1.164947  -0.48284843   0.14950668    11701.013     1000 
  300000   0.73666475   -1.6317063    1.1038921  -0.52781419   0.12774726    11745.821     1000 
  302000   0.74296348   -1.6370108    1.1133308  -0.52368007   0.13292148    11854.826     1000 
  304000   0.73139718   -1.6374868    1.0959987  -0.54148814   0.13173911    11745.234     1000 
  306000   0.77025416   -1.5940491    1.1542259   -0.4398232   0.15395328    11598.546     1000 
  308000   0.73898248   -1.7023447    1.1073652  -0.59497944   0.11495281    11968.858     1000 
  310000   0.79174087   -1.6255471    1.1864237  -0.43912343    0.1320388    11872.537     1000 
  312000   0.72684413   -1.7207522    1.0891759   -0.6315763   0.12411328    11852.752     1000 
  314000   0.76327068   -1.6986266    1.1437611  -0.55486548   0.12700772    11827.373     1000 
  316000   0.73264504   -1.6668081    1.0978686  -0.56893946   0.11129754     11948.72     1000 
  318000   0.77013767   -1.6580221    1.1540513  -0.50397081    0.1322923    11848.188     1000 
  320000   0.73869203   -1.6509073      1.10693  -0.54397731   0.12476228    11851.698     1000 
  322000    0.7698121   -1.7046189    1.1535634  -0.55105543   0.13871931     11986.71     1000 
  324000   0.72765411    -1.586788    1.0903897  -0.49639827   0.13188863    11515.688     1000 
  326000   0.73200896   -1.6821941    1.0969154  -0.58527863   0.12513179    12015.703     1000 
  328000   0.70651722    -1.664495    1.0587161  -0.60577891   0.11103172    12015.539     1000 
  330000   0.76776139   -1.6711675    1.1504904  -0.52067705   0.13006143    11845.702     1000 
  332000   0.75024813   -1.6583602    1.1242468  -0.53411335   0.13661931    11616.597     1000 
  334000   0.72825186   -1.6481568    1.0912854  -0.55687142   0.12120237    11907.503     1000 
  336000   0.71512056   -1.6443088    1.0716082  -0.57270067   0.12317106    11805.835     1000 
  338000   0.74454382   -1.6189813    1.1156989  -0.50328242   0.14447363    11583.118     1000 
  340000   0.72929606   -1.6545104    1.0928501  -0.56166021   0.13214136    11825.826     1000 
  342000   0.74030356   -1.6885571    1.1093449  -0.57921222   0.13489253    11628.719     1000 
  344000   0.72972533   -1.6377662    1.0934934  -0.54427282   0.13342587    11646.448     1000 
  346000   0.72755185   -1.6471142    1.0902364  -0.55687776   0.12224925    11715.162     1000 
  348000   0.74839657   -1.6723323    1.1214723  -0.55086002   0.14325877    11712.472     1000 
  350000   0.72446875   -1.6955401    1.0856164  -0.60992372   0.12562658    11955.484     1000 
  352000   0.77356261   -1.6130466    1.1591836  -0.45386308   0.14150127      11517.1     1000 
  354000   0.77927356   -1.6781065    1.1677414  -0.51036511   0.13326138    11905.367     1000 
  356000   0.74430254   -1.6541076    1.1153374  -0.53877022   0.12972985    11821.488     1000 
  358000   0.73537724   -1.6636276    1.1019628  -0.56166478    0.1173668    11821.586     1000 
  360000   0.75873991   -1.6094555    1.1369717  -0.47248371   0.12358133    11708.817     1000 
  362000   0.73642373     -1.69252     1.103531  -0.58898905   0.12606598    11784.322     1000 
  364000   0.75087582   -1.6492832    1.1251874  -0.52409574   0.12061608    11911.296     1000 
  366000   0.77348302   -1.6314336    1.1590643  -0.47236929   0.13530295    11707.963     1000 
  368000   0.75405061   -1.6898696    1.1299448  -0.55992473   0.11154281    12139.224     1000 
  370000     0.762651   -1.6161948    1.1428325  -0.47336227   0.14175795    11642.328     1000 
  372000   0.73621188   -1.6536228    1.1032135  -0.55040933   0.13674117    11769.755     1000 
  374000   0.73316274   -1.6276813    1.0986444  -0.52903696   0.12769307    11863.239     1000 
  376000   0.75632157   -1.6090628    1.1333479   -0.4757149   0.13200574    11702.089     1000 
  378000   0.71764825   -1.6557257    1.0753959  -0.58032979   0.12369856    11740.389     1000 
  380000   0.72290985   -1.5809253    1.0832804  -0.49764485   0.14148977    11472.827     1000 
  382000   0.73614674   -1.6106785    1.1031159  -0.50756258   0.12389011    11899.145     1000 
  384000   0.74227915   -1.6707659    1.1123053  -0.55846059   0.13212107    11765.766     1000 
  386000   0.72548372   -1.5814059    1.0871374  -0.49426855   0.14490226        11681     1000 
  388000   0.75534991   -1.6507845    1.1318918   -0.5188927   0.14212139    11719.595     1000 
  390000   0.73203863   -1.6205945    1.0969599  -0.52363457   0.13616457     11779.71     1000 
  392000   0.76834786   -1.6801365    1.1513693  -0.52876721   0.13595481    11795.211     1000 
  394000   0.69667314   -1.6902263    1.0439647  -0.64626158   0.12335272    11672.159     1000 
  396000   0.72787854   -1.6312518     1.090726  -0.54052582    0.1216822      11844.4     1000 
  398000    0.7595464   -1.6284951    1.1381803  -0.49031478   0.11922276    11861.906     1000 
  400000   0.74860299   -1.6584299    1.1217816  -0.53664836   0.13026326    11896.748     1000 
  402000   0.72211951   -1.6576659    1.0820961  -0.57556985    0.1439258     11715.59     1000 
  404000   0.72980174   -1.6434006    1.0936079  -0.54979267    0.1325704    12041.119     1000 
  406000   0.74414879    -1.623329     1.115107  -0.50822199   0.12322579    11696.973     1000 
  408000    0.7448794   -1.7187475    1.1162018  -0.60254575   0.13240344    11650.169     1000 
  410000   0.73164402   -1.6186851    1.0963686  -0.52231653   0.12584204    11795.471     1000 
  412000   0.73007467   -1.5970358    1.0940169  -0.50301887   0.12235376    11779.577     1000 
  414000   0.75394797   -1.6832539     1.129791   -0.5534629   0.14121889    11701.122     1000 
  416000    0.7543507   -1.6722589    1.1303945  -0.54186439   0.12837708    11834.992     1000 
  418000   0.77112861    -1.610488    1.1555362  -0.45495175   0.13582347    11770.315     1000 
  420000   0.73570766   -1.5935796    1.1024579  -0.49112164   0.13670114    11585.207     1000 
  422000   0.73133064   -1.6631112     1.095899  -0.56721227   0.12366388    11754.903     1000 
  424000   0.74246622   -1.6774741    1.1125856  -0.56488851   0.12900216    11850.524     1000 
  426000    0.7782869   -1.6479256    1.1662629  -0.48166266   0.13761554     11618.23     1000 
  428000   0.74496117   -1.6673684    1.1163243  -0.55104408   0.13507823    11769.036     1000 
  430000   0.78041399   -1.6521732    1.1694504  -0.48272284   0.13285881    11739.428     1000 
  432000   0.74663045    -1.667551    1.1188257  -0.54872524   0.11434725    11985.099     1000 
  434000   0.78202051   -1.6429129    1.1718577  -0.47105513   0.13841865    11732.615     1000 
  436000   0.75792072   -1.6869398    1.1357442  -0.55119558   0.12935683    11810.012     1000 
  438000   0.74795064   -1.6321478     1.120804  -0.51134379   0.12747556    11699.586     1000 
  440000   0.73636431   -1.6754831    1.1034419  -0.57204121   0.11919759    11986.776     1000 
  442000    0.7430487   -1.6973805    1.1134585  -0.58392206   0.13338118    11855.586     1000 
  444000   0.77459735   -1.6449272    1.1607341  -0.48419305   0.14143786     11736.12     1000 
  446000   0.72035226   -1.6338178    1.0794479  -0.55436991    0.1311889    11690.279     1000 
  448000   0.77732457   -1.6519055    1.1648209   -0.4870846   0.13743356    11844.978     1000 
  450000   0.76126075   -1.6543009    1.1407492  -0.51355165    0.1541278    11499.956     1000 
  452000   0.75517709   -1.5733665    1.1316329  -0.44173359   0.11418613    11973.953     1000 
  454000   0.75174694   -1.5792528    1.1264928  -0.45275998   0.13378072    11556.296     1000 
  456000   0.74960952   -1.6804604    1.1232899  -0.55717052   0.12142775    11849.789     1000 
  458000   0.74992579    -1.616478    1.1237638  -0.49271417   0.12912168    11736.587     1000 
  460000   0.77083098   -1.6692501    1.1550902  -0.51415983   0.13452674     11951.32     1000 
  462000   0.76096127   -1.6649959    1.1403005  -0.52469546    0.1447468    11525.699     1000 
  464000   0.79243425   -1.6830661    1.1874627  -0.49560334    0.1403827    11731.789     1000 
  466000   0.82429875   -1.6372072    1.2352117  -0.40199554   0.13191436    12024.041     1000 
  468000   0.78067811   -1.6611719    1.1698461  -0.49132579   0.11654456    11774.075     1000 
  470000   0.79032109   -1.6540539    1.1842962  -0.46975779   0.12687954    11742.177     1000 
  472000   0.74288636   -1.6647277    1.1132152  -0.55151248   0.12877917    11809.713     1000 
  474000   0.73284672   -1.6584419    1.0981708  -0.56027109   0.12004377    12142.282     1000 
  476000   0.77758695   -1.6026204     1.165214  -0.43740635   0.13501499    11599.175     1000 
  478000   0.73663729   -1.6167194     1.103851  -0.51286847   0.11604468     12033.69     1000 
  480000   0.73669107   -1.6343755    1.1039316  -0.53044395    0.1333925    11722.438     1000 
  482000   0.75467745   -1.6456105    1.1308842  -0.51472636   0.13694472    11856.011     1000 
  484000   0.76802863   -1.6676977    1.1508909  -0.51680679   0.12606663    11742.261     1000 
  486000   0.71858703   -1.6916536    1.0768027  -0.61485097   0.12572548    11840.618     1000 
  488000   0.75961054   -1.6717941    1.1382764  -0.53351773    0.1302915     11901.01     1000 
  490000   0.72068095   -1.6475651    1.0799404  -0.56762465   0.14489091     11515.67     1000 
  492000   0.75238496   -1.5865817    1.1274489  -0.45913285   0.13180081    11771.857     1000 
  494000   0.72025493   -1.6525424     1.079302  -0.57324036   0.11975717    11785.394     1000 
  496000   0.72481356   -1.6589189    1.0861331  -0.57278581   0.12659344    11890.565     1000 
  498000   0.74989452   -1.7046774    1.1237169  -0.58096044   0.13752233    11792.251     1000 
  500000   0.73419819   -1.5872924     1.100196  -0.48709646   0.12958495     11808.49     1000 
  502000   0.75469812   -1.6433253    1.1309151  -0.51241014   0.11293233    11809.996     1000 
  504000   0.74315912   -1.6228918    1.1136239  -0.50926781   0.13579497    11752.957     1000 
  506000   0.76379607   -1.6460998    1.1445484  -0.50155134   0.12121261    12153.785     1000 
  508000   0.75972617    -1.632077    1.1384497  -0.49362737   0.12954212    11823.162     1000 
  510000   0.74369316   -1.6694439    1.1144242  -0.55501971   0.11753304     12066.38     1000 
  512000   0.77181157   -1.6806105    1.1565596  -0.52405086   0.12745706    11844.913     1000 
  514000   0.77167431   -1.6746771     1.156354  -0.51832311   0.13849925    11745.788     1000 
  516000   0.76962711   -1.6214113    1.1532862  -0.46812507   0.13384561    11721.803     1000 
  518000   0.71481488   -1.6291702    1.0711501  -0.55802009    0.1189567    11940.263     1000 
  520000   0.75694856   -1.7342023    1.1342874  -0.59991488   0.13380094    11900.887     1000 
  522000   0.76879361   -1.6633801    1.1520372  -0.51134293   0.11763595    11957.994     1000 
  524000   0.74225709   -1.6262616    1.1122722  -0.51398936   0.12970342    11952.973     1000 
  526000    0.7322788   -1.5939479    1.0973198   -0.4966281   0.12692118    11957.245     1000 
  528000   0.76526559   -1.6494879    1.1467505   -0.5027374   0.12909685    11887.645     1000 
  530000   0.74531598   -1.6206901     1.116856  -0.50383411   0.12824639    11740.816     1000 
  532000   0.72532364   -1.6674487    1.0868975  -0.58055125   0.12014354    11941.841     1000 
  534000   0.79346774   -1.6729822    1.1890114  -0.48397079   0.12743145    11845.628     1000 
  536000   0.80467739   -1.6354159    1.2058091  -0.42960684   0.13323502    11747.895     1000 
  538000   0.76730768   -1.6690048    1.1498106  -0.51919426    0.1285485    11770.951     1000 
  540000   0.74408636   -1.6378518    1.1150134  -0.52283841   0.12801505    11631.007     1000 
  542000   0.75069265   -1.6242582    1.1249129  -0.49934532    0.1299224    11860.213     1000 
  544000   0.69173694   -1.6391871    1.0365678  -0.60261933   0.11230298    11847.328     1000 
  546000   0.72977872   -1.6492925    1.0935734  -0.55571911   0.13390058    11677.543     1000 
  548000    0.7435258   -1.6153145    1.1141734  -0.50114114    0.1340572    11758.121     1000 
  550000    0.7516963   -1.6351888    1.1264169  -0.50877191    0.1190411    11898.442     1000 
  552000   0.75348447   -1.6857986    1.1290965  -0.55670212    0.1187914    12003.414     1000 
  554000   0.75551787   -1.6672181    1.1321435  -0.53507455   0.12757765    11904.219     1000 
  556000   0.74233574   -1.6499755    1.1123901  -0.53758541   0.13868048    11869.878     1000 
  558000   0.79274175   -1.5699122    1.1879235   -0.3819887   0.14511483    11973.096     1000 
  560000   0.73524637    -1.617149    1.1017667  -0.51538235   0.13895015    11621.776     1000 
  562000   0.74476071   -1.6090935    1.1160239  -0.49306955   0.12023663    11933.624     1000 
  564000   0.73868959   -1.6949156    1.1069264  -0.58798926   0.13179265    11796.843     1000 
  566000   0.73035239   -1.5978478    1.0944331  -0.50341474   0.14395712    11626.739     1000 
  568000   0.75468464   -1.6622815    1.1308949  -0.53138661   0.12774242    11904.276     1000 
  570000   0.74572827    -1.632558    1.1174738  -0.51508416   0.13984682    11622.801     1000 
  572000    0.7474525   -1.6203143    1.1200576  -0.50025676   0.12061867    11955.923     1000 
  574000   0.73385712   -1.6914086    1.0996849  -0.59172373    0.1199714    11839.691     1000 
  576000   0.75542861   -1.6360108    1.1320098    -0.504001   0.12773553    11923.649     1000 
  578000   0.71219015    -1.707444    1.0672169  -0.64022706   0.13585141    11606.498     1000 
  580000   0.74698269   -1.6408689    1.1193536  -0.52151534   0.13372346     11893.65     1000 
  582000   0.74879396    -1.654447    1.1220677  -0.53237927    0.1352089    11832.228     1000 
  584000   0.75571988   -1.6022979    1.1324462  -0.46985162   0.13577619    11582.586     1000 
  586000   0.72549051   -1.6188178    1.0871475  -0.53167026   0.14490967    11597.565     1000 
  588000   0.75257476   -1.6476696    1.1277333  -0.51993636   0.13003137    11956.449     1000 
  590000   0.74999293   -1.6043016    1.1238644  -0.48043718   0.13127881     11920.23     1000 
  592000   0.75938815   -1.6002331    1.1379431  -0.46228994   0.13812562    11760.215     1000 
  594000   0.79460052   -1.6483843    1.1907089  -0.45767545   0.14087377    11754.201     1000 
  596000   0.74153486   -1.6631943      1.11119  -0.55200434   0.13221045    11698.778     1000 
  598000   0.76306783   -1.6194215    1.1434571  -0.47596432   0.13941687    11689.026     1000 
  600000   0.72320856   -1.5779692     1.083728  -0.49424117   0.14802439    11462.523     1000 
  602000   0.78375057   -1.6317456    1.1744502  -0.45729535   0.14049356    11723.002     1000 
  604000   0.73578649   -1.6485289    1.1025761   -0.5459528   0.14185394    11600.869     1000 
  606000   0.74772734   -1.6703891    1.1204694  -0.54991971   0.12510378    11830.679     1000 
  608000   0.70499199   -1.6163144    1.0564305   -0.5598839   0.13062189    11654.877     1000 
  610000   0.75209838   -1.6094047    1.1270194  -0.48238532   0.14546511     11843.66     1000 
  612000   0.76158697   -1.5913744    1.1412381   -0.4501363   0.14252374    11567.349     1000 
  614000   0.73422066   -1.6455214    1.1002297   -0.5452917   0.12721961    11869.028     1000 
  616000   0.73479166   -1.6454188    1.1010853  -0.54433348   0.12715876    11825.015     1000 
  618000   0.73977503   -1.6082979    1.1085529  -0.49974503   0.12054951     11711.54     1000 
  620000    0.7637932   -1.6223087    1.1445441  -0.47776461   0.13739385    11698.127     1000 
  622000   0.77305486   -1.6164422    1.1584227  -0.45801952    0.1492675    11897.528     1000 
  624000   0.77869256   -1.6504153    1.1668708  -0.48354453   0.11715137    11925.257     1000 
  626000    0.7243939   -1.6212165    1.0855043  -0.53571226    0.1239554    11760.306     1000 
  628000   0.72898368   -1.6585002     1.092382  -0.56611818   0.11993573     12008.73     1000 
  630000   0.73806844   -1.6651701    1.1059956  -0.55917458   0.13193555    11712.201     1000 
  632000   0.76354083   -1.6702605    1.1441659  -0.52609454   0.14406786    11601.226     1000 
  634000   0.73657081   -1.6443361    1.1037514  -0.54058472   0.14151404    11771.646     1000 
  636000    0.7378458   -1.6393772    1.1056619  -0.53371529   0.12514842    11784.664     1000 
  638000   0.75673699   -1.6315731    1.1339704  -0.49760276   0.13053872     11809.22     1000 
  640000   0.72681287   -1.7392295    1.0891291  -0.65010037   0.12121126    11994.646     1000 
  642000   0.73088177   -1.6760272    1.0952263   -0.5808009   0.12210963    11869.096     1000 
  644000   0.76094671   -1.6307924    1.1402786  -0.49051375   0.13166324    11835.711     1000 
  646000   0.75848066   -1.6375999    1.1365833  -0.50101661   0.13620009    11798.484     1000 
  648000   0.81229331   -1.6710542    1.2172215  -0.45383268   0.12198402    11977.264     1000 
  650000   0.75539846   -1.5831162    1.1319646  -0.45115159    0.1139462    11823.117     1000 
  652000   0.74966442   -1.6674684    1.1233721   -0.5440963   0.13171547    11643.898     1000 
  654000   0.74482308   -1.5921293    1.1161174  -0.47601191   0.14261535    11676.581     1000 
  656000   0.71284206   -1.6859167    1.0681938  -0.61772284   0.12614633    11746.283     1000 
  658000   0.72457909   -1.6593096    1.0857818  -0.57352782   0.13151147    11662.274     1000 
  660000   0.79570368   -1.6901315     1.192362  -0.49776957   0.13271709    12055.384     1000 
  662000   0.74076592   -1.6723135    1.1100377  -0.56227581   0.12859846     11857.79     1000 
  664000   0.76287704   -1.6104868    1.1431712  -0.46731552   0.13559409    11621.265     1000 
  666000    0.7359639   -1.5894424    1.1028419  -0.48660049   0.12751501    11625.115     1000 
  668000   0.71333991   -1.6451609    1.0689399  -0.57622105   0.11496191     11764.97     1000 
  670000    0.7525845   -1.6573326    1.1277479  -0.52958472   0.12773605    11862.444     1000 
  672000   0.77768334   -1.6397748    1.1653585  -0.47441633   0.12462046    11808.475     1000 
  674000   0.78368851   -1.6428954    1.1743572  -0.46853815   0.12916069    11975.551     1000 
  676000   0.76226793   -1.6694381    1.1422585  -0.52717958   0.13413506    11743.857     1000 
  678000   0.78134212   -1.6645192    1.1708412  -0.49367804   0.12709396    11680.514     1000 
  680000   0.76602931   -1.6351867    1.1478949  -0.48729176   0.13402588    11754.695     1000 
  682000   0.73586255   -1.6341641      1.10269   -0.5314741   0.12183503    12070.108     1000 
  684000   0.75107257   -1.6286235    1.1254822  -0.50314124   0.12210043    11929.007     1000 
  686000   0.74670495   -1.6629003    1.1189374  -0.54396297   0.13364844    11760.591     1000 
  688000   0.72006059   -1.6284853    1.0790108  -0.54947449   0.13040799    11810.555     1000 
  690000   0.75370234   -1.6417832     1.129423  -0.51236019   0.14623273    11653.008     1000 
  692000   0.72016392   -1.6682998    1.0791656   -0.5891342   0.11019921    12049.495     1000 
  694000    0.7443113   -1.6795612    1.1153505  -0.56421071   0.13630585    11681.235     1000 
  696000   0.74428862   -1.6600683    1.1153165  -0.54475184   0.12505054    11858.787     1000 
  698000   0.75209866   -1.6821719    1.1270198  -0.55515205   0.12849039     11980.47     1000 
  700000   0.73679356   -1.6126363    1.1040852  -0.50855113   0.13656867    11633.034     1000 
  702000   0.77643588   -1.6626381    1.1634892  -0.49914889   0.13462738    11814.639     1000 
  704000   0.77339684    -1.639276    1.1589352  -0.48034081   0.13714747    11787.265     1000 
  706000   0.77315544   -1.6081342    1.1585734   -0.4495608   0.13380829    11790.644     1000 
  708000   0.77266859   -1.6286267    1.1578439  -0.47078279   0.13614983    11801.649     1000 
  710000   0.73977727   -1.6887857    1.1085562  -0.58022948   0.12238519    11846.585     1000 
  712000   0.75983199   -1.6649297    1.1386082  -0.52632141    0.1310033    11507.143     1000 
  714000   0.74741683    -1.703534    1.1200041  -0.58352985   0.13949804    11632.719     1000 
  716000   0.73955391   -1.6157693    1.1082215  -0.50754777   0.11468325    11884.618     1000 
  718000   0.76041928   -1.6106253    1.1394883  -0.47113701    0.1298428    11866.654     1000 
  720000   0.78472616    -1.684001    1.1759122  -0.50808888    0.1253031    11782.664     1000 
  722000   0.72990342   -1.6402375    1.0937603  -0.54647723   0.13051807    11663.809     1000 
  724000    0.7007958   -1.7023378    1.0501425  -0.65219527   0.11941352    11851.579     1000 
  726000    0.7275267   -1.6828156    1.0901988  -0.59261683   0.12340667     11922.84     1000 
  728000   0.76616701   -1.6517705    1.1481013  -0.50366922   0.13004671      11739.4     1000 
  730000   0.77790804    -1.680266    1.1656952  -0.51457077   0.13090296     11861.86     1000 
  732000   0.72628754   -1.6690577    1.0883419  -0.58071578   0.13619063    11553.868     1000 
  734000   0.75465936    -1.649311     1.130857  -0.51845397   0.13380268    11722.248     1000 
  736000   0.74913954   -1.6789104    1.1225856  -0.55632481   0.13410678    11810.158     1000 
  738000   0.75746941   -1.6150209    1.1350679  -0.47995295   0.11681473    11827.887     1000 
  740000   0.74614104   -1.6679286    1.1180924  -0.54983628   0.13380226    11759.737     1000 
  742000   0.75951502   -1.5927868    1.1381333  -0.45465354   0.13845722    11623.708     1000 
  744000   0.73935443   -1.6559497    1.1079226  -0.54802712   0.12567822    11799.556     1000 
  746000   0.72773876   -1.6485107    1.0905165  -0.55799419   0.10473746    11962.397     1000 
  748000   0.76923418   -1.6500964    1.1526974    -0.497399   0.12778655    11665.619     1000 
  750000   0.74070411   -1.6477497    1.1099451  -0.53780459   0.13906558    11786.976     1000 
  752000   0.75396313   -1.5766561    1.1298138  -0.44684237   0.14862097    11580.682     1000 
  754000   0.75444142   -1.6897357    1.1305305  -0.55920521   0.12797477    12139.103     1000 
  756000   0.73462239   -1.6667574    1.1008317  -0.56592579   0.12977841    11740.123     1000 
  758000   0.78493862   -1.7083405    1.1762305  -0.53210999   0.12677467    11826.145     1000 
  760000   0.75747652    -1.617217    1.1350786  -0.48213848   0.12610617    11676.195     1000 
  762000   0.74117908   -1.6217622    1.1106569  -0.51110537   0.15014889    11524.972     1000 
  764000   0.71642072   -1.6152656    1.0735564  -0.54170911   0.13498429    11597.703     1000 
  766000   0.74142286    -1.639708    1.1110222  -0.52868583   0.13146227    11727.738     1000 
  768000   0.74288735    -1.682605    1.1132167  -0.56938826   0.14150835    11642.004     1000 
  770000   0.74052638   -1.7023275    1.1096788  -0.59264868   0.12541583    11927.061     1000 
  772000   0.73730397   -1.6453955      1.10485  -0.54054553   0.11970265    11828.947     1000 
  774000   0.76415199   -1.6465929    1.1450818  -0.50151112   0.13932622    11816.324     1000 
  776000   0.75015859   -1.6561858    1.1241126   -0.5320732    0.1401716    11468.676     1000 
  778000   0.73833105   -1.6098186    1.1063891  -0.50342956   0.12912652    11851.859     1000 
  780000   0.72786472   -1.6520902    1.0907053  -0.56138487   0.12368409    11875.681     1000 
  782000   0.73495633   -1.6776245    1.1013321  -0.57629248   0.12445828    11671.064     1000 
  784000   0.74189403   -1.6516724    1.1117282  -0.53994419   0.12714033    12027.488     1000 
  786000   0.76229859   -1.6218386    1.1423044  -0.47953412   0.12722016    11862.044     1000 
  788000   0.75833484   -1.6033391    1.1363648  -0.46697433   0.14220506    11642.694     1000 
  790000   0.77161339   -1.6373534    1.1562627  -0.48109077   0.11810891    12076.722     1000 
  792000    0.7521066   -1.6907245    1.1270317  -0.56369273   0.14152362    11757.451     1000 
  794000   0.74582603   -1.6255394    1.1176203  -0.50791908    0.1373714    11946.466     1000 
  796000   0.75892584   -1.6165625    1.1372504  -0.47931215   0.14349593    11622.543     1000 
  798000   0.77439469   -1.6262086    1.1604304  -0.46577811   0.10890247    12098.731     1000 
  800000   0.76869102   -1.6602278    1.1518835  -0.50834432   0.14021166     11578.64     1000 
  802000      0.76219   -1.6240344    1.1421417  -0.48189271   0.13784259    11895.246     1000 
  804000   0.73478744    -1.693945     1.101079    -0.592866   0.14604907    11627.449     1000 
  806000   0.74946732   -1.6574501    1.1230768  -0.53437332     0.130074    11785.264     1000 
  808000   0.75771466   -1.5984424    1.1354354  -0.46300696   0.12560747    11649.323     1000 
  810000   0.73491903    -1.717391    1.1012762  -0.61611482   0.12043797    11932.092     1000 
  812000   0.76302586   -1.6742233    1.1433943  -0.53082907   0.13279434     11707.77     1000 
  814000   0.77293533   -1.6636174    1.1582436  -0.50537377     0.135767    11582.596     1000 
  816000   0.76029331   -1.7420765    1.1392995  -0.60277695     0.134798    11985.065     1000 
  818000   0.81974661   -1.6116289    1.2283903  -0.38323859   0.14424996    11586.499     1000 
  820000   0.76233801   -1.6210924    1.1423635  -0.47872885   0.13921568    11874.063     1000 
  822000   0.74717322   -1.5931461    1.1196391  -0.47350708   0.12975202    11845.961     1000 
  824000    0.7406633   -1.6975448     1.109884  -0.58766087   0.13411404    11724.824     1000 
  826000   0.73482214   -1.6568168     1.101131  -0.55568579   0.13476546    11824.612     1000 
  828000    0.7882719   -1.6516966    1.1812254  -0.47047113   0.11593369    12059.751     1000 
  830000   0.70683798   -1.5939014    1.0591967  -0.53470472   0.11746607    11831.566     1000 
  832000   0.76803664   -1.6473855    1.1509029  -0.49648264   0.13556771    11660.826     1000 
  834000   0.71337237   -1.5910854    1.0689885  -0.52209686   0.13199889    11675.238     1000 
  836000   0.73634758   -1.6565333    1.1034169  -0.55311648   0.11864566    11819.813     1000 
  838000   0.73298684   -1.6915254    1.0983808  -0.59314466   0.11538118    11857.625     1000 
  840000   0.74947049   -1.6521376    1.1230815  -0.52905603   0.11674281    11957.353     1000 
  842000   0.72257588   -1.6580505      1.08278  -0.57527049   0.13766277    11707.348     1000 
  844000   0.73427476   -1.6839783    1.1003107  -0.58366754   0.12316168    11745.981     1000 
  846000   0.76814181   -1.6577363    1.1510605  -0.50667584   0.12990733    11780.061     1000 
  848000   0.77913948   -1.6295069    1.1675405  -0.46196639   0.12914772    11957.364     1000 
  850000    0.7413696   -1.6651951    1.1109423  -0.55425272   0.11932953    11719.366     1000 
  852000   0.74468017   -1.6837861    1.1159032  -0.56788287   0.13070664    11911.284     1000 
  854000   0.76294607   -1.6384396    1.1432747  -0.49516488   0.12463915    11968.655     1000 
  856000   0.73935327   -1.6063418    1.1079209  -0.49842094   0.12673811    11669.915     1000 
  858000   0.75746485   -1.6578803    1.1350611  -0.52281921   0.14034583    11751.492     1000 
  860000   0.76311695   -1.5989448    1.1435307  -0.45541405   0.13342317    11675.502     1000 
  862000   0.76192966   -1.6411065    1.1417516  -0.49935488    0.1454127    11687.523     1000 
  864000   0.75293014   -1.6144696    1.1282658  -0.48620374    0.1288872    11877.707     1000 
  866000   0.74758671   -1.6717064    1.1202587  -0.55144774   0.14464493    11849.343     1000 
  868000   0.75759283   -1.6509981    1.1352529  -0.51574522   0.12719023    11898.903     1000 
  870000   0.75177613   -1.6741902    1.1265365  -0.54765365   0.13510956    11821.406     1000 
  872000   0.76929237   -1.6847414    1.1527846   -0.5319568   0.12029359    11965.239     1000 
  874000   0.75848599   -1.6488719    1.1365913  -0.51228063    0.1181151    11840.316     1000 
  876000   0.75647578    -1.647818     1.133579  -0.51423903   0.12398112    11929.994     1000 
  878000   0.75663625   -1.6453361    1.1338194  -0.51151666   0.14002883    11568.129     1000 
  880000   0.74629264   -1.7079211    1.1183195  -0.58960154    0.1361712    11605.162     1000 
  882000   0.73120598   -1.5798315    1.0957122  -0.48411937   0.12379604    11757.389     1000 
  884000   0.73505457    -1.595006    1.1014793  -0.49352668   0.14387053    11380.315     1000 
  886000   0.79485873   -1.6302446    1.1910958  -0.43914879   0.13432695    11846.732     1000 
  888000   0.76853871   -1.6150663    1.1516553  -0.46341101   0.13601166    11909.069     1000 
  890000    0.7877099   -1.6266233    1.1803833  -0.44624002    0.1384584    11844.941     1000 
  892000   0.76221926   -1.6736068    1.1421856  -0.53142129   0.13094843    11927.687     1000 
  894000   0.73153787   -1.6117047    1.0962095  -0.51549517   0.12722751    11634.152     1000 
  896000   0.75523868   -1.6563542    1.1317252  -0.52462905   0.12380781    12237.695     1000 
  898000   0.73270345   -1.6401884    1.0979561  -0.54223232   0.13422198    11829.123     1000 
  900000   0.72963874   -1.6763681    1.0933637  -0.58300449   0.12149083    11793.975     1000 
  902000    0.7582645   -1.6756479    1.1362594  -0.53938855   0.13173108    11679.013     1000 
  904000   0.74845285    -1.702681    1.1215566   -0.5811244   0.11514266    11857.724     1000 
  906000   0.75497325   -1.6703061    1.1313274  -0.53897866   0.12666812    12095.241     1000 
  908000   0.72528402   -1.6818189    1.0868381   -0.5949808   0.12028293     11748.65     1000 
  910000   0.77589169   -1.5910009    1.1626737  -0.42832724   0.14388525    11626.488     1000 
  912000   0.73333256    -1.605648    1.0988988  -0.50674911    0.1267873    11777.034     1000 
  914000   0.73879652   -1.6735677    1.1070866  -0.56648109   0.12464449    11827.432     1000 
  916000    0.7603814   -1.7009475    1.1394315  -0.56151598   0.12342132    12094.704     1000 
  918000   0.74028197    -1.646732    1.1093125  -0.53741951   0.13548539    11715.115     1000 
  920000   0.71744808   -1.6665747    1.0750959   -0.5914787   0.12626744     11891.54     1000 
  922000   0.77497169   -1.5698057    1.1612951  -0.40851057   0.13964733    11684.537     1000 
  924000    0.7509995   -1.6512667    1.1253728  -0.52589399   0.13739834    11949.402     1000 
  926000   0.72637867     -1.64337    1.0884784  -0.55489157   0.12951353    11702.273     1000 
  928000   0.75597288   -1.6440294    1.1328254  -0.51120402   0.13591407    11674.184     1000 
  930000   0.76667235   -1.6699805    1.1488585  -0.52112194   0.13115436    12101.157     1000 
  932000   0.75836908   -1.6855772    1.1364161  -0.54916117   0.13497294    11732.062     1000 
  934000   0.71927214   -1.6731704    1.0778293  -0.59534105   0.13227388    11683.857     1000 
  936000   0.74887528   -1.6808486    1.1221896  -0.55865897   0.13174012    11986.463     1000 
  938000   0.77613462   -1.6326746    1.1630377  -0.46963689   0.12817538    11742.867     1000 
  940000    0.7485861   -1.6464951    1.1217563  -0.52473879   0.12694522     11848.77     1000 
  942000   0.74047324   -1.5940814    1.1095992  -0.48448219   0.13565093    11834.529     1000 
  944000     0.726322   -1.6667629    1.0883935  -0.57836935   0.13240172    11812.496     1000 
  946000   0.73883728   -1.5964347    1.1071477  -0.48928703   0.13158466    11749.505     1000 
  948000   0.75511142   -1.6482099    1.1315345  -0.51667542   0.13885977    11706.183     1000 
  950000   0.77193011   -1.6330201    1.1567373  -0.47628281   0.13430554    11686.438     1000 
  952000    0.7604693   -1.6697533    1.1395632  -0.53019006   0.12819976    11710.797     1000 
  954000   0.77324639   -1.6155475    1.1587097  -0.45683777   0.12980637    11820.134     1000 
  956000   0.72131843   -1.6855402    1.0808957  -0.60464454   0.10676507    12203.181     1000 
  958000    0.7136133   -1.6140182    1.0693495  -0.54466863   0.13473386    11606.643     1000 
  960000   0.73043786    -1.611654    1.0945611  -0.51709282   0.13370613    11528.262     1000 
  962000   0.76246204   -1.6577378    1.1425494  -0.51518847   0.13472612    11850.565     1000 
  964000   0.76132078   -1.6678868    1.1408392  -0.52704757   0.13665483    11821.476     1000 
  966000   0.75903954   -1.6310807    1.1374208   -0.4936599   0.15041841    11578.302     1000 
  968000   0.73690429   -1.6661508    1.1042511  -0.56189975   0.14923991    11541.777     1000 
  970000   0.74573896   -1.6110353    1.1174898  -0.49354543   0.13229472    11672.663     1000 
  972000   0.74836515   -1.6434161    1.1214252  -0.52199095   0.11290338    12118.669     1000 
  974000   0.72633692   -1.6140014    1.0884159  -0.52558554   0.13268197    11627.877     1000 
  976000   0.77129467   -1.6018432    1.1557851  -0.44605813   0.13080871     11871.05     1000 
  978000   0.81033423   -1.6133192    1.2142858  -0.39903339   0.13368266    11718.883     1000 
  980000   0.75241493   -1.6124002    1.1274938  -0.48490642   0.13097489    11608.221     1000 
  982000   0.74607116   -1.6294396    1.1179876  -0.51145201   0.13163933    11825.872     1000 
  984000   0.75139794   -1.6374254    1.1259698  -0.51145561    0.1376005    11697.248     1000 
  986000   0.75377291   -1.6851228    1.1295287   -0.5555941   0.13219082    11858.017     1000 
  988000   0.74946301   -1.6494557    1.1230703  -0.52638535   0.12259602    11845.329     1000 
  990000   0.76272952   -1.6751536    1.1429502  -0.53220345   0.13662353    11756.454     1000 
  992000   0.70729865    -1.601138     1.059887    -0.541251   0.12878756    11734.352     1000 
  994000   0.72830549   -1.6564109    1.0913658  -0.56504512   0.13187071    11728.559     1000 
  996000   0.75914949   -1.6220026    1.1375855  -0.48441707   0.13154772    11864.087     1000 
  998000   0.74006041   -1.6900837    1.1089805  -0.58110315   0.12473658    11894.012     1000 
 1000000   0.75688361   -1.5562177    1.1341901  -0.42202763    0.1433915    11794.815     1000 
 1002000   0.75951575   -1.6855517    1.1381343  -0.54741737   0.13845288    11819.101     1000 
 1004000    0.7636247   -1.6432958    1.1442916  -0.49900422   0.13622792     11596.76     1000 
 1006000   0.73168362   -1.5889604    1.0964279  -0.49253245   0.12683153    11807.909     1000 
 1008000   0.71851698   -1.6664503    1.0766977   -0.5897526    0.1311929    11773.109     1000 
 1010000   0.76222362   -1.5465835    1.1421921  -0.40439142    0.1308316    11790.172     1000 
 1012000   0.73896304    -1.626459    1.1073361  -0.51912287   0.13425969    11977.798     1000 
 1014000   0.75128752   -1.6359532    1.1258044  -0.51014885    0.1267267    11602.913     1000 
 1016000   0.75966886   -1.6391551    1.1383638  -0.50079135   0.13070775    11842.669     1000 
 1018000   0.77477668   -1.5974034    1.1610029   -0.4364005   0.13528221    11678.157     1000 
 1020000   0.75860795   -1.6067314     1.136774  -0.46995735   0.14166169    11763.026     1000 
 1022000   0.78277131   -1.5972737    1.1729828  -0.42429088   0.12924193    11707.867     1000 
 1024000   0.73626492   -1.6088565     1.103293  -0.50556356   0.13432235    11717.546     1000 
 1026000   0.75641902   -1.6227681    1.1334939   -0.4892742   0.13981297     11488.95     1000 
 1028000    0.7783803   -1.6636494    1.1664029  -0.49724647   0.12912391    11740.213     1000 
 1030000   0.77447897    -1.678543    1.1605567  -0.51798631   0.12674842      11761.6     1000 
 1032000   0.74791243   -1.6331408    1.1207468  -0.51239399   0.12886683    11892.446     1000 
 1034000   0.74182692   -1.6240214    1.1116276  -0.51239375   0.13776066    11638.228     1000 
 1036000    0.7438657   -1.6855338    1.1146828  -0.57085101   0.13000717    11839.802     1000 
 1038000   0.76268191   -1.6057334    1.1428788  -0.46285459    0.1302155    11891.429     1000 
 1040000   0.74853432   -1.6357307    1.1216787  -0.51405204   0.13210078    11980.053     1000 
 1042000   0.72967364   -1.6272532    1.0934159  -0.53383723   0.11867172    11741.297     1000 
 1044000    0.7240175   -1.6244525    1.0849402  -0.53951232   0.14355973    11541.969     1000 
 1046000   0.76896173   -1.6307994    1.1522892  -0.47851028   0.11634815    11909.667     1000 
 1048000   0.76700053   -1.5954683    1.1493503  -0.44611799   0.14158751     11791.73     1000 
 1050000   0.70659865   -1.6376654    1.0588381  -0.57882733   0.11950062    11941.578     1000 
 1052000   0.73998034   -1.7070114    1.1088605  -0.59815085   0.12158698    12086.108     1000 
 1054000   0.75288013   -1.5813695    1.1281909   -0.4531786   0.12937203    11716.697     1000 
 1056000   0.72563375    -1.628024    1.0873622  -0.54066183   0.13577194    11754.664     1000 
 1058000    0.7502131   -1.6246336    1.1241943   -0.5004393   0.13579575    11640.703     1000 
 1060000   0.71007251   -1.6691276    1.0640437  -0.60508399   0.12255226    11976.679     1000 
 1062000   0.75508648   -1.6335345    1.1314971   -0.5020374   0.12212769     11815.62     1000 
 1064000   0.71397953   -1.6117223    1.0698983  -0.54182393   0.12190254    11899.907     1000 
 1066000   0.76319634   -1.6145685    1.1436497  -0.47091882   0.11610972    11961.172     1000 
 1068000   0.74489737   -1.6807418    1.1162287  -0.56451308   0.13013837    11755.427     1000 
 1070000   0.75983478   -1.6037206    1.1386124   -0.4651082   0.13360342    11775.396     1000 
 1072000   0.75128936   -1.7065291    1.1258071  -0.58072197   0.13105227    11720.225     1000 
 1074000   0.75932807   -1.6972256    1.1378531  -0.55937252   0.12523702     11721.96     1000 
 1076000   0.75289099   -1.5646188    1.1282071  -0.43641164   0.12991095    11693.317     1000 
 1078000   0.78141228   -1.7529099    1.1709463  -0.58196357   0.11899117     11990.88     1000 
 1080000   0.78213377   -1.6788249    1.1720275  -0.50679742   0.12933618    11823.727     1000 
 1082000   0.77342088   -1.6008974    1.1589712  -0.44192619   0.14653049     11631.06     1000 
 1084000   0.73659707   -1.6640437    1.1037907  -0.56025297   0.13182887    11998.982     1000 
 1086000   0.75910874   -1.6671094    1.1375244  -0.52958496    0.1190836    11949.949     1000 
 1088000   0.74001728   -1.6402286    1.1089159  -0.53131271   0.12219206    11790.516     1000 
 1090000   0.75847456   -1.6337592    1.1365741  -0.49718504   0.12768964    11903.667     1000 
 1092000   0.73640963   -1.5529563    1.1035098   -0.4494465   0.11638977    11946.149     1000 
 1094000   0.76101025   -1.6782477    1.1403739  -0.53787388   0.13675461    11705.838     1000 
 1096000   0.73899107   -1.6236031    1.1073781  -0.51622497   0.14058367    11684.804     1000 
 1098000   0.72884822   -1.6191386    1.0921791  -0.52695951   0.13594557    11696.049     1000 
 1100000   0.75921496   -1.6032797    1.1376836  -0.46559608   0.12299284    11672.093     1000 
 1102000   0.74926005    -1.634624    1.1227662  -0.51185785   0.13150667    11832.965     1000 
 1104000   0.72411121     -1.61165    1.0850807  -0.52656935   0.12281891    11762.516     1000 
 1106000   0.72729991   -1.6338219    1.0898589  -0.54396299   0.12253028    11769.271     1000 
 1108000   0.78842799   -1.6623649    1.1814593  -0.48090551   0.12285697    11857.911     1000 
 1110000    0.7406427   -1.6249661    1.1098531  -0.51511305   0.12952156    11714.247     1000 
 1112000    0.7547101   -1.6109767    1.1309331   -0.4800436   0.13019203    11742.709     1000 
 1114000   0.76723511   -1.6643534    1.1497018  -0.51465158   0.11450155    11969.896     1000 
 1116000   0.75464454   -1.6365329    1.1308348  -0.50569809   0.13605621    11781.625     1000 
 1118000   0.76693906    -1.698887    1.1492582  -0.54962885   0.13109531    11624.379     1000 
 1120000   0.72546925   -1.6285206    1.0871157   -0.5414049   0.11425424    12120.956     1000 
 1122000   0.75727279   -1.6593002    1.1347733  -0.52452693   0.12067222    11972.754     1000 
 1124000   0.79724787   -1.6368108    1.1946759  -0.44213488    0.1330126    11800.824     1000 
 1126000   0.75824715   -1.6261223    1.1362334  -0.48988894   0.12990202     11761.67     1000 
 1128000   0.72536596   -1.6951237    1.0869609  -0.60816278   0.12246704    12021.561     1000 
 1130000   0.76121553   -1.6187334    1.1406815  -0.47805192   0.12789294    11790.389     1000 
 1132000   0.74917567   -1.6292657    1.1226397    -0.506626   0.12623169    11911.711     1000 
 1134000   0.74513307   -1.6595183    1.1165819   -0.5429364   0.12119292    12201.354     1000 
 1136000   0.76167028   -1.6084376    1.1413629  -0.46707471   0.14290283    11610.216     1000 
 1138000   0.73047876   -1.6579839    1.0946224  -0.56336149   0.11890099    11911.695     1000 
 1140000   0.73263041   -1.6129146    1.0978467  -0.51506792   0.11291995    12064.288     1000 
 1142000   0.75983949   -1.6475746    1.1386195  -0.50895516   0.12581265     11732.53     1000 
 1144000   0.75526851   -1.6118288    1.1317699  -0.48005893   0.14302248    11771.452     1000 
 1146000   0.79293213   -1.6431448    1.1882088    -0.454936   0.13250824    11845.145     1000 
 1148000   0.73611643   -1.6729246    1.1030705   -0.5698541   0.10623688    12163.963     1000 
 1150000   0.72833185   -1.6541109    1.0914053  -0.56270564   0.13060402    11734.713     1000 
 1152000   0.74019365   -1.6083622    1.1091802  -0.49918198    0.1331745    11892.868     1000 
 1154000    0.7572733   -1.5802387     1.134774  -0.44546468   0.14235691    11533.545     1000 
 1156000   0.80812222   -1.6296999    1.2109711  -0.41872872   0.12503236    11903.146     1000 
 1158000   0.76055077   -1.6291848    1.1396853  -0.48949946    0.1275129     11782.99     1000 
 1160000   0.75448558   -1.5829031    1.1305966   -0.4523064   0.14130981    11669.712     1000 
 1162000   0.74229912   -1.6441062    1.1123352  -0.53177101   0.13951551     11815.46     1000 
 1164000   0.76279342   -1.6255897    1.1430459  -0.48254375   0.13918442    11544.616     1000 
 1166000    0.7188188   -1.6389176      1.07715  -0.56176764   0.12500742     11867.68     1000 
 1168000   0.74937257   -1.6582543    1.1229348  -0.53531953   0.13972409    11484.647     1000 
 1170000   0.76132203   -1.6543894    1.1408411  -0.51354836   0.13145085    11571.434     1000 
 1172000      0.76203   -1.7245032     1.141902  -0.58260121   0.12579169    12081.795     1000 
 1174000   0.75446489   -1.6792763    1.1305656  -0.54871069   0.12880743     11737.26     1000 
 1176000   0.73357226   -1.6592673     1.099258  -0.56000931   0.14352377    11647.755     1000 
 1178000   0.72127935   -1.6737389    1.0808371  -0.59290174   0.12000041    11843.492     1000 
 1180000   0.76510881    -1.549928    1.1465156  -0.40341248   0.13576097    11833.188     1000 
 1182000   0.75779113   -1.6533271      1.13555  -0.51777705   0.12280865    11928.747     1000 
 1184000   0.75190445   -1.5822164    1.1267288  -0.45548754   0.12485484    12060.811     1000 
 1186000   0.78033997    -1.590474    1.1693394  -0.42113459   0.12603568    11826.655     1000 
 1188000   0.74800919    -1.635927    1.1208918  -0.51503522   0.12163276    11932.654     1000 
 1190000   0.75083734   -1.5758502    1.1251298  -0.45072042   0.14307897    11741.903     1000 
 1192000   0.77270177   -1.6598913    1.1578936  -0.50199768   0.13673414    11746.121     1000 
 1194000   0.74911331   -1.6244803    1.1225463  -0.50193395   0.11760133    11953.265     1000 
 1196000   0.71131325   -1.6394723    1.0659029  -0.57356939   0.13899563    11610.791     1000 
 1198000   0.72139037   -1.6541985    1.0810035  -0.57319502   0.12300062    12079.783     1000 
 1200000    0.7665802   -1.6390906    1.1487204  -0.49037016   0.14390703     11560.68     1000 
 1202000   0.75586463   -1.6446078    1.1326632   -0.5119446    0.1249911    11910.712     1000 
 1204000   0.75725925     -1.67699     1.134753  -0.54223701   0.12054743    12063.909     1000 
 1206000   0.75641026   -1.6200312    1.1334808  -0.48655043   0.13400927    11719.843     1000 
 1208000   0.73034752   -1.6480478    1.0944258  -0.55362207   0.13310321    11739.567     1000 
 1210000   0.74358892   -1.6164406     1.114268  -0.50217265   0.13182388    11888.154     1000 
 1212000   0.74299565   -1.6479972     1.113379  -0.53461823   0.13227498    11974.922     1000 
 1214000   0.75823187   -1.6269976    1.1362105  -0.49078716   0.12977284    11805.329     1000 
 1216000   0.73453555   -1.6158205    1.1007015  -0.51511894   0.13480537      11650.6     1000 
 1218000   0.77488866   -1.6694998    1.1611707  -0.50832914   0.13171779    11637.859     1000 
 1220000   0.75105622   -1.6576068    1.1254577  -0.53214907   0.12121482    11857.559     1000 
 1222000   0.75724246   -1.5941544    1.1347278  -0.45942659   0.13274501    11753.634     1000 
 1224000   0.75264557   -1.6301378    1.1278394  -0.50229843    0.1449079    11807.623     1000 
 1226000   0.76584676   -1.6535447    1.1476214  -0.50592338   0.13199724    11731.142     1000 
 1228000   0.79178292   -1.6074538    1.1864867  -0.42096705   0.12776478    11812.747     1000 
 1230000   0.77615205     -1.56505    1.1630638  -0.40198619   0.13137603    11803.194     1000 
 1232000    0.7211804   -1.6374788    1.0806888  -0.55678998   0.12019682     11800.74     1000 
 1234000   0.76834071    -1.690892    1.1513586  -0.53953341   0.11920453    11947.329     1000 
 1236000    0.7401101    -1.665171     1.109055  -0.55611604   0.13225909      11863.7     1000 
 1238000   0.73010458   -1.6115241    1.0940617  -0.51746243   0.14591844    11711.151     1000 
 1240000   0.75977051   -1.7399517    1.1385161  -0.60143558   0.12200576    11826.084     1000 
 1242000   0.73914028   -1.6576334    1.1076017  -0.55003167   0.13196017    11592.264     1000 
 1244000    0.7610832   -1.6446935    1.1404832  -0.50421032   0.13239143    11842.534     1000 
 1246000   0.75664856   -1.6573929    1.1338379  -0.52355503   0.13806143     11834.77     1000 
 1248000   0.73213766   -1.7039531    1.0971083  -0.60684483   0.13432253    11771.635     1000 
 1250000   0.77076217    -1.658036    1.1549871  -0.50304888   0.13911692    11665.808     1000 
 1252000   0.73663576   -1.6501723    1.1038487  -0.54632358   0.13221375    11899.332     1000 
 1254000   0.76924772   -1.6264573    1.1527177  -0.47373959   0.13383359     11719.87     1000 
 1256000   0.74944864   -1.6840635    1.1230488  -0.56101467   0.12304501    12048.554     1000 
 1258000   0.72518954   -1.6382806    1.0866965  -0.55158403   0.14008468     11701.13     1000 
 1260000   0.76850512   -1.6276142    1.1516049   -0.4760093   0.14126403    11725.078     1000 
 1262000   0.74067289   -1.5538147    1.1098983  -0.44391635   0.12682116    11827.887     1000 
 1264000   0.74332151   -1.6387543    1.1138673    -0.524887   0.12053518    11962.349     1000 
 1266000   0.76507543   -1.6587024    1.1464655  -0.51223692   0.12182629    12079.644     1000 
 1268000   0.74753575   -1.6407358    1.1201823   -0.5205535   0.12060395    11806.159     1000 
 1270000   0.77487834   -1.6354811    1.1611552  -0.47432593   0.14323109    11787.083     1000 
 1272000   0.76942419    -1.644185    1.1529822  -0.49120281   0.13218698     11855.63     1000 
 1274000   0.73250176   -1.6363285    1.0976539  -0.53867458   0.13286569    11587.846     1000 
 1276000    0.7418108   -1.6562625    1.1116035  -0.54465906   0.12032617    11932.524     1000 
 1278000   0.74239302   -1.6737584    1.1124759  -0.56128247   0.11588163    11922.868     1000 
 1280000    0.7711123   -1.6031275    1.1555118  -0.44761575    0.1347146    11746.508     1000 
 1282000    0.7296419   -1.6771518    1.0933684  -0.58378346   0.13531203    11779.552     1000 
 1284000   0.75357708   -1.6372215    1.1292353  -0.50798619   0.13188438    11899.945     1000 
 1286000   0.77842352   -1.6597925    1.1664676  -0.49332484   0.13127202    11903.994     1000 
 1288000    0.7318718   -1.6116518    1.0967099  -0.51494193   0.13906222     11571.68     1000 
 1290000   0.73807405   -1.6201839     1.106004  -0.51417995   0.13103534    11677.636     1000 
 1292000   0.76266616   -1.6797796    1.1428552  -0.53692435   0.14003133     11558.03     1000 
 1294000   0.75749797   -1.7085458    1.1351107  -0.57343506   0.14219942    11665.886     1000 
 1296000   0.77374431   -1.6293102    1.1594558  -0.46985437   0.13638212    11795.376     1000 
 1298000   0.73748615   -1.6534386     1.105123  -0.54831562   0.14217308     11607.64     1000 
 1300000   0.78268531   -1.6764419    1.1728539  -0.50358801   0.12665003    11751.942     1000 
 1302000   0.74973771    -1.699313     1.123482    -0.575831   0.12509056    11919.527     1000 
 1304000   0.71791358   -1.6891433    1.0757935  -0.61334984   0.12624633    11905.094     1000 
 1306000   0.75229742   -1.6762195    1.1273177   -0.5489018   0.12082812    11836.158     1000 
 1308000   0.71053609   -1.6441084    1.0647383  -0.57937008   0.13765656    11641.539     1000 
 1310000    0.7544882   -1.6319391    1.1306006  -0.50133857   0.13117959    11695.048     1000 
 1312000     0.774027   -1.6142286    1.1598795  -0.45434913   0.11896054    12024.589     1000 
 1314000    0.7554461   -1.6218105     1.132036  -0.48977448   0.13514911    11811.357     1000 
 1316000   0.72792254   -1.6398987    1.0907919  -0.54910677   0.11175058    12123.539     1000 
 1318000   0.77126798   -1.6281432    1.1557451  -0.47239815   0.13068211    11762.449     1000 
 1320000    0.7467258   -1.6416374    1.1189686   -0.5226688   0.14022364    11769.812     1000 
 1322000   0.77116574   -1.5970006    1.1555919  -0.44140873   0.12630438    11899.466     1000 
 1324000   0.76100713   -1.6039252    1.1403692  -0.46355602   0.13728179    11624.095     1000 
 1326000   0.72586543   -1.6232356    1.0877093  -0.53552622    0.1170454    11924.093     1000 
 1328000   0.71534629   -1.7012966    1.0719464  -0.62935015   0.14142448    11496.584     1000 
 1330000   0.73095359   -1.6902077    1.0953339  -0.59487378   0.11967602     11777.29     1000 
 1332000   0.76478102   -1.6445158    1.1460244  -0.49849141   0.12571401    11862.036     1000 
 1334000   0.73233828   -1.6076981    1.0974089   -0.5102892    0.1413691    11531.203     1000 
 1336000   0.74981947   -1.6584979    1.1236045   -0.5348934   0.12240979    11982.285     1000 
 1338000   0.76263564   -1.6575153    1.1428095  -0.51470583   0.13127169    11684.785     1000 
 1340000   0.73703318   -1.6500075    1.1044442  -0.54556328   0.13554441    11778.526     1000 
 1342000   0.74599205   -1.6285547    1.1178691  -0.51068562   0.13474357    11805.053     1000 
 1344000   0.73807955   -1.6523605    1.1060122  -0.54634825   0.12740719    11605.883     1000 
 1346000   0.75235048   -1.6428202    1.1273972  -0.51542302   0.11603717    11921.758     1000 
 1348000   0.77195152   -1.6458022    1.1567694  -0.48903288   0.14868334    11592.908     1000 
 1350000   0.71206202   -1.6607332    1.0670249  -0.59370824   0.14496836    11589.342     1000 
 1352000   0.72476142   -1.6294235     1.086055  -0.54336855   0.13744374    11635.099     1000 
 1354000   0.76166573   -1.6572335    1.1413561  -0.51587742   0.12534945    11951.252     1000 
 1356000   0.74661518   -1.6047904    1.1188028  -0.48598754   0.13683763    11549.016     1000 
 1358000   0.74714343   -1.6212827    1.1195944  -0.50168828   0.13034678    11723.567     1000 
 1360000   0.76767743   -1.6510261    1.1503646  -0.50066145   0.12908153    11921.772     1000 
 1362000   0.72916253   -1.6296488    1.0926501  -0.53699874   0.12120376    11887.772     1000 
 1364000   0.75736758   -1.6629213    1.1349153  -0.52800597   0.12913147     11840.01     1000 
 1366000   0.73496085    -1.647025    1.1013388  -0.54568613   0.14277684    11517.606     1000 
 1368000   0.75255346   -1.6339308    1.1277014   -0.5062294   0.13303147    11811.381     1000 
 1370000   0.73066425    -1.682456    1.0949004  -0.58755562   0.12875598    11802.358     1000 
 1372000   0.76009082   -1.6964918    1.1389961  -0.55749573   0.12188469    11830.259     1000 
 1374000   0.76957105   -1.5988067    1.1532022  -0.44560444   0.14063835    11643.438     1000 
 1376000   0.75177426   -1.6612742    1.1265337  -0.53474045   0.12796859    12005.063     1000 
 1378000    0.7662554   -1.6274388    1.1482337  -0.47920506   0.13450287    11714.887     1000 
 1380000   0.75511171    -1.629011    1.1315349   -0.4974761   0.13076821    11636.758     1000 
 1382000   0.73598593   -1.6250182    1.1028749  -0.52214329   0.11632069    12076.721     1000 
 1384000   0.71401788   -1.6474438    1.0699558    -0.577488   0.13359127    11829.761     1000 
 1386000   0.75283924   -1.6201561    1.1281296   -0.4920265   0.12962477    11947.674     1000 
 1388000   0.77771679   -1.6338791    1.1654086  -0.46847048   0.13232743     11692.67     1000 
 1390000   0.78048324   -1.6400491    1.1695541  -0.47049494   0.12034597    11959.946     1000 
 1392000    0.7506757   -1.6720219    1.1248875  -0.54713438   0.13052877    11828.997     1000 
 1394000   0.73713636   -1.6625241    1.1045988  -0.55792526   0.13515655    11572.913     1000 
 1396000   0.75901387    -1.673478    1.1373823  -0.53609571   0.12882943    11876.748     1000 
 1398000   0.71721218   -1.6038584    1.0747425  -0.52911595   0.12408333     11764.72     1000 
 1400000   0.75191811   -1.6503206    1.1267493  -0.52357135   0.12193354    11832.604     1000 
 1402000   0.76597214   -1.6591269    1.1478092  -0.51131767   0.13443518     11768.81     1000 
 1404000   0.75800117   -1.6334946    1.1358648  -0.49762981   0.14100733    11794.369     1000 
 1406000   0.75688983   -1.6036744    1.1341994  -0.46947494   0.13221731    11756.386     1000 
 1408000   0.75868589   -1.6481792    1.1368908  -0.51128837   0.12525013    11898.505     1000 
 1410000   0.78325883   -1.7019097    1.1737134  -0.52819633   0.12837772    12056.954     1000 
 1412000   0.75706623   -1.6825523    1.1344637  -0.54808853   0.11513635    11993.532     1000 
 1414000   0.76561118   -1.5960677    1.1472684  -0.44879931   0.13341154    11569.338     1000 
 1416000   0.73911275   -1.6550848    1.1075605  -0.54752431   0.11998782    11874.812     1000 
 1418000   0.75171351   -1.6632115    1.1264427  -0.53676882   0.12095266    12099.354     1000 
 1420000   0.76557659    -1.599819    1.1472165   -0.4526025   0.15838885    11728.522     1000 
 1422000   0.75125441   -1.6231098    1.1257547  -0.49735504   0.12711466     11831.93     1000 
 1424000   0.79597549   -1.6245918    1.1927693  -0.43182253   0.13615404    11813.839     1000 
 1426000   0.70461622   -1.7030872    1.0558674  -0.64721976   0.12083936     11907.72     1000 
 1428000   0.75099122   -1.6688042    1.1253603  -0.54344389   0.11239581    12077.353     1000 
 1430000   0.73412639   -1.6631532    1.1000884  -0.56306486   0.13586208    11641.451     1000 
 1432000   0.74719359   -1.6708999    1.1196696   -0.5512303   0.13556262     11784.39     1000 
 1434000     0.760548   -1.6459796    1.1396812  -0.50629845   0.13618605    11916.562     1000 
 1436000    0.7511267   -1.6369148    1.1255634  -0.51135139   0.12954348    11792.229     1000 
 1438000   0.73770385   -1.6343203    1.1054492  -0.52887105   0.13047289    11769.524     1000 
 1440000   0.71423089   -1.6310576     1.070275  -0.56078258   0.13510348    11718.667     1000 
 1442000   0.73972255   -1.6211284    1.1084742  -0.51265412   0.13652322    11881.426     1000 
 1444000   0.73450795   -1.6940874    1.1006602  -0.59342722   0.13046512    11798.269     1000 
 1446000   0.72747672   -1.5977395    1.0901239   -0.5076156    0.1311531      11806.3     1000 
 1448000   0.77791315   -1.6440165    1.1657029  -0.47831366   0.12258461     12017.57     1000 
 1450000   0.71904863   -1.6949646    1.0774944  -0.61747025   0.13091817    11869.354     1000 
 1452000   0.74901608   -1.6484745    1.1224006  -0.52607392    0.1257451    11873.195     1000 
 1454000   0.75072153   -1.5898706    1.1249562  -0.46491435   0.13413647    11597.157     1000 
 1456000   0.75096146   -1.6067009    1.1253157  -0.48138518   0.13463759    11667.093     1000 
 1458000   0.74530123   -1.6039026    1.1168339  -0.48706875   0.13279207     11971.58     1000 
 1460000   0.75121062   -1.5755517    1.1256891  -0.44986254   0.12482872    11727.471     1000 
 1462000   0.72763497   -1.6751097     1.090361  -0.58474868   0.14009985    11661.628     1000 
 1464000   0.77013614   -1.6561568     1.154049   -0.5021078    0.1309412    11805.181     1000 
 1466000   0.77449385   -1.6217145     1.160579   -0.4611355   0.14998196    11586.537     1000 
 1468000   0.76159707   -1.6718551    1.1412532  -0.53060191   0.12457206     11824.27     1000 
 1470000   0.72586092   -1.6688251    1.0877026  -0.58112254   0.12689854    11719.177     1000 
 1472000   0.74022905   -1.6406604    1.1092332  -0.53142713   0.12305163    11859.542     1000 
 1474000   0.77603131   -1.6315332    1.1628829  -0.46865023   0.14582966    11813.547     1000 
 1476000   0.77197942   -1.6250736    1.1568112  -0.46826243   0.15027068    11522.785     1000 
 1478000   0.72720515   -1.6126105    1.0897169  -0.52289356   0.14533402    11623.173     1000 
 1480000   0.73216081   -1.6770744     1.097143  -0.57993141   0.14252731    11756.374     1000 
 1482000   0.73945829   -1.6710937    1.1080783  -0.56301549   0.12638698    11874.117     1000 
 1484000   0.72046942   -1.6301004    1.0796234    -0.550477   0.12996299    11665.044     1000 
 1486000   0.75863434   -1.6729528    1.1368136  -0.53613922   0.13338639    11880.116     1000 
 1488000   0.79135469   -1.6274723     1.185845   -0.4416273   0.13516899    11547.525     1000 
 1490000   0.77371076   -1.7126048    1.1594056  -0.55319925   0.14688595    11522.462     1000 
 1492000   0.75743478   -1.6610081     1.135016  -0.52599206   0.12381674    11824.322     1000 
 1494000   0.75660034   -1.6466045    1.1337656  -0.51283891   0.12489728    11743.565     1000 
 1496000   0.72944406   -1.6600544    1.0930719  -0.56698246   0.12071171    11825.005     1000 
 1498000   0.77424154   -1.6334367     1.160201  -0.47323579   0.13786265    11587.576     1000 
 1500000   0.73735227   -1.6750022    1.1049224   -0.5700798   0.12818709    11792.582     1000 
 1502000   0.74480953   -1.6864275    1.1160971  -0.57033038   0.12868766    11901.052     1000 
 1504000   0.76035692   -1.6660386    1.1393948   -0.5266438   0.15718587    11510.509     1000 
 1506000   0.70115097    -1.650764    1.0506747  -0.60008927   0.13102814    11830.017     1000 
 1508000   0.74611085   -1.7117674    1.1180471  -0.59372026   0.11676996    11900.461     1000 
 1510000   0.77312379   -1.6706414     1.158526  -0.51211542   0.12653266      11957.4     1000 
 1512000   0.72892731   -1.6551086    1.0922976  -0.56281099   0.13669831    11625.333     1000 
 1514000   0.78818717   -1.6493605    1.1810985  -0.46826203   0.12167297    11908.964     1000 
 1516000   0.74686978   -1.6787109    1.1191844  -0.55952652   0.12569887    11933.232     1000 
 1518000   0.70469557   -1.6788606    1.0559863  -0.62287428   0.12677027    11923.063     1000 
 1520000   0.72633446   -1.5861767    1.0884122  -0.49776456   0.12095743    11678.807     1000 
 1522000   0.72373506   -1.6317884     1.084517  -0.54727142   0.13619885    11684.132     1000 
 1524000   0.72419483   -1.6646967     1.085206  -0.57949075   0.12877875    11771.366     1000 
 1526000   0.77559325   -1.6545112    1.1622265  -0.49228469   0.12945994    11726.416     1000 
 1528000   0.71884338   -1.5954469    1.0771868  -0.51826015    0.1325787    11892.108     1000 
 1530000   0.73785177   -1.7194657    1.1056709  -0.61379477   0.12136069    12309.397     1000 
 1532000   0.74460127   -1.6126129     1.115785  -0.49682794   0.12929711    11890.494     1000 
 1534000   0.75561022   -1.6571338    1.1322819  -0.52485191   0.12071641    11816.731     1000 
 1536000   0.77864864   -1.6922336     1.166805  -0.52542862   0.14557209    11403.713     1000 
 1538000   0.75121775   -1.6704592    1.1256998  -0.54475943    0.1213294    11968.154     1000 
 1540000      0.73285   -1.6150884    1.0981757   -0.5169127   0.12955045    11595.351     1000 
 1542000   0.75863932   -1.6447078     1.136821  -0.50788681    0.1287601    11989.665     1000 
 1544000   0.72260652   -1.6242478    1.0828259   -0.5414219    0.1309262    11612.704     1000 
 1546000   0.73842871   -1.6669659    1.1065354  -0.56043051   0.12404449     11920.41     1000 
 1548000   0.74510179   -1.6691435     1.116535  -0.55260849   0.12214329    11753.792     1000 
 1550000   0.75626138   -1.6589435    1.1332577  -0.52568582    0.1267644    11903.341     1000 
 1552000   0.71470165   -1.6048234    1.0709804  -0.53384302   0.11924211    11970.652     1000 
 1554000   0.74684438   -1.6483978    1.1191463  -0.52925152   0.13461592    11681.116     1000 
 1556000   0.75953913   -1.6672287    1.1381694  -0.52905936   0.12796777    11948.102     1000 
 1558000   0.77146266   -1.6736002    1.1560368  -0.51756344   0.14271718    11623.199     1000 
 1560000   0.72570787    -1.693173    1.0874732  -0.60569975   0.12746407    11774.532     1000 
 1562000   0.73519291   -1.6524964    1.1016866  -0.55080977    0.1302327    11916.054     1000 
 1564000   0.75046995   -1.6758998    1.1245792  -0.55132063   0.12249266     11934.71     1000 
 1566000   0.78671251   -1.6414696    1.1788887  -0.46258092   0.13496009    11557.596     1000 
 1568000   0.73226311   -1.6234249    1.0972963  -0.52612865    0.1362065    11671.637     1000 
 1570000    0.7562751   -1.6480791    1.1332782  -0.51480089   0.13169269    11832.562     1000 
 1572000   0.76055967   -1.6902268    1.1396987  -0.55052808   0.12034735    11972.811     1000 
 1574000   0.74983234    -1.654553    1.1236238  -0.53092923   0.12968301    11738.498     1000 
 1576000   0.75031187   -1.5970242    1.1243423  -0.47268184   0.13549516    11660.591     1000 
 1578000   0.75075254   -1.6268412    1.1250027  -0.50183848    0.1398669    11705.391     1000 
 1580000   0.72996509   -1.6605576    1.0938527  -0.56670488   0.11071061    12026.522     1000 
 1582000    0.7678247   -1.6534318    1.1505853   -0.5028465   0.13763211    11763.693     1000 
 1584000   0.72385469   -1.6688577    1.0846963  -0.58416149   0.11956447    11941.989     1000 
 1586000    0.7307831   -1.6586963    1.0950785  -0.56361783   0.13401977     11681.81     1000 
 1588000   0.72356802   -1.6172272    1.0842667  -0.53296057   0.13287062    11767.344     1000 
 1590000    0.7541882   -1.6114617     1.130151  -0.48131064   0.12999539    11928.933     1000 
 1592000   0.73976245   -1.6209986     1.108534  -0.51246453   0.12536785    11920.896     1000 
 1594000   0.77018523   -1.5941556    1.1541226    -0.440033   0.13083631    11683.952     1000 
 1596000   0.77305631    -1.647777    1.1584249  -0.48935208   0.11502151    12205.544     1000 
[...]
 2612000    0.7528251   -1.6714727    1.1281084  -0.54336428   0.13699094     11701.91     1000 
 2614000   0.74302612   -1.6498421    1.1134246  -0.53641744   0.11191868    11765.782     1000 
 2616000   0.78513535    -1.679244    1.1765253  -0.50271866   0.12149128    12038.171     1000 
 2618000   0.72589439   -1.6034176    1.0877527  -0.51566484   0.12872518    11701.519     1000 
 2620000   0.74981871   -1.6613051    1.1236033  -0.53770172   0.13767685    11650.539     1000 
 2622000   0.74932917   -1.6837697    1.1228698  -0.56089996   0.12174041    11969.096     1000 
 2624000   0.77998898   -1.6472353    1.1688135  -0.47842182   0.13269057    11577.497     1000 
 2626000   0.76372482   -1.6171893    1.1444416  -0.47274765   0.14185537    11822.605     1000 
 2628000   0.75543794   -1.6320975    1.1320237   -0.5000738   0.13638235     11890.88     1000 
 2630000   0.78468904   -1.6503801    1.1758565  -0.47452356   0.13249752    11700.974     1000 
 2632000   0.73096036   -1.6998577    1.0953441  -0.60451356   0.13406445    11889.809     1000 
 2634000   0.73136238   -1.6883778    1.0959465  -0.59243124   0.13281171    11611.921     1000 
 2636000   0.71940816   -1.6175417    1.0780331  -0.53950856    0.1263007    11848.506     1000 
 2638000   0.75424041    -1.668266    1.1302292  -0.53803675   0.13350941    11774.636     1000 
 2640000   0.76548292   -1.6304375    1.1470761  -0.48336136   0.13563468    11751.788     1000 
 2642000   0.74149466   -1.6565878    1.1111298  -0.54545806    0.1219521    11855.775     1000 
 2644000   0.75766177   -1.6334201    1.1353562  -0.49806398   0.13675179    11796.364     1000 
 2646000   0.74463225   -1.6940984    1.1158314  -0.57826701   0.12872323    11930.018     1000 
 2648000   0.76071765    -1.653486    1.1399354  -0.51355059   0.13049424    11874.664     1000 
 2650000   0.74417028   -1.6861609    1.1151392  -0.57102177   0.12739985    11755.182     1000 
 2652000   0.75296755   -1.6705757    1.1283219   -0.5422538   0.14037995    11670.435     1000 
 2654000   0.72878555   -1.6385875    1.0920851  -0.54650233   0.12598063    11766.476     1000 
 2656000   0.74559537   -1.6496408    1.1172747  -0.53236611   0.12090657    11717.752     1000 
 2658000   0.71722389   -1.6500381      1.07476  -0.57527815   0.12379472    11922.916     1000 
 2660000   0.76927501   -1.6291394    1.1527586   -0.4763808   0.13717482    11758.551     1000 
 2662000   0.76495642   -1.5876577    1.1462872  -0.44137052   0.13326847    11581.299     1000 
 2664000   0.75121172   -1.6340522    1.1256908  -0.50836141   0.12379657    11910.793     1000 
 2666000   0.74459301   -1.6528183    1.1157726  -0.53704569    0.1142586    12121.886     1000 
 2668000   0.74232915   -1.6195032    1.1123802  -0.50712297   0.12104608    11904.193     1000 
 2670000    0.7335605   -1.6521872    1.0992404   -0.5529468   0.12859436    11727.476     1000 
 2672000   0.71357237   -1.6658769    1.0692882  -0.59658872   0.11308695    12051.839     1000 
 2674000   0.73287781   -1.6664372    1.0982174   -0.5682198    0.1250905    11716.073     1000 
 2676000   0.76631452   -1.5988206    1.1483223   -0.4504983   0.11618311    12023.993     1000 
 2678000   0.71952225   -1.6485438    1.0782041  -0.57033969   0.12133236    11892.019     1000 
 2680000   0.80198753   -1.6119635    1.2017783  -0.41018522   0.13821069    11674.244     1000 
 2682000   0.74641087   -1.6883401    1.1184967  -0.56984344   0.13175398    11759.643     1000 
 2684000   0.73949794   -1.5948073    1.1081377   -0.4866696   0.11502083    11972.353     1000 
 2686000   0.74474678   -1.7047343     1.116003  -0.58873125   0.12662068    11763.453     1000 
 2688000   0.77255714   -1.6694404    1.1576769   -0.5117635   0.13900707    11749.555     1000 
 2690000   0.75073874   -1.6847496     1.124982  -0.55976764   0.12134865    11835.176     1000 
 2692000    0.7527296    -1.617261    1.1279653  -0.48929572   0.13404809    11821.892     1000 
 2694000   0.75599459   -1.6590285    1.1328579  -0.52617061   0.13590218     11594.65     1000 
 2696000   0.74310881   -1.6866159    1.1135485  -0.57306736    0.1292071    11882.476     1000 
 2698000   0.73371127   -1.7044761    1.0994663  -0.60500974   0.13178666    11758.071     1000 
 2700000   0.77920273   -1.6195601    1.1676353  -0.45192485   0.12966504    11872.286     1000 
 2702000   0.73194069   -1.6516806    1.0968131  -0.55486747   0.13157763    11641.917     1000 
 2704000   0.74536446   -1.6482152    1.1169286  -0.53128655   0.11685578     11955.48     1000 
 2706000    0.7567559   -1.6191032    1.1339987  -0.48510446   0.13347166    11562.718     1000 
 2708000   0.78416794   -1.6861842    1.1750757  -0.51110859   0.13506367    11802.087     1000 
 2710000   0.73510087   -1.6501086    1.1015486  -0.54855998   0.12279454    11888.621     1000 
 2712000   0.75796166   -1.6136759    1.1358056   -0.4778703   0.15187306     11676.36     1000 
 2714000    0.7580455   -1.6017857    1.1359312   -0.4658545   0.12145439    11860.331     1000 
 2716000   0.77455388   -1.6375443     1.160669  -0.47687534    0.1381743    11802.623     1000 
 2718000   0.75489813   -1.6509859    1.1312148  -0.51977104   0.13337114    11738.374     1000 
 2720000   0.74598395   -1.6321408    1.1178569  -0.51428384   0.14985041    11795.048     1000 
 2722000   0.74988828   -1.6855187    1.1237076  -0.56181111   0.12105547    11980.151     1000 
 2724000   0.74056404   -1.6511159    1.1097352  -0.54138065    0.1373837    11725.213     1000 
 2726000   0.74190241   -1.6332294    1.1117408  -0.52148862   0.13394698    11749.953     1000 
 2728000   0.78169279   -1.6180697    1.1713666  -0.44670302   0.13607523    11794.353     1000 
 2730000   0.76165193   -1.6855829    1.1413354  -0.54424752   0.14308145    11604.082     1000 
 2732000    0.6936388    -1.616614    1.0394177  -0.57719622   0.13838456    11664.408     1000 
 2734000    0.7699873   -1.6533437     1.153826  -0.49951774   0.14154921    11695.249     1000 
 2736000   0.74101241   -1.6057223    1.1104071  -0.49531517    0.1314864    11590.623     1000 
 2738000    0.7849554   -1.6332691    1.1762557   -0.4570134   0.14372359    11749.754     1000 
 2740000   0.70906519   -1.6487709    1.0625342  -0.58623668    0.1194657     11778.02     1000 
 2742000    0.7547898   -1.6407731    1.1310525  -0.50972055   0.13252575    11750.748     1000 
 2744000   0.74818111   -1.6491761    1.1211494  -0.52802666   0.12572737    11905.396     1000 
 2746000   0.73463982   -1.6335242    1.1008578  -0.53266647   0.14396278    11733.204     1000 
 2748000   0.75513587   -1.6058318    1.1315711  -0.47426073   0.12205224    11831.741     1000 
 2750000   0.75852087   -1.6308572    1.1366435  -0.49421365   0.14014838     11543.49     1000 
 2752000   0.74190391   -1.6968087     1.111743  -0.58506564   0.13536279     11666.59     1000 
 2754000   0.77462278   -1.6526687    1.1607722  -0.49189648   0.13634145    11871.491     1000 
 2756000   0.75215714   -1.6572167    1.1271075  -0.53010921   0.11540368    12025.536     1000 
 2758000   0.76214809      -1.6622    1.1420789  -0.52012107   0.12698697    11824.979     1000 
 2760000   0.73810776   -1.6842416    1.1060545  -0.57818708   0.13302391    11756.071     1000 
 2762000    0.7236653   -1.7007162    1.0844124  -0.61630377   0.13091889    11768.294     1000 
 2764000    0.7508825      -1.6412    1.1251974  -0.51600255   0.12684597    11623.843     1000 
 2766000   0.78418824   -1.6511922    1.1751061  -0.47608612   0.14059321    11837.755     1000 
 2768000   0.80527941   -1.5975924    1.2067112   -0.3908812   0.14227189     11798.74     1000 
 2770000   0.73546117   -1.6684017    1.1020886  -0.56631313   0.12323621    11803.384     1000 
 2772000   0.74919748   -1.6557872    1.1226724  -0.53311478   0.13559154    11686.607     1000 
 2774000   0.71127748   -1.6517785    1.0658493  -0.58592923   0.12894751    11592.921     1000 
 2776000   0.75211477   -1.6129364     1.127044   -0.4858924    0.1417373    11631.146     1000 
 2778000   0.72547193    -1.680667    1.0871197  -0.59354735   0.13148725    11971.611     1000 
 2780000   0.77531642   -1.7056724    1.1618117  -0.54386076   0.13499171    11881.998     1000 
 2782000   0.74561545   -1.6555324    1.1173048  -0.53822764   0.13617396    11591.418     1000 
 2784000    0.7425893   -1.6591308    1.1127701  -0.54636077   0.12772445    11925.311     1000 
 2786000    0.7546541   -1.6948142    1.1308492  -0.56396504   0.11239869    12057.012     1000 
 2788000   0.76250693   -1.6407986    1.1426166  -0.49818199   0.13447053    11792.657     1000 
 2790000   0.77773279   -1.6565952    1.1654326   -0.4911626   0.11248803    11996.224     1000 
 2792000   0.78261011   -1.6141395    1.1727413  -0.44139822    0.1331726    11941.912     1000 
 2794000   0.75633604   -1.6323747    1.1333696  -0.49900517   0.12968115    11913.211     1000 
 2796000   0.76434048   -1.6438598    1.1453642  -0.49849561   0.13431318    11877.995     1000 
 2798000   0.75953398   -1.5796695    1.1381617  -0.44150783   0.14028836    11559.836     1000 
 2800000   0.73231423   -1.6946345    1.0973729  -0.59726165   0.12382511    11734.421     1000 
 2802000   0.73640368   -1.6546572    1.1035009  -0.55115626    0.1368789    11497.103     1000 
 2804000   0.78135049   -1.6583507    1.1708537  -0.48749699    0.1233335    11874.135     1000 
 2806000   0.75257413   -1.6482902    1.1277323  -0.52055791   0.12393565    11875.369     1000 
 2808000    0.7231832   -1.6522402      1.08369  -0.56855019   0.12914797    11844.575     1000 
 2810000    0.7307964   -1.6890393    1.0950984  -0.59394091   0.11218518     11952.44     1000 
 2812000   0.74538081   -1.6113792    1.1169531  -0.49442609   0.12920993    11621.727     1000 
 2814000    0.7382821   -1.6009157    1.1063157      -0.4946   0.12093945    11963.831     1000 
 2816000   0.73664855   -1.6549714    1.1038678  -0.55110354   0.13067044    11539.499     1000 
 2818000   0.76095071   -1.6647846    1.1402846  -0.52449993   0.12321219    11941.983     1000 
 2820000    0.7591593   -1.6145456    1.1376002  -0.47694542    0.1231244    11933.632     1000 
 2822000    0.7704565   -1.6572272    1.1545291  -0.50269814   0.13294995      11715.5     1000 
 2824000   0.76151114   -1.5726476    1.1411245  -0.43152313    0.1379936    11778.416     1000 
 2826000   0.73255847   -1.6582699    1.0977389  -0.56053106   0.13182033    11773.359     1000 
 2828000   0.78037609   -1.6560191    1.1693936  -0.48662553   0.13294118    11755.499     1000 
 2830000    0.7893881    -1.613023    1.1828981  -0.43012497   0.12838384    11822.401     1000 
 2832000   0.75282439   -1.6429434    1.1281073  -0.51483609   0.13806835    11846.942     1000 
 2834000   0.75663726    -1.644297    1.1338209  -0.51047607   0.13372995    11819.458     1000 
 2836000   0.77981726   -1.6765147    1.1685562  -0.50795853   0.13810089    12005.207     1000 
 2838000   0.76350172    -1.655186    1.1441073  -0.51107868   0.13952423    11775.202     1000 
 2840000   0.79060612   -1.6323413    1.1847233  -0.44761806   0.12720879    11903.928     1000 
 2842000   0.71661219   -1.6492777    1.0738434  -0.57543433   0.12697543    11694.827     1000 
 2844000   0.73873063   -1.6706523    1.1069879  -0.56366446   0.13094048    11670.552     1000 
 2846000   0.77277086   -1.6599954    1.1579971  -0.50199824   0.12668715    11874.437     1000 
 2848000   0.73535149   -1.6446967    1.1019242   -0.5427725   0.12740869    11645.182     1000 
 2850000   0.73445222   -1.6665125    1.1005767  -0.56593589   0.14015755    11693.991     1000 
 2852000   0.72654035   -1.6082304    1.0887207  -0.51950971   0.13574253    11667.094     1000 
 2854000   0.72243774   -1.6989196     1.082573  -0.61634666    0.1242472    11723.889     1000 
 2856000   0.73928945   -1.6284938    1.1078252   -0.5206686    0.1378981    11731.583     1000 
 2858000   0.75762602   -1.7342317    1.1353026  -0.59892912   0.12446842    11881.626     1000 
 2860000   0.76944711   -1.7109264    1.1530165  -0.55790995   0.13308234    11769.379     1000 
 2862000   0.76110533   -1.5814312    1.1405163  -0.44091489   0.13253549    11738.885     1000 
 2864000   0.73640076   -1.6884891    1.1034965  -0.58499253   0.13624968    11848.485     1000 
 2866000   0.73310384   -1.6150954    1.0985561  -0.51653933   0.12260183    12028.057     1000 
 2868000   0.76207258   -1.6434045    1.1419658  -0.50143873   0.13412453    11742.589     1000 
 2870000   0.71773312   -1.5991025    1.0755231  -0.52357939   0.13681501    11504.483     1000 
 2872000   0.76978385   -1.6735862    1.1535211  -0.52006506   0.13115317    12082.644     1000 
 2874000   0.73631115   -1.6273314    1.1033623  -0.52396911   0.14167991    11685.682     1000 
 2876000   0.71899187   -1.6141935    1.0774093  -0.53678415   0.12412521    11920.801     1000 
 2878000   0.75633562    -1.614038    1.1333689  -0.48066907   0.12297355    11802.044     1000 
 2880000   0.71151246   -1.5991969    1.0662014  -0.53299547   0.13503634    11654.766     1000 
 2882000   0.80080946   -1.6472757     1.200013  -0.44726274   0.13319979    11817.739     1000 
 2884000   0.74163609   -1.6472661    1.1113417  -0.53592441   0.12979424    11726.771     1000 
 2886000   0.73973271   -1.6430703    1.1084895  -0.53458079   0.12360726     11731.58     1000 
 2888000   0.77369096   -1.6503625    1.1593759  -0.49098657   0.13179762    11802.883     1000 
 2890000    0.7887275    -1.636484    1.1819082  -0.45457589   0.13804797    11752.475     1000 
 2892000   0.73534781    -1.635692    1.1019187  -0.53377326    0.1236052    11842.454     1000 
 2894000   0.73019051   -1.6556736    1.0941905  -0.56148313   0.11593172    11944.318     1000 
 2896000   0.77919829   -1.6560066    1.1676286  -0.48837795   0.13326262    11922.304     1000 
 2898000    0.7009245   -1.6527074    1.0503354  -0.60237204   0.11380166    11906.211     1000 
 2900000   0.77078604   -1.6711756    1.1550229   -0.5161527    0.1295314      11714.6     1000 
 2902000   0.73912519    -1.616091    1.1075791  -0.50851188   0.13452968    11706.048     1000 
 2904000   0.73747979   -1.6605783    1.1051135  -0.55546483   0.12283652     11924.26     1000 
 2906000   0.75210272   -1.6128585    1.1270259  -0.48583255   0.12337404    11940.531     1000 
 2908000   0.76126779   -1.6175578    1.1407598    -0.476798   0.12830924    12011.357     1000 
 2910000   0.77918247   -1.6306912    1.1676049  -0.46308622   0.13145526    11799.503     1000 
 2912000   0.75898649   -1.7086447    1.1373413  -0.57130344   0.14026455    11839.904     1000 
 2914000   0.75654609    -1.675684    1.1336843  -0.54199968    0.1386285     11926.37     1000 
 2916000   0.73020569    -1.663747    1.0942132  -0.56953379   0.11407015    11793.583     1000 
 2918000    0.7461119   -1.6450519    1.1180487  -0.52700325   0.14460261     11683.94     1000 
 2920000   0.74907445   -1.6595833    1.1224881  -0.53709525   0.11795899    12050.402     1000 
 2922000   0.74999409   -1.6996824    1.1238661  -0.57581622   0.12866352    11806.512     1000 
 2924000   0.77198782   -1.5753436    1.1568237  -0.41851986     0.139286    11835.863     1000 
 2926000   0.73507865   -1.6172787    1.1015154  -0.51576333     0.142364    11674.201     1000 
 2928000   0.77640602   -1.6520695    1.1634444  -0.48862509   0.13933761    11878.238     1000 
 2930000   0.73047311   -1.6774715     1.094614  -0.58285757    0.1224022     11817.22     1000 
 2932000   0.74982888   -1.6741788    1.1236186  -0.55056019   0.12619159    11942.762     1000 
 2934000   0.72961166   -1.6889529    1.0933231  -0.59562981   0.12708123    11898.585     1000 
 2936000   0.75044838    -1.647766    1.1245469  -0.52321906    0.1441208    11802.671     1000 
 2938000   0.75725364   -1.6923549    1.1347446  -0.55761035   0.13076735    11708.588     1000 
 2940000   0.78989344   -1.6077179    1.1836553  -0.42406262   0.14071648    11730.153     1000 
 2942000   0.73775805   -1.6105482    1.1055304  -0.50501779   0.14583826    11716.288     1000 
 2944000   0.73041361   -1.6266405    1.0945248  -0.53211572   0.12808524    11718.283     1000 
 2946000   0.76342186   -1.6220667    1.1439877  -0.47807908   0.14251571    11658.134     1000 
 2948000   0.76157362   -1.5994916    1.1412181  -0.45827348    0.1422239    11554.092     1000 
 2950000   0.72814353   -1.6733559    1.0911231  -0.58223286    0.1202204    11845.078     1000 
 2952000   0.72093821   -1.6890594    1.0803259  -0.60873352   0.13468053    11668.095     1000 
 2954000   0.76444205   -1.6344646    1.1455164  -0.48894818   0.11644996    11914.516     1000 
 2956000   0.72935557   -1.6383852    1.0929393  -0.54544585   0.12719821    11501.742     1000 
 2958000   0.74944417   -1.6422957    1.1230421  -0.51925358   0.13433473    11712.799     1000 
 2960000   0.73846469   -1.7074031    1.1065893  -0.60081376   0.12369537    12148.901     1000 
 2962000   0.76006519   -1.5850193    1.1389577  -0.44606157   0.12164856    11857.882     1000 
 2964000   0.76472959   -1.6222566    1.1459473  -0.47630935   0.12907206    11883.995     1000 
 2966000    0.7585522   -1.6285715    1.1366905  -0.49188102   0.13315747    11660.871     1000 
 2968000   0.74504789   -1.6902496    1.1164543   -0.5737953     0.132902    11554.573     1000 
 2970000   0.77242013   -1.6692104    1.1574716  -0.51173881   0.12584159    11673.706     1000 
 2972000   0.77373927   -1.6857854    1.1594483  -0.52633709   0.12777076    12013.005     1000 
 2974000   0.72387622   -1.6162979    1.0847285  -0.53156937   0.13283559    11774.593     1000 
 2976000   0.75851374    -1.634214    1.1366328  -0.49758116   0.12146757    11839.732     1000 
 2978000   0.74084276   -1.6275004    1.1101529  -0.51734748   0.12575601    11770.093     1000 
 2980000   0.73660629   -1.6423147    1.1038045  -0.53851017   0.13545455    11588.703     1000 
 2982000   0.75198411   -1.6424223    1.1268482  -0.51557415   0.12867703    11730.274     1000 
 2984000   0.73054432     -1.66979    1.0947207  -0.57506934   0.13599033    11977.375     1000 
 2986000   0.76812345   -1.6417448     1.151033   -0.4907118   0.16028677    11500.191     1000 
 2988000   0.75307734   -1.6598128    1.1284864   -0.5313264   0.13928753    11820.244     1000 
 2990000   0.78657069   -1.6345501    1.1786762   -0.4558739   0.13790194    11754.017     1000 
 2992000   0.72650686   -1.6636938    1.0886705  -0.57502324   0.12174138    11960.482     1000 
 2994000   0.77281985   -1.6011927    1.1580705  -0.44312217   0.14363521    11344.881     1000 
 2996000   0.73423577   -1.6278473    1.1002523  -0.52759497    0.1382325    11538.326     1000 
 2998000   0.74435592   -1.6192296    1.1154173  -0.50381221   0.11726254    11916.005     1000 
 3000000   0.75973952   -1.5518846    1.1384697  -0.41341497   0.14285647    11924.093     1000 
Loop time of 1072.96 on 4 procs for 3000000 steps with 1000 atoms

Performance: 1207871.965 tau/day, 2796.000 timesteps/s
95.3% CPU use with 4 MPI tasks x no OpenMP threads

MPI task timing breakdown:
Section |  min time  |  avg time  |  max time  |%varavg| %total
---------------------------------------------------------------
Pair    | 781.23     | 783.21     | 787.39     |   8.7 | 73.00
Neigh   | 75.063     | 75.115     | 75.233     |   0.8 |  7.00
Comm    | 158.78     | 163.07     | 165.05     |  19.6 | 15.20
Output  | 0.023311   | 0.025783   | 0.033108   |   2.6 |  0.00
Modify  | 44.653     | 44.866     | 44.98      |   1.9 |  4.18
Other   |            | 6.669      |            |       |  0.62

Nlocal:    250 ave 256 max 241 min
Histogram: 1 0 0 0 0 0 1 1 0 1
Nghost:    1663.75 ave 1685 max 1649 min
Histogram: 1 0 1 0 1 0 0 0 0 1
Neighs:    13725.8 ave 14300 max 13121 min
Histogram: 1 0 0 1 0 0 1 0 0 1

Total # of neighbors = 54903
Ave neighs/atom = 54.903
Neighbor list builds = 150000
Dangerous builds not checked

Total wall time: 0:17:52
