LAMMPS (3 Mar 2020)
# ----------------------- Inicialização -----------------------

units			lj
atom_style 		atomic
dimension 		3
boundary 		p p p

# -------------------- Criação dos Átomos ---------------------

read_data 		topologia.txt
  orthogonal box = (0 0 0) to (21.54 21.54 21.54)
  1 by 2 by 2 MPI processor grid
  reading atoms ...
  1000 atoms
  read_data CPU = 0.00195408 secs

velocity 		all create ${temp} 87287 rot yes dist gaussian
velocity 		all create 0.32 87287 rot yes dist gaussian

# ------------------ Interação Interatômica -------------------

pair_style		table linear 1300
pair_coeff		1 1 force.table AA 6.5
WARNING: 2 of 1300 force values in table are inconsistent with -dE/dr.
  Should only be flagged at inflection points (src/pair_table.cpp:483)
pair_coeff		1 2 force.table AB 6.5
WARNING: 1 of 1300 force values in table are inconsistent with -dE/dr.
  Should only be flagged at inflection points (src/pair_table.cpp:483)
pair_coeff		2 2 force.table BB 6.5
pair_write		1 1 1600 r 0.008 6.5 table.check AA
Neighbor list info ...
  update every 1 steps, delay 10 steps, check yes
  max neighbors/atom: 2000, page size: 100000
  master list distance cutoff = 6.8
  ghost atom cutoff = 6.8
  binsize = 3.4, bins = 7 7 7
  1 neighbor lists, perpetual/occasional/extra = 1 0 0
  (1) pair table, perpetual
      attributes: half, newton on
      pair build: half/bin/atomonly/newton
      stencil: half/bin/3d/newton
      bin: standard
pair_write		1 2 1600 r 0.008 6.5 table.check AB
pair_write		2 2 1600 r 0.008 6.5 table.check BB

neighbor 		0.3 bin
neigh_modify	every 20 delay 0 check no

# ------------------------- Ensemble --------------------------------------

fix 1			all npt temp ${temp} ${temp} 0.5 iso ${press} ${press} 5
fix 1			all npt temp 0.32 ${temp} 0.5 iso ${press} ${press} 5
fix 1			all npt temp 0.32 0.32 0.5 iso ${press} ${press} 5
fix 1			all npt temp 0.32 0.32 0.5 iso 0.13 ${press} 5
fix 1			all npt temp 0.32 0.32 0.5 iso 0.13 0.13 5

# ---------------------- Função de Distribuição Radial -----------------------

#compute RDF 	all rdf 2000 1 1 1 2 2 2
#fix 2 			all ave/time 1 2000 2000 c_RDF[*] file rdf.data mode vector

# ------------------------- Execução ---------------------------

timestep 		0.005
thermo_style	custom step temp pe ke etotal press vol atoms
thermo			2000
run				3000000
Per MPI rank memory allocation (min/avg/max) = 2.675 | 2.675 | 2.675 Mbytes
Step Temp PotEng KinEng TotEng Press Volume Atoms 
       0         0.32   -0.9940566      0.47952   -0.5145366   0.10038638    9993.9483     1000 
    2000   0.32193487   -2.4589143    0.4824194   -1.9764949   0.12751481     11306.75     1000 
    4000   0.31934575   -2.4674957    0.4785396   -1.9889561   0.14319606    11223.331     1000 
    6000   0.30790412   -2.5205958   0.46139433   -2.0592015   0.13498028    11392.241     1000 
    8000   0.31215356   -2.5365083   0.46776211   -2.0687462   0.12959665    11378.497     1000 
   10000   0.31362174   -2.5290174   0.46996218   -2.0590553   0.13090475    11393.578     1000 
   12000   0.32108852   -2.5436558   0.48115115   -2.0625046   0.12706928    11397.244     1000 
   14000   0.31107489   -2.5470147   0.46614573    -2.080869   0.12998863    11385.693     1000 
   16000   0.30905603   -2.5498284   0.46312047   -2.0867079    0.1303241    11354.518     1000 
   18000     0.321764    -2.563008   0.48216335   -2.0808446   0.11703504     11485.76     1000 
   20000   0.31676468   -2.5427068   0.47467188   -2.0680349   0.12735306    11447.458     1000 
   22000   0.31718715   -2.5453314   0.47530495   -2.0700264   0.12244372    11447.927     1000 
   24000    0.3190492   -2.5309733   0.47809522   -2.0528781   0.13280959    11389.625     1000 
   26000   0.32025121   -2.5259434   0.47989644    -2.046047   0.13081592    11406.496     1000 
   28000   0.32001498   -2.4925061   0.47954244   -2.0129636    0.1273431    11352.339     1000 
   30000   0.32757005   -2.4896823   0.49086372   -1.9988186   0.13322445    11305.991     1000 
   32000   0.33168252   -2.5051179   0.49702626   -2.0080916   0.12177452     11384.08     1000 
   34000   0.32677366   -2.5272368   0.48967033   -2.0375665   0.12775728    11398.438     1000 
   36000   0.32188568   -2.5097786   0.48234569   -2.0274329   0.13385018    11341.923     1000 
   38000   0.32033729    -2.472956   0.48002543   -1.9929306   0.12777839    11337.697     1000 
   40000   0.32387931    -2.497966   0.48533314   -2.0126329   0.13486527     11308.63     1000 
   42000   0.31839216   -2.5384912   0.47711065   -2.0613805   0.12490136    11382.191     1000 
   44000   0.31716617   -2.5561678    0.4752735   -2.0808943    0.1320313    11362.999     1000 
   46000   0.30996887   -2.4918269   0.46448836   -2.0273385   0.12903866    11380.168     1000 
   48000   0.32393697   -2.5244707   0.48541956   -2.0390511   0.12090482    11440.355     1000 
   50000   0.30887283   -2.4781887   0.46284593   -2.0153428   0.12976664    11341.496     1000 
   52000   0.31906394   -2.5810702   0.47811732   -2.1029529    0.1207843    11459.041     1000 
   54000   0.32305782   -2.5648349   0.48410214   -2.0807328   0.12398788    11456.232     1000 
   56000   0.32591943   -2.5490019   0.48839027   -2.0606116   0.11784556    11473.558     1000 
   58000   0.31763285   -2.5259363   0.47597283   -2.0499635   0.12259516    11435.635     1000 
   60000   0.31206243   -2.5153299   0.46762555   -2.0477043   0.12621167    11349.714     1000 
   62000   0.32054049   -2.5177311   0.48032993   -2.0374012   0.13650013    11340.866     1000 
   64000   0.31310378   -2.5441298   0.46918601   -2.0749438   0.12882029     11387.22     1000 
   66000   0.31958715    -2.539906   0.47890135   -2.0610046   0.12348111    11418.461     1000 
   68000   0.33259637   -2.5113928   0.49839565   -2.0129971   0.12396935    11382.771     1000 
   70000   0.32111137   -2.4804738   0.48118539   -1.9992884   0.13274987    11337.942     1000 
   72000   0.32384901   -2.5155054   0.48528775   -2.0302176   0.13268192    11309.377     1000 
   74000   0.31367839   -2.5425814   0.47004707   -2.0725344   0.12328721    11421.447     1000 
   76000   0.31131841   -2.5267952   0.46651064   -2.0602845   0.11659219    11463.967     1000 
   78000   0.32840937   -2.5083479   0.49212144   -2.0162264   0.13799542    11270.263     1000 
   80000   0.32806234   -2.4992294   0.49160142    -2.007628    0.1385797    11362.637     1000 
   82000   0.32618158   -2.5154857    0.4887831   -2.0267026   0.14332887    11279.283     1000 
   84000   0.32596379   -2.5028072   0.48845674   -2.0143504    0.1292844    11368.919     1000 
   86000   0.31338778   -2.5093999   0.46961158   -2.0397884   0.12988445    11375.969     1000 
   88000   0.31819557   -2.5043226   0.47681606   -2.0275066   0.12052823    11439.851     1000 
   90000   0.30953561    -2.534402   0.46383911   -2.0705629   0.12731028    11409.416     1000 
   92000   0.31580653   -2.5285044   0.47323608   -2.0552683   0.12965819    11378.122     1000 
   94000   0.31600936   -2.5150815   0.47354003   -2.0415415   0.12175944    11440.998     1000 
   96000   0.32083976   -2.5112181   0.48077838   -2.0304397   0.12941223    11372.033     1000 
   98000   0.32775389   -2.5232496    0.4911392   -2.0321104   0.12964582    11301.492     1000 
  100000   0.31110025   -2.5253845   0.46618373   -2.0592008   0.13274766    11330.808     1000 
  102000    0.3158192   -2.5122853   0.47325507   -2.0390302   0.12878605     11355.53     1000 
  104000   0.32629594   -2.5253882   0.48895447   -2.0364337   0.13701936    11305.698     1000 
  106000    0.3148061   -2.5171283   0.47173693   -2.0453914   0.12717169    11359.408     1000 
  108000   0.33620658   -2.5046755   0.50380556     -2.00087   0.13257707     11316.15     1000 
  110000   0.31630132   -2.4908931   0.47397753   -2.0169155   0.13579351    11355.324     1000 
  112000    0.3198739   -2.5033737   0.47933104   -2.0240427   0.12263829     11468.41     1000 
  114000   0.32045583   -2.4800014   0.48020306   -1.9997983   0.13248866    11345.061     1000 
  116000   0.31472658   -2.4949204   0.47161778   -2.0233026   0.12555533     11426.95     1000 
  118000    0.3200498   -2.5351766   0.47959462    -2.055582   0.12613729    11424.377     1000 
  120000   0.31814087   -2.5681097   0.47673409   -2.0913756    0.1249448    11407.733     1000 
  122000   0.33094044   -2.4985214   0.49591424   -2.0026072   0.13306915    11317.543     1000 
  124000   0.31345969   -2.5523254   0.46971934    -2.082606   0.13312976    11394.365     1000 
  126000   0.32870499   -2.5445627   0.49256442   -2.0519983   0.13104361    11409.931     1000 
  128000   0.32483295   -2.5324794   0.48676217   -2.0457173   0.12781497    11477.066     1000 
  130000   0.31590145   -2.5450029   0.47337832   -2.0716246    0.1280041    11415.667     1000 
  132000   0.31815347   -2.5255465   0.47675298   -2.0487935   0.12212079    11397.508     1000 
  134000    0.3180625   -2.5270574   0.47661665   -2.0504408   0.13553175    11372.763     1000 
  136000   0.32132774   -2.5175393   0.48150962   -2.0360297   0.13670153    11301.066     1000 
  138000   0.30922821   -2.5565226   0.46337847   -2.0931441   0.12576318    11397.078     1000 
  140000   0.32910043   -2.5189155     0.493157   -2.0257585   0.13324921    11373.878     1000 
  142000   0.31986742   -2.5397622   0.47932133   -2.0604409   0.13311589    11355.415     1000 
  144000   0.31712718   -2.5381171   0.47521508    -2.062902   0.13316148    11377.454     1000 
  146000    0.3365869   -2.5162717   0.50437547   -2.0118962   0.12069681    11410.115     1000 
  148000   0.31356482   -2.5528483   0.46987689   -2.0829714   0.13214138    11409.598     1000 
  150000   0.31655865   -2.5119149   0.47436314   -2.0375517    0.1363441    11269.043     1000 
  152000   0.29992128    -2.522219   0.44943205    -2.072787   0.12581492    11378.448     1000 
  154000   0.31359931   -2.5382026   0.46992856    -2.068274   0.12846877    11382.967     1000 
  156000   0.31711029   -2.5510317   0.47518977   -2.0758419   0.11930994     11420.84     1000 
  158000   0.31576714   -2.5143387   0.47317706   -2.0411616   0.13277622    11364.519     1000 
  160000   0.32123415   -2.5202357   0.48136938   -2.0388663   0.12990408    11365.659     1000 
  162000   0.32154228   -2.5232652    0.4818311   -2.0414341   0.13260346        11358     1000 
  164000   0.32652563   -2.5151304   0.48929866   -2.0258317   0.13024996    11363.973     1000 
  166000   0.29907549   -2.4690906   0.44816463    -2.020926   0.13546602    11286.208     1000 
  168000   0.31596725    -2.549147   0.47347693   -2.0756701   0.12447487    11419.498     1000 
  170000   0.31825369    -2.477584   0.47690316   -2.0006808   0.13001666     11389.33     1000 
  172000   0.31797249   -2.5610261   0.47648178   -2.0845444   0.12458603    11447.974     1000 
  174000   0.32743662   -2.4939305   0.49066377   -2.0032667   0.13329474    11312.345     1000 
  176000   0.31222782   -2.5261854   0.46787339    -2.058312   0.13426496    11377.858     1000 
  178000    0.3297846   -2.5400409   0.49418222   -2.0458586   0.14046703    11385.822     1000 
  180000   0.31043363   -2.5416592    0.4651848   -2.0764744   0.12792184    11391.816     1000 
  182000   0.31432278   -2.5169973   0.47101269   -2.0459846    0.1301489    11396.686     1000 
  184000   0.30466906   -2.5202523   0.45654658   -2.0637057   0.12800143    11399.987     1000 
  186000   0.32824939   -2.5283795   0.49188171   -2.0364977   0.13540199    11350.051     1000 
  188000   0.32454896   -2.4971359   0.48633662   -2.0107993   0.13178917    11389.415     1000 
  190000   0.31018749   -2.5634673   0.46481595   -2.0986514   0.11664369     11435.74     1000 
  192000   0.32422441   -2.5143913   0.48585027    -2.028541   0.12122404     11441.64     1000 
  194000   0.31972533   -2.5268163   0.47910841   -2.0477079   0.11875152    11454.199     1000 
  196000   0.32223044   -2.4815276   0.48286232   -1.9986653   0.13615827    11259.832     1000 
  198000   0.33223751   -2.4994676   0.49785792   -2.0016097    0.1321467    11348.997     1000 
  200000   0.32109721   -2.5215074   0.48116417   -2.0403432    0.1171813     11498.76     1000 
  202000   0.33447155   -2.5234426   0.50120561    -2.022237   0.13232437    11349.122     1000 
  204000   0.31900946     -2.52331   0.47803567   -2.0452744   0.12559064    11428.534     1000 
  206000   0.31032794   -2.5289252   0.46502642   -2.0638988   0.12318364     11443.99     1000 
  208000   0.31191494   -2.5248694   0.46740453   -2.0574648   0.12683417    11353.588     1000 
  210000   0.29839942   -2.5382328   0.44715153   -2.0910813   0.12785959    11369.248     1000 
  212000   0.32766704   -2.5464629   0.49100906   -2.0554538   0.13824728    11385.799     1000 
  214000   0.32623854   -2.5039862   0.48886845   -2.0151177   0.13405159     11364.94     1000 
  216000   0.30649516   -2.4960128     0.459283   -2.0367298   0.13406613    11326.657     1000 
  218000   0.32659493   -2.5228052   0.48940251   -2.0334027   0.12855283     11415.83     1000 
  220000   0.31121756   -2.4945921   0.46635951   -2.0282326   0.13575555    11335.926     1000 
  222000   0.30910305    -2.532564   0.46319092   -2.0693731   0.13505631     11390.45     1000 
  224000   0.31599836   -2.5535541   0.47352354   -2.0800305   0.12715025    11390.224     1000 
  226000   0.32133728   -2.5727218   0.48152392   -2.0911979   0.13429631    11382.681     1000 
  228000   0.32609218   -2.5217065   0.48864913   -2.0330573   0.12535761    11467.549     1000 
  230000   0.32496749   -2.4988456   0.48696378   -2.0118818   0.13748868     11312.18     1000 
  232000   0.31905971   -2.5016566   0.47811098   -2.0235456   0.13683411    11307.658     1000 
  234000    0.3156356   -2.5413877   0.47297995   -2.0684078    0.1211273    11474.302     1000 
  236000   0.33336905   -2.5403056   0.49955352    -2.040752   0.13407841    11369.947     1000 
  238000   0.32603461   -2.5357237   0.48856287   -2.0471609   0.13425331    11371.263     1000 
  240000    0.3254939   -2.5367729    0.4877526   -2.0490203   0.13403994    11424.592     1000 
  242000   0.30609246   -2.5683363   0.45867955   -2.1096568   0.13234652    11380.574     1000 
  244000   0.31982176   -2.5312613   0.47925291   -2.0520083   0.13404214    11323.945     1000 
  246000   0.32487823   -2.5372174   0.48683003   -2.0503874   0.12975843    11363.184     1000 
  248000   0.32509269   -2.5478711    0.4871514   -2.0607197    0.1356151    11393.629     1000 
  250000   0.32030013    -2.493224   0.47996975   -2.0132543   0.13310354    11252.121     1000 
  252000   0.31707924   -2.5095274   0.47514325   -2.0343842   0.12415308    11456.679     1000 
  254000    0.3140879   -2.5115307   0.47066072   -2.0408699   0.13289359    11374.035     1000 
  256000   0.30847769   -2.5273219   0.46225381   -2.0650681   0.13198205    11403.259     1000 
  258000   0.31687877   -2.5503588   0.47484283   -2.0755159   0.12608343    11484.064     1000 
  260000   0.33373754   -2.5234626   0.50010571   -2.0233569    0.1305542    11373.749     1000 
  262000   0.31016701    -2.526787   0.46478527   -2.0620017    0.1257638    11377.886     1000 
  264000   0.32247495    -2.513557   0.48322872   -2.0303282     0.127723    11352.776     1000 
  266000   0.30763941   -2.4902598   0.46099765   -2.0292621    0.1313463    11287.132     1000 
  268000    0.3390039   -2.5503086   0.50799734   -2.0423113   0.12947182     11400.38     1000 
  270000   0.31401249   -2.4929673   0.47054771   -2.0224196   0.12954759    11355.207     1000 
  272000   0.33446151   -2.5506417   0.50119058   -2.0494512   0.14103093    11349.816     1000 
  274000   0.32473732   -2.5072951   0.48661888   -2.0206762   0.12423964    11445.026     1000 
  276000   0.32622163   -2.5053641   0.48884311    -2.016521   0.12863897    11358.352     1000 
  278000   0.32504123     -2.54027   0.48707428   -2.0531958   0.11741125    11395.097     1000 
  280000   0.31803853   -2.4773233   0.47658073   -2.0007425   0.12558398    11363.747     1000 
  282000   0.31334246   -2.5220856   0.46954368   -2.0525419   0.13300209    11323.748     1000 
  284000   0.33003792   -2.5013678   0.49456183    -2.006806   0.12696527    11374.892     1000 
  286000   0.33174929   -2.5142861   0.49712631   -2.0171598   0.11433271    11478.229     1000 
  288000   0.32181385   -2.4767055   0.48223805   -1.9944674    0.1264824     11376.52     1000 
  290000   0.31266183   -2.5137305   0.46852375   -2.0452068   0.14293123    11309.824     1000 
  292000   0.31215638   -2.5420067   0.46776633   -2.0742404   0.12549559    11432.692     1000 
  294000   0.32686346   -2.5102163   0.48980489   -2.0204114   0.13866424    11351.324     1000 
  296000   0.32887713   -2.4950994   0.49282239    -2.002277   0.12577397    11460.482     1000 
  298000   0.32114151   -2.4976315   0.48123055    -2.016401    0.1383936    11318.063     1000 
  300000   0.32015998   -2.5205398   0.47975973     -2.04078   0.12650964    11417.214     1000 
  302000   0.33269956   -2.5099524    0.4985503   -2.0114021   0.13081018    11335.834     1000 
  304000   0.32470892   -2.4912164   0.48657631   -2.0046401   0.12345414    11361.521     1000 
  306000   0.32442682   -2.4955326   0.48615359    -2.009379   0.13361212    11324.743     1000 
  308000   0.32507039   -2.5085741   0.48711798   -2.0214561   0.12944628    11417.957     1000 
  310000   0.31359952   -2.4965549   0.46992888    -2.026626    0.1272474    11381.527     1000 
  312000   0.31450254   -2.5132751   0.47128206    -2.041993   0.13791772    11275.669     1000 
  314000   0.31511019   -2.5113649   0.47219263   -2.0391723   0.13302038    11319.956     1000 
  316000    0.3243933    -2.499288   0.48610335   -2.0131847   0.13480599    11345.688     1000 
  318000   0.32744349   -2.5333601   0.49067407    -2.042686   0.12681037    11442.145     1000 
  320000   0.31808312   -2.5468103   0.47664756   -2.0701627   0.12096197    11469.509     1000 
  322000   0.32861529   -2.5279333   0.49243001   -2.0355033   0.14126074    11367.594     1000 
  324000   0.31922566   -2.5269322   0.47835965   -2.0485726   0.12832832    11387.084     1000 
  326000   0.32595139   -2.4838446   0.48843816   -1.9954065   0.13879009    11328.198     1000 
  328000    0.3044326   -2.5227342   0.45619225   -2.0665419   0.12704965      11362.2     1000 
  330000    0.3166721   -2.5330589   0.47453315   -2.0585257   0.13297896    11444.029     1000 
  332000   0.32552186   -2.5151386   0.48779451   -2.0273441   0.13676356    11322.047     1000 
  334000   0.31373046   -2.5581569   0.47012509   -2.0880318   0.12338625    11423.646     1000 
  336000   0.32047661    -2.539383    0.4802342   -2.0591488   0.13341751    11342.182     1000 
  338000   0.29427905   -2.5185663   0.44097716   -2.0775892   0.12739257    11375.144     1000 
  340000    0.3221636   -2.5188986   0.48276215   -2.0361365   0.12943627    11339.571     1000 
  342000   0.32714841   -2.4979579    0.4902319    -2.007726   0.12590334    11382.767     1000 
  344000    0.3209746   -2.4806066   0.48098044   -1.9996262   0.12795362    11394.806     1000 
  346000   0.30805697   -2.5369395   0.46162337   -2.0753161   0.12436409    11421.179     1000 
  348000    0.3143286   -2.5432475   0.47102141   -2.0722261   0.11833435    11493.205     1000 
  350000   0.32901672   -2.5356109   0.49303156   -2.0425793   0.13057106     11393.05     1000 
  352000   0.32429972   -2.5187175   0.48596314   -2.0327543   0.12830305    11399.522     1000 
  354000    0.3259375   -2.5253242   0.48841734   -2.0369068   0.13400614    11365.017     1000 
  356000   0.32172557   -2.5104966   0.48210577   -2.0283908   0.13504015    11347.856     1000 
  358000   0.32573362   -2.5461439   0.48811183   -2.0580321   0.11765743     11482.49     1000 
  360000   0.31714037   -2.4957095   0.47523484   -2.0204746   0.13237666    11339.907     1000 
  362000   0.33325446   -2.4962814   0.49938182   -1.9968996   0.12768344    11301.453     1000 
  364000   0.33094222   -2.5209376   0.49591692   -2.0250206   0.12101323    11476.315     1000 
  366000   0.32638518   -2.5078737   0.48908819   -2.0187855   0.14792972    11326.581     1000 
  368000   0.31362612   -2.5345596   0.46996874   -2.0645908   0.11776726    11444.993     1000 
  370000   0.32458818   -2.5200993   0.48639538   -2.0337039   0.11564967    11435.452     1000 
  372000   0.31925514   -2.4901768   0.47840382    -2.011773   0.11928934    11389.264     1000 
  374000   0.32973829   -2.4840997   0.49411282   -1.9899869   0.13610051    11321.692     1000 
  376000   0.31997771    -2.538641    0.4794866   -2.0591544   0.11847432     11448.95     1000 
  378000   0.32335419   -2.5076629   0.48454625   -2.0231167   0.13452727    11357.213     1000 
  380000   0.30892104    -2.513289   0.46291818   -2.0503708   0.13725984    11351.916     1000 
  382000   0.31818941   -2.4998732   0.47680683   -2.0230664   0.12727883    11413.562     1000 
  384000   0.32652438   -2.5022801   0.48929678   -2.0129833   0.12753919    11384.895     1000 
  386000   0.32224371   -2.5501939    0.4828822   -2.0673117    0.1336564    11369.743     1000 
  388000     0.321403   -2.4982136   0.48162239   -2.0165912   0.12225353    11416.092     1000 
  390000   0.31720365   -2.5072007   0.47532968   -2.0318711   0.11561072    11457.826     1000 
  392000     0.325349   -2.5036416   0.48753547   -2.0161061   0.13587677    11407.467     1000 
  394000   0.31227714   -2.5406742   0.46794729    -2.072727   0.12773398    11392.641     1000 
  396000    0.3139876   -2.5501612   0.47051042   -2.0796508    0.1233612    11493.977     1000 
  398000   0.32425686   -2.5063552   0.48589891   -2.0204563   0.12059197    11487.168     1000 
  400000   0.31839465   -2.5139707   0.47711439   -2.0368564   0.12665272    11348.064     1000 
  402000   0.32216788   -2.5193067   0.48276857   -2.0365381     0.145737    11245.898     1000 
  404000   0.30988403   -2.4972979   0.46436122   -2.0329367   0.12260844    11396.196     1000 
  406000   0.33269043   -2.5105516    0.4985366    -2.012015   0.12540074    11378.417     1000 
  408000   0.32987206   -2.5062162   0.49431328   -2.0119029    0.1296937    11398.371     1000 
  410000   0.32180918   -2.5188932   0.48223105   -2.0366622     0.131257    11358.359     1000 
  412000   0.31762222   -2.5371064    0.4759569   -2.0611495   0.13544868      11339.4     1000 
  414000   0.30828418   -2.5330114   0.46196384   -2.0710476   0.12939506    11336.976     1000 
  416000    0.3133927   -2.5027412   0.46961897   -2.0331223   0.13135767    11354.177     1000 
  418000   0.31525157   -2.4877391   0.47240448   -2.0153346   0.11806217    11399.883     1000 
  420000   0.32465142   -2.5124932   0.48649016   -2.0260031     0.117902    11471.556     1000 
  422000    0.3297475   -2.5641069   0.49412663   -2.0699802   0.13324083    11417.167     1000 
  424000   0.33429059   -2.5246833   0.50093445   -2.0237488   0.14008943    11277.399     1000 
  426000   0.31108553   -2.4962555   0.46616167   -2.0300938   0.13400677    11282.061     1000 
  428000   0.32014599   -2.5266184   0.47973877   -2.0468796   0.13374771    11371.796     1000 
  430000   0.31612393   -2.5357938    0.4737117   -2.0620821   0.13035618     11368.53     1000 
  432000   0.33019733   -2.5334591    0.4948007   -2.0386584   0.13629155      11298.7     1000 
  434000   0.32651371    -2.521453   0.48928079   -2.0321722   0.12261361     11478.13     1000 
  436000   0.32310901   -2.4838083   0.48417886   -1.9996295   0.15074644     11192.05     1000 
  438000   0.31343182   -2.4956692   0.46967758   -2.0259917   0.11414063    11412.594     1000 
  440000   0.32356752   -2.4997144   0.48486593   -2.0148484   0.13229377    11340.919     1000 
  442000   0.31847581   -2.4951537   0.47723601   -2.0179177   0.13333889    11371.845     1000 
  444000   0.30590558   -2.5175326   0.45839951   -2.0591331   0.12786375    11369.898     1000 
  446000   0.33488884   -2.4539808   0.50183092   -1.9521498   0.14971902    11273.114     1000 
  448000   0.31123376   -2.5193852   0.46638379   -2.0530014   0.13668617    11389.658     1000 
  450000   0.31703615   -2.5257797   0.47507866    -2.050701    0.1175566    11439.143     1000 
  452000   0.32212059   -2.5137621    0.4826977   -2.0310644   0.12842145    11407.013     1000 
  454000   0.31841493   -2.4894501   0.47714478   -2.0123053   0.12705572    11407.946     1000 
  456000   0.31232216   -2.4968509   0.46801476   -2.0288361   0.13025879    11406.318     1000 
  458000   0.30615803   -2.5562079   0.45877781   -2.0974301   0.12848907    11359.615     1000 
  460000   0.31501866    -2.486152   0.47205546   -2.0140965    0.1304705    11356.799     1000 
  462000   0.33093211   -2.5228583   0.49590177   -2.0269565   0.13495949     11410.58     1000 
  464000     0.324914    -2.530355   0.48688362   -2.0434713    0.1206933    11479.777     1000 
  466000   0.31614769   -2.5016125   0.47374731   -2.0278652   0.12937023    11378.802     1000 
  468000   0.32362322   -2.5209428    0.4849494   -2.0359934   0.13189043    11386.681     1000 
  470000    0.3121063   -2.5501261   0.46769129   -2.0824348    0.1201758    11441.068     1000 
  472000   0.31984376   -2.4977985   0.47928587   -2.0185127   0.13193781     11360.53     1000 
  474000   0.32187436   -2.5283886   0.48232873   -2.0460599   0.13045389    11437.285     1000 
  476000   0.32004101   -2.5605005   0.47958146   -2.0809191    0.1215754      11445.7     1000 
  478000   0.32058465   -2.5274803    0.4803961   -2.0470842   0.12767842    11437.365     1000 
  480000   0.32847795   -2.4985632    0.4922242   -2.0063389   0.12737285    11377.199     1000 
  482000   0.31142674   -2.5472597   0.46667298   -2.0805867   0.12919937    11334.595     1000 
  484000    0.3150932   -2.5556056   0.47216716   -2.0834384   0.12119477    11451.089     1000 
  486000   0.32381061   -2.5533759    0.4852302   -2.0681457   0.11939453    11431.558     1000 
  488000   0.31961012   -2.5256802   0.47893577   -2.0467444   0.12282791    11355.844     1000 
  490000   0.32025463   -2.5174013   0.47990156   -2.0374997   0.12907745    11326.632     1000 
  492000   0.30457117   -2.5093927   0.45639989   -2.0529928   0.12873973    11342.248     1000 
  494000   0.32049307   -2.5543875   0.48025887   -2.0741286   0.13477883    11372.829     1000 
  496000   0.31682045   -2.5221054   0.47475544   -2.0473499   0.12495382    11354.181     1000 
  498000   0.29931324    -2.466391    0.4485209   -2.0178701   0.13481644    11288.965     1000 
  500000   0.32243654   -2.5055445   0.48317115   -2.0223733   0.13166512    11352.819     1000 
  502000   0.31769604   -2.5287876   0.47606752   -2.0527201   0.12748138    11361.575     1000 
  504000   0.32538312   -2.5206254   0.48758661   -2.0330387   0.13478925    11304.096     1000 
  506000   0.32122454   -2.5252208   0.48135498   -2.0438659   0.11825859     11364.92     1000 
  508000   0.32863982   -2.4889407   0.49246677    -1.996474   0.13534231    11312.853     1000 
  510000   0.32040738   -2.5339476   0.48013045   -2.0538171   0.12440772    11452.138     1000 
  512000   0.32144786   -2.5546383   0.48168962   -2.0729486   0.13029678    11383.301     1000 
  514000   0.32541188   -2.5447364    0.4876297   -2.0571067   0.13107227    11416.084     1000 
  516000   0.32327272   -2.5377191   0.48442418   -2.0532949   0.13330615    11382.991     1000 
  518000   0.32095727   -2.5540392   0.48095447   -2.0730848   0.12307754    11459.433     1000 
  520000   0.31772451   -2.5252392   0.47611018    -2.049129     0.124468    11425.737     1000 
  522000   0.31787651   -2.5260795   0.47633794   -2.0497416   0.13228335    11400.474     1000 
  524000   0.31988753   -2.5173836   0.47935147   -2.0380321   0.13047091    11376.331     1000 
  526000   0.32221184   -2.5150838   0.48283444   -2.0322493    0.1238523    11452.148     1000 
  528000   0.31795926   -2.4791194   0.47646195   -2.0026575   0.11921797    11443.494     1000 
  530000   0.33016809   -2.5239194   0.49475688   -2.0291625   0.12884834    11394.064     1000 
  532000   0.31480041   -2.4950688   0.47172842   -2.0233404   0.13729139     11305.52     1000 
  534000   0.31756598   -2.5015594   0.47587262   -2.0256867   0.11925116    11478.748     1000 
  536000   0.30956045   -2.5437117   0.46387634   -2.0798353   0.12829534    11364.275     1000 
  538000   0.32421756   -2.5457344   0.48584001   -2.0598944   0.13544584    11355.311     1000 
  540000   0.31879049   -2.4961596   0.47770755   -2.0184521   0.12091662    11491.093     1000 
  542000   0.32090895   -2.5303914   0.48088206   -2.0495093   0.14679242    11268.056     1000 
  544000   0.33040961   -2.5329767   0.49511879   -2.0378579   0.12235152    11413.546     1000 
  546000   0.31948346   -2.4960976   0.47874596   -2.0173516   0.12956247    11344.622     1000 
  548000    0.3190347   -2.5176229    0.4780735   -2.0395494   0.12632336    11429.653     1000 
  550000   0.31601016   -2.5444174   0.47354122   -2.0708761   0.13427723    11380.054     1000 
  552000   0.31254425   -2.5153363   0.46834756   -2.0469887   0.12327761    11428.446     1000 
  554000   0.33494199   -2.5290418   0.50191057   -2.0271312   0.12658745    11402.377     1000 
  556000   0.31995759   -2.5411614   0.47945645   -2.0617049   0.12790049    11442.699     1000 
  558000   0.31788892   -2.5205391   0.47635655   -2.0441826     0.129015    11396.396     1000 
  560000   0.32510859    -2.522238   0.48717521   -2.0350627   0.14567955    11236.777     1000 
  562000    0.3110055   -2.5296843   0.46604174   -2.0636426   0.13634252    11272.978     1000 
  564000   0.32774381   -2.5185272    0.4911241   -2.0274031   0.13193033     11363.26     1000 
  566000   0.31702533   -2.5419527   0.47506246   -2.0668902   0.13524068    11372.238     1000 
  568000   0.31909208   -2.5286691   0.47815948   -2.0505096    0.1378181    11363.491     1000 
  570000    0.3269867   -2.4832213   0.48998957   -1.9932317   0.13303125    11321.852     1000 
  572000   0.31536874   -2.5193357   0.47258005   -2.0467557   0.11767493    11506.379     1000 
  574000   0.31651768   -2.5538929   0.47430174   -2.0795911   0.11732849    11469.415     1000 
  576000   0.31314849   -2.5416036   0.46925301   -2.0723506    0.1429643    11240.595     1000 
  578000   0.31845358   -2.5601866   0.47720269   -2.0829839   0.12393487    11374.799     1000 
  580000   0.31404427   -2.5318105   0.47059534   -2.0612152   0.12421169    11402.577     1000 
  582000   0.31564765   -2.5209038     0.472998   -2.0479058   0.12725829    11365.478     1000 
  584000   0.33312133   -2.5083935   0.49918231   -2.0092112   0.13176021    11350.597     1000 
  586000   0.32785618   -2.5441491   0.49129248   -2.0528566    0.1319878    11361.317     1000 
  588000   0.32438694   -2.5079218   0.48609383    -2.021828   0.13428373    11359.667     1000 
  590000   0.32409178   -2.5409792   0.48565153   -2.0553276    0.1230795    11468.945     1000 
  592000   0.31992605    -2.506489   0.47940919   -2.0270798   0.12833341    11409.555     1000 
  594000     0.334488   -2.5403382   0.50123026   -2.0391079    0.1269236    11424.153     1000 
  596000    0.3305268   -2.5086978    0.4952944   -2.0134034   0.14464494    11270.874     1000 
  598000   0.32827705   -2.4942944   0.49192315   -2.0023712   0.13758435    11341.123     1000 
  600000   0.30714339   -2.5224175   0.46025438   -2.0621631   0.11394108    11477.239     1000 
  602000   0.32753035   -2.5009981   0.49080423   -2.0101939   0.13259667    11386.762     1000 
  604000   0.32662748   -2.5253742   0.48945127   -2.0359229    0.1378824    11365.378     1000 
  606000   0.31554398   -2.5480509   0.47284265   -2.0752083   0.13116208    11362.359     1000 
  608000   0.32545877   -2.5108105   0.48769996   -2.0231105   0.12705985    11423.197     1000 
  610000    0.3155345   -2.4969896   0.47282845   -2.0241612   0.12555075    11380.346     1000 
  612000   0.32197441   -2.5222912   0.48247866   -2.0398125   0.13351649    11411.991     1000 
  614000   0.31175496   -2.4757195   0.46716481   -2.0085547   0.12555607    11351.611     1000 
  616000   0.33750634   -2.4932014   0.50575325   -1.9874482   0.13928128     11359.59     1000 
  618000     0.307019   -2.5468001   0.46006797   -2.0867321   0.12603726    11384.163     1000 
  620000   0.31663378   -2.5363627   0.47447572    -2.061887   0.13863816      11352.9     1000 
  622000   0.32526971   -2.5560756   0.48741666    -2.068659   0.14095619    11319.278     1000 
  624000   0.33095592   -2.5082382   0.49593745   -2.0123007   0.13857165    11355.339     1000 
  626000   0.32463415   -2.5389083   0.48646428   -2.0524441    0.1188603    11433.702     1000 
  628000   0.32011675   -2.5406332   0.47969494   -2.0609383    0.1291908    11356.954     1000 
  630000   0.30539652   -2.5557375   0.45763668   -2.0981008   0.11353176    11467.905     1000 
  632000   0.31329448   -2.5419616   0.46947178   -2.0724898    0.1294478    11386.559     1000 
  634000   0.29670674   -2.5253147   0.44461506   -2.0806997   0.12944727    11347.114     1000 
  636000   0.31621744   -2.5075392   0.47385183   -2.0336873   0.12048808    11394.173     1000 
  638000    0.3153025   -2.5218535    0.4724808   -2.0493727   0.13238311    11322.908     1000 
  640000    0.3136768    -2.506699   0.47004468   -2.0366543   0.13122032    11293.653     1000 
  642000   0.33027469   -2.5160015   0.49491662   -2.0210849   0.12490813    11377.518     1000 
  644000   0.32515379   -2.5285102   0.48724296   -2.0412672   0.12997108    11349.254     1000 
  646000   0.32638449   -2.5368037   0.48908717   -2.0477165   0.12714774     11456.31     1000 
  648000   0.32773724   -2.5330204   0.49111425   -2.0419062   0.13368751     11351.29     1000 
  650000    0.3269603   -2.5176828   0.48995001   -2.0277328   0.12343535     11364.91     1000 
  652000   0.32300617   -2.5145778   0.48402475    -2.030553   0.13439653    11334.804     1000 
  654000   0.32080819   -2.5480738   0.48073108   -2.0673427   0.12796676     11410.23     1000 
  656000     0.318128   -2.5302223   0.47671481   -2.0535075    0.1278557    11357.713     1000 
  658000   0.31946631   -2.5641066   0.47872026   -2.0853863    0.1139914     11509.23     1000 
  660000   0.32511855   -2.5480802   0.48719015     -2.06089   0.12453511    11435.877     1000 
  662000   0.31643368    -2.523182   0.47417587   -2.0490061   0.13419798    11353.754     1000 
  664000    0.3231246   -2.4992717   0.48420221   -2.0150694   0.12622757    11391.625     1000 
  666000   0.30583126   -2.5146272   0.45828814    -2.056339   0.12790728    11307.847     1000 
  668000   0.33463711   -2.5169224   0.50145371   -2.0154686   0.13756888    11373.943     1000 
  670000   0.32517332   -2.5025169   0.48727222   -2.0152447   0.13763845     11253.82     1000 
  672000    0.3279313   -2.5210914   0.49140506   -2.0296863   0.13053394    11345.698     1000 
  674000   0.31142004    -2.475626   0.46666292    -2.008963   0.12976242    11274.885     1000 
  676000   0.32143502   -2.5392386   0.48167038   -2.0575682   0.12041843    11424.128     1000 
  678000    0.3436424   -2.5555872   0.51494813   -2.0406391   0.11772545     11422.72     1000 
  680000   0.32125682   -2.5119252   0.48140335   -2.0305219   0.13447331     11395.56     1000 
  682000   0.31854482   -2.5176642   0.47733941   -2.0403248   0.13908075    11282.465     1000 
  684000   0.32191249   -2.5187666   0.48238586   -2.0363807   0.13151172    11332.349     1000 
  686000   0.32291474   -2.5252876   0.48388774   -2.0413999   0.11539186    11459.116     1000 
  688000   0.31126215   -2.5213891   0.46642633   -2.0549627   0.12678025     11390.68     1000 
  690000   0.31040195   -2.5359937   0.46513733   -2.0708563   0.12957305    11361.348     1000 
  692000   0.31176384    -2.525776   0.46717811   -2.0585979    0.1306874    11391.819     1000 
  694000   0.31318106   -2.5337487   0.46930182   -2.0644469   0.13616081     11402.72     1000 
  696000   0.32226788    -2.479992   0.48291842   -1.9970735    0.1304705    11404.001     1000 
  698000   0.32434379    -2.500231   0.48602917   -2.0142019   0.11808811    11455.346     1000 
  700000   0.32367213   -2.5320953   0.48502268   -2.0470727   0.12291467    11423.705     1000 
  702000   0.31923009   -2.5292146   0.47836629   -2.0508483   0.14068359    11339.494     1000 
  704000   0.31843205   -2.5119596   0.47717043   -2.0347892   0.12834976    11380.695     1000 
  706000   0.32112528   -2.4825782   0.48120623    -2.001372   0.13707198    11304.414     1000 
  708000   0.32789867   -2.5236413   0.49135616   -2.0322852   0.12702008    11349.948     1000 
  710000   0.33331435   -2.4831099   0.49947156   -1.9836384   0.13347847    11345.581     1000 
  712000   0.33007852   -2.5353168   0.49462266   -2.0406941   0.13018622    11403.113     1000 
  714000   0.31884881   -2.5155727   0.47779494   -2.0377778   0.12452068    11370.648     1000 
  716000   0.31173745   -2.5209515   0.46713857    -2.053813   0.12550114    11398.038     1000 
  718000   0.32307873     -2.49065   0.48413347   -2.0065166   0.13765969     11271.99     1000 
  720000   0.32893837   -2.5109542   0.49291415     -2.01804   0.13118389    11335.309     1000 
  722000   0.31793949   -2.4882402   0.47643232   -2.0118079   0.13491772    11377.507     1000 
  724000   0.30671805   -2.5412514     0.459617   -2.0816344   0.12787855     11318.81     1000 
  726000   0.31960768   -2.5624911   0.47893211    -2.083559   0.13112079    11437.523     1000 
  728000   0.32173756   -2.5237648   0.48212373    -2.041641    0.1355127    11389.266     1000 
  730000   0.32514013   -2.5556104   0.48722248    -2.068388   0.13493749    11375.353     1000 
  732000   0.32483722    -2.558207   0.48676858   -2.0714384   0.12237726    11440.345     1000 
  734000   0.32084812   -2.4840587   0.48079091   -2.0032677   0.12617919    11364.424     1000 
  736000   0.33724807    -2.514897   0.50536623   -2.0095308   0.12442391     11362.47     1000 
  738000    0.3229258   -2.5661024   0.48390431   -2.0821981   0.11883492    11419.643     1000 
  740000    0.3152769   -2.5271776   0.47244244   -2.0547351   0.13752427    11338.755     1000 
  742000   0.32306214   -2.5062535   0.48410861   -2.0221449   0.12741047    11464.497     1000 
  744000   0.32709729   -2.5125457   0.49015529   -2.0223904   0.14006074    11323.715     1000 
  746000   0.31734259   -2.5369315   0.47553787   -2.0613937   0.12444999    11404.394     1000 
  748000   0.30973225    -2.529114   0.46413378   -2.0649802   0.11355203    11471.581     1000 
  750000   0.32271401   -2.5453994   0.48358695   -2.0618125   0.13154354     11365.95     1000 
  752000   0.31233125   -2.5068509   0.46802837   -2.0388225    0.1305869    11322.714     1000 
  754000   0.32136895   -2.5172714   0.48157137      -2.0357    0.1328512    11392.596     1000 
  756000   0.33172453   -2.5608223   0.49708921   -2.0637331   0.12755739    11406.001     1000 
  758000   0.31673634    -2.542047   0.47462941   -2.0674176    0.1267757    11397.911     1000 
  760000   0.32121005   -2.5233185   0.48133326   -2.0419852     0.136002    11313.801     1000 
  762000   0.31596587   -2.5061334   0.47347485   -2.0326586    0.1278666    11433.337     1000 
  764000   0.32977598    -2.516144    0.4941693   -2.0219747   0.13086573    11372.616     1000 
  766000   0.32347159    -2.505361   0.48472218   -2.0206389   0.13449906     11370.34     1000 
  768000   0.30967673   -2.5259226   0.46405058    -2.061872   0.13556537    11309.265     1000 
  770000    0.3295566   -2.5408251   0.49384057   -2.0469845   0.14016082    11349.325     1000 
  772000   0.32535117   -2.4891768   0.48753872   -2.0016381   0.13674027    11331.086     1000 
  774000   0.32987758   -2.5403808   0.49432155   -2.0460593   0.12154978    11422.938     1000 
  776000   0.33515429   -2.4932901   0.50222871   -1.9910614   0.13057331    11331.137     1000 
  778000   0.32578888    -2.528957   0.48819464   -2.0407624   0.11820923    11454.216     1000 
  780000   0.32374082   -2.5352595   0.48512561   -2.0501339   0.12696607    11373.298     1000 
  782000   0.32886498   -2.5377919   0.49280418   -2.0449877    0.1304707    11372.028     1000 
  784000   0.32670349   -2.5018259   0.48956519   -2.0122607   0.12935272    11443.202     1000 
  786000   0.32532652    -2.530484   0.48750179   -2.0429822   0.13263813    11300.276     1000 
  788000   0.31675088   -2.5286201    0.4746512   -2.0539689   0.12839387    11437.476     1000 
  790000   0.32606167   -2.5625283   0.48860341   -2.0739249   0.11984034    11476.126     1000 
  792000   0.31477302   -2.5301508   0.47168736   -2.0584634   0.12014981    11489.008     1000 
  794000   0.31634859   -2.5272748   0.47404836   -2.0532264   0.13010209    11412.092     1000 
  796000   0.33499008     -2.52358   0.50198264   -2.0215973   0.13521307    11371.638     1000 
  798000   0.31037914   -2.5069844   0.46510314   -2.0418812   0.13474076    11277.572     1000 
  800000    0.3118582   -2.5460852   0.46731952   -2.0787657   0.12850894     11340.87     1000 
  802000   0.31858214   -2.5406236   0.47739533   -2.0632283    0.1279957     11408.44     1000 
  804000   0.31398058   -2.5210746    0.4704999   -2.0505747   0.11469201    11456.245     1000 
  806000   0.33551433   -2.4930719   0.50276822   -1.9903037   0.13936814    11382.853     1000 
  808000   0.31363949   -2.5485757   0.46998878   -2.0785869   0.13725755    11395.293     1000 
  810000    0.3164747   -2.5113031   0.47423734   -2.0370658   0.12501462    11364.539     1000 
  812000   0.30716997   -2.5648909    0.4602942   -2.1045967   0.13946191    11332.512     1000 
  814000   0.31387084   -2.5048588   0.47033546   -2.0345234   0.13388348    11337.944     1000 
  816000   0.32583222   -2.5460559   0.48825958   -2.0577963   0.13390806    11318.297     1000 
  818000   0.32496286   -2.5167416   0.48695684   -2.0297847   0.11756904     11429.75     1000 
  820000   0.31721925   -2.5259669   0.47535305   -2.0506139   0.13516834    11330.942     1000 
  822000   0.32412986   -2.5212865    0.4857086   -2.0355779     0.129583    11412.337     1000 
  824000   0.31820512   -2.5369697   0.47683037   -2.0601394   0.12590096    11446.754     1000 
  826000   0.33028983   -2.5123259    0.4949393   -2.0173866   0.14321748    11273.109     1000 
  828000   0.32741919   -2.4879525   0.49063765   -1.9973148   0.13693632    11318.283     1000 
  830000   0.30956286   -2.5261505   0.46387995   -2.0622706   0.12378995    11477.824     1000 
  832000   0.31344728   -2.5203739   0.46970074   -2.0506731   0.12480614    11417.982     1000 
  834000   0.31808175       -2.499    0.4766455   -2.0223545   0.13578618    11299.538     1000 
  836000   0.32378885   -2.5050548   0.48519759   -2.0198572   0.14335651     11260.68     1000 
  838000    0.3347975   -2.5439925   0.50169405   -2.0422985   0.13910541    11332.163     1000 
  840000   0.32157831   -2.5244163   0.48188509   -2.0425312   0.13219659     11397.54     1000 
  842000   0.31773042   -2.5383034   0.47611904   -2.0621844   0.12932319    11440.566     1000 
  844000   0.31524339   -2.5295983   0.47239221   -2.0572061   0.12053514    11400.849     1000 
  846000   0.31079737   -2.5144532   0.46572987   -2.0487234   0.12865614    11439.987     1000 
  848000   0.32618687   -2.5213755   0.48879102   -2.0325845   0.13370921    11364.919     1000 
  850000   0.32052899   -2.5141296    0.4803127   -2.0338169   0.11895961    11497.969     1000 
  852000   0.32199806    -2.538951    0.4825141   -2.0564369   0.12768913     11414.78     1000 
  854000   0.31847955   -2.5398344    0.4772416   -2.0625928   0.12445925    11445.008     1000 
  856000   0.32852991   -2.5105477   0.49230207   -2.0182456   0.12846965    11378.037     1000 
  858000   0.30325482   -2.4780458   0.45442734   -2.0236184    0.1336557    11303.885     1000 
  860000   0.30673181    -2.502584   0.45963761   -2.0429464   0.12952887    11378.703     1000 
  862000   0.32585259   -2.5258757    0.4882901   -2.0375856   0.13071287    11326.054     1000 
  864000   0.32989477   -2.5544321   0.49434731   -2.0600848   0.12154224    11411.702     1000 
  866000   0.33335581   -2.5252148   0.49953369   -2.0256811   0.12415327    11406.069     1000 
  868000   0.31495189   -2.5310532   0.47195541   -2.0590978   0.12410432    11399.734     1000 
  870000   0.33416811   -2.5397915   0.50075092   -2.0390406   0.12627668    11425.977     1000 
  872000   0.31686586   -2.5370154   0.47482349   -2.0621919   0.12252058    11474.057     1000 
  874000   0.33916299   -2.4935778   0.50823574   -1.9853421   0.13229497     11360.94     1000 
  876000   0.32035021    -2.523218   0.48004478   -2.0431732    0.1320913    11356.415     1000 
  878000    0.3327363   -2.5027398   0.49860535   -2.0041344   0.13349338    11282.796     1000 
  880000   0.31210967   -2.4892336   0.46769634   -2.0215372   0.13124649    11382.563     1000 
  882000   0.31605437    -2.512986   0.47360747   -2.0393785   0.12451163    11421.123     1000 
  884000   0.31937519   -2.5321762   0.47858372   -2.0535925   0.11774044    11443.904     1000 
  886000   0.31280846   -2.5297205   0.46874348    -2.060977   0.12399382    11386.192     1000 
  888000   0.30529504    -2.561862   0.45748462   -2.1043773   0.11739646    11471.889     1000 
  890000   0.32435517   -2.5491682   0.48604622   -2.0631219   0.13391752    11374.224     1000 
  892000   0.33313657   -2.5292715   0.49920515   -2.0300663   0.14149181    11278.137     1000 
  894000   0.31779267   -2.4988957   0.47621232   -2.0226834   0.12277507     11484.16     1000 
  896000   0.32060823   -2.4997374   0.48043143    -2.019306   0.13974567    11324.125     1000 
  898000   0.31319128   -2.5281867   0.46931713   -2.0588696   0.12644004    11398.541     1000 
  900000   0.32282204   -2.4731729   0.48374882   -1.9894241   0.13153961    11347.686     1000 
  902000   0.30945451   -2.4856366   0.46371759    -2.021919   0.12541722    11391.936     1000 
  904000   0.31624292   -2.5062388   0.47389002   -2.0323487   0.13313324    11375.287     1000 
  906000   0.30393679   -2.5146581   0.45544928   -2.0592088   0.13028358     11407.73     1000 
  908000   0.32284944   -2.5396644   0.48378988   -2.0558745   0.13519119    11338.217     1000 
  910000   0.31229287   -2.5260742   0.46797087   -2.0581033   0.11758812    11416.742     1000 
  912000   0.32160599   -2.4975173   0.48192657   -2.0155908   0.14093576    11289.619     1000 
  914000   0.32352431   -2.5100744   0.48480118   -2.0252732   0.13518738    11344.111     1000 
  916000   0.31539282   -2.5350115   0.47261614   -2.0623953    0.1318686    11328.061     1000 
  918000   0.31908144   -2.5298954   0.47814354   -2.0517518   0.12973918    11294.144     1000 
  920000   0.32025643   -2.5318535   0.47990426   -2.0519493   0.12165352    11430.705     1000 
  922000   0.33014469   -2.5004387   0.49472181   -2.0057169   0.13177147    11361.578     1000 
  924000   0.31614776   -2.5387682   0.47374742   -2.0650208   0.11528031     11508.04     1000 
  926000   0.30983459   -2.5053444   0.46428714   -2.0410572   0.13184702    11368.195     1000 
  928000   0.31952855   -2.5377215   0.47881354    -2.058908   0.12160776    11461.922     1000 
  930000   0.32703436   -2.5061673   0.49006098   -2.0161063   0.13525067    11339.872     1000 
  932000    0.3337544    -2.533553   0.50013097    -2.033422   0.12011045    11439.525     1000 
  934000   0.31375071   -2.5180864   0.47015543    -2.047931   0.13043159     11342.76     1000 
  936000   0.31518865   -2.5321884   0.47231019   -2.0598782    0.1241444    11424.062     1000 
  938000   0.32048127   -2.5250078   0.48024118   -2.0447666   0.13611523    11318.516     1000 
  940000   0.31273089   -2.5628893   0.46862724    -2.094262   0.13363544     11321.22     1000 
  942000   0.32705975   -2.5482577   0.49009904   -2.0581587   0.14116281    11318.333     1000 
  944000   0.30972732   -2.5221473    0.4641264   -2.0580209   0.13090905    11344.171     1000 
  946000   0.31561575   -2.5131873   0.47295021    -2.040237   0.13260375    11324.903     1000 
  948000   0.32791955   -2.5357774   0.49138745   -2.0443899     0.122657    11443.026     1000 
  950000   0.31569989   -2.5114276   0.47307628   -2.0383513   0.13718432    11364.634     1000 
  952000   0.33563591   -2.5309375   0.50295041   -2.0279871   0.13422097    11376.245     1000 
  954000    0.3246638    -2.551727    0.4865087   -2.0652183   0.13089987    11402.658     1000 
  956000   0.31593879   -2.5436709   0.47343428   -2.0702366   0.13284231    11370.239     1000 
  958000   0.33544967    -2.546756   0.50267133   -2.0440847      0.13233    11421.866     1000 
  960000   0.30468221   -2.5498024   0.45656629   -2.0932361    0.1182907    11440.853     1000 
  962000   0.32260846   -2.5065004   0.48342878   -2.0230716   0.12364653    11397.959     1000 
  964000   0.32319295   -2.5326983   0.48430464   -2.0483936   0.12626458    11437.432     1000 
  966000   0.32073583    -2.517386   0.48062265   -2.0367633   0.12605814    11376.353     1000 
  968000   0.32417921    -2.508508   0.48578255   -2.0227255   0.12817679    11401.243     1000 
  970000   0.31355214   -2.4982004   0.46985788   -2.0283425   0.13056947    11337.868     1000 
  972000   0.32899999   -2.4998849   0.49300649   -2.0068784   0.12890575    11354.678     1000 
  974000   0.32198894   -2.5045898   0.48250043   -2.0220894   0.13053994    11404.634     1000 
  976000   0.31728047   -2.5434073   0.47544478   -2.0679625   0.13395983    11329.249     1000 
  978000   0.31124159   -2.5210413   0.46639553   -2.0546458    0.1172397    11505.069     1000 
  980000   0.33178275   -2.5454536   0.49717645   -2.0482771    0.1211348    11508.157     1000 
  982000   0.32558652   -2.5277299    0.4878914   -2.0398385    0.1348396    11416.241     1000 
  984000    0.3242982   -2.5468517   0.48596086   -2.0608908   0.14688561    11277.687     1000 
  986000   0.32966268   -2.5188588   0.49399952   -2.0248593   0.12986692     11383.65     1000 
  988000   0.32504554   -2.5165234   0.48708074   -2.0294426    0.1412146    11323.293     1000 
  990000   0.32420184   -2.5459818   0.48581645   -2.0601654   0.12291317    11430.348     1000 
  992000   0.33538028    -2.568081   0.50256735   -2.0655136   0.11954955    11520.385     1000 
  994000    0.3149496   -2.5432893   0.47195198   -2.0713374   0.12717871    11376.107     1000 
  996000   0.32186969   -2.5362272   0.48232173   -2.0539055   0.13490369     11350.79     1000 
  998000   0.32567198    -2.500507   0.48801946   -2.0124876   0.12926829    11373.244     1000 
 1000000   0.32172541   -2.5207465   0.48210553   -2.0386409   0.11868256    11469.327     1000 
 1002000   0.32142244   -2.4937824   0.48165153   -2.0121309   0.12301557     11434.53     1000 
 1004000   0.31519369   -2.4865688   0.47231774   -2.0142511   0.13403633     11337.56     1000 
 1006000   0.32447473   -2.5009314   0.48622538    -2.014706   0.13533858    11368.411     1000 
 1008000   0.30927345   -2.4979028   0.46344626   -2.0344566   0.13568451    11410.683     1000 
 1010000   0.31463161   -2.5123936   0.47147546   -2.0409182   0.13841535    11375.514     1000 
 1012000   0.31006901   -2.5267439   0.46463841   -2.0621055    0.1215396    11378.153     1000 
 1014000   0.32585208   -2.5272994   0.48828934     -2.03901   0.13175582    11333.938     1000 
 1016000   0.33564847    -2.490383   0.50296924   -1.9874138   0.14071882    11224.376     1000 
 1018000   0.33053855   -2.5459961   0.49531202   -2.0506841   0.13015351    11374.577     1000 
 1020000   0.31004305   -2.4842514   0.46459951   -2.0196519   0.13673436    11251.445     1000 
 1022000   0.31320144   -2.5230164   0.46933235   -2.0536841   0.13409867    11345.876     1000 
 1024000   0.30845433   -2.4610651   0.46221881   -1.9988463   0.12921251    11300.333     1000 
 1026000   0.32940201   -2.5293587   0.49360891   -2.0357498   0.14044348    11302.008     1000 
 1028000   0.30618309   -2.5460457   0.45881535   -2.0872303   0.13276179    11374.616     1000 
 1030000   0.31283957    -2.510752   0.46879009   -2.0419619   0.13025705    11370.925     1000 
 1032000   0.31535064   -2.5128703   0.47255293   -2.0403174   0.14223821    11223.034     1000 
 1034000   0.32904233    -2.529303   0.49306993   -2.0362331   0.12932348    11389.801     1000 
 1036000   0.32017689   -2.5469729   0.47978507   -2.0671878   0.12973757    11405.275     1000 
 1038000   0.32367865   -2.4973722   0.48503245   -2.0123398   0.13021027    11382.889     1000 
 1040000   0.32441702   -2.5429108   0.48613891   -2.0567719   0.12863181    11429.015     1000 
 1042000   0.31235629   -2.5242174    0.4680659   -2.0561515   0.12943444     11396.43     1000 
 1044000   0.33375081   -2.5297748    0.5001256   -2.0296492   0.13913877    11342.005     1000 
 1046000   0.32534629   -2.5002839   0.48753141   -2.0127525   0.12995697    11342.924     1000 
 1048000   0.32461192   -2.5219392   0.48643097   -2.0355082   0.12655766     11353.76     1000 
 1050000   0.32291711   -2.5032807   0.48389128   -2.0193895   0.12918364      11369.1     1000 
 1052000   0.34472966   -2.5372839   0.51657739   -2.0207065   0.13453291    11446.235     1000 
 1054000   0.31600825   -2.5397644   0.47353836    -2.066226   0.12876769    11416.761     1000 
 1056000   0.33078654    -2.523714   0.49568363   -2.0280304    0.1209774    11472.681     1000 
 1058000   0.31028727   -2.5185929   0.46496547   -2.0536275   0.13060256    11301.219     1000 
 1060000   0.32708073   -2.5188513   0.49013047   -2.0287208   0.12566883    11398.444     1000 
 1062000   0.32614037   -2.5485255   0.48872135   -2.0598042   0.13906917    11369.989     1000 
 1064000   0.31842067   -2.4938486   0.47715338   -2.0166953    0.1400682    11347.649     1000 
 1066000   0.31109508   -2.5171673   0.46617598   -2.0509913   0.11337515    11457.064     1000 
 1068000   0.32156733   -2.5323567   0.48186864    -2.050488   0.12704322    11477.482     1000 
 1070000   0.32738828   -2.5340016   0.49059134   -2.0434102   0.13034181    11429.342     1000 
 1072000   0.31133981   -2.5399899    0.4665427   -2.0734472   0.12233347    11395.601     1000 
 1074000   0.31034549   -2.5155398   0.46505272   -2.0504871   0.13086627    11390.595     1000 
 1076000   0.32301111   -2.4713999   0.48403215   -1.9873677   0.13541023    11318.888     1000 
 1078000   0.31696221   -2.5043521   0.47496787   -2.0293842   0.13472742    11396.875     1000 
 1080000   0.34399527   -2.5325689   0.51547691    -2.017092   0.12361419    11403.923     1000 
 1082000   0.32916559   -2.5242533   0.49325464   -2.0309986   0.12811479    11353.069     1000 
 1084000   0.32669419   -2.5325813   0.48955125     -2.04303   0.13455384    11354.281     1000 
 1086000   0.31870514   -2.5271643   0.47757966   -2.0495846   0.12958935    11348.642     1000 
 1088000   0.33180528    -2.516506   0.49721021   -2.0192958   0.13247233    11437.419     1000 
 1090000   0.31051216   -2.5077676   0.46530247   -2.0424652   0.12899211    11404.834     1000 
 1092000   0.32855253   -2.5411304   0.49233596   -2.0487945   0.13238841    11361.859     1000 
 1094000   0.30875482   -2.5374705    0.4626691   -2.0748014   0.12824487     11412.41     1000 
 1096000   0.32446551   -2.5349035   0.48621157   -2.0486919   0.12935938    11333.293     1000 
 1098000   0.31808481   -2.5133729   0.47665008   -2.0367228   0.12499894    11432.627     1000 
 1100000    0.3139443   -2.5525523   0.47044554   -2.0821067   0.12447954    11465.321     1000 
 1102000   0.30739894   -2.5058711   0.46063731   -2.0452338   0.12829079    11402.361     1000 
 1104000   0.31755787   -2.5100886   0.47586047   -2.0342282   0.13084463    11386.881     1000 
 1106000   0.32907814   -2.5123401   0.49312359   -2.0192165   0.12678959    11372.708     1000 
 1108000   0.33756157   -2.4865982   0.50583601   -1.9807622    0.1430826    11262.186     1000 
 1110000   0.30874398   -2.5042624   0.46265285   -2.0416095   0.13144449    11361.615     1000 
 1112000   0.31906631    -2.534686   0.47812087   -2.0565652   0.13655414    11400.478     1000 
 1114000   0.32315968   -2.5204263   0.48425478   -2.0361715   0.12660613    11426.362     1000 
 1116000   0.31028987   -2.5290992   0.46496937   -2.0641298   0.13183791    11375.454     1000 
 1118000   0.31812067   -2.5302593   0.47670382   -2.0535555   0.13143342    11345.081     1000 
 1120000   0.32316097   -2.4768153   0.48425671   -1.9925586   0.12681204    11462.741     1000 
 1122000   0.31971057   -2.5056681    0.4790863   -2.0265818   0.13994807    11326.554     1000 
 1124000   0.32922586   -2.4854896   0.49334496   -1.9921446   0.12892809    11365.972     1000 
 1126000   0.31347929   -2.5399246   0.46974871   -2.0701759   0.11563678    11395.036     1000 
 1128000   0.31070598   -2.5096401   0.46559291   -2.0440472   0.13108275    11317.199     1000 
 1130000   0.33093336   -2.5519661   0.49590365   -2.0560625   0.12725535    11437.129     1000 
 1132000   0.31312413   -2.4958739    0.4692165   -2.0266574   0.12180784    11466.933     1000 
 1134000   0.31632663   -2.4718196   0.47401546   -1.9978042   0.13558088    11391.353     1000 
 1136000   0.30862611   -2.5373365   0.46247622   -2.0748603   0.12809501    11448.219     1000 
 1138000   0.32714448   -2.5028023     0.490226   -2.0125763   0.13606453    11334.626     1000 
 1140000   0.30404979   -2.5093374   0.45561861   -2.0537188   0.13427802    11346.933     1000 
 1142000   0.31038173   -2.5369813   0.46510702   -2.0718743   0.11947014    11460.345     1000 
 1144000   0.33239916    -2.514103   0.49810014   -2.0160028    0.1268228    11378.248     1000 
 1146000    0.3251308   -2.4613579    0.4872085   -1.9741494   0.14073344    11284.137     1000 
 1148000   0.31980853   -2.5290326   0.47923308   -2.0497995   0.12664788    11339.991     1000 
 1150000   0.31702485   -2.5148602   0.47506174   -2.0397985   0.12946082    11384.785     1000 
 1152000   0.32662466   -2.5635554   0.48944705   -2.0741084   0.12192756    11471.234     1000 
 1154000   0.32409289   -2.5506537    0.4856532   -2.0650005   0.13317318    11386.183     1000 
 1156000   0.31588532    -2.527009   0.47335416   -2.0536549   0.13407652    11313.754     1000 
 1158000   0.32989318    -2.566085   0.49434494   -2.0717401   0.13748541    11372.591     1000 
 1160000   0.31482214   -2.5523301   0.47176098   -2.0805692   0.12905948    11465.388     1000 
 1162000   0.31620495   -2.5550449   0.47383311   -2.0812118   0.12866816    11445.562     1000 
 1164000   0.31111221   -2.5254231   0.46620164   -2.0592214   0.12225191    11396.518     1000 
 1166000    0.3223606   -2.5463155   0.48305736   -2.0632581   0.11462075    11469.113     1000 
 1168000   0.31375466   -2.5314544   0.47016135    -2.061293   0.11646539    11457.115     1000 
 1170000   0.32316829   -2.5400487   0.48426768    -2.055781   0.13032935    11368.045     1000 
 1172000    0.3242874   -2.4980298   0.48594468   -2.0120852   0.13471214    11384.105     1000 
 1174000   0.30897314   -2.5110624   0.46299625   -2.0480662   0.12805415    11395.752     1000 
 1176000    0.3137383    -2.502524   0.47013684   -2.0323872   0.12508523    11472.445     1000 
 1178000   0.31669084   -2.5140103   0.47456122    -2.039449   0.12997351     11416.34     1000 
 1180000   0.32695817   -2.4474201   0.48994682   -1.9574733    0.1384004    11222.755     1000 
 1182000   0.32063738   -2.5202755   0.48047511   -2.0398004   0.13537233    11337.788     1000 
 1184000   0.31676056   -2.5006757    0.4746657     -2.02601   0.13184092    11309.585     1000 
 1186000   0.31351317   -2.5295171   0.46979948   -2.0597176   0.13825806    11356.178     1000 
 1188000   0.32014803   -2.5228567   0.47974182   -2.0431149   0.12278137    11364.827     1000 
 1190000   0.31445125   -2.5372001   0.47120519   -2.0659949   0.12807665    11366.909     1000 
 1192000   0.31945621   -2.4911954   0.47870513   -2.0124902   0.13282731    11317.288     1000 
 1194000   0.31528399   -2.5363766   0.47245306   -2.0639235   0.12368281    11460.175     1000 
 1196000   0.32475176   -2.5153957   0.48664051   -2.0287552   0.12895169    11347.045     1000 
 1198000   0.32477974   -2.5122304   0.48668244   -2.0255479   0.13314236    11395.791     1000 
 1200000   0.31277143   -2.4979407   0.46868798   -2.0292527   0.12930439     11348.84     1000 
 1202000    0.3236428    -2.536808   0.48497873   -2.0518293   0.11555018    11515.726     1000 
 1204000   0.33605718   -2.5289991   0.50358168   -2.0254174   0.13849906     11391.89     1000 
 1206000   0.33276213   -2.5439975   0.49864406   -2.0453535   0.12318958    11488.701     1000 
 1208000   0.30707241   -2.5115516   0.46014801   -2.0514036   0.12953162    11419.333     1000 
 1210000   0.33225683   -2.5262999   0.49788686    -2.028413   0.12869108    11426.015     1000 
 1212000   0.32945245   -2.4964069   0.49368449   -2.0027225   0.14163242    11303.719     1000 
 1214000   0.33093607   -2.5103781   0.49590771   -2.0144704   0.14116545    11289.551     1000 
 1216000   0.32618775   -2.5203498   0.48879234   -2.0315574   0.13494942    11320.899     1000 
 1218000   0.31077629   -2.5439881   0.46569827   -2.0782898   0.14092989    11274.024     1000 
 1220000   0.31412331   -2.5000602   0.47071379   -2.0293464    0.1294208     11377.57     1000 
 1222000   0.32370595    -2.572834   0.48507336   -2.0877606    0.1217212    11451.557     1000 
 1224000   0.32203444    -2.542562    0.4825686   -2.0599934   0.14044539    11351.978     1000 
 1226000   0.31718148   -2.4959361   0.47529645   -2.0206396   0.13297036    11298.354     1000 
 1228000   0.32314495   -2.4992715   0.48423271   -2.0150388   0.12744087    11413.154     1000 
 1230000   0.32354386    -2.576427   0.48483047   -2.0915965   0.13931787    11348.473     1000 
 1232000   0.32138248   -2.4894232   0.48159164   -2.0078315   0.12626432    11383.101     1000 
 1234000   0.31331402   -2.4982168   0.46950106   -2.0287157   0.13311142    11298.977     1000 
 1236000    0.3288441    -2.512939   0.49277288   -2.0201661   0.12069394    11402.169     1000 
 1238000   0.32226254   -2.5129949   0.48291042   -2.0300845   0.12520527    11398.786     1000 
 1240000   0.32033142   -2.5356944   0.48001663   -2.0556778   0.13412048    11351.975     1000 
 1242000   0.32364218   -2.5106118   0.48497781    -2.025634   0.13137992        11380     1000 
 1244000   0.32156134   -2.5269513   0.48185966   -2.0450916    0.1308353    11372.203     1000 
 1246000   0.32940998   -2.5119456   0.49362086   -2.0183248   0.13806095     11317.97     1000 
 1248000   0.32350802   -2.4854864   0.48477677   -2.0007096   0.13008932    11381.422     1000 
 1250000   0.31527963   -2.5349085   0.47244652    -2.062462   0.12174338    11427.807     1000 
 1252000   0.32894934   -2.5075948   0.49293059   -2.0146642   0.13402356    11333.717     1000 
 1254000   0.31626273   -2.4980272   0.47391971   -2.0241075    0.1430405     11378.23     1000 
 1256000   0.31872127   -2.5183128   0.47760382    -2.040709   0.13207808    11441.181     1000 
 1258000   0.32410554   -2.5151205   0.48567214   -2.0294483   0.11892639    11440.448     1000 
 1260000   0.32460277   -2.5053272   0.48641726     -2.01891   0.13322787    11378.946     1000 
 1262000   0.31229748    -2.512726   0.46797777   -2.0447482   0.12883139    11370.009     1000 
 1264000   0.31503122   -2.4921935   0.47207429   -2.0201192   0.13159686    11345.605     1000 
 1266000   0.33632942   -2.5184107   0.50398964   -2.0144211   0.12755336    11415.586     1000 
 1268000   0.32568355   -2.4951884    0.4880368   -2.0071516   0.13787156    11319.923     1000 
 1270000   0.32012884   -2.5439858   0.47971307   -2.0642728   0.12917973    11404.351     1000 
 1272000   0.32336946   -2.5005086   0.48456913   -2.0159394   0.13303091    11357.725     1000 
 1274000   0.31207238   -2.5459029   0.46764046   -2.0782625   0.13043252    11360.087     1000 
 1276000   0.31244696   -2.5151942   0.46820177   -2.0469924   0.13630921    11272.026     1000 
 1278000   0.32069965   -2.5318617   0.48056843   -2.0512933   0.12189319    11430.123     1000 
 1280000   0.30941195   -2.5205292   0.46365381   -2.0568754   0.13485326    11286.784     1000 
 1282000   0.30481016   -2.5267529   0.45675802   -2.0699948   0.11328958    11510.905     1000 
 1284000   0.32408823   -2.5184008   0.48564621   -2.0327545   0.12624516    11342.409     1000 
 1286000   0.32332505    -2.514988   0.48450259   -2.0304854   0.13892921    11330.855     1000 
 1288000   0.30099182   -2.5377908   0.45103625   -2.0867545   0.12873886    11349.334     1000 
 1290000    0.3295283   -2.5484754   0.49379816   -2.0546772   0.12881936    11349.974     1000 
 1292000   0.32413127   -2.5245879   0.48571071   -2.0388771   0.13030601    11415.069     1000 
 1294000    0.3362436   -2.5395918   0.50386104   -2.0357308   0.12230907    11448.225     1000 
 1296000   0.32148819   -2.4948694   0.48175005   -2.0131193   0.13481228    11326.284     1000 
 1298000   0.31610666   -2.4729823   0.47368583   -1.9992965   0.13902897     11257.98     1000 
 1300000   0.31810246   -2.4992675   0.47667654   -2.0225909   0.13806682    11391.329     1000 
 1302000   0.32217663   -2.4824013   0.48278168   -1.9996196   0.13801338    11341.888     1000 
 1304000   0.32296451   -2.5016065   0.48396231   -2.0176442   0.13677161    11274.888     1000 
 1306000   0.30658441   -2.4834726   0.45941674   -2.0240559   0.13060615    11365.486     1000 
 1308000     0.313485   -2.4929571   0.46975727   -2.0231998   0.12026689    11422.255     1000 
 1310000   0.32892751   -2.5424104   0.49289788   -2.0495125   0.14904137    11292.949     1000 
 1312000   0.32187773   -2.5037858   0.48233378    -2.021452   0.12791043    11409.602     1000 
 1314000   0.32190782   -2.4880568   0.48237886   -2.0056779   0.14532983    11250.436     1000 
 1316000   0.31991232    -2.501447    0.4793886   -2.0220584   0.11830286    11425.596     1000 
 1318000   0.31854422   -2.5035296   0.47733851   -2.0261911   0.12604123    11320.179     1000 
 1320000   0.31951993   -2.4910797   0.47880062    -2.012279   0.13049882    11267.802     1000 
 1322000   0.31664245   -2.5291814   0.47448871   -2.0546927   0.12944515    11401.226     1000 
 1324000   0.31703969    -2.512744   0.47508398     -2.03766   0.12732835    11397.589     1000 
 1326000   0.32963847    -2.558664   0.49396324   -2.0647008   0.12384731    11340.258     1000 
 1328000   0.32341808   -2.5498126   0.48464199   -2.0651706   0.13703679    11365.537     1000 
 1330000   0.33169831   -2.5255982   0.49704992   -2.0285483   0.13092917    11395.276     1000 
 1332000    0.3164613   -2.5420516   0.47421726   -2.0678343   0.12797029    11376.118     1000 
 1334000   0.32342815   -2.5589779   0.48465708   -2.0743208   0.13125152    11380.235     1000 
 1336000   0.32573307   -2.5422913   0.48811101   -2.0541803   0.12890063    11438.198     1000 
 1338000   0.32926552   -2.5338905   0.49340438   -2.0404861   0.12661626    11436.252     1000 
 1340000   0.31471305   -2.4973914   0.47159751   -2.0257939   0.13938182     11280.18     1000 
 1342000   0.31662006   -2.4960868   0.47445516   -2.0216316   0.12598443    11421.131     1000 
 1344000   0.31570152   -2.5213065   0.47307873   -2.0482277   0.13665652    11291.518     1000 
 1346000   0.32348044   -2.5241633   0.48473544   -2.0394278   0.13523748    11377.511     1000 
 1348000   0.31582128   -2.5480508   0.47325819   -2.0747926   0.11958876    11483.244     1000 
 1350000   0.31022327   -2.5137748   0.46486957   -2.0489053   0.13935902    11321.183     1000 
 1352000   0.31463796   -2.5230539   0.47148498   -2.0515689   0.11969862    11453.616     1000 
 1354000   0.33294804   -2.5073449   0.49892264   -2.0084223   0.12705013     11357.71     1000 
 1356000   0.32113294   -2.4928162   0.48121772   -2.0115985   0.12972679    11341.527     1000 
 1358000   0.32116339   -2.5054103   0.48126334   -2.0241469   0.12831163    11415.216     1000 
 1360000   0.30441444   -2.5032683   0.45616503   -2.0471033   0.12471584    11363.571     1000 
 1362000   0.32345874   -2.5211839   0.48470293    -2.036481   0.13054678    11401.735     1000 
 1364000   0.31431209    -2.523347   0.47099666   -2.0523504   0.13806852    11290.266     1000 
 1366000   0.32479945   -2.5429347   0.48671197   -2.0562228     0.133939    11354.687     1000 
 1368000   0.31682405   -2.5173231   0.47476083   -2.0425623   0.13784363    11295.978     1000 
 1370000   0.31073005   -2.5115767   0.46562898   -2.0459477    0.1163929    11473.885     1000 
 1372000   0.33340542   -2.5280912   0.49960802   -2.0284832   0.13589745    11379.519     1000 
 1374000   0.32005139   -2.5072783     0.479597   -2.0276813   0.14659255    11296.649     1000 
 1376000   0.33693818   -2.5294078   0.50490186    -2.024506   0.12360314    11451.135     1000 
 1378000    0.3139692   -2.5348889   0.47048284    -2.064406   0.12653479    11421.036     1000 
 1380000    0.3093447   -2.5495348   0.46355303   -2.0859818    0.1224585    11423.862     1000 
 1382000   0.31988785   -2.4869072   0.47935194   -2.0075553   0.14214321    11239.543     1000 
 1384000    0.3137011   -2.5083292   0.47008109   -2.0382481   0.12933795    11395.667     1000 
 1386000   0.32331446   -2.5428679   0.48448672   -2.0583812   0.13077028    11415.328     1000 
 1388000   0.30945364    -2.501645   0.46371628   -2.0379287    0.1376325    11282.705     1000 
 1390000   0.32389331   -2.5094654   0.48535413   -2.0241113   0.13682278    11328.374     1000 
 1392000   0.31554259   -2.4962306   0.47284057     -2.02339   0.12750604    11399.133     1000 
 1394000   0.31819736   -2.5494221   0.47681875   -2.0726034   0.13002881     11361.65     1000 
 1396000   0.31549702   -2.4585313   0.47277229    -1.985759    0.1328056    11342.301     1000 
 1398000   0.33500039   -2.5218318   0.50199809   -2.0198337    0.1305798    11339.134     1000 
 1400000   0.31802175   -2.5387828   0.47655559   -2.0622272   0.12897469    11399.741     1000 
 1402000   0.33979298   -2.4861903   0.50917978   -1.9770106   0.12191401    11410.899     1000 
 1404000    0.3316445   -2.5109014   0.49696929   -2.0139321   0.12511084    11418.066     1000 
 1406000    0.3261165   -2.5066785   0.48868558    -2.017993   0.14156761    11296.003     1000 
 1408000   0.32751983   -2.4776849   0.49078846   -1.9868965   0.14167605     11330.12     1000 
 1410000   0.31563746   -2.4927387   0.47298273    -2.019756   0.12809074    11421.884     1000 
 1412000   0.31419776   -2.5420366   0.47082535   -2.0712113   0.12603375    11422.856     1000 
 1414000   0.31354153   -2.5014456   0.46984198   -2.0316036   0.12937178    11397.663     1000 
 1416000   0.31391845   -2.5202985   0.47040679   -2.0498917   0.13051493    11348.956     1000 
 1418000   0.33517852   -2.5322634   0.50226501   -2.0299984   0.11967591    11453.909     1000 
 1420000   0.31399658   -2.5115046   0.47052388   -2.0409807    0.1266642    11413.347     1000 
 1422000   0.32580184   -2.5018574   0.48821406   -2.0136434   0.13611234    11317.565     1000 
 1424000   0.32271872   -2.5668742     0.483594   -2.0832802   0.12860455     11433.15     1000 
 1426000   0.32140286   -2.4992695   0.48162219   -2.0176473   0.13281406    11311.217     1000 
 1428000   0.31065582   -2.4930581   0.46551775   -2.0275404   0.14494627    11308.703     1000 
 1430000   0.31927943   -2.5339948   0.47844023   -2.0555546   0.14235603    11313.482     1000 
 1432000   0.30295902   -2.4852742   0.45398409   -2.0312901   0.12995364    11363.206     1000 
 1434000   0.32889566   -2.5337685   0.49285014   -2.0409184   0.13444383    11330.587     1000 
 1436000   0.32320187   -2.5312698     0.484318   -2.0469518   0.12551967    11374.625     1000 
 1438000   0.31752474   -2.4886717   0.47581082   -2.0128609   0.13227978    11321.806     1000 
 1440000   0.32828549   -2.5039592   0.49193581   -2.0120233   0.12650078    11422.496     1000 
 1442000   0.32787414   -2.5452884    0.4913194    -2.053969   0.12829944    11409.547     1000 
 1444000   0.32807067   -2.5300354    0.4916139   -2.0384215   0.13099487    11374.815     1000 
 1446000   0.30466317   -2.5253503   0.45653777   -2.0688126   0.12083597    11515.666     1000 
 1448000   0.32353129   -2.5213849   0.48481164   -2.0365733   0.13130115    11339.396     1000 
 1450000   0.32227102   -2.4973303   0.48292312   -2.0144072   0.14995256    11221.407     1000 
 1452000   0.33382758    -2.548262   0.50024062   -2.0480214   0.13369028    11367.716     1000 
 1454000   0.33215743   -2.5578994   0.49773792   -2.0601615   0.14572815    11284.522     1000 
 1456000   0.31836441   -2.4933605   0.47706907   -2.0162915   0.13664595    11331.107     1000 
 1458000   0.32773322   -2.5465695   0.49110823   -2.0554613   0.14252893    11290.806     1000 
 1460000   0.31973381   -2.4756884   0.47912112   -1.9965673   0.12762883    11352.859     1000 
 1462000   0.30250873   -2.5284759   0.45330934   -2.0751666   0.12019024    11462.303     1000 
 1464000   0.31261504    -2.530842   0.46845364   -2.0623884   0.11438274     11403.39     1000 
 1466000   0.31909804   -2.5122266   0.47816842   -2.0340582   0.13239584    11379.008     1000 
 1468000   0.32719852   -2.4687373   0.49030698   -1.9784304   0.14282439    11214.823     1000 
 1470000   0.31107396   -2.5204567   0.46614434   -2.0543123   0.12964776    11445.461     1000 
 1472000   0.33862118   -2.4986423   0.50742384   -1.9912185   0.13137561    11363.571     1000 
 1474000   0.31992272   -2.5154562   0.47940419    -2.036052   0.12579804    11385.806     1000 
 1476000   0.30822433   -2.5209629   0.46187416   -2.0590887   0.12025779     11414.68     1000 
 1478000   0.31239752   -2.5384021   0.46812768   -2.0702744      0.13509    11376.842     1000 
 1480000   0.32531766   -2.4995485   0.48748851     -2.01206   0.12996774    11390.112     1000 
 1482000   0.31730439   -2.4976077   0.47548063    -2.022127   0.12409209    11410.103     1000 
 1484000   0.32102587   -2.5180966   0.48105726   -2.0370394   0.14576909    11265.511     1000 
 1486000   0.31360096   -2.5401917   0.46993104   -2.0702606   0.13061287    11410.929     1000 
 1488000   0.32482949   -2.5337062   0.48675699   -2.0469492     0.132372    11349.163     1000 
 1490000   0.32506255   -2.5445831   0.48710623   -2.0574769   0.13034341    11362.087     1000 
 1492000   0.32483155   -2.5275428   0.48676008   -2.0407827   0.14002127    11346.455     1000 
 1494000     0.308865   -2.5608222    0.4628342    -2.097988   0.11218738    11567.724     1000 
 1496000    0.3195321    -2.533866   0.47881885   -2.0550471   0.13335802    11333.723     1000 
 1498000   0.32669516   -2.5124576   0.48955269   -2.0229049   0.12276135    11440.787     1000 
 1500000   0.31545793   -2.5252303   0.47271371   -2.0525166   0.14104801     11282.13     1000 
 1502000   0.32940189   -2.4829481   0.49360874   -1.9893394   0.13202775    11382.321     1000 
 1504000   0.31306345   -2.5211803   0.46912558   -2.0520547   0.14089673    11298.388     1000 
 1506000   0.31456193   -2.5710583   0.47137105   -2.0996873   0.12757497    11449.473     1000 
 1508000   0.32324879   -2.5391868   0.48438832   -2.0547985   0.12630843    11338.811     1000 
 1510000   0.31226702   -2.4919054   0.46793213   -2.0239733   0.12199644    11420.357     1000 
 1512000   0.31948955   -2.5182813   0.47875509   -2.0395262   0.13404296    11376.693     1000 
 1514000   0.32711432   -2.5427702   0.49018081   -2.0525893   0.12853663    11387.124     1000 
 1516000   0.31920929   -2.5286254   0.47833512   -2.0502903   0.13518172    11364.189     1000 
 1518000   0.32161181   -2.5194755    0.4819353   -2.0375402   0.12767132    11385.473     1000 
 1520000   0.31465093   -2.5005824   0.47150442    -2.029078   0.14771128    11261.677     1000 
 1522000    0.3308448   -2.4989362   0.49577094   -2.0031653   0.12889195    11375.022     1000 
 1524000   0.32726321   -2.5154819   0.49040393   -2.0250779   0.13804795     11337.67     1000 
 1526000   0.32245304    -2.508806   0.48319588   -2.0256101    0.1350303    11306.082     1000 
 1528000   0.32271677   -2.5252075   0.48359107   -2.0416165   0.14017791    11306.673     1000 
 1530000   0.31029588   -2.5653544   0.46497838    -2.100376   0.12889501    11440.659     1000 
 1532000   0.32083249   -2.5181944   0.48076748   -2.0374269   0.12239502    11486.847     1000 
 1534000   0.31405994   -2.5244472   0.47061883   -2.0538284   0.12592704     11435.36     1000 
 1536000   0.31934195   -2.5355939   0.47853391   -2.0570599   0.13405834    11363.517     1000 
 1538000   0.32015265   -2.4855483   0.47974874   -2.0057996   0.13776159    11356.571     1000 
 1540000   0.31705272   -2.5454553    0.4751035   -2.0703518   0.11769244    11393.904     1000 
 1542000   0.33415172   -2.5407571   0.50072635   -2.0400308   0.12583269    11452.173     1000 
 1544000   0.33191454   -2.5277963   0.49737394   -2.0304224   0.13406734     11342.52     1000 
 1546000   0.30839781   -2.5419101   0.46213412    -2.079776   0.12699873    11394.759     1000 
 1548000   0.33259676    -2.523956   0.49839625   -2.0255598   0.13393561    11385.562     1000 
 1550000   0.32588159   -2.5442297   0.48833356   -2.0558962   0.13633572    11350.604     1000 
 1552000    0.3090629   -2.4990033   0.46313076   -2.0358725   0.14845238    11223.164     1000 
 1554000   0.33422154    -2.508084   0.50083098    -2.007253    0.1316104    11308.444     1000 
 1556000    0.3184614   -2.5149936    0.4772144   -2.0377792   0.13155057    11343.938     1000 
 1558000   0.32684549   -2.5416009   0.48977797   -2.0518229   0.12744974     11409.26     1000 
 1560000   0.31659069   -2.5081966   0.47441116   -2.0337854   0.13190296    11425.399     1000 
 1562000   0.32209549   -2.5463554   0.48266009   -2.0636953   0.12029663    11431.591     1000 
 1564000   0.31897555    -2.518087   0.47798487   -2.0401022   0.12289105    11382.052     1000 
 1566000   0.32374885   -2.5200636   0.48513765   -2.0349259   0.12939276    11343.968     1000 
 1568000   0.31962964   -2.4940561   0.47896502   -2.0150911   0.13092793    11375.074     1000 
 1570000   0.30328716   -2.5385703   0.45447582   -2.0840944   0.12825661    11372.887     1000 
 1572000   0.32000862   -2.5675365   0.47953292   -2.0880035   0.13285791    11389.734     1000 
 1574000   0.33266613   -2.5491942    0.4985002    -2.050694   0.12544638     11442.86     1000 
 1576000   0.31690104   -2.4801397   0.47487621   -2.0052635   0.14060233    11229.824     1000 
 1578000   0.33990088   -2.5647776   0.50934147   -2.0554361   0.13647826    11400.165     1000 
 1580000   0.32427059   -2.5216381   0.48591947   -2.0357186   0.12699572    11352.024     1000 
 1582000   0.32188166   -2.4975705   0.48233967   -2.0152308   0.13820795    11321.579     1000 
 1584000    0.3187081   -2.5281949   0.47758408   -2.0506108   0.12245258    11385.067     1000 
 1586000   0.32546892   -2.5381442   0.48771518    -2.050429   0.12602591    11397.951     1000 
 1588000    0.3374049   -2.5155113   0.50560124   -2.0099101   0.12706957    11464.141     1000 
 1590000   0.32937949   -2.5153673   0.49357517   -2.0217922   0.13357713    11338.542     1000 
 1592000   0.32987986   -2.5244355   0.49432497   -2.0301106   0.13647226    11334.639     1000 
 1594000   0.33094023   -2.5192535   0.49591393   -2.0233396   0.13228985    11385.756     1000 
 1596000   0.31811885   -2.5320338   0.47670109   -2.0553327   0.12249086    11428.673     1000 
[...]
 2612000   0.31565649   -2.5311329   0.47301125   -2.0581217   0.12839928    11364.731     1000 
 2614000   0.32914508   -2.5463126    0.4932239   -2.0530887   0.13201906      11402.2     1000 
 2616000   0.32490269   -2.4970303   0.48686669   -2.0101636   0.13288815    11335.822     1000 
 2618000   0.32073023   -2.5256917   0.48061425   -2.0450775   0.11718563    11475.522     1000 
 2620000    0.3289231    -2.506203   0.49289127   -2.0133118   0.13891326    11295.834     1000 
 2622000   0.30662259   -2.5121001   0.45947395   -2.0526261   0.11828748    11483.688     1000 
 2624000   0.32911434   -2.5336055   0.49317784   -2.0404276   0.12563713    11402.927     1000 
 2626000   0.31874718   -2.5564062   0.47764265   -2.0787635    0.1242905    11446.168     1000 
 2628000   0.31728023   -2.5328777   0.47544442   -2.0574333   0.13071184    11329.671     1000 
 2630000   0.31641963   -2.4947234   0.47415481   -2.0205686   0.12541137    11351.418     1000 
 2632000   0.31858935   -2.4803931   0.47740615    -2.002987    0.1395514    11299.372     1000 
 2634000   0.31597787   -2.5595114   0.47349284   -2.0860185   0.13093488    11374.302     1000 
 2636000   0.32319937   -2.4805923   0.48431426   -1.9962781   0.14031149    11285.253     1000 
 2638000   0.31479076   -2.4950625   0.47171395   -2.0233486   0.13182697    11341.418     1000 
 2640000   0.33023427   -2.5322388   0.49485606   -2.0373827   0.13247357    11455.526     1000 
 2642000   0.33253123    -2.488008   0.49829805   -1.9897099    0.1360403    11311.858     1000 
 2644000   0.32079205   -2.5295011   0.48070689   -2.0487943   0.12207201    11434.633     1000 
 2646000   0.33005368    -2.528577   0.49458544   -2.0339916   0.12889731    11383.513     1000 
 2648000   0.32469349   -2.5305412   0.48655319    -2.043988   0.12811375    11380.317     1000 
 2650000   0.32815282   -2.4778182     0.491737   -1.9860812   0.12946646    11439.142     1000 
 2652000   0.32720948   -2.5561796    0.4903234   -2.0658562   0.12214265      11463.7     1000 
 2654000   0.32490953   -2.5503307   0.48687693   -2.0634538   0.14147805    11297.162     1000 
 2656000   0.32482207   -2.5318374   0.48674587   -2.0450915   0.12284742    11340.168     1000 
 2658000   0.31693102   -2.5157744   0.47492113   -2.0408533   0.14078902    11287.954     1000 
 2660000   0.32271233   -2.5334342   0.48358442   -2.0498498   0.13985886    11350.888     1000 
 2662000   0.31102888   -2.5639884   0.46607678   -2.0979116    0.1286931    11416.362     1000 
 2664000   0.32544209    -2.523224   0.48767497    -2.035549   0.12670144    11405.372     1000 
 2666000   0.32511237   -2.4934071   0.48718089   -2.0062262   0.13921074    11226.042     1000 
 2668000   0.33117779   -2.4944556   0.49626991   -1.9981857   0.13304664    11411.323     1000 
 2670000   0.31173881   -2.5382858   0.46714061   -2.0711452   0.12363138    11370.833     1000 
 2672000   0.30945212   -2.5132774     0.463714   -2.0495634   0.13236377    11319.861     1000 
 2674000   0.31329875   -2.5314129   0.46947817   -2.0619347   0.13250914    11393.551     1000 
 2676000   0.30490567   -2.5200189   0.45690114   -2.0631178   0.12355427    11371.191     1000 
 2678000   0.31878554   -2.5332595   0.47770014   -2.0555594   0.13082152    11409.817     1000 
 2680000   0.32516992   -2.5266636   0.48726713   -2.0393964   0.12484354    11421.263     1000 
 2682000   0.31013709   -2.4774608   0.46474043   -2.0127204   0.12009334    11413.461     1000 
 2684000   0.32715441   -2.4701113   0.49024088   -1.9798704   0.13369077    11275.044     1000 
 2686000   0.32909157   -2.5111284   0.49314372   -2.0179847   0.12123109    11390.994     1000 
 2688000   0.32933236   -2.5355514   0.49350454   -2.0420468   0.12816017    11392.808     1000 
 2690000   0.31525651   -2.5222183   0.47241188   -2.0498064   0.13463025     11289.96     1000 
 2692000   0.33219524   -2.5460059   0.49779457   -2.0482113   0.13193625    11419.558     1000 
 2694000   0.32210239   -2.5211999   0.48267043   -2.0385294   0.13222136    11403.418     1000 
 2696000   0.31798508   -2.5066092   0.47650064   -2.0301086   0.12735358    11407.466     1000 
 2698000   0.32203702   -2.5225941   0.48257247   -2.0400217   0.13307273    11318.543     1000 
 2700000    0.3163127   -2.5114613   0.47399458   -2.0374667   0.13136289    11479.922     1000 
 2702000   0.31907667   -2.5099696   0.47813639   -2.0318332   0.13557127    11319.164     1000 
 2704000   0.31421792   -2.5282353   0.47085556   -2.0573797   0.11536815    11428.758     1000 
 2706000   0.31968512   -2.5093987   0.47904816   -2.0303506   0.12771306     11403.53     1000 
 2708000   0.31834484   -2.5307558   0.47703975   -2.0537161   0.12963777    11374.348     1000 
 2710000   0.32178442   -2.5008546   0.48219395   -2.0186606   0.13080897    11357.867     1000 
 2712000   0.30352706   -2.5077827   0.45483529   -2.0529474   0.13917902    11322.721     1000 
 2714000   0.30568049   -2.5120883   0.45806221   -2.0540261   0.13433854    11352.956     1000 
 2716000   0.31549684   -2.5496108   0.47277202   -2.0768388   0.12345938    11444.449     1000 
 2718000   0.32897915   -2.5320056   0.49297526   -2.0390304   0.12014711    11430.362     1000 
 2720000   0.31982553   -2.5519613   0.47925855   -2.0727028   0.11812116    11451.101     1000 
 2722000   0.31879603   -2.5119967   0.47771585   -2.0342809   0.12894068     11379.35     1000 
 2724000   0.32960747   -2.5161941    0.4939168   -2.0222773   0.13129932    11385.017     1000 
 2726000   0.31678446   -2.5113189   0.47470151   -2.0366174   0.12828133    11399.674     1000 
 2728000    0.3037165   -2.5412469   0.45511917   -2.0861277   0.13464404    11353.478     1000 
 2730000   0.32245948   -2.5460025   0.48320553    -2.062797   0.12790155    11450.836     1000 
 2732000   0.32538127   -2.5449607   0.48758383   -2.0573769    0.1261199    11422.386     1000 
 2734000    0.3063224   -2.5233943   0.45902412   -2.0643702   0.13223068    11403.155     1000 
 2736000   0.32337166   -2.5200182   0.48457243   -2.0354458    0.1346619    11356.724     1000 
 2738000   0.32767166   -2.5202412   0.49101598   -2.0292253   0.14086508    11290.854     1000 
 2740000   0.32456354   -2.5236337   0.48635846   -2.0372753   0.14225883    11321.084     1000 
 2742000   0.31974882   -2.5340175    0.4791436   -2.0548739   0.12261501    11417.974     1000 
 2744000   0.31792508   -2.5091425   0.47641073   -2.0327317   0.12933441    11338.256     1000 
 2746000   0.32143122   -2.5123016   0.48166468   -2.0306369   0.13222297    11346.208     1000 
 2748000    0.3158261   -2.5290938   0.47326541   -2.0558284   0.13001748    11316.621     1000 
 2750000   0.32423122   -2.5107529   0.48586049   -2.0248924   0.13298607    11382.175     1000 
 2752000   0.31692886   -2.5488907   0.47491789   -2.0739728   0.12407833    11440.512     1000 
 2754000   0.31620091   -2.5233708   0.47382707   -2.0495438   0.12435229    11447.759     1000 
 2756000   0.33711412    -2.523499   0.50516551   -2.0183335    0.1258771    11428.092     1000 
 2758000   0.31380791   -2.5621626   0.47024116   -2.0919214   0.11680065    11488.364     1000 
 2760000   0.31970183   -2.5268502    0.4790732    -2.047777     0.123924    11429.595     1000 
 2762000   0.30665028   -2.5428993   0.45951544   -2.0833839    0.1278366    11399.777     1000 
 2764000   0.32586329   -2.5259762   0.48830615   -2.0376701   0.13712499    11350.649     1000 
 2766000   0.32743205   -2.5141492   0.49065693   -2.0234922   0.13820944    11393.914     1000 
 2768000   0.32305125   -2.5161235   0.48409229   -2.0320312   0.12662241    11451.829     1000 
 2770000   0.32690177   -2.5402264   0.48986231   -2.0503641   0.13552385    11323.309     1000 
 2772000   0.32111655   -2.5002763   0.48119315   -2.0190832   0.14271148    11258.232     1000 
 2774000   0.32946134   -2.4828279   0.49369781   -1.9891301   0.14080224    11354.092     1000 
 2776000   0.31809323   -2.5229043   0.47666271   -2.0462416   0.13217631    11283.914     1000 
 2778000   0.32928475   -2.5480442   0.49343319    -2.054611    0.1278135    11381.177     1000 
 2780000   0.33338465   -2.5273508   0.49957689   -2.0277739   0.13347061    11416.315     1000 
 2782000   0.32741004   -2.5449955   0.49062395   -2.0543715   0.12850994     11463.65     1000 
 2784000   0.31814819   -2.5242856   0.47674507   -2.0475406   0.12705717    11459.828     1000 
 2786000    0.3155818   -2.5322565   0.47289933   -2.0593572   0.12530465     11415.11     1000 
 2788000   0.31536448   -2.5019764   0.47257368   -2.0294027   0.11698604    11494.033     1000 
 2790000   0.32011288   -2.5110578   0.47968914   -2.0313687   0.12367158    11417.183     1000 
 2792000   0.31083323   -2.5245429   0.46578359   -2.0587593    0.1208803    11356.735     1000 
 2794000   0.33502607   -2.5441124   0.50203657   -2.0420759   0.12499236    11368.191     1000 
 2796000   0.32505793   -2.5101644    0.4870993   -2.0230651   0.13905088    11275.401     1000 
 2798000   0.31592059   -2.5092198     0.473407   -2.0358128   0.12668589    11401.411     1000 
 2800000   0.31521873   -2.4818734   0.47235526   -2.0095181   0.13294045    11360.773     1000 
 2802000   0.34443853   -2.5341329   0.51614113   -2.0179917   0.13484089    11351.986     1000 
 2804000   0.31317785   -2.5072826   0.46929701   -2.0379856   0.12953129    11411.087     1000 
 2806000   0.32082134   -2.4885559   0.48075078   -2.0078051    0.1366026    11345.572     1000 
 2808000   0.31382231   -2.4695736   0.47026274   -1.9993109   0.13424511    11348.036     1000 
 2810000   0.34489246   -2.4984889   0.51682135   -1.9816675   0.13602272     11337.97     1000 
 2812000   0.32995077   -2.5145309   0.49443122   -2.0200996   0.12430031    11400.691     1000 
 2814000   0.32370639   -2.4941403   0.48507403   -2.0090663   0.14111432    11352.337     1000 
 2816000   0.32947835   -2.5106793   0.49372331    -2.016956   0.12396786    11441.964     1000 
 2818000   0.32444171   -2.5188455    0.4861759   -2.0326696   0.13271301    11300.888     1000 
 2820000   0.32318624   -2.5029697   0.48429459   -2.0186751   0.13763538    11268.699     1000 
 2822000   0.34170034   -2.5140068   0.51203795   -2.0019689   0.13304994    11400.405     1000 
 2824000   0.31475438   -2.5340862   0.47165943   -2.0624268   0.14055719    11329.328     1000 
 2826000   0.32304613   -2.4953179   0.48408463   -2.0112333   0.13940719    11302.237     1000 
 2828000   0.32729096   -2.4748719   0.49044551   -1.9844264   0.13263544    11291.984     1000 
 2830000   0.31537929   -2.4957111   0.47259586   -2.0231152   0.14228718    11310.579     1000 
 2832000   0.32640805   -2.4894045   0.48912246    -2.000282   0.13795164     11305.34     1000 
 2834000   0.32448964   -2.5620787   0.48624773    -2.075831   0.13189113    11400.055     1000 
 2836000    0.3327331   -2.5299152   0.49860055   -2.0313146   0.11968484    11508.198     1000 
 2838000   0.30726181   -2.5010619   0.46043182     -2.04063   0.12116517    11442.642     1000 
 2840000    0.3268093    -2.519857   0.48972374   -2.0301333   0.12014823    11395.381     1000 
 2842000   0.33017928   -2.5304501   0.49477365   -2.0356765   0.14161974    11299.448     1000 
 2844000   0.32678439   -2.5299469   0.48968641   -2.0402605   0.14096308    11326.625     1000 
 2846000   0.32313269   -2.5181527   0.48421434   -2.0339384   0.14279455    11275.534     1000 
 2848000   0.32075109    -2.506977   0.48064551   -2.0263315   0.13477503    11352.807     1000 
 2850000   0.30803989   -2.5517468   0.46159777   -2.0901491   0.13465652    11374.346     1000 
 2852000   0.32668831   -2.5613576   0.48954243   -2.0718151   0.12325119    11489.368     1000 
 2854000   0.32452372   -2.5517952   0.48629879   -2.0654964   0.12895273    11443.869     1000 
 2856000   0.31260534   -2.5077887    0.4684391   -2.0393496   0.12379284    11332.797     1000 
 2858000   0.31697718   -2.5425912   0.47499031   -2.0676009   0.12033677    11484.364     1000 
 2860000    0.3214064   -2.4910995   0.48162748   -2.0094721    0.1333866    11355.696     1000 
 2862000   0.30809531   -2.4871655   0.46168083   -2.0254847   0.12410591    11446.268     1000 
 2864000   0.31328108   -2.5219464    0.4694517   -2.0524947   0.12717926    11428.961     1000 
 2866000   0.33219681   -2.4935917   0.49779691   -1.9957948   0.13040773    11319.094     1000 
 2868000    0.3174698   -2.5144842    0.4757285   -2.0387557   0.13287848    11355.559     1000 
 2870000   0.32220733   -2.5441257   0.48282769    -2.061298    0.1277871    11396.216     1000 
 2872000   0.32401306    -2.497608   0.48553358   -2.0120744   0.13538034    11279.418     1000 
 2874000   0.32413437   -2.5123063   0.48571535   -2.0265909   0.13265563      11376.1     1000 
 2876000   0.30610103   -2.5545948   0.45869239   -2.0959024   0.12631035    11378.168     1000 
 2878000   0.32016692   -2.5360675   0.47977013   -2.0562974   0.12723024    11407.768     1000 
 2880000   0.31316095    -2.568316   0.46927168   -2.0990443   0.12118447    11450.683     1000 
 2882000   0.32841282   -2.5354065   0.49212661   -2.0432799   0.12201727    11457.326     1000 
 2884000   0.33031874   -2.5019027   0.49498263   -2.0069201   0.13371811    11303.676     1000 
 2886000   0.33150181   -2.5143365   0.49675546    -2.017581   0.12567555    11332.194     1000 
 2888000   0.30125541   -2.5397802   0.45143122    -2.088349    0.1327943    11399.181     1000 
 2890000   0.30971204   -2.5187708   0.46410349   -2.0546673   0.12461111     11481.81     1000 
 2892000   0.31141262   -2.5399254   0.46665182   -2.0732736   0.13464242    11326.467     1000 
 2894000   0.32580879   -2.4857783   0.48822447   -1.9975539    0.1245131    11424.825     1000 
 2896000   0.30559364   -2.5189776   0.45793206   -2.0610455   0.12244881    11395.776     1000 
 2898000   0.31663697   -2.5574946    0.4744805   -2.0830141   0.13466412    11369.661     1000 
 2900000   0.31358649   -2.5460634   0.46990936    -2.076154   0.12328863    11420.498     1000 
 2902000   0.32354116   -2.5393392   0.48482642   -2.0545128   0.13333006    11414.084     1000 
 2904000   0.31337603   -2.4981104   0.46959398   -2.0285164   0.13280672    11328.195     1000 
 2906000   0.32294656   -2.5004263   0.48393542   -2.0164908   0.13940308    11291.007     1000 
 2908000   0.32696899   -2.5341262   0.48996303   -2.0441631   0.12238836    11402.663     1000 
 2910000   0.32067638   -2.5170153   0.48053355   -2.0364818   0.12525216    11460.118     1000 
 2912000   0.31440297   -2.4717299   0.47113285    -2.000597    0.1364506    11325.671     1000 
 2914000   0.32479087   -2.5277345   0.48669911   -2.0410354    0.1350435    11393.342     1000 
 2916000   0.32877339   -2.5216906   0.49266693   -2.0290237   0.14215691    11240.559     1000 
 2918000   0.31230863   -2.5115479   0.46799448   -2.0435534   0.13101107    11429.328     1000 
 2920000   0.32182687   -2.4972609   0.48225756   -2.0150034   0.14508396    11284.538     1000 
 2922000   0.32170292   -2.4879416   0.48207182   -2.0058698   0.13264191    11340.542     1000 
 2924000   0.31149049   -2.5215348    0.4667685   -2.0547663    0.1271217    11413.909     1000 
 2926000   0.31663673   -2.5226417   0.47448014   -2.0481616   0.12830931    11379.438     1000 
 2928000   0.32216682   -2.5501749   0.48276698   -2.0674079   0.12587016    11422.303     1000 
 2930000   0.31385655   -2.5075765   0.47031404   -2.0372625   0.12910249    11366.904     1000 
 2932000   0.32682985   -2.5184844   0.48975453   -2.0287298   0.13184314    11381.129     1000 
 2934000   0.32411481   -2.5082502   0.48568604   -2.0225642   0.13118937    11338.162     1000 
 2936000   0.31971727   -2.4904449   0.47909633   -2.0113486   0.13112805     11328.69     1000 
 2938000   0.31952318   -2.5056471   0.47880548   -2.0268416   0.13662953     11376.45     1000 
 2940000   0.31134821   -2.5065367    0.4665553   -2.0399814   0.12900973    11399.228     1000 
 2942000   0.31376763   -2.5035852    0.4701808   -2.0334044    0.1298787    11335.543     1000 
 2944000   0.33550823   -2.4923906   0.50275909   -1.9896315   0.11954114    11458.386     1000 
 2946000   0.31280947   -2.5632755     0.468745   -2.0945305   0.12926855    11308.881     1000 
 2948000    0.3200574   -2.5579704   0.47960601   -2.0783644   0.12253508     11455.71     1000 
 2950000   0.31802893    -2.523928   0.47656635   -2.0473617    0.1304671     11372.02     1000 
 2952000   0.32178904   -2.5082649   0.48220087    -2.026064   0.12492532    11451.591     1000 
 2954000   0.31690437   -2.5288318    0.4748812   -2.0539506    0.1312731    11320.724     1000 
 2956000   0.32997021   -2.5509431   0.49446035   -2.0564828   0.12755959    11433.381     1000 
 2958000   0.32478458   -2.5676964    0.4866897   -2.0810067   0.13292176    11372.431     1000 
 2960000   0.31943214   -2.5614011   0.47866906    -2.082732   0.13871823    11358.824     1000 
 2962000     0.318277   -2.5573569   0.47693809   -2.0804188   0.13302611    11373.747     1000 
 2964000   0.33437491   -2.5623727   0.50106081   -2.0613119   0.12583343     11401.68     1000 
 2966000   0.31584683   -2.5481174   0.47329647   -2.0748209   0.12981203    11382.261     1000 
 2968000   0.33797922   -2.5356071   0.50646186   -2.0291452   0.14208214    11318.883     1000 
 2970000   0.32508159   -2.5650626   0.48713476   -2.0779278   0.12567086    11468.145     1000 
 2972000   0.32206333   -2.5535392    0.4826119   -2.0709273   0.12995318    11370.196     1000 
 2974000   0.32088521   -2.4914484   0.48084648   -2.0106019   0.13114856    11278.255     1000 
 2976000   0.32083479   -2.5255761   0.48077094   -2.0448051   0.12806243    11420.996     1000 
 2978000   0.32109595   -2.5271668   0.48116228   -2.0460046   0.12941282    11373.395     1000 
 2980000   0.32354401   -2.5353894   0.48483069   -2.0505587   0.13016811    11395.443     1000 
 2982000   0.32277271   -2.4728597   0.48367491   -1.9891848   0.13309317    11342.725     1000 
 2984000   0.32901059   -2.5203756   0.49302236   -2.0273533   0.12372584    11502.824     1000 
 2986000   0.31735861   -2.5267516   0.47556187   -2.0511898   0.14687168    11252.548     1000 
 2988000   0.33765868   -2.5498628   0.50598153   -2.0438813   0.13198706    11368.087     1000 
 2990000   0.31958787   -2.5285193   0.47890242   -2.0496169   0.13101043    11370.849     1000 
 2992000   0.31552055   -2.5243012   0.47280754   -2.0514936      0.13176    11406.797     1000 
 2994000   0.32743687   -2.5243362   0.49066415   -2.0336721   0.13378769    11369.331     1000 
 2996000   0.30315494   -2.4917966   0.45427768   -2.0375189   0.12702055    11344.057     1000 
 2998000   0.31455982   -2.4984875    0.4713679   -2.0271196    0.1315359    11329.419     1000 
 3000000   0.30934336   -2.5057989   0.46355103   -2.0422479   0.13583254    11304.627     1000 
Loop time of 1080.15 on 4 procs for 3000000 steps with 1000 atoms

Performance: 1199832.919 tau/day, 2777.391 timesteps/s
95.3% CPU use with 4 MPI tasks x no OpenMP threads

MPI task timing breakdown:
Section |  min time  |  avg time  |  max time  |%varavg| %total
---------------------------------------------------------------
Pair    | 800.01     | 804.49     | 807.83     |  10.3 | 74.48
Neigh   | 74.601     | 74.813     | 75.115     |   2.2 |  6.93
Comm    | 146.3      | 149.65     | 154.49     |  24.9 | 13.85
Output  | 0.023496   | 0.02599    | 0.033417   |   2.7 |  0.00
Modify  | 44.284     | 44.47      | 44.634     |   2.0 |  4.12
Other   |            | 6.709      |            |       |  0.62

Nlocal:    250 ave 252 max 248 min
Histogram: 1 0 1 0 0 0 0 1 0 1
Nghost:    1713 ave 1721 max 1705 min
Histogram: 1 1 0 0 0 0 0 0 1 1
Neighs:    14668.5 ave 14776 max 14457 min
Histogram: 1 0 0 0 0 0 0 0 2 1

Total # of neighbors = 58674
Ave neighs/atom = 58.674
Neighbor list builds = 150000
Dangerous builds not checked

Total wall time: 0:18:00
