LAMMPS (3 Mar 2020)
# ----------------------- Inicialização -----------------------

units			lj
atom_style 		atomic
dimension 		3
boundary 		p p p

# -------------------- Criação dos Átomos ---------------------

read_data 		topologia.txt
  orthogonal box = (0 0 0) to (21.54 21.54 21.54)
  1 by 2 by 2 MPI processor grid
  reading atoms ...
  1000 atoms
  read_data CPU = 0.0025952 secs

velocity 		all create ${temp} 87287 rot yes dist gaussian
velocity 		all create 0.39 87287 rot yes dist gaussian

# ------------------ Interação Interatômica -------------------

pair_style		table linear 1300
pair_coeff		1 1 force.table AA 6.5
WARNING: 2 of 1300 force values in table are inconsistent with -dE/dr.
  Should only be flagged at inflection points (src/pair_table.cpp:483)
pair_coeff		1 2 force.table AB 6.5
WARNING: 1 of 1300 force values in table are inconsistent with -dE/dr.
  Should only be flagged at inflection points (src/pair_table.cpp:483)
pair_coeff		2 2 force.table BB 6.5
pair_write		1 1 1600 r 0.008 6.5 table.check AA
Neighbor list info ...
  update every 1 steps, delay 10 steps, check yes
  max neighbors/atom: 2000, page size: 100000
  master list distance cutoff = 6.8
  ghost atom cutoff = 6.8
  binsize = 3.4, bins = 7 7 7
  1 neighbor lists, perpetual/occasional/extra = 1 0 0
  (1) pair table, perpetual
      attributes: half, newton on
      pair build: half/bin/atomonly/newton
      stencil: half/bin/3d/newton
      bin: standard
pair_write		1 2 1600 r 0.008 6.5 table.check AB
pair_write		2 2 1600 r 0.008 6.5 table.check BB

neighbor 		0.3 bin
neigh_modify	every 20 delay 0 check no

# ------------------------- Ensemble --------------------------------------

fix 1			all npt temp ${temp} ${temp} 0.5 iso ${press} ${press} 5
fix 1			all npt temp 0.39 ${temp} 0.5 iso ${press} ${press} 5
fix 1			all npt temp 0.39 0.39 0.5 iso ${press} ${press} 5
fix 1			all npt temp 0.39 0.39 0.5 iso 0.13 ${press} 5
fix 1			all npt temp 0.39 0.39 0.5 iso 0.13 0.13 5

# ---------------------- Função de Distribuição Radial -----------------------

#compute RDF 	all rdf 2000 1 1 1 2 2 2
#fix 2 			all ave/time 1 2000 2000 c_RDF[*] file rdf.data mode vector

# ------------------------- Execução ---------------------------

timestep 		0.005
thermo_style	custom step temp pe ke etotal press vol atoms
thermo			2000
run				3000000
Per MPI rank memory allocation (min/avg/max) = 2.675 | 2.675 | 2.675 Mbytes
Step Temp PotEng KinEng TotEng Press Volume Atoms 
       0         0.39   -0.9940566     0.584415   -0.4096416   0.10738362    9993.9483     1000 
    2000   0.38091336    -2.211047   0.57079866   -1.6402484   0.13145806    11279.815     1000 
    4000   0.39508035   -2.2567688    0.5920279   -1.6647409   0.13223339     11289.95     1000 
    6000   0.41104566   -2.2533114   0.61595192   -1.6373594   0.14152434    11278.971     1000 
    8000   0.40253861   -2.2361012    0.6032041   -1.6328971   0.13947118    11306.541     1000 
   10000   0.39203336   -2.2911151   0.58746199   -1.7036531   0.13120263    11439.449     1000 
   12000   0.37528885   -2.2459344   0.56237034   -1.6835641   0.13250905    11325.441     1000 
   14000   0.36217232   -2.3063191   0.54271522   -1.7636038   0.13002455    11359.041     1000 
   16000   0.39551683   -2.2288127   0.59268198   -1.6361308   0.12568642    11416.515     1000 
   18000   0.39078426   -2.2670515   0.58559022   -1.6814612   0.12682444    11407.322     1000 
   20000   0.39450527   -2.2839129   0.59116614   -1.6927468   0.12487216    11351.183     1000 
   22000   0.37004355   -2.2365664   0.55451025   -1.6820562   0.13081173    11251.992     1000 
   24000   0.36852948    -2.275945   0.55224143   -1.7237036    0.1270271    11400.659     1000 
   26000   0.37343598   -2.3126008   0.55959382    -1.753007   0.12202978    11475.678     1000 
   28000   0.38133221   -2.2166309   0.57142631   -1.6452046   0.13011693    11339.783     1000 
   30000    0.3852149   -2.3065283   0.57724453   -1.7292838    0.1308731    11415.338     1000 
   32000   0.38595771   -2.2541396   0.57835763    -1.675782   0.12840288    11341.655     1000 
   34000   0.38152949   -2.2789301   0.57172194   -1.7072082   0.12774092    11418.893     1000 
   36000   0.40022963   -2.2538388   0.59974409   -1.6540947   0.12589312    11440.425     1000 
   38000   0.39052236    -2.232524   0.58519776   -1.6473263   0.14046005    11242.002     1000 
   40000   0.38300437   -2.3115532   0.57393205   -1.7376212   0.12154299    11523.652     1000 
   42000   0.38395123   -2.3164272   0.57535091   -1.7410763    0.1164724    11526.652     1000 
   44000   0.39049237   -2.2589376   0.58515281   -1.6737847   0.13240053    11270.556     1000 
   46000   0.38231703   -2.3119344   0.57290207   -1.7390323   0.12199532    11529.799     1000 
   48000   0.39340378   -2.2904354   0.58951556   -1.7009198   0.12862338    11411.624     1000 
   50000   0.39412024   -2.2912369   0.59058918   -1.7006477   0.12488402    11367.692     1000 
   52000   0.41017658   -2.2905459   0.61464961   -1.6758963   0.13344471    11365.389     1000 
   54000   0.38665115    -2.250138   0.57939674   -1.6707413   0.12403903    11353.595     1000 
   56000    0.3896267   -2.2726425   0.58385562   -1.6887869   0.13935817    11363.641     1000 
   58000   0.39668342   -2.3073676   0.59443011   -1.7129375   0.12385454    11365.528     1000 
   60000   0.38990024   -2.2839751    0.5842655   -1.6997096   0.12752766     11337.33     1000 
   62000   0.38993842   -2.2594636   0.58432273   -1.6751409   0.12691649    11367.958     1000 
   64000    0.3750183   -2.2672997   0.56196493   -1.7053348   0.12269921    11447.941     1000 
   66000   0.41265749   -2.2858069   0.61836726   -1.6674396   0.13941346    11317.348     1000 
   68000   0.41826487   -2.2579564    0.6267699   -1.6311865   0.12032191    11518.124     1000 
   70000   0.39370106    -2.232665   0.58996104    -1.642704   0.12518198    11409.941     1000 
   72000   0.38617118    -2.260454   0.57867751   -1.6817765   0.12578859    11430.352     1000 
   74000   0.36748505   -2.2632548   0.55067634   -1.7125784   0.11524954    11478.351     1000 
   76000   0.39898738   -2.2461999   0.59788259   -1.6483173    0.1221083    11435.999     1000 
   78000   0.39042502   -2.2887354   0.58505189   -1.7036835    0.1432352    11236.089     1000 
   80000   0.39025633    -2.228033   0.58479912   -1.6432339   0.14198984    11252.825     1000 
   82000   0.38040238   -2.2940146   0.57003297   -1.7239816   0.13747788    11327.367     1000 
   84000   0.37033101   -2.2834735   0.55494102   -1.7285325   0.12637728    11329.545     1000 
   86000   0.39716203   -2.3301512    0.5951473   -1.7350039   0.12263161    11396.092     1000 
   88000   0.37001482   -2.3054227   0.55446721   -1.7509555   0.12199028    11403.019     1000 
   90000    0.3954834   -2.2922896   0.59263187   -1.6996578   0.13618502    11444.422     1000 
   92000   0.40679539   -2.2799356    0.6095829   -1.6703527    0.1338672    11379.009     1000 
   94000   0.38497708   -2.2911085   0.57688815   -1.7142204   0.14147337    11282.644     1000 
   96000   0.38316399   -2.2971116   0.57417124   -1.7229403    0.1227907    11514.785     1000 
   98000   0.38410765   -2.2791799   0.57558531   -1.7035945   0.13137517    11393.268     1000 
  100000   0.39433546   -2.2788363   0.59091169   -1.6879246   0.12487427     11396.07     1000 
  102000   0.38856072   -2.2674531   0.58225825   -1.6851949   0.12279132    11420.363     1000 
  104000   0.39027383    -2.230797   0.58482533   -1.6459717   0.12629762    11302.642     1000 
  106000   0.38845055   -2.2788738   0.58209315   -1.6967807    0.1266444    11356.904     1000 
  108000   0.39513681   -2.2920499   0.59211251   -1.6999374   0.12785155    11399.661     1000 
  110000   0.39275707   -2.2135965   0.58854647   -1.6250501   0.13499467    11266.607     1000 
  112000   0.39248632   -2.2551877   0.58814075    -1.667047   0.13449976    11284.328     1000 
  114000   0.41673212   -2.2884365   0.62447308   -1.6639634   0.13280334    11370.482     1000 
  116000   0.37165668   -2.2768576   0.55692754     -1.71993   0.11754333    11456.282     1000 
  118000   0.39320631   -2.2951686   0.58921965    -1.705949   0.13813868    11366.327     1000 
  120000   0.39155331   -2.2372329   0.58674263   -1.6504903   0.13117573    11352.429     1000 
  122000    0.3994695   -2.3187921   0.59860505    -1.720187   0.12960257    11363.883     1000 
  124000   0.38538457   -2.2325877   0.57749877   -1.6550889   0.11504377    11419.722     1000 
  126000   0.38180423   -2.2436619   0.57213363   -1.6715283   0.12294266    11375.877     1000 
  128000   0.38432968   -2.3117313   0.57591802   -1.7358133   0.13944616    11369.347     1000 
  130000   0.39775084   -2.3053807   0.59602964   -1.7093511   0.13587355    11416.281     1000 
  132000   0.40300888   -2.3017467    0.6039088   -1.6978379   0.13618669    11323.877     1000 
  134000   0.39947709   -2.2648325   0.59861641   -1.6662161   0.12880542    11334.909     1000 
  136000   0.40504402   -2.2692908   0.60695847   -1.6623323   0.14604158    11260.956     1000 
  138000   0.40094267   -2.3176037    0.6008126   -1.7167911   0.13294642    11324.585     1000 
  140000   0.40445247    -2.272863   0.60607202    -1.666791   0.14515867    11253.995     1000 
  142000   0.38385385   -2.2474275     0.575205   -1.6722225   0.12650196    11333.707     1000 
  144000   0.39418426    -2.263107   0.59068511   -1.6724219   0.14379586    11331.639     1000 
  146000   0.37801078   -2.2737058   0.56644915   -1.7072566   0.13862846    11345.872     1000 
  148000   0.39203187   -2.2615982   0.58745976   -1.6741384   0.12921946    11377.906     1000 
  150000   0.38464832   -2.2737087   0.57639551   -1.6973131   0.12705947    11426.447     1000 
  152000   0.38538755   -2.2268261   0.57750325   -1.6493228   0.13173197      11316.7     1000 
  154000   0.38168109   -2.2691204   0.57194911   -1.6971713   0.13194368    11358.604     1000 
  156000   0.39334476   -2.3067848   0.58942713   -1.7173576   0.13864884    11334.174     1000 
  158000   0.38198448   -2.2367332   0.57240374   -1.6643294   0.13524982    11384.537     1000 
  160000   0.38288821   -2.2274667   0.57375799   -1.6537087   0.13828831    11303.333     1000 
  162000   0.38752886   -2.2642825   0.58071199   -1.6835705   0.13597954    11298.893     1000 
  164000   0.39787515   -2.2937688   0.59621591   -1.6975529   0.11219866     11567.57     1000 
  166000   0.38235994   -2.2805241   0.57296637   -1.7075577   0.13612897    11273.916     1000 
  168000    0.3915053   -2.2652514   0.58667069   -1.6785807   0.13070065    11342.919     1000 
  170000   0.40985079   -2.2979228   0.61416141   -1.6837614    0.1261628     11511.42     1000 
  172000     0.372328   -2.2741608   0.55793351   -1.7162273   0.13574389    11343.165     1000 
  174000   0.38756631   -2.2851827   0.58076811   -1.7044146   0.12831353    11370.014     1000 
  176000   0.39332062   -2.3286908   0.58939095   -1.7392998   0.13259483     11411.28     1000 
  178000   0.39872069   -2.2883501   0.59748295   -1.6908671     0.116532    11553.544     1000 
  180000   0.38461119   -2.2415882   0.57633987   -1.6652484   0.12519555    11440.799     1000 
  182000   0.36280281   -2.2850404   0.54366001   -1.7413804   0.11695414    11507.634     1000 
  184000   0.38151027   -2.2336204   0.57169315   -1.6619273    0.1243104    11353.675     1000 
  186000   0.39715173   -2.2561091   0.59513187   -1.6609773   0.12842657    11336.048     1000 
  188000   0.39305521   -2.3077193   0.58899323   -1.7187261   0.12380482    11413.632     1000 
  190000   0.38528424   -2.2463526   0.57734843   -1.6690042   0.13425151     11311.37     1000 
  192000   0.38344612   -2.2878144   0.57459401   -1.7132204   0.12041978    11366.717     1000 
  194000   0.39056705     -2.28121   0.58526473   -1.6959453   0.11819739    11434.372     1000 
  196000   0.38678635   -2.2574411   0.57959934   -1.6778417   0.12887381    11313.521     1000 
  198000   0.39330864   -2.2957364     0.589373   -1.7063634   0.12370999    11368.079     1000 
  200000   0.38710135   -2.2700121   0.58007137   -1.6899407   0.12165832    11373.221     1000 
  202000   0.38713088   -2.2745634   0.58011562   -1.6944478   0.13362222    11240.431     1000 
  204000    0.3947341   -2.2773401   0.59150905    -1.685831   0.12683852     11398.45     1000 
  206000   0.39564909   -2.2698858   0.59288016   -1.6770056    0.1308034    11349.639     1000 
  208000   0.38679864   -2.2669273   0.57961776   -1.6873095   0.11600447    11432.451     1000 
  210000   0.38717386   -2.2785523   0.58018003   -1.6983722   0.13301951    11278.315     1000 
  212000   0.38104925   -2.2953649    0.5710023   -1.7243626   0.12108627    11430.252     1000 
  214000   0.39127736   -2.2156294   0.58632912   -1.6293002   0.12687994    11356.984     1000 
  216000   0.37289399   -2.2526443   0.55878164   -1.6938627   0.13533062    11303.967     1000 
  218000   0.39633256   -2.3007802   0.59390434   -1.7068759   0.12894523    11408.591     1000 
  220000   0.39956065   -2.2714616   0.59874164     -1.67272   0.13934788    11270.513     1000 
  222000   0.38663017   -2.2726989   0.57936532   -1.6933336    0.1222964    11493.268     1000 
  224000   0.40006357   -2.2849285   0.59949526   -1.6854332   0.13674087      11229.8     1000 
  226000   0.38610296   -2.2329566   0.57857529   -1.6543813   0.12646625    11340.303     1000 
  228000   0.40370144   -2.2753029   0.60494661   -1.6703563   0.13057765    11377.221     1000 
  230000   0.40128684   -2.2456081   0.60132833   -1.6442797   0.11868715    11466.398     1000 
  232000   0.39801483   -2.2441639   0.59642523   -1.6477387   0.15051579    11216.671     1000 
  234000   0.39093297    -2.272222   0.58581306   -1.6864089   0.13115066    11332.719     1000 
  236000   0.39632065   -2.2464105   0.59388649    -1.652524   0.13384288    11355.226     1000 
  238000   0.38441692   -2.2625281   0.57604875   -1.6864793   0.12974529     11377.59     1000 
  240000   0.40442677   -2.2565203   0.60603351   -1.6504868    0.1385506    11294.792     1000 
  242000   0.37317983   -2.2487233   0.55920998   -1.6895133   0.13503522    11339.089     1000 
  244000   0.37549911   -2.2647205   0.56268542   -1.7020351   0.13395504    11316.874     1000 
  246000   0.39267632   -2.2833698   0.58842547   -1.6949444   0.12383494    11406.871     1000 
  248000   0.39859173   -2.3174824    0.5972897   -1.7201927   0.12866212    11429.165     1000 
  250000    0.3880148   -2.2502048   0.58144017   -1.6687646   0.11648939    11459.729     1000 
  252000   0.37067211   -2.2047427   0.55545216   -1.6492906   0.13879338    11206.791     1000 
  254000   0.37811246   -2.2236574   0.56660153   -1.6570559   0.15578821    11118.195     1000 
  256000   0.38279348   -2.2823652   0.57361603   -1.7087491   0.13262586    11371.205     1000 
  258000   0.38417218    -2.288556   0.57568201    -1.712874   0.13204353    11377.662     1000 
  260000   0.39650043   -2.2856163   0.59415589   -1.6914604   0.13087271    11374.182     1000 
  262000   0.40076617   -2.3182407    0.6005481   -1.7176926   0.12840803    11477.016     1000 
  264000   0.39603353   -2.2792096   0.59345624   -1.6857533   0.12821174    11442.115     1000 
  266000   0.38776744   -2.2616883   0.58106951   -1.6806188   0.11970334    11496.568     1000 
  268000   0.39143436   -2.2834424   0.58656439    -1.696878   0.14053976     11336.37     1000 
  270000   0.39961395   -2.2586665    0.5988215    -1.659845   0.13745173    11274.395     1000 
  272000   0.39816972    -2.288521   0.59665732   -1.6918637   0.12282925    11393.203     1000 
  274000   0.40307114    -2.281475   0.60400211   -1.6774729   0.11662974    11437.041     1000 
  276000   0.38404455   -2.2550025   0.57549076   -1.6795117    0.1296263    11389.837     1000 
  278000    0.3771735    -2.296552   0.56519448   -1.7313575   0.11918195    11444.911     1000 
  280000   0.38285529   -2.2694192   0.57370865   -1.6957106   0.13055864    11364.439     1000 
  282000   0.39446652   -2.2589408   0.59110808   -1.6678327   0.13314946    11242.013     1000 
  284000   0.39672656   -2.2714411   0.59449475   -1.6769464   0.12626158    11381.271     1000 
  286000   0.37982835   -2.2618638   0.56917278    -1.692691   0.13461233     11327.65     1000 
  288000   0.37655994   -2.2941893   0.56427508   -1.7299142   0.12936786    11437.701     1000 
  290000   0.38374061   -2.3094741   0.57503531   -1.7344388     0.125421    11409.568     1000 
  292000   0.39336262   -2.2842341   0.58945388   -1.6947802   0.12398348    11340.156     1000 
  294000   0.39059492   -2.2992265   0.58530649     -1.71392   0.12609408    11453.325     1000 
  296000   0.40797586   -2.2474819   0.61135183     -1.63613   0.11807033    11381.752     1000 
  298000   0.39315899   -2.2895984   0.58914875   -1.7004496   0.12647703    11458.857     1000 
  300000    0.4087396   -2.2731235   0.61249629   -1.6606272   0.12845678    11361.823     1000 
  302000   0.39897664   -2.2541051   0.59786649   -1.6562386   0.13503888    11361.748     1000 
  304000   0.39097367    -2.258507   0.58587405   -1.6726329   0.13390129     11325.27     1000 
  306000   0.39358795   -2.2567082   0.58979155   -1.6669166   0.13448312    11338.489     1000 
  308000   0.38366235   -2.2901725   0.57491803   -1.7152545   0.11702284    11395.638     1000 
  310000   0.37875865   -2.2787669   0.56756984   -1.7111971   0.13177744    11344.978     1000 
  312000   0.40007599   -2.2446825   0.59951388   -1.6451686   0.13925663    11345.135     1000 
  314000   0.39148463   -2.2811739   0.58663972   -1.6945342   0.12862016    11420.574     1000 
  316000   0.40829239   -2.2669138   0.61182614   -1.6550877   0.13880678     11295.63     1000 
  318000   0.39064163   -2.2545996   0.58537648   -1.6692231   0.12748076    11329.619     1000 
  320000   0.38665604   -2.2806093   0.57940408   -1.7012052   0.12287748    11407.614     1000 
  322000   0.38748051    -2.261051   0.58063954   -1.6804114   0.13285999    11381.406     1000 
  324000   0.39232675   -2.2683997   0.58790163   -1.6804981   0.13191111    11379.236     1000 
  326000    0.3835135   -2.3006609   0.57469498   -1.7259659   0.11952993    11511.128     1000 
  328000   0.37677492   -2.2627958   0.56459722   -1.6981985   0.13211738    11348.858     1000 
  330000   0.38644022   -2.2597909   0.57908067   -1.6807102   0.12458143    11392.187     1000 
  332000   0.39862265   -2.2721673   0.59733605   -1.6748313   0.14316511    11259.634     1000 
  334000    0.4059278   -2.2798086   0.60828282   -1.6715258   0.13212179    11325.226     1000 
  336000   0.39491654   -2.2342087   0.59178243   -1.6424262   0.13428431    11282.402     1000 
  338000   0.37873508   -2.2402193   0.56753451   -1.6726848   0.12924158    11331.306     1000 
  340000   0.40344218   -2.2702233   0.60455811   -1.6656652   0.12981384    11442.566     1000 
  342000   0.38919661   -2.3320924   0.58321112   -1.7488813   0.13133966    11432.393     1000 
  344000   0.40045005   -2.2987977    0.6000744   -1.6987233   0.12737169    11409.522     1000 
  346000   0.38301898   -2.2890327   0.57395395   -1.7150787   0.13385469    11471.291     1000 
  348000   0.38821073   -2.2323481   0.58173378   -1.6506143   0.13788664    11266.008     1000 
  350000   0.38231861   -2.2304453   0.57290444   -1.6575409   0.12814366    11399.833     1000 
  352000   0.39560829   -2.2510393   0.59281902   -1.6582203   0.11997324     11401.03     1000 
  354000   0.39505685   -2.2263332   0.59199269   -1.6343405   0.13010244    11420.307     1000 
  356000   0.40402242   -2.2780567    0.6054276   -1.6726291   0.13136686    11420.798     1000 
  358000   0.38693974   -2.2702489    0.5798292   -1.6904197   0.12952155     11400.91     1000 
  360000   0.38874464    -2.282861   0.58253384   -1.7003272   0.14950972    11315.805     1000 
  362000   0.39608169   -2.2774697   0.59352842   -1.6839413    0.1324382    11397.849     1000 
  364000    0.3886919   -2.3375822   0.58245482   -1.7551273   0.13558821     11386.32     1000 
  366000   0.38918171   -2.2708799   0.58318879   -1.6876911   0.13150868    11308.641     1000 
  368000   0.39207742   -2.2376694   0.58752801   -1.6501414   0.13404846    11330.179     1000 
  370000   0.40203047   -2.2320723   0.60244266   -1.6296296   0.13827193    11288.462     1000 
  372000   0.39919561   -2.2469672   0.59819462   -1.6487726   0.14753898    11280.736     1000 
  374000   0.39906806   -2.2779711   0.59800349   -1.6799676   0.14360056    11243.236     1000 
  376000   0.38606589   -2.2835872   0.57851974   -1.7050674   0.13027177    11384.839     1000 
  378000   0.39104793    -2.240515   0.58598532   -1.6545297   0.12835316    11316.526     1000 
  380000   0.38114324    -2.287881   0.57114314   -1.7167379   0.13899609    11327.298     1000 
  382000   0.40807664   -2.2705954   0.61150284   -1.6590926   0.12632226    11435.827     1000 
  384000   0.37974807   -2.2788773   0.56905248   -1.7098249    0.1256446    11388.135     1000 
  386000   0.41223893    -2.269532   0.61774004   -1.6517919   0.13528205    11326.516     1000 
  388000    0.3813766   -2.3064133   0.57149284   -1.7349205   0.13369114    11414.071     1000 
  390000    0.3801585   -2.2994975   0.56966752     -1.72983   0.13138946    11349.282     1000 
  392000   0.39498493   -2.2352003   0.59188492   -1.6433154   0.12931598    11313.905     1000 
  394000   0.39688172   -2.2574753   0.59472726    -1.662748   0.13623236    11304.127     1000 
  396000   0.41614446   -2.2902418   0.62359247   -1.6666493   0.13066296    11331.033     1000 
  398000   0.38960455   -2.3040479   0.58382242   -1.7202255   0.11729596    11606.287     1000 
  400000   0.38686354   -2.2343762   0.57971502   -1.6546612   0.13704819    11203.809     1000 
  402000   0.39020435   -2.2442006   0.58472121   -1.6594793   0.13212084    11383.517     1000 
  404000   0.40395696   -2.2809903   0.60532951   -1.6756608   0.13634186    11441.539     1000 
  406000   0.38998963   -2.2450588   0.58439946   -1.6606593   0.13560398      11377.9     1000 
  408000    0.3744625   -2.2399978   0.56113206   -1.6788657   0.12814411    11352.139     1000 
  410000   0.36898764   -2.2716132   0.55292798   -1.7186852    0.1265481    11388.117     1000 
  412000   0.39614523   -2.2375408   0.59362363   -1.6439171   0.13258672    11224.884     1000 
  414000   0.39689015   -2.2806963   0.59473989   -1.6859564    0.1209303     11447.98     1000 
  416000   0.40622665   -2.2928624   0.60873064   -1.6841317   0.12628881    11405.477     1000 
  418000   0.37718575   -2.2228328   0.56521284     -1.65762   0.14276146    11277.054     1000 
  420000   0.38814634   -2.2676541   0.58163728   -1.6860169     0.129257    11339.424     1000 
  422000    0.3879671   -2.2675387    0.5813687     -1.68617   0.13282963    11394.534     1000 
  424000    0.4060849    -2.266479   0.60851822   -1.6579608   0.13178059    11413.429     1000 
  426000   0.39414892   -2.2493778   0.59063215   -1.6587456   0.12935611    11360.259     1000 
  428000   0.38770676   -2.2603988   0.58097857   -1.6794202   0.14449738    11308.191     1000 
  430000   0.37836686   -2.2872581   0.56698273   -1.7202753   0.13090541    11290.586     1000 
  432000   0.37074817   -2.2458838   0.55556613   -1.6903177   0.12501859    11405.779     1000 
  434000   0.38568992   -2.2952306   0.57795635   -1.7172742   0.12471834    11434.027     1000 
  436000   0.37494158   -2.2776808   0.56184996   -1.7158309   0.11887403    11472.332     1000 
  438000   0.39218222   -2.2708188   0.58768506   -1.6831338   0.13428425    11343.854     1000 
  440000   0.39580599   -2.2104913   0.59311528    -1.617376   0.13347319    11346.874     1000 
  442000   0.38806484   -2.2626926   0.58151517   -1.6811774     0.118747     11428.59     1000 
  444000   0.38211748   -2.2693743   0.57260304   -1.6967712   0.13636897      11274.9     1000 
  446000   0.37843668   -2.2767087   0.56708736   -1.7096213     0.137058    11255.872     1000 
  448000   0.39146869   -2.2762368   0.58661583    -1.689621   0.12024939    11460.255     1000 
  450000   0.39450931   -2.2476465    0.5911722   -1.6564743   0.14019713    11372.822     1000 
  452000   0.37506245   -2.2883936   0.56203108   -1.7263625   0.11822435    11419.661     1000 
  454000   0.40643454   -2.2349453   0.60904216   -1.6259032   0.12096587    11502.314     1000 
  456000   0.38868294   -2.2645762   0.58244139   -1.6821348   0.13121624    11351.134     1000 
  458000   0.39833306   -2.2525872   0.59690209   -1.6556851   0.11530241    11377.426     1000 
  460000   0.40115511   -2.3032729   0.60113094   -1.7021419   0.12388966    11443.748     1000 
  462000   0.39219901   -2.2992113   0.58771022   -1.7115011   0.13109956    11432.276     1000 
  464000   0.39147574   -2.2497921   0.58662639   -1.6631657   0.12826145    11310.763     1000 
  466000   0.38363609   -2.2630164   0.57487867   -1.6881377   0.13360444    11217.746     1000 
  468000    0.3844632   -2.2701196   0.57611811   -1.6940015   0.12243605    11320.719     1000 
  470000   0.40786919   -2.2817943   0.61119198   -1.6706023    0.1350654    11402.829     1000 
  472000   0.37468597   -2.2812675   0.56146693   -1.7198006   0.13260871    11414.949     1000 
  474000   0.39778919   -2.2274943    0.5960871   -1.6314072   0.12885702    11364.663     1000 
  476000   0.40354875   -2.2693321    0.6047178   -1.6646143   0.12064329    11445.071     1000 
  478000   0.39473992   -2.2897183   0.59151777   -1.6982006   0.13058523    11410.853     1000 
  480000    0.3947963   -2.2902523   0.59160225   -1.6986501   0.12607047    11397.694     1000 
  482000   0.40035592   -2.2870366   0.59993335   -1.6871032   0.12511403    11431.609     1000 
  484000   0.38627517   -2.2842424   0.57883335    -1.705409   0.12625228    11451.171     1000 
  486000   0.38529741   -2.2944496   0.57736818   -1.7170815    0.1235976    11442.301     1000 
  488000   0.38798715   -2.2650717   0.58139875    -1.683673   0.14165232    11317.942     1000 
  490000   0.38828049   -2.2823404   0.58183831    -1.700502   0.12063959    11449.562     1000 
  492000   0.38115703   -2.2275706   0.57116381   -1.6564068   0.14039831    11229.275     1000 
  494000    0.3851357   -2.2104487   0.57712585   -1.6333229   0.13169827    11320.127     1000 
  496000   0.40921735   -2.2795603    0.6132122   -1.6663481   0.12896462    11393.477     1000 
  498000   0.40261141   -2.2924933    0.6033132   -1.6891801   0.12746571    11357.858     1000 
  500000   0.38907762   -2.2930431   0.58303281   -1.7100103   0.11891264    11407.665     1000 
  502000   0.38805151   -2.2598725   0.58149518   -1.6783773   0.12789103    11486.348     1000 
  504000   0.38212072    -2.271819   0.57260789   -1.6992111   0.13066747    11318.654     1000 
  506000   0.39920963   -2.2617213   0.59821563   -1.6635056   0.13491645    11378.278     1000 
  508000    0.3979813   -2.2812676   0.59637498   -1.6848926   0.13020596     11392.45     1000 
  510000   0.38207795   -2.3003642   0.57254381   -1.7278204   0.12508226    11435.799     1000 
  512000   0.38058191   -2.3180625   0.57030199   -1.7477605   0.13172089    11398.196     1000 
  514000    0.3883329   -2.2336014   0.58191686   -1.6516845   0.14030873    11242.568     1000 
  516000   0.40173991   -2.2593645   0.60200725   -1.6573573   0.13307104     11387.03     1000 
  518000   0.39630522   -2.2665761   0.59386337   -1.6727127    0.1463958    11291.127     1000 
  520000   0.37623294   -2.2462757   0.56378505   -1.6824906   0.13660702    11316.532     1000 
  522000   0.38961941   -2.2795857   0.58384469    -1.695741   0.12545804    11427.091     1000 
  524000   0.38922554   -2.2140212   0.58325448   -1.6307667   0.12445377    11374.677     1000 
  526000   0.38906274   -2.2537404   0.58301052   -1.6707299   0.12629848    11404.126     1000 
  528000   0.38835333   -2.2741605   0.58194747    -1.692213    0.1167844    11481.638     1000 
  530000   0.40290446   -2.2651112   0.60375233   -1.6613589    0.1246585    11440.447     1000 
  532000   0.37949837   -2.2415081    0.5686783   -1.6728298   0.13107828    11318.205     1000 
  534000   0.38025287   -2.2888725   0.56980892   -1.7190636    0.1302493    11348.754     1000 
  536000   0.39176159   -2.2763299   0.58705475   -1.6892751   0.11240091    11579.872     1000 
  538000   0.37585516   -2.2393809   0.56321895   -1.6761619   0.12331263    11436.957     1000 
  540000   0.40172816   -2.2751517   0.60198964    -1.673162   0.13073425    11360.474     1000 
  542000   0.37497728   -2.2738202   0.56190345   -1.7119167   0.13338808    11412.607     1000 
  544000   0.38204701   -2.3068092   0.57249745   -1.7343117   0.12237044    11431.637     1000 
  546000   0.39569879   -2.2432661   0.59295464   -1.6503114   0.13284742    11291.625     1000 
  548000   0.37826904   -2.2349381   0.56683616    -1.668102   0.12241321    11335.968     1000 
  550000   0.39014446   -2.2867256   0.58463147   -1.7020942   0.12336148    11400.325     1000 
  552000   0.38776391   -2.3118354   0.58106422   -1.7307711   0.12826104    11368.878     1000 
  554000   0.39057301   -2.2563271   0.58527365   -1.6710534   0.12795963    11417.222     1000 
  556000   0.37232956   -2.2424585   0.55793585   -1.6845227   0.12982227    11246.515     1000 
  558000   0.38421138   -2.2445536   0.57574076   -1.6688128   0.12731345    11386.462     1000 
  560000   0.38000812   -2.2663833   0.56944216   -1.6969411   0.12041647    11382.223     1000 
  562000    0.4077984   -2.2563166   0.61108591   -1.6452307    0.1303057    11448.126     1000 
  564000   0.38231072   -2.2438581   0.57289262   -1.6709654   0.12335512    11370.598     1000 
  566000   0.37917089   -2.2742427   0.56818758   -1.7060551   0.12511153    11394.253     1000 
  568000   0.38359283   -2.2637141   0.57481386   -1.6889003   0.13079823     11462.45     1000 
  570000   0.39184391   -2.2715274    0.5871781   -1.6843493   0.12900223    11443.131     1000 
  572000   0.39267802    -2.247745   0.58842801    -1.659317   0.12745013    11489.371     1000 
  574000   0.38492646     -2.24581   0.57681229   -1.6689977   0.13611696     11329.54     1000 
  576000    0.4028581   -2.3108425   0.60368286   -1.7071596   0.13263785    11339.002     1000 
  578000   0.39007504    -2.269789   0.58452745   -1.6852616   0.13013664    11408.658     1000 
  580000   0.38756804   -2.2788204   0.58077071   -1.6980497   0.12610806    11399.447     1000 
  582000   0.40820279   -2.2467041   0.61169188   -1.6350123    0.1358923    11280.996     1000 
  584000   0.38332425   -2.2606697   0.57441139   -1.6862584   0.13596973    11334.835     1000 
  586000   0.38561693   -2.2732902   0.57784697   -1.6954432    0.1375277    11298.899     1000 
  588000   0.37692675   -2.2319768   0.56482474   -1.6671521   0.13765942     11268.05     1000 
  590000   0.38641545    -2.257116   0.57904355   -1.6780724   0.13856693    11277.659     1000 
  592000   0.39403129   -2.2890561   0.59045588   -1.6986002    0.1402412    11302.992     1000 
  594000   0.39055944   -2.3006131   0.58525333   -1.7153597   0.13333213    11328.644     1000 
  596000   0.39138143   -2.2676588   0.58648507   -1.6811737   0.12021266    11482.456     1000 
  598000   0.37536284   -2.2816203   0.56248122   -1.7191391    0.1366017     11332.81     1000 
  600000   0.37556382   -2.2542557   0.56278238   -1.6914733   0.12765878    11350.615     1000 
  602000   0.38638933   -2.2594082   0.57900441   -1.6804038   0.12712469    11415.597     1000 
  604000   0.40893031   -2.2373328   0.61278207   -1.6245508   0.13406399    11299.415     1000 
  606000   0.40085309   -2.2779207   0.60067836   -1.6772423   0.13086945    11375.721     1000 
  608000   0.39340789   -2.2340422   0.58952173   -1.6445205   0.13162277    11353.438     1000 
  610000    0.3960977   -2.2460228    0.5935524   -1.6524704   0.13305413    11426.359     1000 
  612000   0.37657535   -2.2619281   0.56429816     -1.69763   0.12009661    11405.631     1000 
  614000   0.41055664   -2.2526481   0.61521913    -1.637429   0.13734745    11393.595     1000 
  616000   0.37852369   -2.2741446   0.56721775   -1.7069269   0.12403268    11401.926     1000 
  618000   0.38363467    -2.245665   0.57487655   -1.6707884   0.14079197    11241.825     1000 
  620000   0.37885275   -2.2149333   0.56771084   -1.6472224   0.13339863    11336.665     1000 
  622000   0.36549471   -2.2928719   0.54769383   -1.7451781   0.12771653    11431.418     1000 
  624000   0.37875999   -2.2610887   0.56757185   -1.6935169   0.12427622    11470.458     1000 
  626000   0.40612432   -2.3064623   0.60857729    -1.697885   0.13022306    11364.804     1000 
  628000   0.38640727   -2.2684628    0.5790313   -1.6894315   0.13297766      11346.7     1000 
  630000   0.39638971    -2.276387   0.59398998    -1.682397    0.1398191    11371.244     1000 
  632000   0.37804435    -2.281339   0.56649946   -1.7148396   0.13215006    11350.065     1000 
  634000   0.39013004   -2.2799296   0.58460987   -1.6953197   0.12548627    11348.624     1000 
  636000    0.3973416     -2.22103   0.59541639   -1.6256136   0.12711145    11349.083     1000 
  638000   0.37149571   -2.2870363   0.55668632     -1.73035   0.11751025    11496.421     1000 
  640000   0.39545552   -2.2515088    0.5925901   -1.6589187   0.13301097    11379.243     1000 
  642000   0.39294423   -2.2782375   0.58882692   -1.6894106   0.12852996    11405.252     1000 
  644000    0.3968114   -2.2934226   0.59462189   -1.6988007   0.13259528    11312.407     1000 
  646000   0.38750949   -2.2983587   0.58068298   -1.7176757   0.14201659    11295.739     1000 
  648000   0.38510183   -2.2859464   0.57707508   -1.7088713   0.12098324    11465.249     1000 
  650000   0.38286672   -2.2392263   0.57372578   -1.6655005    0.1333542    11354.655     1000 
  652000   0.38525176   -2.2779842   0.57729976   -1.7006844   0.12590402    11448.769     1000 
  654000   0.38447344    -2.271663   0.57613345   -1.6955295   0.12581285    11356.546     1000 
  656000   0.38958801   -2.3046908   0.58379763   -1.7208932   0.12345377    11480.488     1000 
  658000   0.39395832   -2.2668509   0.59034655   -1.6765044   0.13644977    11346.166     1000 
  660000   0.37494926   -2.2688192   0.56186147   -1.7069578   0.12536635    11430.012     1000 
  662000   0.38440087   -2.2448253    0.5760247   -1.6688006   0.13605357    11292.927     1000 
  664000   0.39627342   -2.2453966   0.59381572   -1.6515809   0.13797384    11214.623     1000 
  666000   0.39348166   -2.3083398   0.58963227   -1.7187076   0.11641122    11503.175     1000 
  668000   0.41508857    -2.234427   0.62201022   -1.6124168   0.13878412    11316.268     1000 
  670000   0.39076844   -2.3285509    0.5855665   -1.7429844    0.1302325    11429.402     1000 
  672000   0.39400803   -2.2699278   0.59042103   -1.6795068   0.13073231    11377.672     1000 
  674000   0.39342954   -2.2267577   0.58955416   -1.6372035    0.1364114    11228.441     1000 
  676000   0.38381047   -2.2636183   0.57513999   -1.6884783   0.13197212    11322.056     1000 
  678000   0.39397567   -2.2273343   0.59037254   -1.6369618   0.14070989    11302.777     1000 
  680000   0.40678564   -2.3072083   0.60956828     -1.69764   0.11904449    11503.608     1000 
  682000   0.38516917   -2.2931942     0.577176   -1.7160182   0.12811655    11322.844     1000 
  684000   0.36808421   -2.2489244   0.55157419   -1.6973502   0.12730364    11310.318     1000 
  686000   0.37742132   -2.2688236   0.56556586   -1.7032578   0.12796691    11328.644     1000 
  688000   0.38824131   -2.2769986    0.5817796    -1.695219   0.13450223    11389.337     1000 
  690000   0.39494507   -2.2205304   0.59182519   -1.6287052   0.13162896    11317.648     1000 
  692000   0.38631424   -2.2547259   0.57889188    -1.675834   0.12447322    11527.201     1000 
  694000   0.38965174   -2.2658139   0.58389313   -1.6819208   0.13032541    11449.415     1000 
  696000   0.37514443   -2.2578944   0.56215394   -1.6957404   0.12950782    11350.688     1000 
  698000   0.37411545   -2.2604435     0.560612   -1.6998315   0.11934735     11389.01     1000 
  700000   0.38358565   -2.3250638    0.5748031   -1.7502607   0.12689179    11431.316     1000 
  702000   0.38478023   -2.2814885   0.57659317   -1.7048954   0.13562994    11269.214     1000 
  704000   0.38845047   -2.2758017   0.58209303   -1.6937086   0.12852584    11367.015     1000 
  706000   0.39408254   -2.2617536   0.59053269   -1.6712209   0.13498462    11300.943     1000 
  708000     0.380899   -2.2568508   0.57077715   -1.6860736   0.12611273    11250.465     1000 
  710000   0.39480015   -2.2669484   0.59160803   -1.6753404   0.13395447    11343.669     1000 
  712000   0.38486126   -2.2463119    0.5767146   -1.6695974   0.13156737    11372.549     1000 
  714000   0.39388926   -2.2828904   0.59024305   -1.6926474   0.13443896    11401.348     1000 
  716000   0.37085627   -2.3133239   0.55572812   -1.7575958   0.12734605    11405.795     1000 
  718000   0.36183964   -2.3106135    0.5422167   -1.7683968   0.12121153    11372.282     1000 
  720000   0.38921051   -2.2936448   0.58323194   -1.7104128   0.12403011    11374.606     1000 
  722000   0.40206891   -2.2663002   0.60250026      -1.6638   0.11780028    11499.678     1000 
  724000   0.39599185   -2.2615982   0.59339379   -1.6682044   0.11678859    11518.868     1000 
  726000   0.38978129   -2.2984223   0.58408727   -1.7143351   0.12506934    11447.146     1000 
  728000   0.39014331    -2.276779   0.58462975   -1.6921493   0.13038137    11377.057     1000 
  730000   0.40164605   -2.2573079   0.60186661   -1.6554413   0.13242772     11423.09     1000 
  732000   0.36834432   -2.2469094   0.55196396   -1.6949455   0.13021053    11321.963     1000 
  734000   0.37903298   -2.2770936   0.56798092   -1.7091127    0.1403395     11235.76     1000 
  736000   0.40508616   -2.3121133   0.60702161   -1.7050917   0.12440474    11452.473     1000 
  738000   0.38944071   -2.2802333   0.58357691   -1.6966564   0.12370644    11461.094     1000 
  740000   0.38826026   -2.2487047     0.581808   -1.6668967    0.1301463     11330.56     1000 
  742000    0.4041738   -2.3027392   0.60565444   -1.6970847   0.12639665    11397.614     1000 
  744000   0.37629158   -2.2510487   0.56387294   -1.6871758   0.13476032    11383.471     1000 
  746000   0.38455695   -2.2808195   0.57625859   -1.7045609   0.12054505    11418.508     1000 
  748000   0.38144709   -2.2769346   0.57159847   -1.7053361   0.12884704     11447.01     1000 
  750000   0.37882307   -2.2590588   0.56766637   -1.6913924   0.12939617    11442.407     1000 
  752000   0.37903253   -2.2655234   0.56798025   -1.6975432   0.13563074    11337.851     1000 
  754000   0.39006075   -2.2693801   0.58450604   -1.6848741   0.12108486    11355.101     1000 
  756000   0.38037074   -2.2653138   0.56998556   -1.6953282   0.13986722    11270.929     1000 
  758000   0.38257538   -2.2688774   0.57328921   -1.6955882    0.1277327     11429.31     1000 
  760000   0.40411933   -2.2787408   0.60557281    -1.673168   0.13176293    11443.341     1000 
  762000   0.39827893   -2.2600618   0.59682097   -1.6632408   0.12619878    11362.783     1000 
  764000   0.39158109   -2.2948046   0.58678426   -1.7080204   0.12781516    11451.396     1000 
  766000     0.377887   -2.2659139   0.56626367   -1.6996502   0.13329963    11395.324     1000 
  768000   0.40054948   -2.2735402    0.6002234   -1.6733168   0.13256188    11411.469     1000 
  770000   0.38117454   -2.2550516   0.57119004   -1.6838615    0.1091432    11478.571     1000 
  772000   0.39888244   -2.2431867   0.59772534   -1.6454613   0.13418454    11340.401     1000 
  774000   0.37632683   -2.3137548   0.56392575    -1.749829   0.12799111    11520.461     1000 
  776000    0.3998455   -2.2767583   0.59916848   -1.6775898   0.12724762    11415.831     1000 
  778000   0.38537714    -2.272093   0.57748765   -1.6946053   0.13359702    11379.126     1000 
  780000   0.38114706   -2.3004494   0.57114886   -1.7293005   0.13004633    11416.167     1000 
  782000   0.38982906   -2.2586717   0.58415885   -1.6745128   0.12330145    11417.945     1000 
  784000   0.37867358   -2.2532887   0.56744236   -1.6858464    0.1304789    11285.843     1000 
  786000   0.38766643    -2.287696   0.58091814   -1.7067778   0.12216198    11404.115     1000 
  788000   0.38403211   -2.2829328   0.57547212   -1.7074607   0.11761099     11472.62     1000 
  790000   0.38742657   -2.2671469   0.58055872   -1.6865882   0.12872475    11389.833     1000 
  792000   0.39666654   -2.2664281   0.59440481   -1.6720233   0.12628382    11471.278     1000 
  794000    0.3803011   -2.2759551    0.5698812   -1.7060739    0.1360061    11333.705     1000 
  796000   0.38351637   -2.2633758   0.57469928   -1.6886766   0.12704654    11335.091     1000 
  798000    0.4030343   -2.2857516    0.6039469   -1.6818047   0.13036109    11310.319     1000 
  800000   0.39751808   -2.2615425   0.59568085   -1.6658616   0.13879658    11335.434     1000 
  802000   0.39122593   -2.2818457   0.58625206   -1.6955936   0.13519629    11323.176     1000 
  804000   0.37642513   -2.2806134   0.56407305   -1.7165403   0.12902222    11322.496     1000 
  806000   0.40468213   -2.2612539   0.60641617   -1.6548377   0.12470814    11369.866     1000 
  808000   0.39646278   -2.2711495   0.59409948   -1.6770501   0.14770917     11213.99     1000 
  810000   0.38184405   -2.2955116   0.57219331   -1.7233183   0.13945525    11369.774     1000 
  812000   0.39479325   -2.2638246   0.59159769   -1.6722269   0.12904741    11393.549     1000 
  814000   0.37851855   -2.2466953   0.56721004   -1.6794852   0.11599134    11485.876     1000 
  816000   0.38865738    -2.233535   0.58240309   -1.6511319   0.14281469    11253.754     1000 
  818000   0.40444778   -2.2634576     0.606065   -1.6573926   0.11950529    11391.966     1000 
  820000   0.38963733   -2.2755991   0.58387154   -1.6917276   0.13110521    11401.319     1000 
  822000   0.37754957    -2.256688   0.56575804     -1.69093   0.13515059    11322.906     1000 
  824000   0.37476781   -2.2142529   0.56158957   -1.6526633    0.1266268    11392.963     1000 
  826000   0.38841822   -2.2681555   0.58204471   -1.6861108   0.13454366    11365.011     1000 
  828000   0.39700982   -2.2742913   0.59491922   -1.6793721   0.11761791    11444.675     1000 
  830000   0.39558482   -2.3300064   0.59278386   -1.7372225   0.12490691    11443.766     1000 
  832000    0.3942368   -2.2873164   0.59076384   -1.6965526   0.12697845    11453.679     1000 
  834000   0.38641854   -2.2893212   0.57904818    -1.710273   0.12238391    11422.154     1000 
  836000   0.38346776   -2.2550519   0.57462643   -1.6804255   0.12634829    11355.104     1000 
  838000    0.3862968   -2.3142967   0.57886575    -1.735431   0.13650472    11401.464     1000 
  840000   0.38706678    -2.255658   0.58001957   -1.6756384   0.13477212    11371.644     1000 
  842000   0.38514686   -2.2774798   0.57714257   -1.7003373   0.13237882    11329.433     1000 
  844000   0.38667464   -2.2452008   0.57943195   -1.6657689   0.13467612    11330.858     1000 
  846000   0.37712117   -2.2705907   0.56511608   -1.7054747   0.12843713    11378.318     1000 
  848000   0.38882326   -2.2736756   0.58265166   -1.6910239   0.12827812    11366.531     1000 
  850000    0.3913266   -2.2820632   0.58640291   -1.6956603   0.14113751    11309.568     1000 
  852000   0.39798699   -2.2645484    0.5963835   -1.6681649   0.12783234    11368.785     1000 
  854000   0.38175914   -2.2954977   0.57206608   -1.7234317   0.12091604    11474.893     1000 
  856000   0.38495016   -2.2472569   0.57684782   -1.6704091    0.1302536    11312.988     1000 
  858000   0.37459742   -2.2443282   0.56133424   -1.6829939   0.13364776    11334.778     1000 
  860000   0.39112508   -2.2581372   0.58610093   -1.6720362   0.13669188    11372.163     1000 
  862000   0.40987969   -2.3063025   0.61420472   -1.6920977   0.12494224    11358.927     1000 
  864000   0.38644478   -2.2867048   0.57908751   -1.7076173   0.14519298    11304.924     1000 
  866000   0.38408332   -2.2333763   0.57554885   -1.6578274   0.13226846    11281.095     1000 
  868000   0.39304897   -2.2933852   0.58898389   -1.7044013   0.12294352    11471.515     1000 
  870000   0.38963908   -2.2894835   0.58387417   -1.7056093   0.13537156    11289.965     1000 
  872000   0.37658223   -2.2504785   0.56430847     -1.68617   0.12600738    11432.164     1000 
  874000   0.39274803    -2.235862   0.58853293   -1.6473291   0.12601132    11364.214     1000 
  876000    0.3768846   -2.2334027   0.56476157   -1.6686411   0.11761928    11360.233     1000 
  878000   0.39410804   -2.2915061    0.5905709   -1.7009352   0.11758923    11411.249     1000 
  880000   0.39331119   -2.3070614   0.58937682   -1.7176846   0.12453211    11444.681     1000 
  882000    0.3832275   -2.2258863    0.5742664   -1.6516199    0.1412035    11277.159     1000 
  884000   0.40820398    -2.237897   0.61169367   -1.6262033   0.13264043     11301.49     1000 
  886000   0.38848038    -2.253936   0.58213786   -1.6717981   0.13705986    11267.753     1000 
  888000   0.39156665   -2.2607226   0.58676263     -1.67396    0.1320808    11321.772     1000 
  890000   0.39548162   -2.2461512   0.59262921    -1.653522   0.13265973     11250.97     1000 
  892000   0.39306643   -2.2102807   0.58901004   -1.6212707   0.13201286    11228.815     1000 
  894000   0.36486426   -2.2088497    0.5467491   -1.6621006   0.14604412    11161.844     1000 
  896000   0.39419943   -2.2944198   0.59070785   -1.7037119   0.12960118    11327.697     1000 
  898000   0.37852163   -2.2791172   0.56721466   -1.7119026   0.12405099    11439.636     1000 
  900000   0.40523121    -2.285694   0.60723897    -1.678455   0.13089303    11337.261     1000 
  902000    0.4061652   -2.2675702   0.60863856   -1.6589317   0.12218907    11381.424     1000 
  904000   0.38811183   -2.2708903   0.58158558   -1.6893047   0.14670865    11255.377     1000 
  906000   0.39588774   -2.2644294   0.59323777   -1.6711917   0.12888655    11436.672     1000 
  908000   0.38790893   -2.2409006   0.58128153   -1.6596191   0.14597017    11316.225     1000 
  910000   0.38814628   -2.3024757    0.5816372   -1.7208385   0.13720737    11403.048     1000 
  912000   0.38230618   -2.2909325   0.57288581   -1.7180467   0.12079921    11491.118     1000 
  914000   0.40853734   -2.2675666    0.6121932   -1.6553734   0.11915476     11392.72     1000 
  916000   0.39416991   -2.2585746    0.5906636    -1.667911   0.13740076     11235.66     1000 
  918000   0.37208235   -2.2808513   0.55756541   -1.7232859   0.13125826    11412.874     1000 
  920000   0.38764691   -2.2722071   0.58088889   -1.6913182   0.13055196    11257.226     1000 
  922000   0.41250501   -2.2741723   0.61813876   -1.6560336   0.12989221    11394.141     1000 
  924000   0.38638298   -2.2741641   0.57899489   -1.6951692   0.13147151    11367.306     1000 
  926000   0.37989125   -2.2670043   0.56926703   -1.6977373   0.12599065    11406.358     1000 
  928000   0.39354443   -2.2679256   0.58972633   -1.6781992   0.14168693    11313.712     1000 
  930000   0.38207044   -2.2585372   0.57253256   -1.6860047   0.13824391    11330.164     1000 
  932000   0.39957424   -2.2707661   0.59876199   -1.6720041   0.13952687    11262.135     1000 
  934000   0.37574084   -2.2431265   0.56304765   -1.6800788   0.12475058    11265.475     1000 
  936000   0.38626167   -2.2677586   0.57881312   -1.6889455   0.12575501    11375.092     1000 
  938000    0.3730905   -2.2815499   0.55907611   -1.7224738   0.12573737    11474.717     1000 
  940000   0.37890476   -2.2792877   0.56778878   -1.7114989    0.1392095    11281.191     1000 
  942000   0.39120338   -2.2582674   0.58621827   -1.6720492   0.12882652    11335.025     1000 
  944000   0.38605462   -2.2892018   0.57850285   -1.7106989   0.12794421    11317.696     1000 
  946000   0.40028754   -2.2623999   0.59983088    -1.662569   0.14585044    11234.775     1000 
  948000   0.37723311   -2.2721386   0.56528382   -1.7068548    0.1319119    11372.203     1000 
  950000   0.40485856   -2.2953069   0.60668055   -1.6886264   0.13142567    11439.316     1000 
  952000   0.37975942    -2.263674   0.56906949   -1.6946046   0.13220262    11303.479     1000 
  954000   0.40231581   -2.2598338   0.60287024   -1.6569635   0.11592834    11360.526     1000 
  956000   0.38737233   -2.2063086   0.58047743   -1.6258311   0.13593812    11238.866     1000 
  958000   0.39445035   -2.2825297   0.59108384   -1.6914459   0.13919514     11378.75     1000 
  960000   0.39190313   -2.2626691   0.58726683   -1.6754022   0.13429225    11367.871     1000 
  962000   0.39360706   -2.2565986   0.58982018   -1.6667784   0.13270486    11430.188     1000 
  964000   0.38495844   -2.3231248   0.57686023   -1.7462645   0.12469235    11463.741     1000 
  966000   0.38910858   -2.3028988    0.5830792   -1.7198196   0.12451201    11436.281     1000 
  968000   0.37156555   -2.2817224   0.55679098   -1.7249314   0.13707925    11298.802     1000 
  970000    0.3709976   -2.2483511   0.55593991   -1.6924112   0.12778863    11265.429     1000 
  972000    0.3780153   -2.2771091   0.56645593   -1.7106532   0.12332066    11412.411     1000 
  974000   0.39545362   -2.2236502   0.59258725   -1.6310629   0.12843715    11234.342     1000 
  976000   0.39743657   -2.2706154    0.5955587   -1.6750567   0.11989632    11454.345     1000 
  978000   0.38303643   -2.2358578   0.57398008   -1.6618777   0.12946692    11341.707     1000 
  980000   0.38657231    -2.318977    0.5792786   -1.7396984   0.13164349    11332.125     1000 
  982000   0.39881486   -2.2923781   0.59762407    -1.694754   0.12983138     11382.05     1000 
  984000   0.39443662    -2.275491   0.59106327   -1.6844277   0.13857128    11291.705     1000 
  986000   0.39006462     -2.29054   0.58451183   -1.7060282   0.14219513    11379.127     1000 
  988000   0.37887485    -2.282376   0.56774396   -1.7146321   0.13374136    11322.253     1000 
  990000   0.39390173   -2.2961342   0.59026174   -1.7058724   0.13726183    11376.654     1000 
  992000    0.3800185   -2.2851767   0.56945773   -1.7157189   0.12956686    11369.469     1000 
  994000    0.3914234   -2.2737196   0.58654797   -1.6871717    0.1289014    11421.199     1000 
  996000   0.38584779   -2.2844441   0.57819292   -1.7062512    0.1221876    11428.443     1000 
  998000   0.39283758   -2.2540371   0.58866711     -1.66537   0.13155056    11332.721     1000 
 1000000   0.39049782   -2.2764958   0.58516098   -1.6913348   0.13396308    11387.619     1000 
 1002000   0.38686752   -2.2572501   0.57972098   -1.6775291   0.12496098    11394.803     1000 
 1004000   0.38196157   -2.2929175   0.57236941   -1.7205481   0.12723628    11360.085     1000 
 1006000   0.39116674   -2.2770095   0.58616336   -1.6908462   0.11797722    11410.663     1000 
 1008000   0.38644658   -2.2643464   0.57909019   -1.6852562   0.13264188    11271.024     1000 
 1010000   0.38031417   -2.2675027   0.56990079   -1.6976019     0.128853    11297.315     1000 
 1012000   0.38903577   -2.2435639   0.58297011   -1.6605938    0.1239748    11407.373     1000 
 1014000   0.40819635   -2.2568727   0.61168224   -1.6451904   0.12747406    11376.666     1000 
 1016000    0.3997775   -2.2284971   0.59906658   -1.6294305   0.12209551    11452.017     1000 
 1018000   0.39078671   -2.2546716   0.58559389   -1.6690777   0.13280709    11330.034     1000 
 1020000   0.38738883   -2.2986201   0.58050217    -1.718118   0.12218671    11420.875     1000 
 1022000   0.38316955   -2.2600137   0.57417956   -1.6858341   0.14162328      11282.6     1000 
 1024000   0.38777153   -2.2470976   0.58107564   -1.6660219   0.13102693    11338.621     1000 
 1026000     0.393492   -2.2476904   0.58964776   -1.6580426   0.13109678    11387.012     1000 
 1028000   0.39625994   -2.2543963   0.59379551   -1.6606008   0.13556385    11301.757     1000 
 1030000   0.38694495   -2.2571119   0.57983701   -1.6772749   0.12586932     11282.86     1000 
 1032000   0.38620716    -2.217709   0.57873142   -1.6389775   0.12973626    11340.574     1000 
 1034000   0.40204439   -2.2654466   0.60246351   -1.6629831   0.14272234    11226.239     1000 
 1036000    0.3738475   -2.3258094   0.56021048    -1.765599   0.12278445    11408.953     1000 
 1038000   0.39829613   -2.2576889   0.59684675   -1.6608422   0.13459154    11296.631     1000 
 1040000   0.39058113   -2.2510145   0.58528583   -1.6657287   0.13283145    11351.744     1000 
 1042000   0.39486719   -2.2106603   0.59170848   -1.6189518   0.14311324    11282.168     1000 
 1044000   0.40416324    -2.302099   0.60563861   -1.6964604   0.13367894    11368.791     1000 
 1046000   0.40627358   -2.2414828   0.60880096   -1.6326818   0.13479775    11398.964     1000 
 1048000   0.40319156   -2.2641387   0.60418255   -1.6599561   0.14310584    11223.168     1000 
 1050000   0.36418582   -2.3012863   0.54573245   -1.7555538   0.13317813    11382.483     1000 
 1052000   0.40562933   -2.3195052   0.60783555   -1.7116696   0.14433798    11276.854     1000 
 1054000    0.3841637   -2.2901364    0.5756693   -1.7144671   0.11669672    11447.513     1000 
 1056000   0.39905258   -2.2619246   0.59798028   -1.6639443   0.13855536    11318.027     1000 
 1058000   0.39845437   -2.2684548   0.59708388   -1.6713709   0.13223622    11342.522     1000 
 1060000   0.38872718   -2.2558783   0.58250768   -1.6733706   0.13053748    11299.884     1000 
 1062000   0.39845604   -2.2890171   0.59708637   -1.6919307   0.12165061    11457.786     1000 
 1064000   0.38364295    -2.240587   0.57488896   -1.6656981   0.14148733    11241.167     1000 
 1066000    0.3873125   -2.2329124   0.58038778   -1.6525246   0.14536507    11202.058     1000 
 1068000   0.37517239   -2.2428868   0.56219582    -1.680691   0.12622128    11388.574     1000 
 1070000   0.37163325   -2.2749954   0.55689243    -1.718103   0.12469295    11463.144     1000 
 1072000   0.39387603   -2.2762215   0.59022323   -1.6859983   0.12810925    11419.911     1000 
 1074000   0.39593329   -2.2889186   0.59330604   -1.6956126   0.13307385    11379.585     1000 
 1076000   0.39702248    -2.246083   0.59493819   -1.6511448   0.12829876    11369.493     1000 
 1078000   0.40468185   -2.2729509   0.60641575   -1.6665352   0.11950387    11403.556     1000 
 1080000   0.39994447   -2.2212168   0.59931679   -1.6219001   0.12688839    11384.986     1000 
 1082000   0.39868709   -2.2519362   0.59743261   -1.6545035   0.12630141    11369.707     1000 
 1084000   0.37388496   -2.2390612   0.56026661   -1.6787946   0.12062172    11398.426     1000 
 1086000   0.38621214   -2.2643925   0.57873889   -1.6856536   0.14080023    11337.485     1000 
 1088000   0.35935636   -2.3197442    0.5384955   -1.7812487   0.13068711    11344.059     1000 
 1090000   0.39878805   -2.2959655   0.59758389   -1.6983816   0.13544836    11356.403     1000 
 1092000   0.37765364    -2.299101   0.56591398    -1.733187   0.13461151    11352.493     1000 
 1094000   0.39850018   -2.2819885   0.59715252   -1.6848359   0.12501094    11365.573     1000 
 1096000   0.39162994   -2.2354525   0.58685747   -1.6485951   0.13603749    11251.295     1000 
 1098000     0.388276   -2.3256761   0.58183159   -1.7438445    0.1251816    11360.758     1000 
 1100000   0.40987904   -2.3143737   0.61420375     -1.70017   0.11990835    11471.932     1000 
 1102000   0.39251697   -2.2304343   0.58818667   -1.6422476   0.13129964    11267.696     1000 
 1104000   0.39546836   -2.2607075   0.59260934   -1.6680982    0.1196788    11395.184     1000 
 1106000   0.38014988   -2.2987623   0.56965459   -1.7291077   0.13400519    11386.945     1000 
 1108000   0.39747064   -2.2768923   0.59560975   -1.6812825    0.1237361    11408.794     1000 
 1110000   0.38604026   -2.2341587   0.57848133   -1.6556773   0.13326315    11314.128     1000 
 1112000   0.41275551   -2.2818848   0.61851413   -1.6633707   0.13736723    11324.235     1000 
 1114000   0.38530581   -2.2992812   0.57738076   -1.7219004   0.12725257    11384.582     1000 
 1116000   0.40815693   -2.2311003   0.61162317   -1.6194772   0.13278514    11344.386     1000 
 1118000   0.38609905   -2.2272926   0.57856942   -1.6487232   0.13069776    11304.575     1000 
 1120000   0.39012083   -2.2826777   0.58459606   -1.6980816   0.13324954    11273.485     1000 
 1122000   0.39133859   -2.2703778   0.58642088   -1.6839569   0.12626789    11309.494     1000 
 1124000   0.37500446   -2.2403594   0.56194418   -1.6784152   0.12576527    11284.746     1000 
 1126000   0.38082832   -2.2672166   0.57067124   -1.6965454   0.13249796    11442.063     1000 
 1128000   0.39420296   -2.2513104   0.59071314   -1.6605973   0.14536392    11191.555     1000 
 1130000   0.37246613   -2.2552369   0.55814049   -1.6970964   0.13473902    11229.037     1000 
 1132000   0.38642227    -2.248884   0.57905378   -1.6698302   0.12922691     11286.81     1000 
 1134000    0.3913102   -2.2682356   0.58637834   -1.6818573   0.11714674    11495.908     1000 
 1136000   0.37938376   -2.2465025   0.56850657   -1.6779959   0.14088633    11277.683     1000 
 1138000   0.39142477   -2.2827092   0.58655002   -1.6961592   0.13027621    11452.476     1000 
 1140000   0.39740644   -2.2948715   0.59551354    -1.699358   0.12111498    11421.817     1000 
 1142000   0.39547569   -2.2163368   0.59262032   -1.6237164   0.14153483    11263.994     1000 
 1144000   0.39746903   -2.3086811   0.59560733   -1.7130738   0.12233518    11526.511     1000 
 1146000   0.39374585   -2.2567886   0.59002815   -1.6667604   0.12407521    11423.883     1000 
 1148000   0.37330096   -2.2793937   0.55939148   -1.7200022   0.12653355    11414.232     1000 
 1150000   0.38947586   -2.2728265   0.58362958    -1.689197   0.12646035    11363.224     1000 
 1152000   0.39441521   -2.2460492   0.59103119    -1.655018   0.13318496    11285.584     1000 
 1154000    0.3956294   -2.2662716   0.59285065    -1.673421    0.1214752     11440.25     1000 
 1156000   0.39570208   -2.2715893   0.59295957   -1.6786297   0.13215679    11327.524     1000 
 1158000   0.37777627   -2.2369797   0.56609774    -1.670882   0.13714351     11288.17     1000 
 1160000   0.38543504   -2.2709476   0.57757441   -1.6933732   0.13178502    11403.677     1000 
 1162000   0.39225575   -2.2298666   0.58779524   -1.6420714   0.14053942    11256.705     1000 
 1164000   0.39215137   -2.3046001   0.58763883   -1.7169612   0.11743866    11449.784     1000 
 1166000   0.41741814   -2.2530387   0.62550108   -1.6275376   0.12337134    11476.139     1000 
 1168000   0.39520669   -2.3085776   0.59221722   -1.7163604   0.12446657    11418.393     1000 
 1170000   0.40605805   -2.3079895   0.60847799   -1.6995115   0.13093042    11381.283     1000 
 1172000   0.38288768   -2.2357077   0.57375719   -1.6619506   0.11932763    11342.006     1000 
 1174000    0.3873351   -2.2717147   0.58042165    -1.691293   0.12813972    11368.682     1000 
 1176000   0.38075414   -2.2571347   0.57056008   -1.6865747    0.1302953    11380.885     1000 
 1178000   0.40013168   -2.2480044   0.59959733    -1.648407   0.13396585    11282.228     1000 
 1180000   0.39041648   -2.2218747   0.58503909   -1.6368356   0.13397891    11257.181     1000 
 1182000   0.38273918   -2.3092051   0.57353465   -1.7356705   0.12983088    11353.834     1000 
 1184000   0.37929371   -2.2566903   0.56837163   -1.6883186   0.12933126    11380.852     1000 
 1186000   0.38443755   -2.2951383   0.57607967   -1.7190586    0.1238827    11437.879     1000 
 1188000   0.37662759   -2.2944941   0.56437645   -1.7301177   0.12723367    11369.787     1000 
 1190000   0.36827165   -2.3090637   0.55185506   -1.7572087   0.12748495    11459.308     1000 
 1192000   0.37339754   -2.2684518   0.55953622   -1.7089156   0.11914811    11417.946     1000 
 1194000   0.39567242   -2.2558873   0.59291513   -1.6629722   0.12585671    11456.155     1000 
 1196000   0.39260332   -2.2546129   0.58831608   -1.6662968   0.13800981    11329.988     1000 
 1198000   0.39826178   -2.3163741   0.59679528   -1.7195788   0.12607301    11477.705     1000 
 1200000   0.38671638   -2.2776739   0.57949449   -1.6981795   0.12018878    11383.517     1000 
 1202000   0.37873019   -2.2340352   0.56752719    -1.666508   0.14782963     11260.37     1000 
 1204000   0.40066131   -2.2399063   0.60039098   -1.6395153   0.14610279    11341.042     1000 
 1206000   0.38643757   -2.2483713    0.5790767   -1.6692946   0.13508462    11345.825     1000 
 1208000   0.38338471   -2.2924655   0.57450198   -1.7179635   0.12719306    11414.078     1000 
 1210000   0.39225333   -2.2428444   0.58779161   -1.6550528   0.13829283    11231.622     1000 
 1212000   0.39691572   -2.2509793    0.5947782   -1.6562011     0.135582    11301.837     1000 
 1214000   0.39397099   -2.2686244   0.59036553   -1.6782589   0.13550379    11262.245     1000 
 1216000   0.38782602   -2.2706487   0.58115729   -1.6894914   0.12226198    11406.627     1000 
 1218000   0.39220641   -2.2731888    0.5877213   -1.6854675   0.13185042    11427.788     1000 
 1220000   0.35954704   -2.2810968   0.53878124   -1.7423156   0.12596092    11429.979     1000 
 1222000   0.40142525   -2.2771003   0.60153574   -1.6755645   0.12369198    11335.761     1000 
 1224000   0.37654077   -2.3116962   0.56424634   -1.7474498   0.13389015    11400.977     1000 
 1226000   0.39403328   -2.2734821   0.59045887   -1.6830232   0.12314193    11394.034     1000 
 1228000   0.39183558   -2.2835983   0.58716562   -1.6964327   0.13937075    11315.363     1000 
 1230000    0.4041436   -2.2583321   0.60560919   -1.6527229   0.14155171    11326.784     1000 
 1232000     0.407499   -2.2488901   0.61063725   -1.6382528    0.1258478    11386.313     1000 
 1234000   0.38399827   -2.2694196    0.5754214   -1.6939982   0.13733682    11356.866     1000 
 1236000    0.4008542   -2.2706632   0.60068002   -1.6699832   0.13000484    11303.201     1000 
 1238000   0.39083086   -2.2645217   0.58566004   -1.6788617   0.12740486    11368.527     1000 
 1240000   0.38408031   -2.2779151   0.57554434   -1.7023708   0.14294766    11234.376     1000 
 1242000   0.37892613   -2.2528689    0.5678208   -1.6850481   0.12055083    11357.873     1000 
 1244000    0.4019261   -2.2409736   0.60228626   -1.6386874   0.13048541    11330.894     1000 
 1246000   0.39061202   -2.2872841   0.58533212    -1.701952   0.13287963    11357.266     1000 
 1248000   0.38295784   -2.2238956   0.57386233   -1.6500333    0.1262885    11305.527     1000 
 1250000   0.39298268   -2.3009447   0.58888455   -1.7120601   0.11876667    11476.078     1000 
 1252000   0.37911877   -2.2169023   0.56810947   -1.6487929   0.13290189     11293.06     1000 
 1254000   0.39092354   -2.2719845   0.58579893   -1.6861855   0.13628301    11320.493     1000 
 1256000   0.39990506   -2.3276411   0.59925773   -1.7283833   0.11572826    11496.148     1000 
 1258000   0.36780562   -2.2573801   0.55115673   -1.7062234   0.13469507    11319.517     1000 
 1260000   0.38265312   -2.2692847    0.5734057    -1.695879   0.11786153    11469.428     1000 
 1262000    0.4019386   -2.2525346   0.60230499   -1.6502297   0.11243658     11485.67     1000 
 1264000   0.38972197    -2.275882   0.58399837   -1.6918836   0.13187507    11304.278     1000 
 1266000   0.39516019   -2.2942878   0.59214755   -1.7021403    0.1284924    11357.767     1000 
 1268000   0.39425146   -2.2655944   0.59078581   -1.6748085   0.15256515    11227.453     1000 
 1270000   0.38958281   -2.2730309   0.58378984   -1.6892411   0.12709593    11394.337     1000 
 1272000   0.37747901   -2.2785377   0.56565229   -1.7128854   0.12697687    11387.393     1000 
 1274000     0.390174   -2.2626364   0.58467574   -1.6779606   0.12745803    11388.114     1000 
 1276000   0.38206351   -2.3077179   0.57252217   -1.7351957   0.13310499    11311.153     1000 
 1278000   0.38248999   -2.2212533   0.57316126   -1.6480921   0.13273399    11347.786     1000 
 1280000   0.38947652   -2.2902645   0.58363056   -1.7066339   0.13793378    11278.752     1000 
 1282000   0.38637453   -2.2973598   0.57898224   -1.7183776   0.13084141    11381.581     1000 
 1284000   0.38397913    -2.252727   0.57539273   -1.6773343   0.12706497    11367.205     1000 
 1286000   0.38950613   -2.2658787   0.58367493   -1.6822038   0.14790488    11243.309     1000 
 1288000   0.40711813   -2.3003798   0.61006652   -1.6903132   0.12207898    11400.763     1000 
 1290000   0.39890648   -2.2841729   0.59776136   -1.6864115   0.12763049     11396.36     1000 
 1292000   0.36968502    -2.287965   0.55397301   -1.7339919   0.13006507    11390.986     1000 
 1294000   0.38067823   -2.2726195   0.57044632   -1.7021732   0.13825862    11248.542     1000 
 1296000   0.37781489     -2.27006   0.56615561   -1.7039044   0.11874476    11420.807     1000 
 1298000   0.39856814   -2.2209085   0.59725435   -1.6236542   0.11920143    11440.262     1000 
 1300000   0.37987371   -2.2545924   0.56924076   -1.6853516   0.12746453    11258.384     1000 
 1302000   0.39280126   -2.2642579   0.58861268   -1.6756452   0.13362827    11366.416     1000 
 1304000   0.37454882   -2.2642002    0.5612614   -1.7029388   0.11418741    11408.023     1000 
 1306000   0.38402215   -2.2843181    0.5754572   -1.7088609   0.11529124    11426.254     1000 
 1308000   0.38325385   -2.2578344   0.57430589   -1.6835285   0.12865289    11321.791     1000 
 1310000   0.39039694   -2.2860452   0.58500981   -1.7010354   0.12673569    11383.896     1000 
 1312000   0.38904387   -2.2459087   0.58298224   -1.6629264   0.12687347    11379.913     1000 
 1314000   0.38592554   -2.2472176   0.57830942   -1.6689082   0.12515471    11366.606     1000 
 1316000   0.37767175   -2.2414447   0.56594111   -1.6755036   0.14115155    11229.296     1000 
 1318000   0.38703689   -2.2411936   0.57997478   -1.6612188   0.12954278    11377.352     1000 
 1320000   0.36909663   -2.2711272    0.5530913   -1.7180359   0.12746212    11388.822     1000 
 1322000   0.38476461   -2.2426388   0.57656977   -1.6660691    0.1280468    11393.832     1000 
 1324000   0.40730528   -2.2790747   0.61034696   -1.6687278   0.14633261    11320.822     1000 
 1326000   0.39292588   -2.2295967   0.58879944   -1.6407973   0.13524305    11376.837     1000 
 1328000   0.38130864   -2.3254616     0.571391   -1.7540706   0.11908742    11531.128     1000 
 1330000   0.37284158   -2.2695575   0.55870311   -1.7108544   0.12627196    11445.929     1000 
 1332000   0.38173958   -2.2949166   0.57203675   -1.7228799     0.127407    11457.816     1000 
 1334000   0.41253927   -2.2835606   0.61819009   -1.6653705   0.12671441    11468.806     1000 
 1336000    0.3867924   -2.2978576   0.57960841   -1.7182491   0.12108227    11457.891     1000 
 1338000   0.38896505   -2.2597372   0.58286413    -1.676873   0.12489313    11411.686     1000 
 1340000   0.39244674   -2.2993212   0.58808144   -1.7112398   0.13765332    11234.215     1000 
 1342000   0.38526755   -2.2779581   0.57732343   -1.7006347   0.13611296    11346.231     1000 
 1344000   0.38640409   -2.2906459   0.57902653   -1.7116194   0.12558536      11470.7     1000 
 1346000   0.40864971   -2.2771017   0.61236159   -1.6647401   0.13066052    11406.406     1000 
 1348000   0.38380053   -2.2877061   0.57512509   -1.7125811   0.13283873    11310.968     1000 
 1350000   0.38660787   -2.2786193    0.5793319   -1.6992874   0.12339988    11411.915     1000 
 1352000   0.38513628   -2.2670659   0.57712671   -1.6899391   0.13562846    11294.642     1000 
 1354000   0.39384533   -2.2648563   0.59017722    -1.674679   0.12606202    11424.536     1000 
 1356000     0.390266   -2.2755473    0.5848136   -1.6907337   0.13393451    11335.499     1000 
 1358000   0.37424905   -2.2754606    0.5608122   -1.7146483   0.11331305    11540.528     1000 
 1360000   0.37312487   -2.2473549   0.55912762   -1.6882273   0.13312168    11359.335     1000 
 1362000   0.39262498   -2.2149299   0.58834854   -1.6265813   0.12702666    11338.812     1000 
 1364000   0.37177622   -2.2929274   0.55710667   -1.7358207   0.12900517    11382.014     1000 
 1366000   0.38641158   -2.2210959   0.57903776   -1.6420582   0.12939359    11413.954     1000 
 1368000   0.39491491   -2.2293765   0.59177999   -1.6375965   0.13554042    11374.568     1000 
 1370000   0.38304372   -2.2772734   0.57399101   -1.7032824   0.12741191    11332.024     1000 
 1372000   0.39174063   -2.2738599   0.58702334   -1.6868366   0.13211052    11331.706     1000 
 1374000   0.37947635   -2.2685331   0.56864531   -1.6998878   0.11346337    11492.374     1000 
 1376000   0.37366528   -2.2886659   0.55993742   -1.7287284   0.12680807    11414.244     1000 
 1378000   0.39684798   -2.2465681    0.5946767   -1.6518914    0.1458425     11218.86     1000 
 1380000   0.40055685   -2.2533303   0.60023444   -1.6530958   0.14128703    11289.218     1000 
 1382000   0.40678591   -2.3174101   0.60956869   -1.7078414   0.12006494    11498.993     1000 
 1384000   0.38334297   -2.2978337   0.57443945   -1.7233943   0.13013083    11357.471     1000 
 1386000   0.39378063   -2.2907881   0.59008027   -1.7007078     0.122694     11416.61     1000 
 1388000   0.39923097   -2.2602857    0.5982476   -1.6620381   0.12640138    11398.093     1000 
 1390000   0.38152326   -2.2645563    0.5717126   -1.6928437   0.13899839    11346.364     1000 
 1392000   0.38946589   -2.2474038   0.58361464   -1.6637892   0.12557908    11284.919     1000 
 1394000   0.38758074   -2.2664966   0.58078973   -1.6857068   0.14730344    11313.154     1000 
 1396000   0.39480868   -2.1937443    0.5916208   -1.6021235   0.12629155    11324.356     1000 
 1398000    0.3840377    -2.317447    0.5754805   -1.7419665   0.11911375    11556.999     1000 
 1400000   0.36718202   -2.3011322   0.55022225     -1.75091   0.11832713    11359.708     1000 
 1402000   0.38644266   -2.2826002   0.57908432   -1.7035158   0.13640097    11299.279     1000 
 1404000   0.38795901   -2.2811214   0.58135658   -1.6997648   0.12373988    11415.488     1000 
 1406000   0.37835442    -2.246962    0.5669641   -1.6799979   0.13292063    11330.014     1000 
 1408000   0.39787471   -2.2605802   0.59621525   -1.6643649   0.13783852    11334.596     1000 
 1410000    0.3911204   -2.2507508   0.58609392   -1.6646569   0.14016757    11326.568     1000 
 1412000   0.40549629   -2.2467605   0.60763618   -1.6391244   0.12501181     11392.31     1000 
 1414000   0.39381114   -2.2563646   0.59012599   -1.6662386   0.13022911    11347.173     1000 
 1416000   0.38464375   -2.2652294   0.57638865   -1.6888407   0.12519893    11381.743     1000 
 1418000   0.36894776   -2.2987651   0.55286822   -1.7458969   0.13148183    11260.528     1000 
 1420000   0.39259508   -2.2428979   0.58830373   -1.6545941   0.13302409      11345.6     1000 
 1422000   0.39131209   -2.2603071   0.58638117   -1.6739259   0.13600414    11369.254     1000 
 1424000   0.37445285   -2.2212102   0.56111759   -1.6600926   0.12282094    11338.179     1000 
 1426000   0.36778832   -2.2776796    0.5511308   -1.7265488    0.1321368    11294.328     1000 
 1428000   0.39151912   -2.2582919   0.58669139   -1.6716005   0.12878906    11379.025     1000 
 1430000   0.38665876    -2.272965   0.57940815   -1.6935568   0.12968996    11372.863     1000 
 1432000   0.37842401   -2.2723366   0.56706837   -1.7052683   0.11496224    11606.387     1000 
 1434000   0.40332538   -2.2863072   0.60438309   -1.6819241   0.12915948    11396.731     1000 
 1436000   0.39155904   -2.2043774   0.58675122   -1.6176262   0.11858725    11328.103     1000 
 1438000   0.37443645   -2.2846881   0.56109301   -1.7235951   0.12528048    11427.124     1000 
 1440000   0.38301575   -2.2989112   0.57394911   -1.7249621   0.12337718    11429.761     1000 
 1442000   0.37882835   -2.2748889   0.56767429   -1.7072146   0.12986895    11378.614     1000 
 1444000   0.39423396   -2.2565208   0.59075959   -1.6657612   0.13637414    11306.508     1000 
 1446000   0.39267677   -2.2758224   0.58842613   -1.6873963   0.12131082    11433.606     1000 
 1448000   0.37840797   -2.3166406   0.56704435   -1.7495963   0.13361709    11439.161     1000 
 1450000   0.38277061   -2.2550393   0.57358175   -1.6814575   0.12081671    11373.873     1000 
 1452000   0.37216026   -2.2558141   0.55768215    -1.698132   0.12713127    11384.402     1000 
 1454000   0.37684194   -2.2405832   0.56469765   -1.6758856   0.12699963    11399.309     1000 
 1456000   0.39316634   -2.2927507   0.58915976    -1.703591   0.12328113    11449.509     1000 
 1458000   0.38809587   -2.2670934   0.58156166   -1.6855318   0.12084709    11478.918     1000 
 1460000   0.38558135   -2.2690238   0.57779365   -1.6912301   0.12452108    11358.323     1000 
 1462000    0.3837482   -2.2507653   0.57504668   -1.6757187   0.12907847    11419.476     1000 
 1464000   0.38627851   -2.2501003   0.57883834    -1.671262   0.12576001    11346.771     1000 
 1466000   0.39366738   -2.2678513   0.58991058   -1.6779407     0.141409    11333.747     1000 
 1468000   0.38041925   -2.2461584   0.57005824   -1.6761001   0.12401711    11302.415     1000 
 1470000   0.38463889   -2.2890559   0.57638138   -1.7126745   0.14024158    11366.061     1000 
 1472000   0.40123634   -2.2239932   0.60125266   -1.6227406   0.13407036    11369.099     1000 
 1474000   0.39031043   -2.2834916   0.58488018   -1.6986114   0.13257106     11383.34     1000 
 1476000    0.3932081    -2.279429   0.58922234   -1.6902067   0.12382591    11404.939     1000 
 1478000   0.38504759    -2.231002   0.57699382   -1.6540082   0.14218328     11125.89     1000 
 1480000   0.37500745   -2.2869068   0.56194867   -1.7249582   0.13402075    11361.936     1000 
 1482000   0.40135193   -2.2482612   0.60142587   -1.6468353   0.13274755    11305.159     1000 
 1484000   0.39346287   -2.2447381   0.58960411    -1.655134   0.13071621    11346.042     1000 
 1486000   0.39658966   -2.2765626    0.5942896    -1.682273   0.13581531     11323.58     1000 
 1488000   0.37985484   -2.2769689   0.56921248   -1.7077564   0.12562103    11319.967     1000 
 1490000   0.38558577   -2.2370833   0.57780027    -1.659283   0.14355016    11310.999     1000 
 1492000   0.39338996   -2.2794214   0.58949486   -1.6899266   0.11996843    11495.771     1000 
 1494000    0.3873592   -2.2308196   0.58045776   -1.6503619   0.13123274    11283.871     1000 
 1496000   0.40399691   -2.2520951   0.60538937   -1.6467058   0.12582398    11338.847     1000 
 1498000   0.38524622       -2.252   0.57729146   -1.6747085   0.14123034    11202.775     1000 
 1500000   0.37235015   -2.2538056    0.5579667   -1.6958389   0.13159548    11385.743     1000 
 1502000   0.39124462   -2.2474494   0.58628007   -1.6611693   0.13140336    11387.953     1000 
 1504000   0.39034993   -2.2881688   0.58493938   -1.7032294   0.12553319    11444.588     1000 
 1506000   0.40161596   -2.2409636   0.60182152   -1.6391421   0.13710061    11279.757     1000 
 1508000   0.37548871   -2.2667429   0.56266983   -1.7040731   0.14141096    11250.483     1000 
 1510000   0.40288715   -2.2582946    0.6037264   -1.6545682   0.14794788    11229.653     1000 
 1512000   0.38508964   -2.2495653   0.57705682   -1.6725084    0.1325858    11249.524     1000 
 1514000   0.38731501   -2.2667064   0.58039154   -1.6863148   0.13300365    11420.885     1000 
 1516000   0.38896449    -2.275708   0.58286329   -1.6928447   0.14346888    11276.067     1000 
 1518000   0.40077696   -2.2562304   0.60056427   -1.6556661   0.13518753    11290.602     1000 
 1520000   0.38880007   -2.2457803    0.5826169   -1.6631634   0.14290237    11167.902     1000 
 1522000   0.37937013   -2.2658816   0.56848613   -1.6973955   0.12213288    11433.522     1000 
 1524000   0.37711248   -2.2448714   0.56510305   -1.6797684   0.13148555    11343.646     1000 
 1526000   0.38040528   -2.2777833    0.5700373    -1.707746   0.11693029    11508.116     1000 
 1528000   0.37646364   -2.2666734   0.56413076   -1.7025427   0.12908042    11345.022     1000 
 1530000    0.3747525   -2.2448156   0.56156662    -1.683249   0.12895696    11313.811     1000 
 1532000   0.40015148   -2.2675889     0.599627   -1.6679619   0.12510194    11375.545     1000 
 1534000   0.37636243   -2.2981718   0.56397911   -1.7341927   0.13266303    11409.188     1000 
 1536000   0.38771811   -2.2861104   0.58099559   -1.7051148   0.13098107    11346.884     1000 
 1538000   0.39001423   -2.2936267   0.58443633   -1.7091904   0.13591341    11316.343     1000 
 1540000   0.38366297   -2.3044328   0.57491896   -1.7295138   0.11624474    11476.506     1000 
 1542000   0.37268329   -2.2466891    0.5584659   -1.6882232   0.13625388    11261.079     1000 
 1544000   0.38803196   -2.2280839    0.5814659    -1.646618   0.12008969    11345.689     1000 
 1546000   0.38460685   -2.2553855   0.57633337   -1.6790521    0.1318988    11362.049     1000 
 1548000   0.37856213    -2.255223   0.56727535   -1.6879477   0.12613344    11403.374     1000 
 1550000   0.38834748   -2.2642739    0.5819387   -1.6823352   0.12731654    11417.649     1000 
 1552000   0.38909492   -2.2509593   0.58305874   -1.6679005   0.14452332    11309.499     1000 
 1554000   0.38800536   -2.2530964   0.58142603   -1.6716704   0.12533861     11365.82     1000 
 1556000   0.37431442   -2.2236713   0.56091016   -1.6627612   0.13820088    11185.911     1000 
 1558000    0.3857077   -2.2910644   0.57798299   -1.7130814   0.12945655    11373.416     1000 
 1560000   0.39247668   -2.2403706   0.58812631   -1.6522443   0.13467985     11261.02     1000 
 1562000   0.36687556   -2.2639751   0.54976303   -1.7142121   0.12292864    11335.645     1000 
 1564000   0.38079481   -2.2552734   0.57062102   -1.6846524   0.13101473    11414.525     1000 
 1566000   0.37869729   -2.2637057   0.56747789   -1.6962278   0.12923172    11425.512     1000 
 1568000   0.39641109   -2.2637427   0.59402202   -1.6697207   0.13808186     11278.78     1000 
 1570000    0.4045345   -2.2372636   0.60619495   -1.6310687   0.13668459    11259.372     1000 
 1572000   0.39523007   -2.2695771   0.59225226   -1.6773248   0.13139247    11359.176     1000 
 1574000   0.40779836   -2.2257809   0.61108584    -1.614695   0.12548327    11355.076     1000 
 1576000   0.39257412   -2.3036743   0.58827232    -1.715402   0.12524436    11373.283     1000 
 1578000    0.3818518   -2.2581901   0.57220493   -1.6859852   0.12231367    11516.625     1000 
 1580000   0.37687184   -2.2520378   0.56474245   -1.6872953   0.12673326    11403.932     1000 
 1582000    0.3872461   -2.2262404   0.58028829   -1.6459522   0.13380478    11344.455     1000 
 1584000   0.38356056   -2.2460453    0.5747655   -1.6712798   0.12141347    11348.756     1000 
 1586000   0.38469883   -2.2164154   0.57647119   -1.6399442   0.13631243    11381.623     1000 
 1588000   0.40210751   -2.2303218   0.60255811   -1.6277637   0.11485811    11424.064     1000 
 1590000   0.39242751   -2.2113756   0.58805262    -1.623323   0.13145245    11266.159     1000 
 1592000   0.38242819   -2.2591843   0.57306864   -1.6861156   0.13404995    11305.235     1000 
 1594000   0.38838422   -2.2937791   0.58199376   -1.7117854   0.12308131    11410.401     1000 
 1596000   0.39756498   -2.2854649   0.59575113   -1.6897137   0.13043393    11427.401     1000 
[...]
 2612000   0.40271201   -2.2943114   0.60346395   -1.6908474   0.13574955    11306.832     1000 
 2614000   0.38470432   -2.2537194   0.57647943   -1.6772399   0.12963459    11379.986     1000 
 2616000   0.39959398   -2.2605574   0.59879158   -1.6617658   0.13030138    11379.947     1000 
 2618000   0.39429844   -2.2854264   0.59085621   -1.6945702   0.12741406    11437.702     1000 
 2620000   0.37613096   -2.2346012   0.56363224    -1.670969   0.11998613    11481.948     1000 
 2622000   0.39217808   -2.2852149   0.58767885    -1.697536   0.11522637    11472.582     1000 
 2624000   0.37609722    -2.255152   0.56358169   -1.6915703   0.13580662    11299.305     1000 
 2626000   0.38941254   -2.2123182    0.5835347   -1.6287835   0.12676613     11346.66     1000 
 2628000   0.41177021   -2.2704791   0.61703765   -1.6534414   0.14409903    11312.852     1000 
 2630000   0.38482966   -2.2723715   0.57666724   -1.6957043   0.13456805    11317.223     1000 
 2632000   0.39945573   -2.2338458   0.59858441   -1.6352614    0.1443331    11264.414     1000 
 2634000   0.37444792   -2.2789557   0.56111021   -1.7178455   0.12919322    11287.707     1000 
 2636000   0.39868121   -2.2954476   0.59742379   -1.6980238   0.12374136     11466.15     1000 
 2638000   0.39741003   -2.2282189   0.59551894      -1.6327   0.12629089     11400.71     1000 
 2640000   0.39238184   -2.2468069   0.58798419   -1.6588227   0.11742013    11458.022     1000 
 2642000   0.39795702   -2.2339735    0.5963386   -1.6376349   0.13953901      11223.3     1000 
 2644000   0.39882953   -2.2818125   0.59764605   -1.6841664   0.12078659    11376.455     1000 
 2646000   0.38497475   -2.2779797   0.57688467   -1.7010951   0.12241478    11478.782     1000 
 2648000   0.40486765   -2.2514441   0.60669417     -1.64475   0.12922454     11376.65     1000 
 2650000   0.38431451   -2.2579215   0.57589529   -1.6820262   0.12445363    11440.192     1000 
 2652000   0.40283461   -2.2921827   0.60364767   -1.6885351   0.12910848    11438.739     1000 
 2654000   0.38847222   -2.2729778   0.58212562   -1.6908522   0.13411569    11364.603     1000 
 2656000    0.3850011   -2.2425089   0.57692415   -1.6655848   0.13599162    11307.507     1000 
 2658000   0.41323666   -2.2551609   0.61923513   -1.6359257   0.12952751    11406.468     1000 
 2660000   0.40195094   -2.2897907   0.60232349   -1.6874672   0.13660026     11287.49     1000 
 2662000   0.38946665   -2.2546973   0.58361577   -1.6710815    0.1153856        11488     1000 
 2664000   0.40383958   -2.2883044   0.60515361   -1.6831508   0.13626725    11300.424     1000 
 2666000   0.38868002   -2.2797495   0.58243701   -1.6973125   0.14949533    11293.864     1000 
 2668000   0.37319866   -2.2604269   0.55923819   -1.7011887   0.12977805    11409.437     1000 
 2670000    0.3831074   -2.1871619   0.57408644   -1.6130755   0.14105672     11263.23     1000 
 2672000   0.40028553   -2.2715651   0.59982787   -1.6717372   0.13126291    11366.974     1000 
 2674000   0.39850276   -2.3199444   0.59715638    -1.722788   0.11643676    11447.433     1000 
 2676000   0.39027049   -2.2682178   0.58482034   -1.6833974   0.12545851     11459.03     1000 
 2678000   0.36392316    -2.275778   0.54533885   -1.7304391   0.12045748    11471.968     1000 
 2680000   0.39476342   -2.2619514   0.59155299   -1.6703985   0.14401425    11305.828     1000 
 2682000   0.39054843   -2.2875114   0.58523682   -1.7022746    0.1283488    11388.673     1000 
 2684000   0.39173977   -2.2859705   0.58702205   -1.6989484   0.13041273    11355.667     1000 
 2686000    0.4000539   -2.2729158   0.59948076   -1.6734351   0.14458414    11219.503     1000 
 2688000   0.38241748   -2.2490294   0.57305259   -1.6759768   0.12536997    11334.831     1000 
 2690000   0.37728766   -2.2570071   0.56536556   -1.6916415   0.12983712    11325.118     1000 
 2692000   0.38224619   -2.2452904   0.57279591   -1.6724945   0.13272505    11292.705     1000 
 2694000   0.38322455   -2.2434365     0.574262   -1.6691745   0.13832748    11248.413     1000 
 2696000   0.38504621    -2.265789   0.57699175   -1.6887973   0.12990601    11246.019     1000 
 2698000    0.3939617   -2.2561594    0.5903516   -1.6658078   0.12392432    11462.801     1000 
 2700000   0.40350745   -2.2447412   0.60465592   -1.6400852   0.14042164    11222.838     1000 
 2702000   0.39151736    -2.259751   0.58668876   -1.6730623   0.13347879    11371.517     1000 
 2704000   0.40316373   -2.2497083   0.60414084   -1.6455675   0.12204084    11416.027     1000 
 2706000   0.39303036   -2.2654286   0.58895599   -1.6764727   0.13882335    11367.064     1000 
 2708000   0.40773245   -2.3194106   0.61098708   -1.7084235    0.1249576     11498.75     1000 
 2710000   0.39114143   -2.3083419   0.58612543   -1.7222164   0.12928966    11397.854     1000 
 2712000   0.38775933   -2.3089412   0.58105735   -1.7278839   0.13220698    11393.937     1000 
 2714000   0.39034087   -2.2768275    0.5849258   -1.6919017   0.12823605    11354.599     1000 
 2716000   0.38493541   -2.2756159   0.57682571   -1.6987902   0.11864555    11412.688     1000 
 2718000    0.4071378   -2.2692456   0.61009599   -1.6591496   0.13763407    11263.223     1000 
 2720000   0.40817452    -2.333571   0.61164952   -1.7219215   0.11294675    11576.155     1000 
 2722000   0.40134828   -2.2894135   0.60142039   -1.6879931   0.14450082    11268.101     1000 
 2724000   0.39884626   -2.2594233   0.59767112   -1.6617522   0.12832436    11364.572     1000 
 2726000   0.38061231   -2.3085058   0.57034755   -1.7381582    0.1192046    11444.408     1000 
 2728000   0.40202108   -2.2858893   0.60242859   -1.6834607   0.11334383    11477.681     1000 
 2730000   0.39035502   -2.2758146     0.584947   -1.6908676   0.13558551    11374.819     1000 
 2732000   0.37790574   -2.2827958   0.56629176    -1.716504   0.13066209    11348.736     1000 
 2734000   0.38604475   -2.2737868   0.57848805   -1.6952988   0.13260842    11366.831     1000 
 2736000   0.39887104   -2.2763995   0.59770826   -1.6786913   0.13563572    11319.004     1000 
 2738000   0.39106559   -2.2845242   0.58601179   -1.6985124   0.13452473    11317.986     1000 
 2740000   0.37633824   -2.2719084   0.56394285   -1.7079655   0.13108008    11335.508     1000 
 2742000   0.40133866   -2.3345658   0.60140599   -1.7331599   0.13462614    11341.166     1000 
 2744000   0.38299813   -2.2679606    0.5739227   -1.6940379   0.12472534    11435.917     1000 
 2746000   0.37155611   -2.3257081   0.55677683   -1.7689313   0.11950529    11426.323     1000 
 2748000   0.38820323   -2.2973996   0.58172254    -1.715677   0.12585639    11388.669     1000 
 2750000    0.3921473   -2.2564476   0.58763273   -1.6688149    0.1293481    11361.053     1000 
 2752000   0.39368729   -2.2842593    0.5899404   -1.6943189   0.13453742    11253.817     1000 
 2754000   0.38734407   -2.2690991   0.58043508    -1.688664   0.13515421    11301.878     1000 
 2756000   0.37594759   -2.2748982   0.56335746   -1.7115408   0.13504732    11278.243     1000 
 2758000   0.37724685   -2.2851483    0.5653044   -1.7198439   0.13018106    11339.997     1000 
 2760000   0.39585801   -2.2559466   0.59319323   -1.6627533   0.13175792      11374.4     1000 
 2762000   0.37846993   -2.2410066   0.56713719   -1.6738694   0.13366489    11256.075     1000 
 2764000   0.39475085   -2.2622817   0.59153414   -1.6707476   0.12767067     11491.24     1000 
 2766000    0.3844199   -2.2581297   0.57605323   -1.6820765   0.12700442    11421.914     1000 
 2768000   0.40773641   -2.2740975   0.61099301   -1.6631045   0.13214751    11309.452     1000 
 2770000   0.40141078   -2.2920959   0.60151405   -1.6905819   0.12731393    11455.339     1000 
 2772000   0.38293344   -2.2858433   0.57382576   -1.7120176   0.12444212    11424.876     1000 
 2774000   0.39751368   -2.2439242   0.59567425   -1.6482499   0.13062838    11256.454     1000 
 2776000   0.38584041   -2.2580118   0.57818185   -1.6798299   0.12638791    11434.807     1000 
 2778000   0.39798026   -2.2651506   0.59637342   -1.6687772    0.1421133    11185.872     1000 
 2780000   0.40072436   -2.2558754   0.60048546   -1.6553899   0.13886609    11378.912     1000 
 2782000   0.41078893   -2.2422523   0.61556721   -1.6266851   0.14435372    11260.363     1000 
 2784000   0.39084862    -2.274338   0.58568666   -1.6886513   0.11986965    11519.255     1000 
 2786000   0.40326928   -2.2709508   0.60429902   -1.6666518   0.14409752     11289.87     1000 
 2788000   0.38135908   -2.2308411   0.57146659   -1.6593745     0.142364     11341.89     1000 
 2790000   0.36954669   -2.2768824   0.55376572   -1.7231166   0.12853348     11339.24     1000 
 2792000   0.38596934   -2.3064939   0.57837505   -1.7281189   0.12010649    11509.292     1000 
 2794000   0.41029228   -2.2893716   0.61482298   -1.6745486   0.13362092    11344.958     1000 
 2796000   0.40336893   -2.2200549   0.60444834   -1.6156066    0.1307828    11312.544     1000 
 2798000   0.39015908   -2.2834956   0.58465338   -1.6988422   0.13338972    11356.505     1000 
 2800000   0.39551512   -2.2638446   0.59267941   -1.6711652   0.12727723    11410.919     1000 
 2802000   0.38310618   -2.2710968   0.57408462   -1.6970122   0.12704975    11362.117     1000 
 2804000   0.39726599   -2.2741721   0.59530308    -1.678869   0.12437373    11384.112     1000 
 2806000   0.38080816   -2.2319662   0.57064103   -1.6613252   0.13593673    11317.677     1000 
 2808000   0.38110995   -2.2519648   0.57109327   -1.6808716   0.12712508    11319.423     1000 
 2810000   0.39119009   -2.2679855   0.58619836   -1.6817871   0.12787345    11423.979     1000 
 2812000   0.39854153   -2.2683655   0.59721449   -1.6711511   0.11993052    11510.894     1000 
 2814000   0.38435069   -2.2425885   0.57594951    -1.666639    0.1448241    11196.147     1000 
 2816000   0.40115481   -2.2886485   0.60113048   -1.6875181   0.12388264     11480.79     1000 
 2818000   0.39324445   -2.2768782    0.5892768   -1.6876014    0.1194489    11499.722     1000 
 2820000    0.4132371   -2.2740773   0.61923579   -1.6548415   0.13783127    11289.473     1000 
 2822000   0.39245547   -2.2782467   0.58809452   -1.6901522   0.12679798    11428.165     1000 
 2824000   0.39950546   -2.2590871   0.59865894   -1.6604282   0.13037223    11412.303     1000 
 2826000   0.38909156   -2.2567048   0.58305371   -1.6736511   0.13686742    11271.846     1000 
 2828000   0.39715887   -2.2520612   0.59514257   -1.6569187   0.13953098    11278.676     1000 
 2830000   0.39111653   -2.3015323   0.58608812   -1.7154442   0.13506781    11377.749     1000 
 2832000   0.37739976   -2.2069564   0.56553354   -1.6414229   0.11983743    11435.013     1000 
 2834000   0.37677852   -2.2737219   0.56460262   -1.7091193   0.14278324    11229.359     1000 
 2836000    0.3890432   -2.2447731   0.58298124   -1.6617918   0.12706881    11417.682     1000 
 2838000   0.38028564   -2.2713016   0.56985803   -1.7014436   0.12544802    11334.684     1000 
 2840000    0.3786467   -2.2540903   0.56740207   -1.6866882   0.13474697    11248.967     1000 
 2842000   0.38178713   -2.2816671   0.57210802   -1.7095591   0.13417439    11228.459     1000 
 2844000   0.39244177   -2.2446507   0.58807399   -1.6565767   0.12065917    11402.672     1000 
 2846000   0.39159882   -2.2798909   0.58681083   -1.6930801   0.12732431    11349.004     1000 
 2848000   0.37477184   -2.3361004    0.5615956   -1.7745048   0.11444616    11531.258     1000 
 2850000   0.39631788    -2.255614   0.59388234   -1.6617316   0.13651316    11367.271     1000 
 2852000   0.37936894   -2.2804765   0.56848435   -1.7119922   0.13304755    11315.575     1000 
 2854000   0.39207607   -2.2810139   0.58752599   -1.6934879   0.12945755    11408.031     1000 
 2856000    0.3853336   -2.2476983    0.5774224   -1.6702759   0.12739395    11362.653     1000 
 2858000   0.38431319    -2.270666   0.57589331   -1.6947727    0.1263192    11348.798     1000 
 2860000   0.39623431   -2.2429205   0.59375712   -1.6491634   0.13958802    11351.574     1000 
 2862000   0.38952144   -2.2098521   0.58369788   -1.6261543    0.1321246    11267.811     1000 
 2864000   0.38034022   -2.2712505   0.56993981   -1.7013107   0.12476336    11402.297     1000 
 2866000   0.39020522   -2.2449146   0.58472253   -1.6601921   0.13096922    11383.532     1000 
 2868000   0.40268663   -2.2336092   0.60342591   -1.6301833   0.13540367    11275.849     1000 
 2870000   0.37854662   -2.3175416   0.56725211   -1.7502894   0.12174194    11342.879     1000 
 2872000   0.39448178   -2.2660999   0.59113095   -1.6749689   0.13704779    11269.461     1000 
 2874000   0.39822949   -2.2558892    0.5967469   -1.6591423   0.14227023    11271.166     1000 
 2876000   0.38533438   -2.2673137   0.57742357   -1.6898901   0.13513198    11319.358     1000 
 2878000   0.40526999   -2.2758054   0.60729707   -1.6685083   0.12521732    11459.592     1000 
 2880000   0.38564842    -2.234163   0.57789415   -1.6562688   0.13057116    11423.953     1000 
 2882000    0.4094667   -2.2202448   0.61358584   -1.6066589   0.13019547    11341.207     1000 
 2884000   0.38397395     -2.27634   0.57538496   -1.7009551   0.12985179     11362.09     1000 
 2886000   0.38812675   -2.2516529   0.58160794    -1.670045   0.12634335    11390.841     1000 
 2888000   0.38267567   -2.2836497    0.5734395   -1.7102102   0.13748338    11350.135     1000 
 2890000   0.39103299   -2.3018161   0.58596294   -1.7158532   0.12247057    11365.313     1000 
 2892000   0.39064085   -2.2710754   0.58537532   -1.6857001   0.13474553    11246.066     1000 
 2894000    0.3859604   -2.2634642   0.57836166   -1.6851025    0.1309021    11299.826     1000 
 2896000   0.39868771   -2.2622435   0.59743353   -1.6648099   0.13151831    11455.075     1000 
 2898000   0.38113656   -2.2598054   0.57113314   -1.6886722   0.13195296    11354.367     1000 
 2900000   0.38339608    -2.286859   0.57451902     -1.71234    0.1309037    11387.143     1000 
 2902000   0.39434898    -2.286577   0.59093195   -1.6956451   0.13736186    11225.966     1000 
 2904000   0.40415039   -2.2913553   0.60561935    -1.685736    0.1391288    11329.607     1000 
 2906000   0.37614124   -2.2617335   0.56364765   -1.6980859   0.12139677    11379.191     1000 
 2908000   0.37834645   -2.2568752   0.56695216    -1.689923   0.13922706    11292.968     1000 
 2910000   0.39369561   -2.2839052   0.58995287   -1.6939523   0.12698983    11390.972     1000 
 2912000   0.37339624   -2.2690171   0.55953427   -1.7094829   0.12969763     11343.96     1000 
 2914000   0.39804676   -2.2623439   0.59647307   -1.6658709   0.14272451    11380.594     1000 
 2916000   0.39231172   -2.2475912   0.58787911   -1.6597121   0.12389187     11446.89     1000 
 2918000   0.38720188   -2.2453958   0.58022201   -1.6651738   0.13144585    11317.621     1000 
 2920000   0.37769988   -2.2525021   0.56598327   -1.6865188   0.12928231    11309.582     1000 
 2922000   0.39544177   -2.3058664   0.59256949   -1.7132969   0.13376638    11379.998     1000 
 2924000   0.39845592   -2.2860914   0.59708619   -1.6890052   0.13253338    11313.753     1000 
 2926000   0.39093094   -2.2418229   0.58581002   -1.6560129   0.13458633    11404.938     1000 
 2928000   0.37513323   -2.3025906   0.56213714   -1.7404534   0.11595847    11453.366     1000 
 2930000   0.39929783   -2.2679802   0.59834779   -1.6696324   0.13172059    11406.741     1000 
 2932000   0.38873184   -2.2459738   0.58251466   -1.6634592   0.12098773    11389.937     1000 
 2934000   0.38155325   -2.3142632   0.57175754   -1.7425056    0.1348704    11414.145     1000 
 2936000   0.39777268   -2.2364906   0.59606236   -1.6404282   0.11896649    11463.939     1000 
 2938000   0.38873243   -2.2559874   0.58251554   -1.6734718   0.12478848    11418.509     1000 
 2940000    0.3910638   -2.2649587    0.5860091   -1.6789496     0.128408    11472.478     1000 
 2942000    0.3848043   -2.2233632   0.57662924   -1.6467339   0.12924915    11427.049     1000 
 2944000   0.38288549    -2.263748   0.57375391   -1.6899941   0.13563726    11328.275     1000 
 2946000   0.38272807   -2.2641555   0.57351801   -1.6906375   0.12445712    11406.126     1000 
 2948000   0.39913899   -2.2627605   0.59810978   -1.6646507   0.13953047    11379.961     1000 
 2950000   0.39130892   -2.2700341   0.58637642   -1.6836577   0.12759792    11401.979     1000 
 2952000   0.39371624    -2.288575   0.58998379   -1.6985912   0.13492739    11394.619     1000 
 2954000   0.40187275   -2.3064234   0.60220632   -1.7042171    0.1271604    11507.354     1000 
 2956000    0.4023954   -2.2762526    0.6029895   -1.6732631   0.12081322     11466.25     1000 
 2958000   0.38969234   -2.2704405   0.58395398   -1.6864865   0.11770903     11495.57     1000 
 2960000   0.39005782   -2.2712987   0.58450165   -1.6867971   0.12750251    11419.214     1000 
 2962000    0.3892519   -2.2564178   0.58329398   -1.6731239   0.13413186    11328.003     1000 
 2964000   0.38889972   -2.2459189   0.58276622   -1.6631527   0.11977639    11376.656     1000 
 2966000    0.4091722   -2.2948943   0.61314455   -1.6817498   0.12690076    11361.805     1000 
 2968000    0.3970484   -2.2349697   0.59497703   -1.6399927   0.13030679    11349.767     1000 
 2970000   0.38915526   -2.2467855   0.58314916   -1.6636364   0.12471415    11329.928     1000 
 2972000   0.38782289   -2.2724513   0.58115261   -1.6912987    0.1206499    11439.986     1000 
 2974000    0.3797869   -2.2483701   0.56911066   -1.6792594   0.13678513    11291.853     1000 
 2976000   0.39701206   -2.2753879   0.59492258   -1.6804653   0.12331119    11423.917     1000 
 2978000   0.38676907   -2.2528308   0.57957345   -1.6732574   0.13064917    11363.443     1000 
 2980000   0.38481748   -2.2593634   0.57664899   -1.6827144   0.13477887    11389.831     1000 
 2982000   0.39965625   -2.2514632   0.59888489   -1.6525783   0.11989492    11468.943     1000 
 2984000    0.3917266   -2.2636462   0.58700232   -1.6766439   0.13050173    11415.246     1000 
 2986000   0.39218254   -2.2722204   0.58768553   -1.6845349   0.12662813    11324.385     1000 
 2988000   0.38542965   -2.2440687   0.57756633   -1.6665024   0.13033276     11347.03     1000 
 2990000   0.37679416    -2.246128   0.56462604   -1.6815019   0.13668168    11348.584     1000 
 2992000   0.39668767   -2.2279329   0.59443647   -1.6334964   0.13527936    11336.069     1000 
 2994000   0.39497215   -2.2605993   0.59186577   -1.6687336   0.12933161    11302.495     1000 
 2996000   0.39482821   -2.2735018   0.59165007   -1.6818517   0.12544801    11336.683     1000 
 2998000   0.39082815   -2.2400111   0.58565598   -1.6543551   0.12844696    11378.126     1000 
 3000000   0.38999636   -2.2612875   0.58440955    -1.676878   0.13241167    11369.213     1000 
Loop time of 1661.95 on 4 procs for 3000000 steps with 1000 atoms

Performance: 779804.514 tau/day, 1805.103 timesteps/s
95.5% CPU use with 4 MPI tasks x no OpenMP threads

MPI task timing breakdown:
Section |  min time  |  avg time  |  max time  |%varavg| %total
---------------------------------------------------------------
Pair    | 1235.2     | 1244.3     | 1259.1     |  26.2 | 74.87
Neigh   | 105.59     | 106.1      | 106.5      |   4.0 |  6.38
Comm    | 212.13     | 228.35     | 237.91     |  66.9 | 13.74
Output  | 0.038933   | 0.12142    | 0.36845    |  40.9 |  0.01
Modify  | 73.758     | 74.375     | 75.201     |   6.8 |  4.48
Other   |            | 8.733      |            |       |  0.53

Nlocal:    250 ave 256 max 245 min
Histogram: 1 0 0 1 1 0 0 0 0 1
Nghost:    1712.25 ave 1726 max 1702 min
Histogram: 1 1 0 0 0 1 0 0 0 1
Neighs:    14511.5 ave 15040 max 14170 min
Histogram: 1 1 0 0 1 0 0 0 0 1

Total # of neighbors = 58046
Ave neighs/atom = 58.046
Neighbor list builds = 150000
Dangerous builds not checked

Total wall time: 0:27:41
