LAMMPS (3 Mar 2020)
# ----------------------- Inicialização -----------------------

units			lj
atom_style 		atomic
dimension 		3
boundary 		p p p

# -------------------- Criação dos Átomos ---------------------

read_data 		topologia.txt
  orthogonal box = (0 0 0) to (21.54 21.54 21.54)
  1 by 2 by 2 MPI processor grid
  reading atoms ...
  1000 atoms
  read_data CPU = 0.00243726 secs

velocity 		all create ${temp} 87287 rot yes dist gaussian
velocity 		all create 0.44 87287 rot yes dist gaussian

# ------------------ Interação Interatômica -------------------

pair_style		table linear 1300
pair_coeff		1 1 force.table AA 6.5
WARNING: 2 of 1300 force values in table are inconsistent with -dE/dr.
  Should only be flagged at inflection points (src/pair_table.cpp:483)
pair_coeff		1 2 force.table AB 6.5
WARNING: 1 of 1300 force values in table are inconsistent with -dE/dr.
  Should only be flagged at inflection points (src/pair_table.cpp:483)
pair_coeff		2 2 force.table BB 6.5
pair_write		1 1 1600 r 0.008 6.5 table.check AA
Neighbor list info ...
  update every 1 steps, delay 10 steps, check yes
  max neighbors/atom: 2000, page size: 100000
  master list distance cutoff = 6.8
  ghost atom cutoff = 6.8
  binsize = 3.4, bins = 7 7 7
  1 neighbor lists, perpetual/occasional/extra = 1 0 0
  (1) pair table, perpetual
      attributes: half, newton on
      pair build: half/bin/atomonly/newton
      stencil: half/bin/3d/newton
      bin: standard
pair_write		1 2 1600 r 0.008 6.5 table.check AB
pair_write		2 2 1600 r 0.008 6.5 table.check BB

neighbor 		0.3 bin
neigh_modify	every 20 delay 0 check no

# ------------------------- Ensemble --------------------------------------

fix 1			all npt temp ${temp} ${temp} 0.5 iso ${press} ${press} 5
fix 1			all npt temp 0.44 ${temp} 0.5 iso ${press} ${press} 5
fix 1			all npt temp 0.44 0.44 0.5 iso ${press} ${press} 5
fix 1			all npt temp 0.44 0.44 0.5 iso 0.13 ${press} 5
fix 1			all npt temp 0.44 0.44 0.5 iso 0.13 0.13 5

# ---------------------- Função de Distribuição Radial -----------------------

#compute RDF 	all rdf 2000 1 1 1 2 2 2
#fix 2 			all ave/time 1 2000 2000 c_RDF[*] file rdf.data mode vector

# ------------------------- Execução ---------------------------

timestep 		0.005
thermo_style	custom step temp pe ke etotal press vol atoms
thermo			2000
run				3000000
Per MPI rank memory allocation (min/avg/max) = 2.675 | 2.675 | 2.675 Mbytes
Step Temp PotEng KinEng TotEng Press Volume Atoms 
       0         0.44   -0.9940566      0.65934   -0.3347166   0.11238164    9993.9483     1000 
    2000    0.4379528   -2.0881453   0.65627227    -1.431873   0.12848217    11322.312     1000 
    4000   0.45443422   -2.1249699   0.68096967   -1.4440003   0.14040435     11355.26     1000 
    6000   0.45429553   -2.1119722   0.68076186   -1.4312103   0.14198858    11313.899     1000 
    8000   0.42201007   -2.1438857   0.63238209   -1.5115036   0.11951358    11599.274     1000 
   10000   0.43059085   -2.0698375   0.64524039   -1.4245971   0.13185663    11310.374     1000 
   12000   0.44313376      -2.1302   0.66403593   -1.4661641   0.13977189    11294.114     1000 
   14000   0.43995685   -2.0433904   0.65927535   -1.3841151   0.12980681    11240.861     1000 
   16000   0.43872274   -2.0315545   0.65742603   -1.3741285   0.13993697     11153.21     1000 
   18000   0.42511964   -2.0793521   0.63704178   -1.4423103   0.12661667    11263.799     1000 
   20000   0.44055062   -2.0963391    0.6601651    -1.436174   0.12921648    11402.063     1000 
   22000   0.42912924   -2.1306662   0.64305016    -1.487616   0.11897191    11545.994     1000 
   24000   0.43098999   -2.0986289    0.6458385   -1.4527904   0.11730085    11447.824     1000 
   26000   0.44484151   -2.1326924   0.66659501   -1.4660974   0.13015139    11423.797     1000 
   28000   0.43538671   -2.0304035   0.65242698   -1.3779765   0.13506988    11205.555     1000 
   30000   0.46506641   -2.1020556   0.69690201   -1.4051536    0.1331091    11376.778     1000 
   32000   0.46505783   -2.1161569   0.69688916   -1.4192677   0.13559312    11314.707     1000 
   34000   0.42030733   -2.1017781   0.62983053   -1.4719476   0.12495363    11254.237     1000 
   36000   0.44754048   -2.1527461   0.67063941   -1.4821067   0.12726837    11490.813     1000 
   38000   0.43182319   -2.1047058   0.64708704   -1.4576188   0.13535508    11318.676     1000 
   40000   0.44322802    -2.123721   0.66417719   -1.4595438    0.1200958    11480.415     1000 
   42000   0.44073329   -2.1177085   0.66043883   -1.4572697   0.13111625    11422.595     1000 
   44000   0.43550247   -2.0714353   0.65260046   -1.4188349   0.14222857    11281.978     1000 
   46000   0.44705033   -2.0587493   0.66990491   -1.3888444   0.12029508    11450.689     1000 
   48000   0.45604079   -2.1010068   0.68337713   -1.4176297   0.13100194    11356.976     1000 
   50000   0.43367178   -2.1216118   0.64985716   -1.4717546   0.11843754    11436.019     1000 
   52000   0.42593241   -2.0985242   0.63825971   -1.4602645   0.12098116    11444.231     1000 
   54000   0.44579966   -2.0602627   0.66803079   -1.3922319   0.13244128    11330.622     1000 
   56000   0.44306544   -2.1170431   0.66393356   -1.4531095   0.12856831    11351.859     1000 
   58000   0.42751145   -2.1364419    0.6406259    -1.495816   0.12845851     11378.68     1000 
   60000   0.41536492    -2.107544   0.62242433   -1.4851197   0.12838543    11444.152     1000 
   62000   0.44169607   -2.1058849   0.66188156   -1.4440033   0.13706708    11218.073     1000 
   64000   0.43237475   -2.1010231   0.64791357   -1.4531095   0.12887238    11428.047     1000 
   66000   0.43503816   -2.0857877   0.65190469    -1.433883   0.12014511    11356.986     1000 
   68000   0.44252668   -2.1849378   0.66312623   -1.5218116     0.129444    11410.733     1000 
   70000   0.43603121     -2.06444   0.65339277   -1.4110472   0.12848659    11362.313     1000 
   72000   0.42841406   -2.1000116   0.64197847   -1.4580331   0.13668214    11290.975     1000 
   74000   0.45770706   -2.1469903   0.68587403   -1.4611162   0.13741984    11437.605     1000 
   76000   0.47563303   -2.1041293    0.7127361   -1.3913932   0.13324207    11335.028     1000 
   78000   0.44435225   -2.1074666   0.66586185   -1.4416048   0.13149139    11336.778     1000 
   80000    0.4495178   -2.1036216   0.67360242   -1.4300192   0.13340684    11408.778     1000 
   82000   0.43700823   -2.0948058   0.65485684    -1.439949   0.11778619    11369.527     1000 
   84000   0.44218223   -2.0727119   0.66261007   -1.4101018   0.13540921    11319.678     1000 
   86000   0.43028328   -2.0555244    0.6447795   -1.4107449   0.12799245      11307.7     1000 
   88000   0.44349053   -2.0976618   0.66457056   -1.4330912   0.12317124    11413.036     1000 
   90000   0.44325538   -2.0707495   0.66421818   -1.4065313   0.13793897    11270.629     1000 
   92000   0.45563167   -2.1707306   0.68276405   -1.4879665   0.12255165    11481.028     1000 
   94000   0.44157681   -2.1002195   0.66170284   -1.4385167   0.12928074    11438.167     1000 
   96000   0.43462764   -2.0943574   0.65128952   -1.4430679   0.13838206    11249.852     1000 
   98000    0.4210569   -2.0771435   0.63095376   -1.4461898   0.12763195    11350.852     1000 
  100000    0.4557056   -2.1281613   0.68287484   -1.4452865   0.13053957    11344.465     1000 
  102000   0.43621505   -2.1484411   0.65366826   -1.4947728    0.1323722    11358.135     1000 
  104000   0.44139886   -2.1205746   0.66143619   -1.4591384   0.12305981    11435.589     1000 
  106000   0.45500611    -2.100512   0.68182665   -1.4186854   0.13786567    11343.893     1000 
  108000    0.4492215   -2.0625581   0.67315842   -1.3893997   0.12580636    11322.684     1000 
  110000    0.4390932   -2.0378636   0.65798116   -1.3798825   0.12937817    11362.921     1000 
  112000   0.43278196   -2.0673548   0.64852376    -1.418831    0.1216342    11404.375     1000 
  114000   0.43463471   -2.1133066   0.65130011   -1.4620065   0.11884686    11518.312     1000 
  116000   0.45210156   -2.0810668   0.67747419   -1.4035926   0.13486612    11221.731     1000 
  118000   0.42666307   -2.1421738   0.63935461   -1.5028191   0.12226803    11428.555     1000 
  120000   0.44594007   -2.1166499   0.66824119   -1.4484087   0.13322051      11349.5     1000 
  122000   0.44489738    -2.081304   0.66667872   -1.4146253   0.13962281    11277.818     1000 
  124000   0.43847955   -2.0975679    0.6570616   -1.4405063   0.13673836    11283.945     1000 
  126000   0.43372261   -2.1402319   0.64993333   -1.4902986   0.11241099    11490.421     1000 
  128000   0.44385657   -2.0813159   0.66511907   -1.4161968   0.13979563    11191.156     1000 
  130000   0.42978616   -2.0731229   0.64403457   -1.4290883   0.12398307    11358.246     1000 
  132000   0.44380773   -2.0943788   0.66504588   -1.4293329   0.13220107     11291.23     1000 
  134000    0.4560719   -2.0905481   0.68342375   -1.4071244   0.12878313    11333.792     1000 
  136000   0.43263192   -2.1364413   0.64829894   -1.4881424   0.12786611    11468.244     1000 
  138000   0.44378207   -2.1057659   0.66500743   -1.4407584   0.13141284     11371.71     1000 
  140000   0.43408471   -2.0569752   0.65047594   -1.4064992   0.13939474    11266.145     1000 
  142000   0.44478063   -2.0906904   0.66650378   -1.4241866   0.12354247    11357.073     1000 
  144000   0.43605372   -2.0448784    0.6534265   -1.3914519   0.12431041    11275.614     1000 
  146000   0.43329879    -2.137157   0.64929823   -1.4878587   0.12183987     11426.25     1000 
  148000   0.43359743   -2.0972364   0.64974575   -1.4474907   0.14399049    11268.526     1000 
  150000   0.43523353   -2.0985667   0.65219744   -1.4463692   0.11803678    11356.194     1000 
  152000   0.44129376   -2.0415917    0.6612787    -1.380313   0.12152377    11388.027     1000 
  154000   0.44204755   -2.0956502   0.66240825   -1.4332419    0.1276704    11454.663     1000 
  156000   0.45576091   -2.1027401   0.68295772   -1.4197824   0.12236464    11611.643     1000 
  158000   0.44242146   -2.0861315   0.66296856    -1.423163   0.13890547    11375.434     1000 
  160000   0.44070241   -2.0895101   0.66039257   -1.4291175   0.13185098    11394.513     1000 
  162000    0.4421213    -2.077969   0.66251876   -1.4154502   0.15018021    11142.792     1000 
  164000   0.44296554   -2.1075319   0.66378386    -1.443748   0.14211889    11300.081     1000 
  166000   0.44567359   -2.0788064   0.66784188   -1.4109645   0.13479157    11384.072     1000 
  168000   0.44624142   -2.1157352   0.66869277   -1.4470424   0.11981298    11538.951     1000 
  170000   0.43483515   -2.0929121   0.65160048   -1.4413116   0.12693881    11448.877     1000 
  172000   0.44921058   -2.1333192   0.67314206   -1.4601771   0.12896282    11446.962     1000 
  174000   0.42720585   -2.0779764   0.64016796   -1.4378084     0.126536    11453.592     1000 
  176000   0.45117478     -2.06356   0.67608541   -1.3874746   0.14165847    11205.663     1000 
  178000   0.45731294   -2.1003637   0.68528344   -1.4150803    0.1316156    11507.597     1000 
  180000    0.4392199   -2.0976617   0.65817102   -1.4394907   0.13048073    11335.507     1000 
  182000   0.44970651   -2.1140866    0.6738852   -1.4402014    0.1167639    11449.604     1000 
  184000    0.4463547   -2.0688284   0.66886252   -1.3999659    0.1336857    11353.371     1000 
  186000   0.43260814   -2.0582669    0.6482633   -1.4100036   0.12013423    11366.895     1000 
  188000   0.45640327   -2.0928968    0.6839203   -1.4089765   0.13344953    11246.801     1000 
  190000   0.42548644   -2.1389266   0.63759143   -1.5013352   0.11934099    11442.411     1000 
  192000   0.44617674    -2.030015   0.66859584   -1.3614191   0.14251681    11172.037     1000 
  194000    0.4251712    -2.124083   0.63711904    -1.486964   0.13180632    11386.527     1000 
  196000   0.44275315   -2.0907407    0.6634656   -1.4272751   0.11841134    11402.873     1000 
  198000   0.45217487   -2.0725531   0.67758405   -1.3949691   0.13216886     11281.98     1000 
  200000   0.43937798   -2.0822692    0.6584079   -1.4238613   0.12823997    11456.613     1000 
  202000   0.43533304   -2.1041066   0.65234656     -1.45176    0.1380419    11264.561     1000 
  204000   0.45215221   -2.1388918   0.67755008   -1.4613417   0.13299279    11368.121     1000 
  206000   0.44780143   -2.1070623   0.67103044   -1.4360318   0.13575318    11344.926     1000 
  208000   0.45553052   -2.0772018   0.68261249   -1.3945893   0.13428889    11415.945     1000 
  210000   0.44085208   -2.1037273   0.66061684   -1.4431104   0.13513854      11387.1     1000 
  212000   0.45043509   -2.1045514   0.67497698   -1.4295744   0.13132737    11359.458     1000 
  214000    0.4426868   -2.0816044   0.66336616   -1.4182383   0.13888256    11242.917     1000 
  216000    0.4416932   -2.1333704   0.66187727   -1.4714932   0.12467642    11465.875     1000 
  218000   0.46384458   -2.1397462    0.6950711   -1.4446751   0.12078376    11599.111     1000 
  220000   0.45283757   -2.0995194    0.6785771   -1.4209423   0.12797221    11335.697     1000 
  222000   0.44514743   -2.0881545   0.66705343    -1.421101   0.13091633    11248.256     1000 
  224000   0.44599881   -2.1482672   0.66832922    -1.479938   0.13157497    11436.196     1000 
  226000   0.45722213   -2.1081869   0.68514737   -1.4230395   0.13249398     11307.39     1000 
  228000   0.43882763   -2.0849552   0.65758321    -1.427372   0.12820396    11406.232     1000 
  230000   0.45105498   -2.1305168   0.67590589   -1.4546109   0.14260458     11232.13     1000 
  232000   0.45422635   -2.0834347   0.68065819   -1.4027765   0.12262032    11408.053     1000 
  234000   0.43996658     -2.12045   0.65928991   -1.4611601   0.12969961    11369.731     1000 
  236000   0.45728711   -2.0863824   0.68524474   -1.4011376   0.13032747    11298.422     1000 
  238000   0.44794762   -2.1095502   0.67124951   -1.4383007   0.12570993    11300.412     1000 
  240000   0.44835559   -2.0835595   0.67186086   -1.4116986   0.13005899    11358.498     1000 
  242000    0.4395651   -2.1049709    0.6586883   -1.4462826   0.13218984    11307.966     1000 
  244000   0.44661691   -2.0830623   0.66925543   -1.4138068   0.12442734     11402.11     1000 
  246000   0.44232007   -2.1047027   0.66281662   -1.4418861   0.14619891    11315.121     1000 
  248000   0.44017033   -2.0979136   0.65959523   -1.4383183   0.11968119    11451.214     1000 
  250000   0.43394196   -2.1264324   0.65026202   -1.4761704   0.11835734    11558.557     1000 
  252000   0.43493419   -2.1385264   0.65174888   -1.4867775   0.12157402    11371.139     1000 
  254000   0.46475528   -2.1141373   0.69643578   -1.4177015   0.12366368    11393.393     1000 
  256000   0.42110274    -2.106221   0.63102245   -1.4751986   0.12910921    11397.803     1000 
  258000   0.44373129   -2.1192143   0.66493134    -1.454283   0.12819398    11415.335     1000 
  260000   0.42675197   -2.0715425   0.63948782   -1.4320547   0.11738202    11396.963     1000 
  262000   0.45276652   -2.0657674   0.67847062   -1.3872968    0.1239432    11406.166     1000 
  264000   0.43714526   -2.0923096   0.65506217   -1.4372474   0.11873822    11399.112     1000 
  266000    0.4421549   -2.0858887   0.66256912   -1.4233196   0.13336224    11321.519     1000 
  268000   0.44421809    -2.138901    0.6656608   -1.4732402   0.13748807    11417.674     1000 
  270000   0.44839478   -2.1302721   0.67191958   -1.4583525    0.1354049    11320.561     1000 
  272000   0.44711916   -2.0596826   0.67000806   -1.3896746   0.13156491    11302.611     1000 
  274000   0.44081956   -2.1504492   0.66056812   -1.4898811   0.13103172    11386.992     1000 
  276000   0.45850084   -2.1102831    0.6870635   -1.4232196   0.13433562    11330.448     1000 
  278000   0.44254223   -2.0373277   0.66314953   -1.3741782   0.13671021    11276.325     1000 
  280000   0.44302724   -2.1033694   0.66387632   -1.4394931   0.12571402    11448.013     1000 
  282000   0.43766333   -2.0307234    0.6558385   -1.3748849   0.13423811    11167.495     1000 
  284000   0.44797782   -2.1228812   0.67129476   -1.4515864   0.14698795    11306.331     1000 
  286000   0.43987413   -2.0939679   0.65915138   -1.4348165   0.13252468    11333.172     1000 
  288000    0.4333531   -2.1079523   0.64937962   -1.4585727   0.13977539    11212.696     1000 
  290000   0.43496294   -2.0915904   0.65179196   -1.4397985   0.13531765    11377.367     1000 
  292000   0.43292677   -2.0958565   0.64874076   -1.4471157   0.11978564    11415.378     1000 
  294000    0.4437783   -2.0936209   0.66500178   -1.4286192   0.12813368    11417.519     1000 
  296000   0.45291357   -2.0811636   0.67869098   -1.4024726   0.12535796    11503.829     1000 
  298000   0.45919145   -2.1211784   0.68809839   -1.4330801   0.13445218    11396.109     1000 
  300000   0.41812466   -2.1009285    0.6265598   -1.4743687   0.12548462     11278.55     1000 
  302000   0.44994213   -2.1131825   0.67423828   -1.4389442   0.13772056    11309.888     1000 
  304000   0.43051193   -2.0857427   0.64512212   -1.4406206   0.13855778    11277.968     1000 
  306000   0.44580696   -2.1268758   0.66804173    -1.458834   0.12924069    11445.667     1000 
  308000    0.4443724   -2.0696561   0.66589204   -1.4037641   0.12517224    11361.005     1000 
  310000   0.44685577   -2.0913799   0.66961336   -1.4217666   0.14022817    11309.636     1000 
  312000   0.43317366   -2.1028782   0.64911073   -1.4537674   0.13958131     11234.28     1000 
  314000   0.44086331   -2.1404642   0.66063367   -1.4798305   0.12646105    11440.375     1000 
  316000   0.43928432     -2.04894   0.65826755   -1.3906724   0.12751092    11345.804     1000 
  318000   0.43168346   -2.1290338   0.64687766   -1.4821561   0.12995454    11358.848     1000 
  320000   0.44820304   -2.0452842   0.67163226   -1.3736519   0.14555973    11316.168     1000 
  322000   0.46164269   -2.1161455   0.69177157    -1.424374    0.1348825    11403.294     1000 
  324000   0.43769046   -2.1600219   0.65587915   -1.5041428   0.12841047    11417.007     1000 
  326000   0.44717959   -2.0601515   0.67009862   -1.3900529   0.13208946    11419.585     1000 
  328000   0.43773778   -2.1288887   0.65595006   -1.4729386    0.1354929    11313.368     1000 
  330000   0.44616515   -2.0730935   0.66857848   -1.4045151   0.13861539    11256.088     1000 
  332000   0.42865913   -2.0662178    0.6423457   -1.4238721   0.12972744    11266.961     1000 
  334000   0.43418391    -2.107442   0.65062458   -1.4568174   0.11810351     11439.14     1000 
  336000   0.44153008    -2.094239   0.66163282   -1.4326061   0.13659107    11338.198     1000 
  338000   0.43150601    -2.073884   0.64661176   -1.4272723   0.12584668    11414.102     1000 
  340000   0.44380171    -2.057397   0.66503687   -1.3923601   0.12277341    11432.764     1000 
  342000   0.43658008    -2.128626   0.65421525   -1.4744107   0.13422582    11362.613     1000 
  344000   0.42242978   -2.0948481   0.63301102   -1.4618371   0.14518439    11263.318     1000 
  346000   0.43044198   -2.1460033   0.64501731    -1.500986   0.13319758    11396.014     1000 
  348000   0.44237747   -2.1188113   0.66290264   -1.4559087   0.12799147    11359.448     1000 
  350000   0.43717954   -2.1156015   0.65511354   -1.4604879   0.12559072    11465.149     1000 
  352000   0.43186892   -2.1251428   0.64715558   -1.4779872   0.12575519    11314.747     1000 
  354000   0.43616385   -2.0975194   0.65359154   -1.4439278    0.1240377     11347.83     1000 
  356000   0.43628102   -2.0952858   0.65376711   -1.4415187   0.13496022    11346.843     1000 
  358000   0.41805618   -2.0847878   0.62645719   -1.4583307   0.13517611    11379.101     1000 
  360000   0.43058901   -2.1028744   0.64523764   -1.4576367   0.13344436    11315.209     1000 
  362000   0.41943965   -2.1418693   0.62853031    -1.513339    0.1239687    11421.932     1000 
  364000   0.44865024   -2.1055497   0.67230239   -1.4332473   0.13194722    11303.391     1000 
  366000   0.42340375   -2.1070037   0.63447052   -1.4725332   0.11386183    11498.748     1000 
  368000   0.43957413   -2.0750738   0.65870183    -1.416372   0.12925441    11417.261     1000 
  370000    0.4338209    -2.102883   0.65008062   -1.4528024   0.13355623    11416.475     1000 
  372000    0.4457591   -2.0789721   0.66797001   -1.4110021   0.12574993    11418.831     1000 
  374000   0.43285516   -2.0959373   0.64863346   -1.4473038   0.13258195    11362.595     1000 
  376000   0.43965879    -2.106488   0.65882869   -1.4476594   0.13301236    11226.998     1000 
  378000   0.44303253   -2.1274464   0.66388425   -1.4635621   0.14546067    11264.021     1000 
  380000   0.44673617   -2.0497432   0.66943414    -1.380309   0.14339019    11216.194     1000 
  382000   0.44242104   -2.1489497   0.66296793   -1.4859818   0.13097516    11418.729     1000 
  384000   0.43446555   -2.1409793   0.65104663   -1.4899326   0.12841342    11449.646     1000 
  386000   0.42592548   -2.0760187   0.63824934   -1.4377693   0.13078567    11335.902     1000 
  388000   0.44401529    -2.097473   0.66535691   -1.4321161    0.1263358    11393.884     1000 
  390000   0.43366978   -2.1073926   0.64985417   -1.4575385   0.12719769      11400.4     1000 
  392000   0.43886158   -2.1092875   0.65763408   -1.4516534   0.13868158    11485.486     1000 
  394000   0.43960466   -2.1358525   0.65874758    -1.477105   0.11363138    11559.958     1000 
  396000   0.42294542   -2.0579142   0.63378371   -1.4241305   0.12019201    11422.252     1000 
  398000   0.44343322   -2.0429712   0.66448468   -1.3784866   0.12975401    11366.028     1000 
  400000   0.43125177   -2.0862385   0.64623078   -1.4400077   0.14223932    11273.246     1000 
  402000   0.43031452   -2.0768613   0.64482631    -1.432035   0.13917344    11300.531     1000 
  404000   0.44603952   -2.1349199   0.66839021   -1.4665297   0.13464263    11388.469     1000 
  406000    0.4412898   -2.1148663   0.66127276   -1.4535935   0.13129593    11339.871     1000 
  408000   0.44782013   -2.0956679   0.67105847   -1.4246095   0.13091291    11431.482     1000 
  410000   0.43496028   -2.1041241   0.65178797   -1.4523362   0.13059102    11335.735     1000 
  412000   0.43069046   -2.1359782   0.64538966   -1.4905885    0.1265996    11416.629     1000 
  414000   0.43862218     -2.11606   0.65727534   -1.4587846   0.12231081    11315.702     1000 
  416000   0.43984303   -2.0776448   0.65910478   -1.4185401   0.13312569    11343.726     1000 
  418000   0.42984696   -2.1290321   0.64412567   -1.4849064   0.11707228    11653.064     1000 
  420000   0.46858373   -2.1239263   0.70217272   -1.4217536   0.12578264    11468.646     1000 
  422000   0.41271352   -2.0996937   0.61845121   -1.4812425   0.11503175    11579.846     1000 
  424000   0.42590125   -2.0827352   0.63821303   -1.4445221   0.14736776    11161.261     1000 
  426000   0.43115372   -2.1163541   0.64608385   -1.4702702   0.11114576    11553.856     1000 
  428000   0.43958874   -2.0464157   0.65872372    -1.387692   0.13825813    11352.002     1000 
  430000   0.42831465   -2.1047393   0.64182951   -1.4629098   0.13257114    11376.201     1000 
  432000   0.45065198   -2.0824261   0.67530198   -1.4071241   0.12212027    11449.543     1000 
  434000   0.44413026   -2.0994386   0.66552919   -1.4339094   0.12569098    11523.072     1000 
  436000   0.44185312    -2.092708    0.6621169   -1.4305911    0.1299338    11359.591     1000 
  438000   0.43988446   -2.1131053   0.65916687   -1.4539384   0.13097546     11332.51     1000 
  440000   0.45376675   -2.1339267   0.67996948   -1.4539572   0.14994943    11288.184     1000 
  442000   0.43494105   -2.0722618   0.65175916   -1.4205027   0.12182531    11403.012     1000 
  444000   0.42701275   -2.0954151    0.6398786   -1.4555365   0.13058622    11340.838     1000 
  446000    0.4351043   -2.0732065   0.65200379   -1.4212027   0.13139013    11212.758     1000 
  448000   0.45122534   -2.0578554   0.67616117   -1.3816942   0.13310595    11311.811     1000 
  450000   0.42578813    -2.071951   0.63804352   -1.4339075   0.13088279    11331.362     1000 
  452000   0.42202833    -2.106967   0.63240946   -1.4745575   0.13179629    11340.212     1000 
  454000   0.43794912   -2.0895477   0.65626675    -1.433281   0.13711185    11175.058     1000 
  456000   0.42835912   -2.0627933   0.64189614   -1.4208972   0.13818655     11230.13     1000 
  458000   0.45890483   -2.1405706   0.68766889   -1.4529017   0.12301779    11426.699     1000 
  460000   0.45475753   -2.1245523   0.68145415   -1.4430981    0.1237996    11436.101     1000 
  462000   0.44134063   -2.0631102   0.66134894   -1.4017612   0.12033495    11460.502     1000 
  464000   0.44571745   -2.0933731    0.6679076   -1.4254655    0.1263093     11448.02     1000 
  466000    0.4410595    -2.148151   0.66092766   -1.4872233   0.11690563     11543.68     1000 
  468000   0.45155505   -2.1256495   0.67665524   -1.4489943   0.14287112    11366.507     1000 
  470000   0.45060657   -2.1049684   0.67523395   -1.4297344   0.13057357    11411.588     1000 
  472000   0.42954558   -2.1186554   0.64367405   -1.4749814   0.13913779    11339.494     1000 
  474000   0.43063627   -2.1077883   0.64530844   -1.4624799   0.12764812    11407.831     1000 
  476000   0.44268673   -2.0601615   0.66336606   -1.3967954   0.13901708    11257.709     1000 
  478000   0.46921129   -2.1055321   0.70311312    -1.402419   0.11992762    11399.046     1000 
  480000    0.4278529    -2.101446   0.64113758   -1.4603084   0.13644388    11365.378     1000 
  482000   0.44887747   -2.1019596   0.67264289   -1.4293167   0.13635944    11330.694     1000 
  484000   0.45134429   -2.0663999   0.67633941   -1.3900604    0.1252553    11283.918     1000 
  486000   0.44500724   -2.1252603   0.66684335    -1.458417   0.13789293    11257.492     1000 
  488000   0.43603445   -2.1031597   0.65339763    -1.449762   0.12820266    11393.053     1000 
  490000   0.42572289   -2.0857041   0.63794575   -1.4477583   0.13572467    11364.213     1000 
  492000   0.45599231   -2.0619909   0.68330447   -1.3786864   0.13048342    11302.801     1000 
  494000   0.45255065   -2.1276759   0.67814714   -1.4495288   0.12045944    11390.003     1000 
  496000   0.42936065   -2.0921567   0.64339693   -1.4487598   0.12585472    11313.556     1000 
  498000    0.4323439   -2.1154399   0.64786734   -1.4675726   0.12974771    11360.411     1000 
  500000   0.43331699   -2.0998076   0.64932551   -1.4504821   0.12620392    11365.076     1000 
  502000    0.4161293   -2.1199884   0.62356976   -1.4964186   0.12676367     11375.47     1000 
  504000   0.42468666   -2.1079895   0.63639297   -1.4715966   0.13296098    11297.905     1000 
  506000   0.44856661    -2.063985   0.67217707   -1.3918079   0.13277497    11341.555     1000 
  508000   0.44294033   -2.1053085   0.66374609   -1.4415625   0.13390386    11352.005     1000 
  510000   0.45191756    -2.141692   0.67719846   -1.4644936   0.13032332    11426.652     1000 
  512000   0.43109951   -2.1049007   0.64600262   -1.4588981   0.12086364     11498.03     1000 
  514000   0.42957167   -2.0784434   0.64371315   -1.4347303   0.13162948    11349.891     1000 
  516000   0.43311372    -2.129301   0.64902091     -1.48028    0.1378849    11219.163     1000 
  518000   0.44872978   -2.0925448   0.67242158   -1.4201232   0.12741678    11416.963     1000 
  520000   0.44926103   -2.1110849   0.67321765   -1.4378672   0.13649906    11270.608     1000 
  522000   0.43611437   -2.0898682   0.65351738   -1.4363509   0.11975114    11400.607     1000 
  524000   0.43509512    -2.122586   0.65199004    -1.470596   0.12991178    11395.912     1000 
  526000   0.44959821   -2.0491861   0.67372293   -1.3754632   0.12669481    11440.868     1000 
  528000   0.43813221   -2.0791472   0.65654112   -1.4226061   0.12709208    11380.524     1000 
  530000   0.44202218   -2.0990154   0.66237023   -1.4366452   0.13096247    11474.706     1000 
  532000   0.45622711   -2.1710503   0.68365633   -1.4873939   0.12939471    11379.159     1000 
  534000   0.43803045   -2.0835104   0.65638863   -1.4271218   0.12935426    11340.884     1000 
  536000   0.44582665   -2.0914556   0.66807124   -1.4233844   0.12597562    11443.594     1000 
  538000   0.46082865   -2.0842505   0.69055173   -1.3936988   0.14235573    11349.326     1000 
  540000   0.44180088   -2.0900921   0.66203862   -1.4280535   0.13179581    11364.961     1000 
  542000   0.43353925   -2.0920361   0.64965856   -1.4423775   0.13031185    11331.804     1000 
  544000   0.43016053   -2.1373383   0.64459555   -1.4927428   0.11531069    11488.768     1000 
  546000   0.44643814   -2.1365622   0.66898755   -1.4675746   0.12483863    11338.218     1000 
  548000   0.43315148   -2.1035083   0.64907749   -1.4544309   0.12935958    11294.057     1000 
  550000   0.44114265   -2.0619924   0.66105226   -1.4009401   0.13232122    11328.003     1000 
  552000   0.43356886    -2.090395   0.64970293   -1.4406921   0.12815688    11443.627     1000 
  554000   0.44209009   -2.0589573   0.66247201   -1.3964853   0.13828013    11326.386     1000 
  556000   0.44143362    -2.080371   0.66148828   -1.4188827   0.12464907    11369.324     1000 
  558000   0.44271763   -2.1108258   0.66341237   -1.4474134    0.1294098    11323.561     1000 
  560000    0.4330728   -2.0719169   0.64895959   -1.4229573   0.12938769    11307.192     1000 
  562000    0.4436611   -2.0619741   0.66482616   -1.3971479   0.12884524    11276.504     1000 
  564000   0.42824429   -2.1508905   0.64172406   -1.5091664   0.12586356    11549.518     1000 
  566000   0.42394423   -2.1365824   0.63528043   -1.5013019   0.12311233    11456.574     1000 
  568000   0.43036928   -2.0643317   0.64490836   -1.4194234   0.13209911    11309.067     1000 
  570000   0.44848189   -2.0253171   0.67205011    -1.353267   0.13435859    11261.365     1000 
  572000   0.44140948   -2.1036815   0.66145211   -1.4422294   0.12162751    11450.523     1000 
  574000   0.45707147   -2.0509629   0.68492161   -1.3660413   0.15475427     11137.01     1000 
  576000   0.44122464   -2.0596349   0.66117512   -1.3984597   0.12882348    11247.027     1000 
  578000   0.44011826   -2.1100022   0.65951721    -1.450485   0.12796439    11353.143     1000 
  580000     0.444109    -2.057918   0.66549734   -1.3924207   0.14680938    11210.523     1000 
  582000   0.45231684   -2.0982592   0.67779678   -1.4204625   0.13725127    11294.335     1000 
  584000    0.4275147   -2.0621172   0.64063077   -1.4214865   0.13631533    11284.321     1000 
  586000   0.43340736   -2.0555403   0.64946093   -1.4060793   0.13141208    11346.607     1000 
  588000   0.46468067   -2.0793123   0.69632398   -1.3829883   0.13962229    11324.163     1000 
  590000   0.43675865   -2.0661621   0.65448284   -1.4116792   0.12930789    11259.646     1000 
  592000   0.44469389   -2.1794091   0.66637379   -1.5130353    0.1264691    11478.139     1000 
  594000   0.44388738   -2.1190454   0.66516524   -1.4538801   0.12642252    11339.438     1000 
  596000   0.45231575   -2.1292313   0.67779515   -1.4514362   0.12553323    11512.224     1000 
  598000   0.44453128   -2.0946823   0.66613012   -1.4285522   0.13363066    11394.142     1000 
  600000   0.41966378   -2.1037482   0.62886617   -1.4748821   0.13628779    11403.873     1000 
  602000   0.42511167   -2.1685999   0.63702984     -1.53157   0.12421856    11395.177     1000 
  604000   0.43866719   -2.0994449   0.65734279   -1.4421021   0.12326899    11411.065     1000 
  606000   0.43812528   -2.0956612   0.65653073   -1.4391304   0.13270617    11304.501     1000 
  608000   0.45165997   -2.1170536   0.67681247   -1.4402411   0.12445228    11449.536     1000 
  610000   0.42087655   -2.1582254   0.63068351   -1.5275419    0.1306616    11386.421     1000 
  612000   0.44002999   -2.0741673   0.65938494   -1.4147824   0.12999793    11370.177     1000 
  614000   0.45769758   -2.1054004   0.68585982   -1.4195405   0.13723649    11391.066     1000 
  616000   0.43359414   -2.0529751   0.64974082   -1.4032343   0.12901419    11368.147     1000 
  618000   0.42228908   -2.0573925   0.63280018   -1.4245923   0.12683037    11267.902     1000 
  620000   0.43924253   -2.1502518   0.65820494   -1.4920469   0.13185772    11456.888     1000 
  622000   0.43476306   -2.1100574   0.65149245    -1.458565   0.13585553    11327.143     1000 
  624000   0.41982099   -2.0996709   0.62910175   -1.4705691   0.11642288    11545.069     1000 
  626000   0.45535251   -2.1156772   0.68234573   -1.4333314   0.14207266    11404.431     1000 
  628000   0.44045275   -2.1641623   0.66001845   -1.5041439   0.13392076    11309.075     1000 
  630000    0.4356747   -2.0680461   0.65285854   -1.4151875   0.13462526    11289.681     1000 
  632000   0.42582685   -2.0749881   0.63810154   -1.4368866   0.13412097    11457.655     1000 
  634000   0.45355177   -2.0981842   0.67964733   -1.4185369   0.12536032     11465.65     1000 
  636000   0.44599949   -2.0662811   0.66833024   -1.3979509   0.13861323    11242.811     1000 
  638000   0.42863748   -2.1016882   0.64231327   -1.4593749    0.1292771    11420.406     1000 
  640000   0.42607372   -2.1208897   0.63847148   -1.4824183   0.13611189     11346.17     1000 
  642000   0.44794907   -2.0905693   0.67125168   -1.4193176   0.12440538    11362.464     1000 
  644000   0.44501097   -2.1140651   0.66684894   -1.4472162   0.12621037    11483.352     1000 
  646000   0.45091666   -2.0667121   0.67569861   -1.3910135   0.13063666    11325.604     1000 
  648000   0.44005138   -2.0703921     0.659417   -1.4109751   0.12515677    11332.717     1000 
  650000   0.44484158   -2.0912345   0.66659511   -1.4246394   0.11525803    11424.161     1000 
  652000    0.4283224    -2.050015   0.64184112   -1.4081739   0.13143579    11281.046     1000 
  654000   0.44547135   -2.0924866   0.66753882   -1.4249478    0.1257606    11444.275     1000 
  656000   0.44405903    -2.083411   0.66542246   -1.4179885   0.13891138    11239.074     1000 
  658000   0.42907415   -2.0711017   0.64296761   -1.4281341   0.13839894    11181.911     1000 
  660000   0.43947394   -2.1169725    0.6585517   -1.4584208   0.14277806     11287.89     1000 
  662000   0.45428585   -2.1106064   0.68074734    -1.429859   0.13286601    11421.239     1000 
  664000   0.44838083   -2.0882391   0.67189867   -1.4163405   0.12836546    11468.668     1000 
  666000   0.44271119   -2.0848623   0.66340271   -1.4214596   0.12762346     11330.86     1000 
  668000   0.43373632   -2.1132089   0.64995387    -1.463255   0.12965092    11440.202     1000 
  670000   0.44531852   -2.0679891   0.66730981   -1.4006793   0.14756388    11243.153     1000 
  672000   0.44536348   -2.1124294   0.66737717   -1.4450522    0.1249134      11427.5     1000 
  674000   0.47027784   -2.1067667   0.70471134   -1.4020554   0.13974623    11281.951     1000 
  676000   0.42729385   -2.0818001   0.64029984   -1.4415003    0.1319116    11315.593     1000 
  678000   0.44022653    -2.074142   0.65967945   -1.4144626   0.13419569    11301.165     1000 
  680000   0.40834576   -2.0974043   0.61190613   -1.4854981   0.13531347    11298.203     1000 
  682000   0.45437508   -2.1190475   0.68088105   -1.4381664   0.13312654    11351.228     1000 
  684000    0.4512436   -2.0914099   0.67618854   -1.4152214   0.12003898    11523.324     1000 
  686000     0.425632    -2.103885   0.63780956   -1.4660754   0.13976329    11293.942     1000 
  688000   0.44354061   -2.0958197    0.6646456   -1.4311741   0.13605554    11428.068     1000 
  690000    0.4665332   -2.1472971       0.6991   -1.4481971   0.11015655    11565.391     1000 
  692000   0.44329116   -2.1300952    0.6642718   -1.4658234   0.12163746    11418.482     1000 
  694000   0.42817136   -2.0525085   0.64161478   -1.4108938   0.13138755    11335.345     1000 
  696000   0.45327344   -2.0981498   0.67923025   -1.4189195   0.13424064    11289.485     1000 
  698000   0.43676354   -2.0680385   0.65449016   -1.4135483   0.12173582    11402.581     1000 
  700000   0.44431372   -2.1192703   0.66580411   -1.4534662   0.12887304    11417.342     1000 
  702000   0.45004609   -2.0623679   0.67439407   -1.3879738   0.13175981    11272.962     1000 
  704000   0.43023998    -2.111859    0.6447146   -1.4671444   0.13668166    11326.555     1000 
  706000   0.45499722   -2.0835984   0.68181333    -1.401785   0.14056443    11278.715     1000 
  708000    0.4365597   -2.0925993   0.65418471   -1.4384146   0.13205534    11418.863     1000 
  710000   0.44032884   -2.1557067   0.65983277   -1.4958739   0.11880782    11458.414     1000 
  712000   0.47807337   -2.1187767   0.71639295   -1.4023837   0.12727841    11453.514     1000 
  714000   0.44757293    -2.093936   0.67068803   -1.4232479    0.1318437    11402.897     1000 
  716000    0.4449849   -2.0824827   0.66680987   -1.4156728   0.13518222    11347.419     1000 
  718000   0.43699022   -2.1087198   0.65482985   -1.4538899   0.13907894    11298.871     1000 
  720000   0.44080665   -2.1014905   0.66054876   -1.4409417    0.1184339    11422.186     1000 
  722000   0.44280945    -2.057105   0.66354997   -1.3935551   0.11760841    11473.674     1000 
  724000    0.4155481   -2.0957332   0.62269883   -1.4730344   0.12692078    11462.283     1000 
  726000     0.444937   -2.1070333   0.66673809   -1.4402952   0.13371083    11373.236     1000 
  728000   0.43905828   -2.0886584   0.65792883   -1.4307295   0.14159109    11244.213     1000 
  730000   0.44748609   -2.0655275   0.67055791   -1.3949696   0.13649372    11228.726     1000 
  732000   0.44338012   -2.0916297   0.66440511   -1.4272246     0.129303    11436.084     1000 
  734000   0.43962955   -2.1262555   0.65878488   -1.4674707   0.14717874    11291.417     1000 
  736000   0.41777355   -2.1314134   0.62603367   -1.5053798   0.12789018    11429.031     1000 
  738000   0.44997061   -2.1006816   0.67428097   -1.4264006   0.11557862    11453.975     1000 
  740000    0.4365272   -2.1330036   0.65413601   -1.4788676   0.12548915    11423.662     1000 
  742000   0.45244283   -2.0782875   0.67798559   -1.4003019   0.13210747    11377.619     1000 
  744000   0.44194454   -2.1326094   0.66225389   -1.4703555   0.12638848    11327.967     1000 
  746000   0.43502793   -2.1089862   0.65188936   -1.4570968   0.12985657    11300.647     1000 
  748000    0.4422523   -2.0815344   0.66271508   -1.4188193   0.11449061    11487.692     1000 
  750000   0.41122551   -2.0732114   0.61622143     -1.45699   0.13009492    11319.596     1000 
  752000   0.45618518   -2.1181609   0.68359349   -1.4345674   0.14377144    11291.441     1000 
  754000   0.46297626   -2.1035329   0.69376992    -1.409763   0.12772292    11428.553     1000 
  756000   0.44442911   -2.0757317   0.66597702   -1.4097547   0.13332309    11424.082     1000 
  758000   0.44480666   -2.0666575   0.66654279   -1.4001147   0.12271737    11442.836     1000 
  760000   0.44715508   -2.0869045   0.67006189   -1.4168426   0.12194786    11399.496     1000 
  762000   0.42905043   -2.1232222   0.64293207   -1.4802902   0.12333601    11417.153     1000 
  764000   0.44677609   -2.0664055   0.66949397   -1.3969115   0.13018283    11371.254     1000 
  766000   0.43644011   -2.0854054    0.6540055   -1.4313999   0.13929927    11357.735     1000 
  768000   0.43544348   -2.0890428   0.65251206   -1.4365307   0.14841972    11260.259     1000 
  770000   0.45185723   -2.1092304   0.67710807   -1.4321223   0.14084332    11308.285     1000 
  772000   0.44014062   -2.0972285   0.65955072   -1.4376778    0.1333499    11384.261     1000 
  774000    0.4457789   -2.1020242   0.66799968   -1.4340246   0.12442974    11390.039     1000 
  776000   0.43594126   -2.1021087   0.65325798   -1.4488507   0.14407509    11233.768     1000 
  778000   0.45124434   -2.0931569   0.67618965   -1.4169673   0.13476356    11294.913     1000 
  780000   0.43747619     -2.10359   0.65555807   -1.4480319   0.11743439     11418.32     1000 
  782000   0.44969734   -2.1149833   0.67387147   -1.4411119   0.13852804     11276.52     1000 
  784000   0.44303433   -2.1430024   0.66388694   -1.4791154   0.12343039    11483.187     1000 
  786000   0.44609542   -2.1215202   0.66847398   -1.4530462   0.12772582    11422.063     1000 
  788000   0.42445347   -2.0806434   0.63604353   -1.4445999   0.13904203    11309.038     1000 
  790000   0.43046688    -2.130585   0.64505463   -1.4855304   0.13395493    11380.197     1000 
  792000   0.41061761   -2.0672309   0.61531049   -1.4519205   0.14317187    11263.406     1000 
  794000   0.45839302   -2.0938352   0.68690194   -1.4069332   0.11484165    11534.659     1000 
  796000   0.44096369   -2.0457158    0.6607841   -1.3849317    0.1374898     11234.63     1000 
  798000   0.44848418   -2.0710045   0.67205355    -1.398951   0.12076195    11464.996     1000 
  800000   0.44339251   -2.1041074   0.66442367   -1.4396838   0.12480499    11424.878     1000 
  802000   0.45712789   -2.0956393   0.68500614   -1.4106332   0.14943045    11195.736     1000 
  804000    0.4501294   -2.0582702   0.67451891   -1.3837512   0.12717564    11372.919     1000 
  806000   0.42538733   -2.0771996   0.63744292   -1.4397567   0.12381537    11410.345     1000 
  808000    0.4545755   -2.0867477   0.68118139   -1.4055663   0.12032883    11437.675     1000 
  810000   0.43028722   -2.1341287   0.64478539   -1.4893433   0.12973555    11371.291     1000 
  812000   0.44154807   -2.1091882   0.66165978   -1.4475285   0.13181385    11444.284     1000 
  814000    0.4321037   -2.0730294   0.64750739    -1.425522   0.13533984    11259.774     1000 
  816000   0.44567254   -2.1294555    0.6678403   -1.4616152    0.1250796    11526.897     1000 
  818000   0.43877295   -2.1241472   0.65750126   -1.4666459   0.13152905    11327.149     1000 
  820000   0.43864068   -2.1305984   0.65730306   -1.4732954   0.13478024    11288.665     1000 
  822000   0.42307186   -2.0682649   0.63397318   -1.4342917   0.13098493    11236.677     1000 
  824000   0.44346955   -2.1034909   0.66453911   -1.4389518   0.13540435    11360.731     1000 
  826000   0.44076363    -2.111978    0.6604843   -1.4514937   0.12200593    11479.569     1000 
  828000   0.44076471   -2.0663178   0.66048592   -1.4058318    0.1398724    11264.992     1000 
  830000   0.44071215   -2.0800441   0.66040715    -1.419637   0.13367693     11282.87     1000 
  832000   0.44562985    -2.095661   0.66777633   -1.4278847   0.11179608    11569.562     1000 
  834000   0.43418557   -2.0884637   0.65062708   -1.4378366   0.13693712    11367.225     1000 
  836000   0.44010765   -2.0538105   0.65950131   -1.3943092   0.13687547    11265.643     1000 
  838000   0.43697224   -2.1031931    0.6548029   -1.4483902    0.1291696    11362.431     1000 
  840000   0.43717926    -2.080207   0.65511312   -1.4250938   0.12323044    11468.171     1000 
  842000   0.43202522   -2.1226374   0.64738979   -1.4752476   0.11985381    11471.503     1000 
  844000   0.43874252    -2.126033   0.65745566   -1.4685773    0.1303418    11353.172     1000 
  846000   0.42604963   -2.1171798   0.63843537   -1.4787445   0.12806023    11376.828     1000 
  848000   0.43932452   -2.0658033   0.65832779   -1.4074755   0.14591126    11160.871     1000 
  850000   0.45197998   -2.0977472     0.677292   -1.4204552   0.12208835    11375.549     1000 
  852000   0.46109498   -2.0594912   0.69095083   -1.3685403   0.12199423    11418.446     1000 
  854000   0.44047671   -2.1145222   0.66005434   -1.4544679   0.14488395    11297.872     1000 
  856000   0.42757444   -2.0937267    0.6407203   -1.4530064   0.12786166    11384.893     1000 
  858000   0.43885284    -2.074442   0.65762097    -1.416821   0.12905914    11257.152     1000 
  860000   0.42021684   -2.0844897   0.62969494   -1.4547948   0.13246081    11357.728     1000 
  862000   0.45300441   -2.1100239   0.67882711   -1.4311968   0.12328749    11338.599     1000 
  864000   0.44258415   -2.1014696   0.66321235   -1.4382573   0.13490016     11297.29     1000 
  866000   0.45108381   -2.0850047   0.67594908   -1.4090557   0.12440342    11400.034     1000 
  868000   0.43827064   -2.0547071   0.65674855   -1.3979586   0.13809491    11260.154     1000 
  870000   0.44639639   -2.1329764     0.668925   -1.4640514   0.13485786    11326.827     1000 
  872000   0.43961721   -2.0712022   0.65876639   -1.4124358   0.15094189    11153.952     1000 
  874000   0.43794594     -2.11912   0.65626199    -1.462858   0.12420814    11539.976     1000 
  876000   0.43719173    -2.084286    0.6551318   -1.4291542   0.13630355    11273.365     1000 
  878000   0.43162906   -2.0585324   0.64679615   -1.4117362   0.13643026     11273.25     1000 
  880000   0.43098508   -2.1016775   0.64583115   -1.4558464    0.1313712    11386.431     1000 
  882000   0.43367622   -2.1008447   0.64986381   -1.4509809   0.13034949    11344.005     1000 
  884000    0.4229075   -2.0643288   0.63372689   -1.4306019   0.12600603    11280.105     1000 
  886000   0.45005253   -2.0629554   0.67440372   -1.3885517   0.14520426    11236.337     1000 
  888000   0.45868836   -2.0606415   0.68734451    -1.373297   0.13439739    11350.436     1000 
  890000   0.44233738   -2.0679902   0.66284256   -1.4051476   0.12547882    11324.331     1000 
  892000   0.47033826   -2.0817166   0.70480188   -1.3769147   0.14182415    11231.706     1000 
  894000   0.43585864   -2.0968944   0.65313417   -1.4437602   0.13112316    11386.311     1000 
  896000   0.42674897   -2.0751078   0.63948334   -1.4356245   0.12023228    11473.977     1000 
  898000   0.45262838   -2.0988691   0.67826363   -1.4206055   0.13783163    11242.772     1000 
  900000   0.42792115   -2.0552789   0.64123985    -1.414039   0.14389164    11157.689     1000 
  902000   0.44355938   -2.0998247   0.66467373    -1.435151   0.12678823    11418.896     1000 
  904000   0.44817963   -2.1139199   0.67159718   -1.4423227   0.12209384    11400.681     1000 
  906000   0.45041982     -2.16977   0.67495409   -1.4948159   0.14088589    11296.523     1000 
  908000   0.44998311   -2.1475232   0.67429969   -1.4732235   0.12789113    11365.965     1000 
  910000   0.45279251   -2.1322479   0.67850957   -1.4537383   0.12762761    11388.873     1000 
  912000   0.43485608   -2.1020373   0.65163184   -1.4504054   0.11706754    11526.274     1000 
  914000   0.44926489   -2.1026804   0.67322343    -1.429457   0.13220968    11350.347     1000 
  916000   0.43075194   -2.1248554   0.64548179   -1.4793736   0.12221044    11492.763     1000 
  918000   0.43888403   -2.0946508   0.65766772   -1.4369831   0.13456332    11212.928     1000 
  920000   0.44478068   -2.0722429   0.66650385   -1.4057391   0.13687919    11379.523     1000 
  922000    0.4562257   -2.1322305   0.68365421   -1.4485763   0.12806565    11400.339     1000 
  924000    0.4451036   -2.1100929   0.66698774   -1.4431051   0.13513067    11374.721     1000 
  926000   0.46953426    -2.117684   0.70359709   -1.4140869   0.13534369    11382.168     1000 
  928000   0.42203577   -2.0513806    0.6324206     -1.41896   0.12182633    11428.391     1000 
  930000   0.44398022   -2.1148836   0.66530436   -1.4495793   0.13591676    11398.965     1000 
  932000   0.45476245   -2.0983727   0.68146154   -1.4169111   0.13801705    11338.481     1000 
  934000   0.44120405   -2.0655502   0.66114427   -1.4044059   0.13015998    11328.777     1000 
  936000   0.44064918   -2.0978159   0.66031279   -1.4375031   0.13208109    11311.144     1000 
  938000   0.44073566   -2.0425025   0.66044239   -1.3820601   0.14218974    11231.989     1000 
  940000   0.44032269   -2.1183163   0.65982355   -1.4584928   0.14170263     11259.12     1000 
  942000   0.44359607   -2.0979341   0.66472871   -1.4332054   0.14089403    11360.636     1000 
  944000   0.43838486   -2.1034784   0.65691972   -1.4465587   0.11395885    11505.756     1000 
  946000   0.43955484   -2.1114289   0.65867293    -1.452756   0.11740925    11508.525     1000 
  948000   0.44756678   -2.1209868   0.67067881    -1.450308   0.12951534    11419.484     1000 
  950000   0.41385574   -2.0997009   0.62016283   -1.4795381   0.12811881    11256.885     1000 
  952000   0.43135779   -2.1282623   0.64638964   -1.4818727   0.12219423    11556.402     1000 
  954000   0.44685821   -2.1588258   0.66961703   -1.4892088   0.13092583    11375.483     1000 
  956000   0.43674329   -2.1142203   0.65445982   -1.4597605   0.12887075    11445.567     1000 
  958000   0.44425297   -2.0929566   0.66571308   -1.4272435   0.12905297     11447.16     1000 
  960000   0.47389563   -2.0607317   0.71013261   -1.3505991   0.12706235    11279.752     1000 
  962000   0.42337693   -2.1302388   0.63443033   -1.4958085   0.13270958    11391.915     1000 
  964000   0.43312484   -2.0785076   0.64903757   -1.4294701   0.13719686    11370.131     1000 
  966000   0.43106191   -2.0952832   0.64594627   -1.4493369   0.13910374    11355.634     1000 
  968000   0.43109777   -2.0933252   0.64600001   -1.4473252   0.11916889    11360.356     1000 
  970000   0.42538935    -2.092646   0.63744593   -1.4552001   0.11706572     11458.75     1000 
  972000   0.46436309   -2.0909856   0.69584809   -1.3951375    0.1341197    11313.996     1000 
  974000   0.43992282   -2.0830662   0.65922435   -1.4238418   0.14167486     11279.16     1000 
  976000   0.45250582   -2.1679721   0.67807997   -1.4898922   0.12164714    11609.367     1000 
  978000    0.4358428   -2.1147273   0.65311043   -1.4616169   0.13033561    11370.108     1000 
  980000   0.42098665   -2.1089727    0.6308485   -1.4781242   0.12056293    11374.689     1000 
  982000   0.45087977   -2.1147123   0.67564333    -1.439069   0.12940317    11259.021     1000 
  984000   0.44706555   -2.1389122   0.66992772   -1.4689845   0.12858986    11443.453     1000 
  986000   0.45739038   -2.1074649   0.68539948   -1.4220654   0.12924542    11324.921     1000 
  988000   0.46363468   -2.0954687   0.69475657   -1.4007121   0.11636187     11516.85     1000 
  990000   0.42978498    -2.051095    0.6440328   -1.4070622   0.13112834    11302.403     1000 
  992000   0.42715157   -2.0797473   0.64008663   -1.4396607    0.1337944    11288.914     1000 
  994000   0.45610093   -2.1220293   0.68346724   -1.4385621   0.13170015    11403.162     1000 
  996000   0.43855991   -2.1252397   0.65718202   -1.4680577   0.12933294    11435.575     1000 
  998000   0.43158837   -2.1231156   0.64673517   -1.4763804   0.12499138     11416.41     1000 
 1000000   0.43483831   -2.0597503   0.65160521   -1.4081451   0.13496397    11283.445     1000 
 1002000   0.45286671   -2.1373062   0.67862076   -1.4586854   0.12541428    11533.443     1000 
 1004000   0.44230305   -2.1013916   0.66279112   -1.4386004   0.13285506    11392.965     1000 
 1006000   0.45173727   -2.0758523    0.6769283    -1.398924   0.13852511    11338.586     1000 
 1008000   0.44442369   -2.0904244   0.66596891   -1.4244555   0.14432306    11271.216     1000 
 1010000   0.45840863   -2.1275748   0.68692533   -1.4406494   0.13693909    11355.961     1000 
 1012000   0.42920121   -2.1207514   0.64315801   -1.4775933   0.11663877    11436.128     1000 
 1014000    0.4485057   -2.0854972    0.6720858   -1.4134114   0.13551923    11250.409     1000 
 1016000   0.43431378   -2.1263264    0.6508192   -1.4755072   0.13055924    11445.005     1000 
 1018000   0.43282363   -2.0647789   0.64858621   -1.4161927   0.12232469     11479.36     1000 
 1020000   0.44259095   -2.0977246   0.66322254   -1.4345021   0.13418977    11307.153     1000 
 1022000   0.42697565   -2.1441761   0.63982302   -1.5043531   0.12690263    11422.021     1000 
 1024000    0.4342148   -2.1188039   0.65067087    -1.468133   0.13273031    11333.958     1000 
 1026000   0.43216199     -2.09117   0.64759475   -1.4435752   0.13676415    11330.902     1000 
 1028000   0.42218186   -2.0963016   0.63263951   -1.4636621   0.12380561    11314.891     1000 
 1030000   0.43153723   -2.1162229   0.64665854   -1.4695643    0.1206796    11433.797     1000 
 1032000   0.43652196   -2.1258653   0.65412815   -1.4717372   0.13067896    11315.394     1000 
 1034000   0.44750739   -2.0925147   0.67058983   -1.4219248   0.15072194    11038.997     1000 
 1036000   0.45334991   -2.1076697   0.67934485   -1.4283248   0.12461385    11444.129     1000 
 1038000   0.46105996   -2.1043394   0.69089835   -1.4134411   0.12198919    11385.047     1000 
 1040000   0.44282841   -2.1254772   0.66357837   -1.4618989   0.13097196    11319.753     1000 
 1042000    0.4499875   -2.1022661   0.67430627   -1.4279598   0.11412356    11382.301     1000 
 1044000   0.43860898   -2.0936719   0.65725555   -1.4364163   0.12684929    11468.394     1000 
 1046000   0.45645932   -2.0683155   0.68400429   -1.3843112   0.13283178     11335.92     1000 
 1048000   0.42418078   -2.0937448    0.6356349   -1.4581099   0.12487131    11360.087     1000 
 1050000   0.45250438   -2.0950086   0.67807781   -1.4169308   0.13221465    11343.048     1000 
 1052000    0.4340737   -2.1253839   0.65045943   -1.4749245   0.13243833    11291.596     1000 
 1054000   0.45376563   -2.0923435    0.6799678   -1.4123757    0.1345808    11355.917     1000 
 1056000   0.42303954   -2.1682675   0.63392475   -1.5343427     0.120491    11470.692     1000 
 1058000   0.44414096   -2.0700253   0.66554522   -1.4044801   0.13977679    11330.977     1000 
 1060000    0.4308877   -2.1288416   0.64568522   -1.4831564   0.11966195    11434.436     1000 
 1062000   0.43828357   -2.1017513   0.65676794   -1.4449834   0.12215415    11464.395     1000 
 1064000   0.42817086   -2.0938726   0.64161404   -1.4522586   0.12227518    11439.062     1000 
 1066000   0.44055107   -2.0746122   0.66016579   -1.4144464   0.13419647    11307.531     1000 
 1068000   0.43763213    -2.099352   0.65579175   -1.4435602   0.13308393    11258.219     1000 
 1070000   0.42454026   -2.0780778   0.63617359   -1.4419042   0.13513284    11441.324     1000 
 1072000   0.45181059   -2.0874295   0.67703817   -1.4103913   0.12176301    11325.107     1000 
 1074000   0.44487114   -2.1338356    0.6666394   -1.4671962   0.13245768    11463.181     1000 
 1076000   0.42659213   -2.1478181   0.63924831   -1.5085698   0.12494855    11416.309     1000 
 1078000   0.42989423   -2.0965485    0.6441965    -1.452352   0.12589535    11422.303     1000 
 1080000   0.46044198   -2.0641869   0.68997231   -1.3742146    0.1354352    11319.407     1000 
 1082000   0.44153153   -2.0819399     0.661635   -1.4203049   0.12571075    11398.915     1000 
 1084000   0.44625743   -2.1346298   0.66871676    -1.465913    0.1318952    11450.392     1000 
 1086000   0.43151392   -2.0667185    0.6466236   -1.4200949    0.1160911    11501.328     1000 
 1088000   0.46314632   -2.0867831   0.69402475   -1.3927584   0.13002296    11373.782     1000 
 1090000   0.43179473   -2.0925387   0.64704441   -1.4454943   0.13530158    11337.431     1000 
 1092000   0.44943844   -2.1201118   0.67348351   -1.4466283   0.13652644    11377.252     1000 
 1094000   0.43867653   -2.0882676   0.65735679   -1.4309108    0.1441814    11209.889     1000 
 1096000   0.43737677   -2.0672675   0.65540908   -1.4118584   0.13323611    11295.035     1000 
 1098000   0.45465693   -2.1334657   0.68130341   -1.4521622   0.12820474    11448.684     1000 
 1100000   0.44264272   -2.0838911   0.66330012    -1.420591     0.135374     11389.52     1000 
 1102000   0.45831268   -2.1035649   0.68678155   -1.4167833   0.13155397    11284.571     1000 
 1104000   0.43364753   -2.0975348   0.64982083    -1.447714   0.13200843     11378.69     1000 
 1106000   0.43805644   -2.0959297   0.65642757   -1.4395021   0.12572483    11350.821     1000 
 1108000   0.43714192   -2.0522182   0.65505717    -1.397161   0.14107546    11248.138     1000 
 1110000   0.43493888   -2.0988889    0.6517559   -1.4471329   0.12275338    11347.066     1000 
 1112000    0.4425321   -2.1014119   0.66313435   -1.4382775   0.13981666    11321.318     1000 
 1114000    0.4495067   -2.0855294   0.67358579   -1.4119436   0.13274623     11327.74     1000 
 1116000   0.43615513   -2.0433409   0.65357847   -1.3897624   0.14043124    11228.191     1000 
 1118000   0.43625552   -2.1178228    0.6537289   -1.4640939   0.12715019    11282.977     1000 
 1120000   0.44580622   -2.0929047   0.66804062   -1.4248641   0.13211778    11301.568     1000 
 1122000   0.44090993   -2.0933016   0.66070352   -1.4325981   0.13941785    11274.217     1000 
 1124000   0.45354516   -2.1128228   0.67963742   -1.4331854   0.13950729    11286.608     1000 
 1126000   0.43064746   -2.1024605   0.64532522   -1.4571353   0.13432437     11250.74     1000 
 1128000   0.43550696   -2.1114311   0.65260718   -1.4588239    0.1236233    11366.371     1000 
 1130000   0.44590618   -2.1503435   0.66819041   -1.4821531   0.13037252    11423.712     1000 
 1132000   0.44974659   -2.0991032   0.67394526   -1.4251579   0.14951226    11368.156     1000 
 1134000   0.44550892   -2.1067815   0.66759512   -1.4391864   0.13210353    11376.094     1000 
 1136000   0.43598186   -2.0313962   0.65331882   -1.3780773    0.1335669    11270.314     1000 
 1138000    0.4467101   -2.0860035   0.66939508   -1.4166084   0.13144846    11339.712     1000 
 1140000   0.43570582   -2.0966698   0.65290517   -1.4437646   0.12266382    11483.808     1000 
 1142000   0.45196552   -2.0797727   0.67727033   -1.4025024   0.12536025     11389.04     1000 
 1144000   0.42127602   -2.1265366   0.63128212   -1.4952545   0.11508716    11536.963     1000 
 1146000   0.44542898   -2.1294065   0.66747533   -1.4619312   0.13039272    11409.234     1000 
 1148000   0.44548904    -2.090961   0.66756532   -1.4233957   0.13679885    11436.536     1000 
 1150000   0.43113406   -2.1238114   0.64605439    -1.477757   0.12728697    11338.026     1000 
 1152000   0.43043188   -2.0821991   0.64500217   -1.4371969   0.13291273    11360.748     1000 
 1154000   0.44734501    -2.083779    0.6703465   -1.4134325   0.13766601    11315.182     1000 
 1156000   0.44083518   -2.0565388   0.66059152   -1.3959472   0.12261288    11431.722     1000 
 1158000   0.44280842   -2.1140497   0.66354841   -1.4505013   0.13712181     11406.91     1000 
 1160000   0.42236196   -2.0831736    0.6329094   -1.4502642   0.11409961    11469.541     1000 
 1162000   0.44145131   -2.1183921   0.66151479   -1.4568773   0.12840785    11354.269     1000 
 1164000   0.43795248   -2.1165911   0.65627179   -1.4603193   0.13677689    11250.236     1000 
 1166000   0.42837619   -2.1182485   0.64192172   -1.4763267   0.12163009    11494.429     1000 
 1168000   0.44347462   -2.1187991   0.66454672   -1.4542524    0.1236446    11454.174     1000 
 1170000   0.44098504   -2.0886474   0.66081608   -1.4278313   0.13254047    11399.821     1000 
 1172000   0.46800336   -2.1124765   0.70130304   -1.4111735   0.14745028    11241.838     1000 
 1174000   0.44432164   -2.0802106   0.66581598   -1.4143946    0.1374722    11268.678     1000 
 1176000   0.44274319   -2.0610777   0.66345067    -1.397627   0.13666189    11321.854     1000 
 1178000   0.43169432   -2.1242881   0.64689395   -1.4773941   0.13485016    11452.676     1000 
 1180000    0.4445715   -2.1095727   0.66619039   -1.4433823   0.12804125    11359.141     1000 
 1182000   0.44036704   -2.1030265      0.65989   -1.4431365   0.11860539    11442.579     1000 
 1184000   0.45722988    -2.114534   0.68515897    -1.429375   0.13664098    11315.075     1000 
 1186000    0.4373923   -2.0942737   0.65543236   -1.4388413   0.12412283    11359.658     1000 
 1188000     0.446675   -2.0384274   0.66934249    -1.369085   0.14280454    11197.556     1000 
 1190000   0.44627591   -2.0805919   0.66874445   -1.4118475   0.13238292    11403.752     1000 
 1192000   0.44021239   -2.1131016   0.65965826   -1.4534433   0.11601712     11516.91     1000 
 1194000   0.43309182   -2.0833997   0.64898809   -1.4344116   0.14167042    11293.026     1000 
 1196000   0.44430572    -2.113798   0.66579213   -1.4480059    0.1314728    11410.185     1000 
 1198000    0.4440648   -2.1195201    0.6654311    -1.454089   0.13630949    11354.804     1000 
 1200000   0.44880694   -2.0870753    0.6725372   -1.4145381   0.13982321    11305.069     1000 
 1202000   0.43985534    -2.094163   0.65912322   -1.4350398   0.13428864     11310.51     1000 
 1204000   0.44145618   -2.1357729   0.66152209   -1.4742508   0.13118567    11457.618     1000 
 1206000   0.43623682   -2.1234947   0.65370087   -1.4697938   0.12660827    11397.649     1000 
 1208000   0.42972872   -2.1210659   0.64394849   -1.4771174   0.12955306      11428.5     1000 
 1210000   0.45162282   -2.1359975    0.6767568   -1.4592407   0.12837834    11517.827     1000 
 1212000   0.41097786   -2.0405288   0.61585032   -1.4246785   0.11901586    11320.487     1000 
 1214000   0.41601288   -2.0747211    0.6233953   -1.4513258   0.11742145    11510.744     1000 
 1216000   0.44322695   -2.0982896   0.66417559    -1.434114   0.12955446     11336.29     1000 
 1218000   0.43388783   -2.0753317   0.65018091   -1.4251508   0.12730852    11340.976     1000 
 1220000   0.42268291   -2.1299746   0.63339033   -1.4965842   0.12056092    11430.033     1000 
 1222000   0.43574519   -2.1052723   0.65296416   -1.4523082   0.14419276    11245.531     1000 
 1224000   0.43926799   -2.1344975   0.65824308   -1.4762544   0.12949232    11388.152     1000 
 1226000   0.44393964   -2.1159594   0.66524355   -1.4507159    0.1340057    11295.597     1000 
 1228000   0.45427718    -2.109594   0.68073435   -1.4288597   0.12678682    11496.216     1000 
 1230000   0.42543872   -2.0589877   0.63751992   -1.4214678   0.13300591    11289.951     1000 
 1232000   0.46306382    -2.100834   0.69390113   -1.4069329   0.13590678    11274.163     1000 
 1234000   0.43391896   -2.1117416   0.65022757   -1.4615141   0.12564029    11381.406     1000 
 1236000   0.43543096   -2.1718519   0.65249329   -1.5193586   0.12810871    11422.159     1000 
 1238000   0.45776389   -2.0451539   0.68595919   -1.3591947   0.13570027    11256.967     1000 
 1240000   0.44506617   -2.1200771   0.66693165   -1.4531455   0.14247392    11295.964     1000 
 1242000   0.45437861   -2.1158807   0.68088635   -1.4349944   0.12610697    11432.781     1000 
 1244000   0.43800275   -2.1047306   0.65634712   -1.4483835   0.11985257    11455.296     1000 
 1246000   0.43312544   -2.1222524   0.64903848   -1.4732139   0.11538313     11552.68     1000 
 1248000   0.43634894   -2.1039884   0.65386889   -1.4501195   0.13621691    11300.219     1000 
 1250000    0.4434694   -2.0836209    0.6645389    -1.419082      0.12351    11397.865     1000 
 1252000   0.44954675   -2.1231986   0.67364581   -1.4495528    0.1342901    11329.691     1000 
 1254000   0.42622832   -2.1051674   0.63870314   -1.4664642   0.13614682    11254.801     1000 
 1256000   0.44111947   -2.0882382   0.66101752   -1.4272207   0.12926289    11259.192     1000 
 1258000   0.46386893   -2.1267912   0.69510759   -1.4316836   0.12367835    11485.988     1000 
 1260000   0.44091832   -2.0791298   0.66071611   -1.4184137   0.11908699    11405.041     1000 
 1262000   0.45166766   -2.1180158   0.67682398   -1.4411918   0.12176406    11461.559     1000 
 1264000   0.42894542   -2.1044829   0.64277471   -1.4617082   0.12435076    11361.253     1000 
 1266000   0.45908089   -2.0847992   0.68793271   -1.3968664   0.13580122    11384.057     1000 
 1268000   0.42638217   -2.1061399   0.63893368   -1.4672062   0.12519223    11409.313     1000 
 1270000   0.43900318   -2.0872974   0.65784626   -1.4294511   0.13384167    11385.958     1000 
 1272000   0.43265697   -2.1239002   0.64833647   -1.4755637   0.12492617    11361.642     1000 
 1274000   0.42387458   -2.0870748   0.63517606   -1.4518988    0.1312511    11335.688     1000 
 1276000   0.42535321   -2.0956981   0.63739179   -1.4583063   0.12980105     11348.16     1000 
 1278000   0.44373161    -2.069255   0.66493181   -1.4043232   0.12118688    11387.972     1000 
 1280000   0.44588802   -2.0762866    0.6681632   -1.4081234   0.13859799    11260.953     1000 
 1282000   0.42412778   -2.1279339   0.63555548   -1.4923784   0.11939052    11443.267     1000 
 1284000    0.4322122   -2.0634787   0.64766998   -1.4158087   0.12913107    11408.805     1000 
 1286000   0.44699004   -2.1175095   0.66981458   -1.4476949   0.12908491    11348.813     1000 
 1288000   0.45495207   -2.0900765   0.68174567   -1.4083308    0.1306502    11411.915     1000 
 1290000   0.42661044     -2.12223   0.63927575   -1.4829543   0.12603411    11420.001     1000 
 1292000   0.43475384   -2.1222656   0.65147862    -1.470787   0.12871167    11382.102     1000 
 1294000   0.45179333   -2.0874092   0.67701231   -1.4103968   0.13347322    11343.126     1000 
 1296000   0.43769092   -2.1168349   0.65587985    -1.460955   0.13052729    11296.785     1000 
 1298000   0.44391231   -2.1195949   0.66520259   -1.4543923   0.13653948    11293.231     1000 
 1300000   0.45018661   -2.0863804   0.67460464   -1.4117758   0.13613808     11364.31     1000 
 1302000   0.41859131   -2.0698291   0.62725908     -1.44257   0.11754422    11505.122     1000 
 1304000   0.44695337   -2.1364515   0.66975962   -1.4666918   0.13361897    11381.574     1000 
 1306000   0.44475626   -2.1098781   0.66646725   -1.4434108   0.13975154    11295.966     1000 
 1308000   0.43611552   -2.0579218   0.65351911   -1.4044027   0.14174051     11175.95     1000 
 1310000   0.43964051   -2.0938224    0.6588013   -1.4350211   0.13161328    11389.616     1000 
 1312000    0.4493165    -2.123333   0.67330078   -1.4500322   0.13466805    11385.425     1000 
 1314000    0.4140182   -2.1242416   0.62040627   -1.5038353   0.11775918    11430.638     1000 
 1316000   0.44878255   -2.0823875   0.67250065   -1.4098869   0.13174247    11348.181     1000 
 1318000   0.44651429   -2.1221013   0.66910166   -1.4529996   0.12740715    11376.722     1000 
 1320000   0.43721754   -2.1093606   0.65517049   -1.4541901   0.13270832     11391.28     1000 
 1322000   0.42099764   -2.0543302   0.63086497   -1.4234652   0.13321158    11202.984     1000 
 1324000   0.42281148   -2.1432602     0.633583   -1.5096772   0.12692353    11338.848     1000 
 1326000   0.43819296   -2.1078244   0.65663216   -1.4511923   0.11693523    11457.277     1000 
 1328000   0.45181776   -2.1085517   0.67704891   -1.4315028   0.13459903    11350.984     1000 
 1330000   0.43918603   -2.1156998   0.65812027   -1.4575795    0.1337414     11393.98     1000 
 1332000   0.41461673   -2.0728164   0.62130318   -1.4515132   0.13561253    11290.644     1000 
 1334000   0.44177375    -2.119183   0.66199797    -1.457185   0.11947595    11431.257     1000 
 1336000   0.45167008   -2.0607879   0.67682762   -1.3839603   0.12835494    11270.046     1000 
 1338000   0.43765396   -2.1022619   0.65582445   -1.4464375   0.13325666     11294.04     1000 
 1340000    0.4237673   -2.0754283    0.6350153    -1.440413   0.14559288    11353.792     1000 
 1342000   0.41979621   -2.0802895   0.62906463   -1.4512248   0.14008251     11260.09     1000 
 1344000   0.43745905   -2.1137438   0.65553239   -1.4582114   0.13129711    11368.286     1000 
 1346000   0.43253196   -2.0557813   0.64814915   -1.4076321   0.13676778    11222.565     1000 
 1348000   0.44364823    -2.155412   0.66480687   -1.4906051   0.12784551    11404.618     1000 
 1350000   0.45450698    -2.153099    0.6810787   -1.4720203   0.13150568    11512.438     1000 
 1352000   0.43891857    -2.069151   0.65771948   -1.4114316   0.13224543    11335.039     1000 
 1354000   0.43319365   -2.1252243   0.64914069   -1.4760836   0.11435808    11534.642     1000 
 1356000   0.44625389   -2.1064305   0.66871145   -1.4377191    0.1401389     11346.21     1000 
 1358000   0.43819792   -2.0530095   0.65663959   -1.3963699   0.13232741    11370.105     1000 
 1360000   0.44220004     -2.11047   0.66263676   -1.4478333   0.12232481    11462.126     1000 
 1362000   0.44203249   -2.0557133   0.66238568   -1.3933276   0.13259917    11273.303     1000 
 1364000   0.43960187   -2.0801718   0.65874341   -1.4214284   0.13646803    11360.515     1000 
 1366000   0.44602625   -2.1192296   0.66837034   -1.4508592   0.13818853    11392.267     1000 
 1368000   0.41558398   -2.1543893    0.6227526   -1.5316367   0.12508788    11419.234     1000 
 1370000   0.42031121   -2.1027116   0.62983635   -1.4728752   0.13244537    11356.548     1000 
 1372000   0.42011188   -2.0859899   0.62953766   -1.4564522   0.13593246    11368.143     1000 
 1374000   0.40829352   -2.1493917   0.61182784   -1.5375638   0.12024643    11439.635     1000 
 1376000   0.44541745    -2.070767   0.66745805   -1.4033089   0.13476469    11231.187     1000 
 1378000    0.4292335   -2.0871138   0.64320639   -1.4439074   0.13899006    11326.349     1000 
 1380000    0.4417467   -2.1089955   0.66195743   -1.4470381   0.11969549    11461.014     1000 
 1382000   0.43941177   -2.0941456   0.65845854   -1.4356871   0.12895136    11356.621     1000 
 1384000   0.45172241   -2.1012311   0.67690604   -1.4243251   0.13915941    11390.196     1000 
 1386000   0.46565488   -2.0991852   0.69778383   -1.4014014   0.12871502    11445.413     1000 
 1388000   0.46722863   -2.0687373    0.7001421   -1.3685952   0.13172656    11404.931     1000 
 1390000   0.42724113   -2.0883075   0.64022083   -1.4480867   0.13822813    11287.706     1000 
 1392000   0.44947391   -2.1235408   0.67353666   -1.4500041   0.11577642    11606.137     1000 
 1394000   0.44354174   -2.1023032   0.66464729   -1.4376559   0.12762365    11407.381     1000 
 1396000   0.42187668   -2.1644932    0.6321822    -1.532311   0.11259441     11545.65     1000 
 1398000   0.44267123   -2.1238372   0.66334284   -1.4604944   0.13657868    11340.591     1000 
 1400000   0.45825187   -2.1086776   0.68669043   -1.4219872   0.12441878    11421.185     1000 
 1402000   0.43846139   -2.0496132   0.65703439   -1.3925788   0.14478526    11265.196     1000 
 1404000   0.44290026   -2.0841421   0.66368604   -1.4204561   0.12549706    11387.999     1000 
 1406000   0.46555483   -2.0827166   0.69763391   -1.3850827   0.13284991     11329.48     1000 
 1408000   0.45435323   -2.1034891   0.68084831   -1.4226408   0.13008156     11402.21     1000 
 1410000   0.43629595   -2.1020746   0.65378949   -1.4482851   0.12542461    11343.477     1000 
 1412000   0.44700606   -2.0568895   0.66983858   -1.3870509   0.12182882    11398.544     1000 
 1414000   0.44986477   -2.1045503   0.67412236    -1.430428   0.14062343    11370.007     1000 
 1416000   0.43567671   -2.0823418   0.65286154   -1.4294803   0.14550651     11218.62     1000 
 1418000   0.44511867    -2.079294   0.66701033   -1.4122836   0.13895999    11261.737     1000 
 1420000   0.43427939   -2.0978075   0.65076767   -1.4470398   0.12302526    11356.295     1000 
 1422000   0.43046935   -2.1219191   0.64505832   -1.4768608   0.12454069    11385.835     1000 
 1424000   0.44875584   -2.0654041   0.67246063   -1.3929434   0.13854764    11382.645     1000 
 1426000   0.40880188   -2.0851533   0.61258962   -1.4725637   0.12852464    11336.346     1000 
 1428000   0.42635892   -2.1481792   0.63889884   -1.5092804   0.12636417    11388.506     1000 
 1430000   0.42652703   -2.1081743   0.63915075   -1.4690235     0.131979    11358.236     1000 
 1432000   0.42477748   -2.0564062   0.63652905   -1.4198771   0.12757657    11440.366     1000 
 1434000   0.44356454    -2.116476   0.66468147   -1.4517946   0.12801415    11547.662     1000 
 1436000   0.45391086   -2.1046928   0.68018542   -1.4245074   0.12433256    11374.797     1000 
 1438000   0.44115269    -2.092611    0.6610673   -1.4315437   0.13160613    11327.762     1000 
 1440000   0.45249073   -2.0572271   0.67805736   -1.3791698   0.13019086    11475.534     1000 
 1442000   0.45807642   -2.0624623   0.68642752   -1.3760347   0.14036309     11229.13     1000 
 1444000   0.43787305   -2.1080732   0.65615276   -1.4519204   0.13028837    11336.317     1000 
 1446000   0.42918127   -2.1467566   0.64312814   -1.5036284   0.12230709    11431.592     1000 
 1448000   0.45669226   -2.0958563   0.68435335   -1.4115029   0.13654939     11303.72     1000 
 1450000   0.43665029   -2.1284651   0.65432047   -1.4741446   0.13098165    11344.092     1000 
 1452000   0.43181679   -2.1083004   0.64707746    -1.461223   0.11996362    11322.546     1000 
 1454000   0.43996237     -2.10352   0.65928362   -1.4442364   0.12026539    11310.577     1000 
 1456000   0.45248918   -2.0811843   0.67805503   -1.4031292   0.13539039    11322.745     1000 
 1458000   0.43253687   -2.1137667   0.64815649   -1.4656103   0.12916698    11381.177     1000 
 1460000   0.43573539   -2.1163566   0.65294948   -1.4634071   0.12630281    11372.955     1000 
 1462000   0.43006357   -2.0844726   0.64445026   -1.4400223   0.14705251    11119.859     1000 
 1464000   0.42453392   -2.1056784   0.63616407   -1.4695143   0.13357153    11274.799     1000 
 1466000   0.43136247   -2.0984791   0.64639667   -1.4520824   0.12526705    11423.895     1000 
 1468000   0.43196259   -2.0960243   0.64729593   -1.4487284   0.12041742    11419.352     1000 
 1470000   0.44559165   -2.0921411   0.66771909    -1.424422   0.13531941    11444.453     1000 
 1472000   0.45161322   -2.0770494   0.67674241    -1.400307   0.13577032     11321.63     1000 
 1474000   0.44416779   -2.0645877   0.66558543   -1.3990023   0.13478051    11250.779     1000 
 1476000   0.43700484   -2.1302651   0.65485175   -1.4754134   0.13171331    11376.675     1000 
 1478000   0.43111433   -2.1392779   0.64602483    -1.493253   0.12099663    11467.715     1000 
 1480000    0.4447544   -2.1498603   0.66646447   -1.4833958   0.12631637     11539.85     1000 
 1482000   0.43882764   -2.1101132   0.65758322     -1.45253    0.1327981    11352.594     1000 
 1484000   0.44382245   -2.0998903   0.66506794   -1.4348223   0.13001482    11408.945     1000 
 1486000   0.44004441   -2.1082268   0.65940655   -1.4488203   0.13411777    11431.553     1000 
 1488000   0.43265232   -2.1133125    0.6483295    -1.464983    0.1272493    11409.324     1000 
 1490000    0.4534726   -2.0935688    0.6795287   -1.4140401   0.13277869    11354.758     1000 
 1492000   0.43966523   -2.0798082   0.65883835   -1.4209699   0.11788777    11374.688     1000 
 1494000     0.424189   -2.0827506   0.63564722   -1.4471034    0.1298959    11414.699     1000 
 1496000   0.45086452   -2.1547737   0.67562048   -1.4791532   0.13092302     11345.07     1000 
 1498000   0.47205508   -2.0931712   0.70737454   -1.3857966   0.13025638    11354.647     1000 
 1500000    0.4247334   -2.0834758   0.63646299   -1.4470128   0.12284989      11363.7     1000 
 1502000   0.42413703   -2.1003962   0.63556933   -1.4648268   0.12296968    11325.505     1000 
 1504000   0.45121533   -2.0667237   0.67614617   -1.3905775   0.12726349     11374.84     1000 
 1506000   0.42696611   -2.1098639   0.63980871   -1.4700552   0.12487386    11457.367     1000 
 1508000    0.4381429    -2.092626   0.65655713   -1.4360689   0.12775334    11283.593     1000 
 1510000   0.43991375   -2.0738757   0.65921076    -1.414665   0.14388658    11189.846     1000 
 1512000   0.43863179   -2.0878815   0.65728974   -1.4305917   0.13080425    11271.039     1000 
 1514000   0.44939241   -2.0798401   0.67341453   -1.4064255   0.12604396    11404.462     1000 
 1516000   0.43856006   -2.0572893   0.65718225    -1.400107   0.13815517    11154.241     1000 
 1518000   0.43086518   -2.0777055   0.64565147    -1.432054   0.12201114     11271.59     1000 
 1520000   0.44346067   -2.1080676   0.66452581   -1.4435418   0.13533846    11316.176     1000 
 1522000   0.43176697   -2.0897135    0.6470028   -1.4427107   0.11879197    11447.427     1000 
 1524000   0.44811181   -2.0716333   0.67149554   -1.4001378   0.13291227    11319.742     1000 
 1526000   0.46003647   -2.0957746   0.68936465     -1.40641   0.12425187    11431.015     1000 
 1528000   0.42710667   -2.1039644   0.64001935    -1.463945   0.12197191    11498.313     1000 
 1530000   0.44116727   -2.1748944   0.66108916   -1.5138053   0.13372717     11332.29     1000 
 1532000   0.42552218   -2.1074079   0.63764498   -1.4697629   0.11743501     11536.99     1000 
 1534000     0.448812   -2.1094384   0.67254478   -1.4368936   0.12780308    11412.554     1000 
 1536000   0.45161691   -2.1311065   0.67674793   -1.4543585   0.12432667    11426.499     1000 
 1538000   0.44022978   -2.1016374   0.65968433   -1.4419531   0.12233202    11466.847     1000 
 1540000   0.41967623   -2.1527856   0.62888484   -1.5239008   0.13042145    11254.173     1000 
 1542000   0.45943383   -2.0832001    0.6884616   -1.3947385   0.13318779     11371.18     1000 
 1544000    0.4191123   -2.1347893   0.62803978   -1.5067495   0.12275175    11541.371     1000 
 1546000   0.45892934   -2.0669323   0.68770561   -1.3792267   0.13815605    11242.028     1000 
 1548000   0.44794709   -2.0609894   0.67124871   -1.3897407   0.12705871    11376.393     1000 
 1550000   0.44762997    -2.166218   0.67077351   -1.4954445   0.13718559    11308.655     1000 
 1552000   0.43329336   -2.0792617    0.6492901   -1.4299716   0.12363915    11537.203     1000 
 1554000   0.43172671   -2.1296855   0.64694248    -1.482743   0.12664684    11365.885     1000 
 1556000   0.44253775   -2.0863645   0.66314282   -1.4232217    0.1341383    11363.429     1000 
 1558000   0.43710448   -2.1314541   0.65500107    -1.476453   0.13007452    11440.103     1000 
 1560000   0.42741516   -2.0597345   0.64048162   -1.4192529   0.13931927    11231.081     1000 
 1562000   0.42462409   -2.1143439    0.6362992   -1.4780447    0.1199996    11422.385     1000 
 1564000    0.4551395   -2.0713761   0.68202654   -1.3893496   0.13082002    11350.361     1000 
 1566000   0.41956937   -2.0939298    0.6287247   -1.4652051   0.12830545    11377.042     1000 
 1568000   0.42989078   -2.1439883   0.64419134   -1.4997969   0.12174684     11464.05     1000 
 1570000   0.44078833   -2.0835789   0.66052131   -1.4230576   0.13019883    11290.607     1000 
 1572000   0.41599785   -2.1605977   0.62337278   -1.5372249    0.1191238    11502.475     1000 
 1574000     0.441436   -2.0484759   0.66149185    -1.386984    0.1385938    11331.852     1000 
 1576000   0.41830962   -2.1238308   0.62683697   -1.4969938   0.12912057    11291.098     1000 
 1578000   0.44531497   -2.0740886   0.66730449   -1.4067841   0.13363681    11240.361     1000 
 1580000   0.43653564   -2.0919499   0.65414866   -1.4378012   0.14700445    11200.033     1000 
 1582000   0.44340341   -2.0935786   0.66444001   -1.4291386   0.12918808    11371.419     1000 
 1584000   0.40836239   -2.1098831   0.61193105   -1.4979521   0.11509392    11526.023     1000 
 1586000   0.43885004   -2.0891553   0.65761678   -1.4315385    0.1262591    11455.643     1000 
 1588000    0.4442383   -2.0693931   0.66569109    -1.403702   0.13101285    11197.895     1000 
 1590000   0.44974915    -2.096435   0.67394911   -1.4224859   0.12648642    11517.714     1000 
 1592000   0.43996753   -2.1327254   0.65929134   -1.4734341    0.1330892    11485.853     1000 
 1594000   0.46005703   -2.0693376   0.68939546   -1.3799421   0.12762893      11364.9     1000 
 1596000   0.43123364   -2.0821265   0.64620361   -1.4359229   0.13681161    11302.532     1000 
[...]
 2612000   0.45090672   -2.0914158   0.67568371   -1.4157321   0.12485199    11414.219     1000 
 2614000   0.42728095   -2.0585246    0.6402805   -1.4182441   0.12121657    11382.004     1000 
 2616000   0.44230668    -2.049129   0.66279656   -1.3863324   0.12893999    11315.626     1000 
 2618000   0.41192093    -2.066794   0.61726352   -1.4495305   0.12782673    11257.959     1000 
 2620000   0.42291391   -2.1075857    0.6337365   -1.4738492   0.12624206    11402.205     1000 
 2622000   0.43347338    -2.103574   0.64955987   -1.4540141    0.1323405    11328.806     1000 
 2624000    0.4242705   -2.1157302   0.63576934   -1.4799609    0.1264385    11438.466     1000 
 2626000   0.43856335   -2.0818006   0.65718718   -1.4246135   0.12987491    11395.089     1000 
 2628000   0.41265695   -2.1026306   0.61836645   -1.4842641   0.12097168    11358.401     1000 
 2630000   0.44108726   -2.1303729   0.66096925   -1.4694037   0.13222015    11309.388     1000 
 2632000   0.45037715   -2.0978915   0.67489016   -1.4230013   0.13488683     11340.54     1000 
 2634000   0.45224755   -2.0652003   0.67769295   -1.3875074   0.13414686    11290.725     1000 
 2636000   0.46178497   -2.0792908   0.69198478    -1.387306   0.13916399     11311.87     1000 
 2638000   0.44895876   -2.1004181   0.67276471   -1.4276534     0.121041    11510.772     1000 
 2640000   0.43472203   -2.1249801   0.65143096   -1.4735492   0.12352856    11442.014     1000 
 2642000   0.45149969   -2.0551886   0.67657228   -1.3786164   0.13668219    11279.115     1000 
 2644000   0.43424156   -2.0565598   0.65071098   -1.4058488   0.12846707    11359.358     1000 
 2646000   0.44203587    -2.117123   0.66239076   -1.4547323   0.13120668      11322.5     1000 
 2648000    0.4439973   -2.0837873   0.66532995   -1.4184573   0.13693188    11340.576     1000 
 2650000   0.43272597   -2.0860079   0.64843986    -1.437568   0.12952445    11351.581     1000 
 2652000   0.43800276   -2.0742442   0.65634713   -1.4178971   0.13535582    11340.144     1000 
 2654000   0.43714487   -2.0585662   0.65506159   -1.4035046   0.14129879    11284.826     1000 
 2656000   0.42683222   -2.1041314   0.63960809   -1.4645233   0.12897172    11349.819     1000 
 2658000   0.43087325   -2.0907354   0.64566356   -1.4450718    0.1296248    11452.146     1000 
 2660000   0.45631968   -2.0615291   0.68379504   -1.3777341   0.13132609     11279.28     1000 
 2662000   0.42363359   -2.0940967   0.63481494   -1.4592818   0.14424886    11258.802     1000 
 2664000   0.46210148   -2.0949013   0.69245907   -1.4024422   0.13507833    11372.601     1000 
 2666000   0.44087308   -2.0934087   0.66064832   -1.4327604   0.11460699    11568.011     1000 
 2668000   0.41720311   -2.1516869   0.62517885    -1.526508   0.13084766    11389.116     1000 
 2670000   0.44247598   -2.0200218   0.66305025   -1.3569716   0.12314696    11375.387     1000 
 2672000    0.4307669    -2.103409   0.64550421   -1.4579048   0.12076608    11530.317     1000 
 2674000   0.45287381   -2.1251637    0.6786314   -1.4465323    0.1407148    11315.939     1000 
 2676000   0.43321484   -2.0942819   0.64917244   -1.4451094   0.13430498    11307.818     1000 
 2678000   0.44124572   -2.0921063   0.66120671   -1.4308996   0.13091667    11404.863     1000 
 2680000   0.44657801   -2.1021969   0.66919715   -1.4329997   0.12349604    11377.311     1000 
 2682000   0.45137136   -2.0557851   0.67637998   -1.3794051   0.13438833    11284.135     1000 
 2684000   0.42037259   -2.1131693   0.62992833    -1.483241   0.12547083    11361.011     1000 
 2686000   0.44003397   -2.1003898    0.6593909   -1.4409989    0.1347168    11348.448     1000 
 2688000   0.44485178   -2.1054594    0.6666104    -1.438849   0.13490914    11331.366     1000 
 2690000   0.43034632   -2.0977714   0.64487396   -1.4528974   0.13847936    11357.051     1000 
 2692000   0.44086398   -2.1045111   0.66063468   -1.4438764    0.1383203     11284.43     1000 
 2694000   0.42409149   -2.0707504    0.6355011   -1.4352493   0.13109731    11263.545     1000 
 2696000   0.45807028   -2.0691553   0.68641831    -1.382737    0.1314018    11335.881     1000 
 2698000    0.4392566    -2.011145   0.65822601    -1.352919   0.13157709    11169.975     1000 
 2700000   0.43984925   -2.1393753    0.6591141   -1.4802612   0.13229799    11356.423     1000 
 2702000   0.44010566   -2.1667557   0.65949833   -1.5072574   0.12539799     11358.15     1000 
 2704000   0.43927793   -2.1356089   0.65825798   -1.4773509   0.13254643    11345.886     1000 
 2706000   0.45397071   -2.1430694   0.68027511   -1.4627943   0.13238152    11402.761     1000 
 2708000   0.43190612   -2.1222196   0.64721132   -1.4750083   0.11841937    11394.724     1000 
 2710000   0.45143033   -2.1045154   0.67646835    -1.428047   0.11874852    11434.109     1000 
 2712000   0.44519548   -2.0989656   0.66712543   -1.4318402   0.13122568    11435.718     1000 
 2714000   0.44532343   -2.1122299   0.66731716   -1.4449127   0.12568294     11424.64     1000 
 2716000   0.44134522   -2.1147442   0.66135581   -1.4533884   0.13588337    11413.479     1000 
 2718000   0.43539859   -2.0848158   0.65244479    -1.432371   0.13188979    11360.187     1000 
 2720000   0.44776963   -2.0626604   0.67098279   -1.3916776   0.11932291     11512.15     1000 
 2722000   0.43581756   -2.0767911   0.65307262   -1.4237185   0.12459103    11337.607     1000 
 2724000   0.45828365   -2.1206412   0.68673805   -1.4339032   0.13246045    11330.704     1000 
 2726000   0.45647343   -2.0881262   0.68402544   -1.4041007   0.13677327    11286.715     1000 
 2728000   0.41443349   -2.0987394   0.62102859   -1.4777108    0.1338873    11357.186     1000 
 2730000   0.44380348   -2.0795209   0.66503951   -1.4144814   0.12763558    11288.779     1000 
 2732000   0.45188532   -2.1215826   0.67715015   -1.4444325   0.14210989    11282.415     1000 
 2734000   0.43232868   -2.1120374   0.64784452   -1.4641929   0.12989934    11331.631     1000 
 2736000   0.43358016   -2.0883724   0.64971987   -1.4386525   0.13197005    11236.719     1000 
 2738000   0.44778161   -2.1261678   0.67100075   -1.4551671   0.12433921    11414.394     1000 
 2740000   0.44232561   -2.1214236   0.66282493   -1.4585987   0.13017582     11407.09     1000 
 2742000   0.41895854     -2.05517   0.62780938   -1.4273607   0.13143455    11338.614     1000 
 2744000   0.42696416   -2.1097847   0.63980579   -1.4699789   0.12301481    11299.991     1000 
 2746000   0.44507689   -2.0641691   0.66694772   -1.3972214   0.13056854    11346.176     1000 
 2748000   0.42395641   -2.0593749   0.63529868   -1.4240763   0.12130995     11257.17     1000 
 2750000    0.4407642    -2.119549   0.66048515   -1.4590638   0.13354983    11274.569     1000 
 2752000   0.44121035   -2.0915727   0.66115371    -1.430419   0.13273208    11342.986     1000 
 2754000   0.43863867   -2.0759472   0.65730005   -1.4186472   0.13139629    11427.915     1000 
 2756000   0.45138473   -2.1008508   0.67640002   -1.4244508   0.12587677    11401.216     1000 
 2758000   0.45186367   -2.1131293   0.67711771   -1.4360116   0.12597974    11451.339     1000 
 2760000   0.45232131   -2.1469733   0.67780349   -1.4691698   0.11834739    11476.636     1000 
 2762000     0.438716   -2.1187985   0.65741593   -1.4613826   0.13437471    11346.753     1000 
 2764000   0.41971735   -2.0781567   0.62894645   -1.4492102   0.13733964    11275.646     1000 
 2766000    0.4247717   -2.1496447   0.63652039   -1.5131243   0.11528083    11456.051     1000 
 2768000   0.41782226   -2.1074642   0.62610666   -1.4813575   0.12511953     11372.12     1000 
 2770000   0.45037108   -2.1004488   0.67488106   -1.4255678   0.13123937    11401.443     1000 
 2772000   0.43747144    -2.036387   0.65555095    -1.380836   0.13578119    11339.869     1000 
 2774000   0.43859911   -2.1043308   0.65724077     -1.44709   0.13415435    11308.818     1000 
 2776000   0.43508348   -2.0865382    0.6519726   -1.4345656   0.12786953    11383.861     1000 
 2778000   0.42703768   -2.1050355   0.63991596   -1.4651195   0.12821691    11417.453     1000 
 2780000   0.42665371   -2.1275073   0.63934058   -1.4881667   0.13448125    11370.657     1000 
 2782000   0.45942463   -2.0605893   0.68844782   -1.3721415   0.13435633    11311.154     1000 
 2784000   0.46448728    -2.061684   0.69603419   -1.3656498   0.12671398    11439.565     1000 
 2786000   0.44415414   -2.0548468   0.66556498   -1.3892818   0.12506154    11372.978     1000 
 2788000   0.43657647   -2.0840619   0.65420983   -1.4298521   0.13232324    11427.648     1000 
 2790000   0.44582533    -2.072415   0.66806926   -1.4043457   0.12994825    11309.944     1000 
 2792000   0.44239681   -2.0534756   0.66293162    -1.390544    0.1371651    11336.175     1000 
 2794000   0.43197402   -2.1456148   0.64731307   -1.4983017    0.1301538    11428.318     1000 
 2796000    0.4357426   -2.0775427   0.65296028   -1.4245824   0.13727367    11243.335     1000 
 2798000   0.44515594   -2.0909736   0.66706618   -1.4239075   0.12584018    11334.039     1000 
 2800000   0.43066867   -2.0957517     0.645357   -1.4503947   0.13101282    11401.063     1000 
 2802000   0.43531563   -2.0801522   0.65232047   -1.4278318   0.14180929    11342.579     1000 
 2804000   0.42580186   -2.1145519   0.63806408   -1.4764878    0.1196661    11467.905     1000 
 2806000   0.44618041   -2.0789639   0.66860134   -1.4103625   0.13244941    11279.449     1000 
 2808000   0.44408521   -2.1480166   0.66546169   -1.4825549   0.13050021    11479.645     1000 
 2810000   0.45503438   -2.1154434   0.68186902   -1.4335744   0.13020447    11333.317     1000 
 2812000   0.43493098   -2.0719604   0.65174408   -1.4202163   0.12689571    11286.647     1000 
 2814000   0.44152739   -2.0399426   0.66162879   -1.3783138   0.14654313    11124.872     1000 
 2816000   0.45755294   -2.0935733   0.68564307   -1.4079303   0.12532267    11518.135     1000 
 2818000   0.44605566   -2.1280736   0.66841441   -1.4596592   0.12661425    11407.335     1000 
 2820000   0.42938043   -2.0971691   0.64342658   -1.4537425   0.13620663    11254.398     1000 
 2822000   0.42365946   -2.1222224    0.6348537   -1.4873687   0.13340243    11299.961     1000 
 2824000   0.43104561   -2.0390434   0.64592185   -1.3931215   0.13978528    11243.546     1000 
 2826000   0.42590889   -2.1281454   0.63822447   -1.4899209   0.12579606    11399.215     1000 
 2828000   0.41915592   -2.0815269   0.62810514   -1.4534217   0.13510122    11393.347     1000 
 2830000   0.44030718   -2.1212399   0.65980031   -1.4614396   0.13738605     11330.52     1000 
 2832000   0.45862205   -2.1356631   0.68724514    -1.448418   0.12530859    11529.786     1000 
 2834000   0.44833644   -2.1075045   0.67183216   -1.4356724   0.14908232     11239.45     1000 
 2836000   0.44787137   -2.0937073   0.67113525    -1.422572   0.12598674    11426.375     1000 
 2838000   0.42347801   -2.1277352    0.6345818   -1.4931534   0.11843562    11386.817     1000 
 2840000    0.4702644   -2.0903788    0.7046912   -1.3856876   0.14155167    11331.855     1000 
 2842000   0.43822911   -2.1588542   0.65668632   -1.5021679   0.12373461    11546.491     1000 
 2844000   0.43692214   -2.0987195   0.65472783   -1.4439917   0.12891601     11417.95     1000 
 2846000   0.43632667   -2.0669686   0.65383552   -1.4131331    0.1358649    11242.419     1000 
 2848000   0.42947792   -2.0938224   0.64357267   -1.4502497   0.13436757    11310.891     1000 
 2850000   0.45525164   -2.1358755   0.68219459   -1.4536809   0.13183141     11401.18     1000 
 2852000   0.45491584   -2.1124162   0.68169138   -1.4307248   0.13148041    11346.342     1000 
 2854000   0.43804221   -2.1135859   0.65640626   -1.4571796   0.14042323    11286.024     1000 
 2856000    0.4203705   -2.0947409   0.62992519   -1.4648158   0.11396327    11549.282     1000 
 2858000   0.42205186   -2.0673913   0.63244471   -1.4349465   0.13179929    11334.889     1000 
 2860000   0.44536431    -2.132587   0.66737842   -1.4652086   0.13641913    11354.597     1000 
 2862000    0.4336521   -2.1233596   0.64982768   -1.4735319   0.13738354     11154.01     1000 
 2864000   0.42850582   -2.0988958   0.64211598   -1.4567798   0.13590067    11326.723     1000 
 2866000   0.42080335   -2.0826473   0.63057382   -1.4520735   0.12368894    11351.335     1000 
 2868000   0.42616743   -2.1430815   0.63861189   -1.5044696   0.13554124    11385.189     1000 
 2870000   0.42596857   -2.1243793    0.6383139   -1.4860654   0.14003516    11283.511     1000 
 2872000   0.44943521   -2.0721646   0.67347866   -1.3986859   0.12926578    11250.046     1000 
 2874000   0.41355482   -2.1040802    0.6197119   -1.4843683   0.13502247    11260.485     1000 
 2876000   0.43572311   -1.9920163   0.65293108   -1.3390852   0.13805822    11272.078     1000 
 2878000    0.4511841   -2.1136952   0.67609937   -1.4375958   0.13203865     11302.19     1000 
 2880000   0.42650926   -2.1282734   0.63912412   -1.4891493   0.11782827    11508.598     1000 
 2882000    0.4420242   -2.0377655   0.66237326   -1.3753922   0.12817314    11276.946     1000 
 2884000   0.44229108   -2.1010721   0.66277318   -1.4382989    0.1321433    11405.948     1000 
 2886000   0.44741529   -2.0804751   0.67045182   -1.4100233   0.13341242    11285.055     1000 
 2888000   0.42250689   -2.0747197   0.63312658   -1.4415931   0.12366504    11459.915     1000 
 2890000   0.41545357   -2.1109502   0.62255717    -1.488393   0.13613683    11282.554     1000 
 2892000   0.44963586   -2.0626521   0.67377934   -1.3888727   0.13900751    11266.109     1000 
 2894000    0.4242778   -2.0648424   0.63578028   -1.4290621   0.13775879    11269.488     1000 
 2896000   0.44165656   -2.1126682   0.66182236   -1.4508459   0.12197778    11382.223     1000 
 2898000   0.43414795    -2.169812   0.65057071   -1.5192413   0.11795023    11466.837     1000 
 2900000   0.45583205   -2.0805008   0.68306432   -1.3974365   0.12587476    11467.419     1000 
 2902000   0.44520306   -2.0886753   0.66713679   -1.4215385   0.13927856    11310.781     1000 
 2904000   0.42739309   -2.1168686   0.64044855   -1.4764201   0.12178807     11433.58     1000 
 2906000   0.44627424   -2.1041066   0.66874195   -1.4353646   0.12075396    11430.343     1000 
 2908000   0.44340494   -2.0336948   0.66444231   -1.3692525   0.13977267    11300.309     1000 
 2910000   0.44190793   -2.1157538   0.66219903   -1.4535548   0.11755433    11462.673     1000 
 2912000   0.43920847   -2.0915753   0.65815389   -1.4334214   0.12853852    11384.344     1000 
 2914000   0.44349316   -2.1006023   0.66457449   -1.4360278    0.1396232     11315.92     1000 
 2916000   0.42368347   -2.0246982   0.63488968   -1.3898086   0.13057833    11344.155     1000 
 2918000   0.44047148   -2.0942337   0.66004652   -1.4341872   0.14690177    11310.617     1000 
 2920000   0.44656313   -2.0875634   0.66917485   -1.4183885   0.14131135    11273.135     1000 
 2922000   0.43022002   -2.0788397    0.6446847    -1.434155    0.1393393    11349.391     1000 
 2924000   0.41420148   -2.0753756   0.62068092   -1.4546947   0.13177352    11253.948     1000 
 2926000   0.42909315   -2.1178359   0.64299608   -1.4748398   0.11239113    11594.865     1000 
 2928000   0.44864926   -2.1357534   0.67230092   -1.4634525   0.13086142    11383.774     1000 
 2930000    0.4307091   -2.1046726   0.64541758    -1.459255   0.13003875    11420.041     1000 
 2932000   0.43024442   -2.0934267   0.64472126   -1.4487054    0.1195464    11473.471     1000 
 2934000   0.43632673   -2.0771273    0.6538356   -1.4232917   0.13140867    11412.111     1000 
 2936000   0.41838184   -2.1172018   0.62694519   -1.4902567   0.13358779    11348.471     1000 
 2938000   0.44438136   -2.1063763   0.66590546   -1.4404708   0.12973719    11334.306     1000 
 2940000   0.46683344   -2.1058699    0.6995499   -1.4063199   0.14325935    11264.994     1000 
 2942000   0.44692871    -2.106984   0.66972267   -1.4372613   0.12359982    11465.939     1000 
 2944000   0.44628875   -2.1117632    0.6687637   -1.4429995   0.12553633    11437.648     1000 
 2946000   0.44559228   -2.1007134   0.66772003   -1.4329934   0.12372857    11447.811     1000 
 2948000   0.42961589   -2.0957981   0.64377942   -1.4520187   0.12722074    11412.449     1000 
 2950000   0.43930811   -2.0578108   0.65830321   -1.3995076   0.12597362    11345.577     1000 
 2952000   0.43759994   -2.0552427   0.65574351   -1.3994992   0.14472514    11230.022     1000 
 2954000   0.43852262   -2.0476759   0.65712615   -1.3905498   0.13731647    11268.786     1000 
 2956000   0.44177788   -2.1152644   0.66200415   -1.4532602   0.13712434    11270.369     1000 
 2958000   0.42753631   -2.0176847   0.64066316   -1.3770216   0.12505211    11367.886     1000 
 2960000   0.41146652   -2.0674099   0.61658258   -1.4508273   0.12429006    11336.734     1000 
 2962000   0.46596087   -2.0761942   0.69824236   -1.3779519   0.12897482    11410.424     1000 
 2964000   0.44833547   -2.0681628   0.67183071   -1.3963321   0.14001408    11325.698     1000 
 2966000   0.43811114   -2.1052039   0.65650954   -1.4486943   0.12179591    11479.968     1000 
 2968000   0.42879489   -2.0966816   0.64254915   -1.4541325   0.13511715     11301.78     1000 
 2970000   0.43682455   -2.0167927   0.65458159   -1.3622111    0.1420743    11227.543     1000 
 2972000   0.43726716   -2.1216199   0.65524484   -1.4663751    0.1218702    11403.279     1000 
 2974000   0.43771307   -2.0924775   0.65591303   -1.4365645   0.12700696    11372.742     1000 
 2976000   0.43884208   -2.1008523   0.65760486   -1.4432474   0.13003332    11372.554     1000 
 2978000   0.44409672   -2.0954629   0.66547893    -1.429984   0.13017035    11339.647     1000 
 2980000    0.4628915   -2.1347339   0.69364292    -1.441091   0.13153442    11411.219     1000 
 2982000    0.4457706   -2.1643984   0.66798725   -1.4964112   0.13331689    11427.595     1000 
 2984000   0.45321439     -2.04836   0.67914177   -1.3692182    0.1337071    11317.639     1000 
 2986000   0.43811465   -2.0931648   0.65651481     -1.43665   0.12776872      11356.9     1000 
 2988000   0.45275527   -2.1303134   0.67845377   -1.4518596   0.12750601    11430.838     1000 
 2990000   0.43625136   -2.1053126   0.65372266     -1.45159   0.14044045     11280.84     1000 
 2992000   0.42797122   -2.0442521   0.64131487   -1.4029372   0.12909851    11162.064     1000 
 2994000   0.44457487   -2.0562245   0.66619545    -1.390029   0.12551105    11378.601     1000 
 2996000   0.44478214   -2.0792716   0.66650604   -1.4127656   0.12131158    11473.679     1000 
 2998000   0.44040104   -2.1413194   0.65994095   -1.4813784   0.12637926    11378.477     1000 
 3000000   0.43517461   -2.1050849   0.65210916   -1.4529758    0.1378251    11309.229     1000 
Loop time of 1792.54 on 4 procs for 3000000 steps with 1000 atoms

Performance: 722995.732 tau/day, 1673.601 timesteps/s
95.7% CPU use with 4 MPI tasks x no OpenMP threads

MPI task timing breakdown:
Section |  min time  |  avg time  |  max time  |%varavg| %total
---------------------------------------------------------------
Pair    | 1247.8     | 1307.2     | 1378.6     | 165.8 | 72.92
Neigh   | 105.97     | 109.05     | 112.32     |  27.4 |  6.08
Comm    | 213.54     | 289.97     | 354.23     | 379.8 | 16.18
Output  | 0.0392     | 0.11273    | 0.33324    |  37.9 |  0.01
Modify  | 75.499     | 75.868     | 76.259     |   3.1 |  4.23
Other   |            | 10.34      |            |       |  0.58

Nlocal:    250 ave 255 max 241 min
Histogram: 1 0 0 0 0 0 1 0 0 2
Nghost:    1705.75 ave 1727 max 1688 min
Histogram: 1 0 0 1 0 1 0 0 0 1
Neighs:    14575 ave 15037 max 13656 min
Histogram: 1 0 0 0 0 0 1 0 0 2

Total # of neighbors = 58300
Ave neighs/atom = 58.3
Neighbor list builds = 150000
Dangerous builds not checked

Total wall time: 0:29:52
