LAMMPS (3 Mar 2020)
# ----------------------- Inicialização -----------------------

units			lj
atom_style 		atomic
dimension 		3
boundary 		p p p

# -------------------- Criação dos Átomos ---------------------

read_data 		topologia.txt
  orthogonal box = (0 0 0) to (21.54 21.54 21.54)
  1 by 2 by 2 MPI processor grid
  reading atoms ...
  1000 atoms
  read_data CPU = 0.00156945 secs

velocity 		all create ${temp} 87287 rot yes dist gaussian
velocity 		all create 0.80 87287 rot yes dist gaussian

# ------------------ Interação Interatômica -------------------

pair_style		table linear 1300
pair_coeff		1 1 force.table AA 6.5
WARNING: 2 of 1300 force values in table are inconsistent with -dE/dr.
  Should only be flagged at inflection points (src/pair_table.cpp:483)
pair_coeff		1 2 force.table AB 6.5
WARNING: 1 of 1300 force values in table are inconsistent with -dE/dr.
  Should only be flagged at inflection points (src/pair_table.cpp:483)
pair_coeff		2 2 force.table BB 6.5
pair_write		1 1 1600 r 0.008 6.5 table.check AA
Neighbor list info ...
  update every 1 steps, delay 10 steps, check yes
  max neighbors/atom: 2000, page size: 100000
  master list distance cutoff = 6.8
  ghost atom cutoff = 6.8
  binsize = 3.4, bins = 7 7 7
  1 neighbor lists, perpetual/occasional/extra = 1 0 0
  (1) pair table, perpetual
      attributes: half, newton on
      pair build: half/bin/atomonly/newton
      stencil: half/bin/3d/newton
      bin: standard
pair_write		1 2 1600 r 0.008 6.5 table.check AB
pair_write		2 2 1600 r 0.008 6.5 table.check BB

neighbor 		0.3 bin
neigh_modify	every 20 delay 0 check no

# ------------------------- Ensemble --------------------------------------

fix 1			all npt temp ${temp} ${temp} 0.5 iso ${press} ${press} 5
fix 1			all npt temp 0.80 ${temp} 0.5 iso ${press} ${press} 5
fix 1			all npt temp 0.80 0.80 0.5 iso ${press} ${press} 5
fix 1			all npt temp 0.80 0.80 0.5 iso 0.13 ${press} 5
fix 1			all npt temp 0.80 0.80 0.5 iso 0.13 0.13 5

# ---------------------- Função de Distribuição Radial -----------------------

#compute RDF 	all rdf 2000 1 1 1 2 2 2
#fix 2 			all ave/time 1 2000 2000 c_RDF[*] file rdf.data mode vector

# ------------------------- Execução ---------------------------

timestep 		0.005
thermo_style	custom step temp pe ke etotal press vol atoms
thermo			2000
run				3000000
Per MPI rank memory allocation (min/avg/max) = 2.675 | 2.675 | 2.675 Mbytes
Step Temp PotEng KinEng TotEng Press Volume Atoms 
       0          0.8   -0.9940566       1.1988    0.2047434   0.14836742    9993.9483     1000 
    2000   0.79479896   -1.3348702    1.1910062  -0.14386401    0.1178399    12211.716     1000 
    4000   0.80023349   -1.2527967    1.1991499 -0.053646827   0.12864976    11905.468     1000 
    6000   0.78371583    -1.280222    1.1743982  -0.10582388   0.12412509    12008.688     1000 
    8000   0.77231427   -1.3064673    1.1573129  -0.14915437   0.12918177    11849.247     1000 
   10000   0.77536527   -1.2371377    1.1618849 -0.075252847   0.13576469    11869.303     1000 
   12000   0.77986836   -1.2974996    1.1686327  -0.12886681   0.13434742    11968.822     1000 
   14000   0.82385941   -1.3350314    1.2345533  -0.10047808   0.13770896    11864.342     1000 
   16000    0.8118967   -1.2697164    1.2166272   -0.0530892   0.14875335    11959.843     1000 
   18000   0.81601967   -1.2387023    1.2228055  -0.01589685   0.12437413    11995.622     1000 
   20000   0.79875269   -1.2468194    1.1969309 -0.049888521   0.14009941    11934.375     1000 
   22000   0.80415131   -1.3088317    1.2050207  -0.10381097   0.13000124    12060.072     1000 
   24000   0.78282433   -1.3350093    1.1730623  -0.16194702   0.12762891    12281.386     1000 
   26000   0.77989399    -1.332242    1.1686711  -0.16357085   0.12863981    11993.121     1000 
   28000   0.78071147   -1.2827612    1.1698961  -0.11286506   0.12729282    11933.629     1000 
   30000   0.80233976   -1.2540125    1.2023061  -0.05170635   0.13768896    11806.731     1000 
   32000   0.80180291   -1.3239888    1.2015017  -0.12248713   0.13681553    11900.902     1000 
   34000   0.78895675   -1.3387311    1.1822517  -0.15647937   0.12657502    12118.998     1000 
   36000   0.80968737   -1.2854816    1.2133165  -0.07216508   0.12754949    12002.406     1000 
   38000   0.78737269   -1.3219569     1.179878  -0.14207896   0.12514089    12145.974     1000 
   40000   0.79269367   -1.2813021    1.1878515 -0.093450652   0.12421906    12176.449     1000 
   42000   0.79636271   -1.3454004    1.1933495  -0.15205085   0.13259167    11983.738     1000 
   44000   0.80728072   -1.2993899    1.2097102 -0.089679772   0.12290912    12123.573     1000 
   46000   0.79343303   -1.2680924    1.1889594 -0.079132965   0.13621227    11995.477     1000 
   48000    0.7917309   -1.3346852    1.1864088  -0.14827643   0.10512675    12454.522     1000 
   50000    0.8044962   -1.3250462    1.2055376  -0.11950862   0.11263758    12455.893     1000 
   52000   0.78580383   -1.2890082     1.177527  -0.11148116   0.12367665    12035.625     1000 
   54000   0.77956897   -1.2725014    1.1681841  -0.10431734   0.11381436    12308.822     1000 
   56000   0.79533396   -1.3269792    1.1918079  -0.13517125    0.1169377     12026.94     1000 
   58000   0.82513874    -1.320983    1.2364704 -0.084512572   0.12913896    12106.338     1000 
   60000    0.8291994   -1.2854916    1.2425553 -0.042936261   0.14477343    11869.792     1000 
   62000   0.78770184   -1.2761762    1.1803712 -0.095805016   0.14056263     11983.84     1000 
   64000   0.75651302    -1.347923    1.1336348  -0.21428826   0.12659284    12076.782     1000 
   66000   0.78856543   -1.2969934    1.1816653  -0.11532814    0.1212232    12237.814     1000 
   68000   0.79301466   -1.2617487    1.1883325 -0.073416191   0.13130391    12039.076     1000 
   70000   0.80643142   -1.2349359    1.2084375 -0.026498401   0.12649133    12198.277     1000 
   72000   0.80026465   -1.3357532    1.1991966  -0.13655662   0.12489887    12098.126     1000 
   74000   0.80434346   -1.3018631    1.2053087  -0.09655443    0.1324997     12113.34     1000 
   76000   0.81815284   -1.3048363     1.226002 -0.078834298   0.13364603    11939.869     1000 
   78000   0.77982343   -1.3183041    1.1685654   -0.1497387   0.12712702    12012.049     1000 
   80000   0.83724624   -1.3278643    1.2546135 -0.073250829   0.12416313     12173.91     1000 
   82000   0.78984622   -1.3493142    1.1835846  -0.16572964    0.1340054    11851.439     1000 
   84000   0.78263821   -1.2814515    1.1727834  -0.10866814   0.13073099    12005.382     1000 
   86000   0.78177904   -1.3003948    1.1714959  -0.12889896   0.13328991    12221.292     1000 
   88000   0.78769061   -1.3601928    1.1803544   -0.1798384    0.1156893     12247.25     1000 
   90000   0.80712268   -1.3172169    1.2094733  -0.10774361   0.13450794    12124.451     1000 
   92000   0.79638472   -1.3448111    1.1933825  -0.15142856   0.12294338    12140.658     1000 
   94000   0.81993418   -1.2874467    1.2286714 -0.058775324   0.14064364     11864.91     1000 
   96000   0.82813496   -1.2555069    1.2409602 -0.014546682   0.12653855    12064.744     1000 
   98000   0.80829674   -1.2878573    1.2112327 -0.076624629   0.13834249    11833.451     1000 
  100000   0.80945905   -1.3122274    1.2129744 -0.099253023   0.13862572    11910.839     1000 
  102000   0.78741896   -1.3471175    1.1799473  -0.16717019   0.13162273     11863.99     1000 
  104000   0.77060399   -1.2723213    1.1547501  -0.11757118   0.11903989    12261.902     1000 
  106000   0.82558089   -1.2503425     1.237133  -0.01320949    0.1416366    11762.329     1000 
  108000   0.82126952     -1.28175    1.2306724 -0.051077656   0.13580786     11882.01     1000 
  110000   0.79370195   -1.3174593    1.1893624  -0.12809688   0.13484995    11811.915     1000 
  112000   0.81378549   -1.3552849    1.2194576  -0.13582736   0.13603479    11887.396     1000 
  114000   0.77006873   -1.2661312     1.153948  -0.11218322   0.12201305    11856.851     1000 
  116000   0.81532136   -1.2736455    1.2217591 -0.051886439   0.14386614    11878.672     1000 
  118000   0.78219168   -1.3309191    1.1721142  -0.15880484    0.1192999    12045.479     1000 
  120000   0.79111916   -1.3589197    1.1854921  -0.17342766   0.12411632    12150.658     1000 
  122000   0.84224429   -1.2206525    1.2621031   0.04145059   0.14197545     11790.06     1000 
  124000   0.82221605   -1.3110077    1.2320907 -0.078916989   0.11314576    12018.494     1000 
  126000   0.79898139   -1.2270711    1.1972736 -0.029797517    0.1397572    11868.202     1000 
  128000   0.82708505   -1.3164722     1.239387 -0.077085208   0.14418291    11868.089     1000 
  130000   0.83100869   -1.2798746    1.2452665 -0.034608104   0.13594555    12128.439     1000 
  132000   0.76197812   -1.3431457    1.1418242  -0.20132152    0.1206926    11978.723     1000 
  134000   0.80949996   -1.3446498    1.2130357  -0.13161408   0.12347291    12061.789     1000 
  136000   0.80146936   -1.2501685    1.2010018 -0.049166716   0.12803338    11982.116     1000 
  138000   0.82052688   -1.3083541    1.2295595 -0.078794562   0.12877082    11998.997     1000 
  140000   0.78997847   -1.3081566    1.1837827   -0.1243739   0.12988115     12152.95     1000 
  142000   0.76385466   -1.2378355    1.1446362 -0.093199242   0.12296696    12055.277     1000 
  144000   0.79019937    -1.296601    1.1841138  -0.11248729   0.12157666     12088.88     1000 
  146000   0.80811088   -1.3189474    1.2109542  -0.10799323   0.12306728    11969.527     1000 
  148000   0.82655212   -1.2542759    1.2385884 -0.015687536   0.13568614    11789.404     1000 
  150000   0.78412125   -1.2737103    1.1750057   -0.0987046   0.13431171     11863.56     1000 
  152000   0.78218778   -1.3391191    1.1721084  -0.16701075   0.12629041    11932.978     1000 
  154000   0.78988168   -1.2479522    1.1836377 -0.064314471   0.12963789    11855.764     1000 
  156000   0.76897424   -1.2793061    1.1523079   -0.1269982   0.12882255    12248.987     1000 
  158000   0.77055149   -1.3059312    1.1546714  -0.15125983   0.13425617    12145.232     1000 
  160000   0.77580441   -1.2605345    1.1625429 -0.097991607    0.1352129    11856.982     1000 
  162000   0.84405221   -1.3192364    1.2648122 -0.054424145   0.12676254    12105.343     1000 
  164000   0.79752992   -1.3006431    1.1950986  -0.10554451   0.12445427    12013.036     1000 
  166000   0.81507754   -1.2961434    1.2213937 -0.074749755   0.11468772    12273.769     1000 
  168000   0.80123539   -1.3012745    1.2006512  -0.10062329   0.13138217    12002.088     1000 
  170000   0.77409836   -1.3266437    1.1599864  -0.16665727   0.13570991    11898.506     1000 
  172000   0.78272148   -1.2870699    1.1729081  -0.11416171   0.13124399    11860.994     1000 
  174000   0.77942025    -1.235689    1.1679612 -0.067727779   0.13300868    11901.791     1000 
  176000   0.82890579   -1.2534611    1.2421153 -0.011345768   0.12678835    12032.498     1000 
  178000   0.80863556   -1.3368927    1.2117404  -0.12515228    0.1217925    12112.598     1000 
  180000   0.79081937   -1.2865168    1.1850428  -0.10147402   0.13282159     12212.44     1000 
  182000    0.7968231   -1.3175398    1.1940394  -0.12350042   0.13004895    12102.194     1000 
  184000   0.80255081   -1.2799031    1.2026224 -0.077280671   0.13353795    12051.459     1000 
  186000   0.81758835   -1.3114597    1.2251561  -0.08630356   0.13422463     11932.48     1000 
  188000   0.83833384   -1.2696762    1.2562433 -0.013432901   0.12653013    12050.024     1000 
  190000   0.81608291   -1.3373099    1.2229002  -0.11440966   0.13951762    11984.832     1000 
  192000   0.78721967   -1.2842484    1.1796487  -0.10459975   0.12817974    12254.667     1000 
  194000   0.80122642   -1.2745097    1.2006378  -0.07387187   0.13649638    11945.366     1000 
  196000   0.80179542   -1.2297935    1.2014904  -0.02830302   0.14446693    11610.302     1000 
  198000   0.80722945   -1.2523986    1.2096333 -0.042765238   0.13607287    11939.986     1000 
  200000   0.76461362   -1.2780546    1.1457735  -0.13228109   0.12729827    11751.588     1000 
  202000   0.79419767   -1.3090353    1.1901052  -0.11893006   0.12043119    12070.414     1000 
  204000   0.78222205   -1.3430399    1.1721597  -0.17088019   0.13469836     11869.99     1000 
  206000   0.81076748   -1.2616181    1.2149351 -0.046682995   0.12243911     12177.39     1000 
  208000   0.79452983     -1.27343     1.190603  -0.08282702   0.13435661    11959.128     1000 
  210000   0.80615215   -1.3179917     1.208019  -0.10997269   0.13134821    12038.006     1000 
  212000   0.81855146    -1.261304    1.2265994 -0.034704596    0.1234055    12286.514     1000 
  214000   0.77567463   -1.3326049    1.1623484  -0.17025642   0.11984137    11993.447     1000 
  216000    0.7947439   -1.3065856    1.1909237  -0.11566183   0.13967769     11877.59     1000 
  218000   0.79966219   -1.3004312    1.1982938  -0.10213742   0.12692255    11860.377     1000 
  220000   0.77896039   -1.2639495    1.1672721 -0.096677393   0.12015451    11946.426     1000 
  222000    0.7887723   -1.2820117    1.1819753  -0.10003637   0.12620837     12012.98     1000 
  224000   0.76758797   -1.3478974    1.1502306   -0.1976668   0.11221515    12185.231     1000 
  226000   0.82025795   -1.3097448    1.2291565 -0.080588314    0.1313488    11931.283     1000 
  228000   0.83398156   -1.3087424    1.2497214 -0.059021001   0.13906965    11743.908     1000 
  230000   0.76616758   -1.3080872    1.1481021  -0.15998511   0.12937287    11689.781     1000 
  232000   0.76821051   -1.2617531    1.1511635  -0.11058968   0.12748685    12156.201     1000 
  234000   0.80734782   -1.2840925    1.2098107 -0.074281816   0.12947935    11977.301     1000 
  236000   0.79702935   -1.3297832    1.1943485   -0.1354347   0.13244756     11936.75     1000 
  238000   0.81858456   -1.2798449     1.226649 -0.053195928   0.12386945    12180.341     1000 
  240000   0.81360488     -1.28448    1.2191869 -0.065293052   0.12694452    12156.095     1000 
  242000   0.81870004   -1.3391815     1.226822  -0.11235948    0.1267887    11792.273     1000 
  244000   0.81975419    -1.320365    1.2284017 -0.091963376   0.12951621    12025.464     1000 
  246000   0.77524356   -1.3388448    1.1617025  -0.17714237    0.1386452    11728.024     1000 
  248000   0.78801693   -1.2716777    1.1808434 -0.090834338   0.12575522    12203.425     1000 
  250000   0.83335138   -1.3534997    1.2487771  -0.10472262   0.12761538     12056.98     1000 
  252000   0.77421232      -1.3278    1.1601572  -0.16764285   0.13468005    11830.229     1000 
  254000    0.8333198   -1.3117987    1.2487297 -0.063068926   0.12815254    12077.046     1000 
  256000   0.81603071   -1.3141026     1.222822 -0.091280548   0.11799226    12090.894     1000 
  258000   0.82535764    -1.363229    1.2367984  -0.12643057   0.13707266    11943.594     1000 
  260000   0.80228992   -1.3046196    1.2022314  -0.10238812    0.1207555    11939.736     1000 
  262000   0.82984598   -1.3024081    1.2435242 -0.058883932   0.14116257    11781.052     1000 
  264000   0.82962589   -1.2846006    1.2431944 -0.041406174   0.12496647    12167.795     1000 
  266000   0.81806258   -1.3081901    1.2258668 -0.082323346    0.1324083    11948.616     1000 
  268000   0.78321616    -1.278697    1.1736494  -0.10504756   0.14293993      11855.1     1000 
  270000   0.79259664   -1.3122891    1.1877061  -0.12458301   0.13830915    11830.156     1000 
  272000   0.84197698   -1.2559665    1.2617025 0.0057360375   0.13930194    12020.358     1000 
  274000   0.77515839   -1.2877707    1.1615748  -0.12619581   0.13033573    11992.635     1000 
  276000   0.81436214   -1.2974358    1.2203217 -0.077114173   0.12460258    11821.415     1000 
  278000   0.79058557    -1.225791    1.1846925 -0.041098516    0.1327521    11926.703     1000 
  280000   0.81214273   -1.3311533    1.2169959  -0.11415738   0.11850673    12053.106     1000 
  282000   0.78371879   -1.3189984    1.1744026  -0.14459581   0.12350094     11912.39     1000 
  284000   0.80576697   -1.2887341    1.2074418 -0.081292338   0.14194912    11880.425     1000 
  286000   0.80712906   -1.2960211    1.2094829  -0.08653824   0.14008658    11876.372     1000 
  288000   0.79498948   -1.3291749    1.1912917  -0.13788313   0.12862753    12097.663     1000 
  290000   0.77596204   -1.3275546    1.1627791  -0.16477544   0.12819357     11934.61     1000 
  292000   0.76825078   -1.3316687    1.1512238  -0.18044489   0.14375455    11818.646     1000 
  294000   0.80896058    -1.331214    1.2122274  -0.11898658   0.13071334    12119.057     1000 
  296000   0.79904682   -1.2860409    1.1973717 -0.088669247   0.13127142    12128.975     1000 
  298000   0.80491989   -1.2682019    1.2061725 -0.062029432   0.12514998    11689.523     1000 
  300000   0.78250338   -1.3111018    1.1725813  -0.13852053    0.1309422    11972.424     1000 
  302000   0.80255826   -1.3717146    1.2026336  -0.16908108   0.11940687    12238.507     1000 
  304000   0.81257193   -1.3031761     1.217639 -0.085537068   0.13146724    11792.593     1000 
  306000   0.84611317   -1.2950748    1.2679006 -0.027174258   0.13407173    11918.509     1000 
  308000   0.78528972   -1.2840924    1.1767566  -0.10733572    0.1273668    12303.037     1000 
  310000    0.7817606   -1.3331354    1.1714683  -0.16166716   0.11748172    12102.807     1000 
  312000   0.78579347   -1.2458943    1.1775115 -0.068382766   0.12596501    11971.593     1000 
  314000    0.7901231   -1.2258075    1.1839995 -0.041808077   0.13632486    11944.505     1000 
  316000   0.79855436   -1.2860032    1.1966337 -0.089369532    0.1308322    12031.719     1000 
  318000   0.79039822   -1.2877476    1.1844117  -0.10333584   0.12331162    12207.794     1000 
  320000   0.81314174   -1.3071235    1.2184929  -0.08863058   0.12655032    12092.019     1000 
  322000   0.81951619   -1.3026321     1.228045 -0.074587056   0.13404498     11818.78     1000 
  324000   0.81955094   -1.3338341    1.2280971    -0.105737   0.12008834    12128.307     1000 
  326000   0.83484339    -1.261108    1.2510128 -0.010095209   0.13718387    11910.264     1000 
  328000   0.80558932   -1.3574247    1.2071756  -0.15024911   0.13222573     12001.23     1000 
  330000   0.80296856   -1.3652055    1.2032484   -0.1619571   0.12034055    12127.746     1000 
  332000   0.80931177    -1.298845    1.2127537 -0.086091341   0.12818493    11938.537     1000 
  334000   0.80244303   -1.2823345    1.2024609 -0.079873661   0.11610619    11870.795     1000 
  336000   0.82278619   -1.3191765    1.2329451 -0.086231366   0.13673332    11882.655     1000 
  338000    0.7832946   -1.2770907     1.173767  -0.10332374   0.13992993    11880.698     1000 
  340000   0.78516429   -1.2688124    1.1765687 -0.092243753   0.14020356    11733.432     1000 
  342000   0.80791342   -1.2755019    1.2106583 -0.064843592   0.13680774     11969.91     1000 
  344000   0.76881084   -1.3277311     1.152063  -0.17566806   0.11502845    12332.971     1000 
  346000   0.78405589   -1.2555505    1.1749078 -0.080642739   0.13283541    11853.267     1000 
  348000   0.83441984   -1.3228808    1.2503781 -0.072502686   0.12853116    12096.853     1000 
  350000   0.79492953   -1.3384718    1.1912019  -0.14726986   0.13796707    11967.231     1000 
  352000   0.79545286   -1.2994717    1.1919861  -0.10748562   0.12905616    11835.228     1000 
  354000   0.80389191   -1.3266782     1.204632  -0.12204616   0.13212049    12011.828     1000 
  356000   0.80686462   -1.3450938    1.2090866  -0.13600717   0.12707095     12080.75     1000 
  358000   0.80531284   -1.2825112    1.2067613 -0.075749933   0.13980013    11946.099     1000 
  360000   0.81869847   -1.3177329    1.2268197 -0.090913223    0.1223489    11960.365     1000 
  362000   0.80036818   -1.2840542    1.1993517 -0.084702506    0.1338951    11932.516     1000 
  364000   0.82347442   -1.2659328    1.2339764 -0.031956431   0.13402174    11972.161     1000 
  366000   0.81856513   -1.3067733    1.2266198 -0.080153406   0.14288001    11758.304     1000 
  368000   0.81145505   -1.3350798    1.2159654  -0.11911444   0.12905235    11855.496     1000 
  370000   0.77575058   -1.2775289    1.1624622  -0.11506666   0.13116449    11944.842     1000 
  372000   0.81324359    -1.303471    1.2186455 -0.084825482    0.1435358    11781.319     1000 
  374000   0.82860773   -1.2705909    1.2416687 -0.028922178   0.13955034    11731.655     1000 
  376000   0.79083051   -1.3087885    1.1850595    -0.123729   0.13616252    12007.179     1000 
  378000   0.80393202   -1.2743403    1.2046921 -0.069648197   0.12213946    12367.445     1000 
  380000   0.84105773   -1.2561041     1.260325 0.0042209462   0.13682577    11904.317     1000 
  382000     0.808213    -1.258132    1.2111072 -0.047024791   0.12851556    11924.814     1000 
  384000   0.82926635   -1.2504732    1.2426556 -0.0078175563   0.13340535    11827.983     1000 
  386000    0.7978576    -1.324017    1.1955896  -0.12842735   0.11273041    12341.764     1000 
  388000   0.76566253    -1.351111    1.1473453  -0.20376568   0.12644146     11899.53     1000 
  390000    0.7805889   -1.3412861    1.1697125  -0.17157359    0.1326936    12010.333     1000 
  392000   0.82738231    -1.256578    1.2398324 -0.016745604   0.14571192    11635.123     1000 
  394000   0.76624016   -1.3021206    1.1482109  -0.15390972   0.12697155    12073.201     1000 
  396000   0.75949659   -1.3419569    1.1381056  -0.20385122   0.13137013    12022.011     1000 
  398000   0.78328644   -1.2778256    1.1737547  -0.10407086   0.12347355    12152.388     1000 
  400000   0.77197171   -1.3181611    1.1567996  -0.16136147   0.13071847    12074.864     1000 
  402000   0.83166126   -1.3466822    1.2462444  -0.10043779   0.13368043    12039.899     1000 
  404000   0.81502175   -1.3409078    1.2213101  -0.11959767   0.12878004    12199.792     1000 
  406000   0.81994237   -1.2722521    1.2286836 -0.043568471   0.12727921      12129.2     1000 
  408000   0.78840568   -1.3701079    1.1814259  -0.18868195   0.12310129    12074.774     1000 
  410000   0.81001974   -1.2837752    1.2138146 -0.069960622   0.13171791    12062.451     1000 
  412000   0.80951803   -1.2827273    1.2130628 -0.069664551   0.13509876    11946.673     1000 
  414000   0.77437791   -1.3514003    1.1604053  -0.19099503   0.12601372    12113.901     1000 
  416000   0.80752588   -1.3031017    1.2100775 -0.093024187    0.1295195    11785.406     1000 
  418000   0.79428965   -1.3252047     1.190243  -0.13496166   0.13643914    11961.016     1000 
  420000   0.86581472   -1.3066846    1.2974234 -0.0092612382   0.12858299    12131.671     1000 
  422000   0.80216899   -1.3315141    1.2020502  -0.12946389   0.12625432    12063.509     1000 
  424000   0.79327037    -1.287531    1.1887156 -0.098815368   0.14586078    11725.851     1000 
  426000   0.82270325   -1.2891491    1.2328208 -0.056328304   0.14105667    11792.762     1000 
  428000   0.85406957   -1.3495018    1.2798232 -0.069678529   0.12402555    12124.917     1000 
  430000   0.72837056   -1.2977297    1.0914633  -0.20626645   0.13365116      11770.1     1000 
  432000   0.78515467    -1.320889    1.1765543  -0.14433469   0.11562137    12153.303     1000 
  434000   0.80969329   -1.2922761    1.2133254 -0.078950723   0.12526032    11953.911     1000 
  436000   0.76288638   -1.3134299    1.1431852  -0.17024467    0.1377015     11852.87     1000 
  438000   0.79785724   -1.2552099    1.1955891 -0.059620859   0.14435681    11749.106     1000 
  440000   0.80723756   -1.2489001    1.2096455 -0.039254589   0.12722477    12137.965     1000 
  442000   0.81910379   -1.3335686     1.227427  -0.10614161   0.12403744    12180.514     1000 
  444000   0.80285532   -1.3140754    1.2030787  -0.11099673   0.12428733    11952.426     1000 
  446000    0.7865141   -1.2315662    1.1785914 -0.052974828     0.127054    12156.732     1000 
  448000   0.80303624   -1.2335828    1.2033498 -0.030232991   0.13736161     11809.67     1000 
  450000   0.80640307   -1.2933271     1.208395 -0.084932123   0.12466477    11831.195     1000 
  452000    0.8150193   -1.3187436    1.2213064 -0.097437228   0.12039126    12140.227     1000 
  454000   0.77394656   -1.3504837    1.1597589  -0.19072478   0.13236308    11869.677     1000 
  456000   0.81127747   -1.3085503    1.2156993 -0.092850969   0.13885175    11818.425     1000 
  458000    0.8160783   -1.3865524    1.2228933   -0.1636591   0.14642454      11629.3     1000 
  460000   0.82052289   -1.3426072    1.2295535   -0.1130537   0.12072363    12100.457     1000 
  462000   0.81027571   -1.3057041    1.2141982 -0.091505993   0.12877376    12018.328     1000 
  464000   0.77700393   -1.3133772    1.1643404  -0.14903678   0.12137547    11944.236     1000 
  466000   0.78991425   -1.3382682    1.1836865  -0.15458169   0.12323642     12104.06     1000 
  468000   0.84769173   -1.2638592    1.2702661 0.0064068313   0.12868859    12072.894     1000 
  470000   0.84489789   -1.3217559    1.2660795 -0.055676409   0.14374172    12035.439     1000 
  472000   0.76872868   -1.2698899    1.1519399  -0.11794995   0.12515345    11912.148     1000 
  474000   0.79290362    -1.305926    1.1881661  -0.11775991   0.12912143    12012.067     1000 
  476000   0.79411016   -1.2634009    1.1899741 -0.073426772   0.13674265    12024.049     1000 
  478000   0.81138274   -1.3510654     1.215857   -0.1352084   0.12367375    12290.351     1000 
  480000   0.79338834   -1.3696491    1.1888924  -0.18075667   0.12577429    12089.464     1000 
  482000   0.74912534   -1.2743571    1.1225643  -0.15179282   0.12902892     11883.02     1000 
  484000   0.75977118   -1.3003696    1.1385171  -0.16185245   0.11969917    12034.063     1000 
  486000   0.78412725   -1.4151267    1.1750147  -0.24011198   0.12115344    12112.379     1000 
  488000   0.81388307   -1.2954204    1.2196038 -0.075816603   0.13542315    12132.889     1000 
  490000   0.80329478   -1.3426396    1.2037372  -0.13890234   0.13171947    11991.141     1000 
  492000   0.80660971   -1.2880193    1.2087046 -0.079314636   0.15133413    11530.446     1000 
  494000   0.74206052   -1.3291191    1.1119777  -0.21714144   0.13673595    11929.775     1000 
  496000   0.79956666   -1.3134509    1.1981506  -0.11530025   0.12851899    12006.608     1000 
  498000    0.8209527   -1.3309408    1.2301976  -0.10074314   0.12867104    12135.801     1000 
  500000   0.80110933   -1.3385251    1.2004623  -0.13806282   0.12215962    11923.852     1000 
  502000   0.79029395   -1.2591126    1.1842555 -0.074857072   0.13404362     11751.67     1000 
  504000   0.82806833   -1.2819604    1.2408604 -0.041100022    0.1296372    12036.269     1000 
  506000   0.84126684    -1.307571    1.2606384 -0.046932618   0.13926885    11773.071     1000 
  508000    0.7824417   -1.2888609    1.1724889  -0.11637201   0.12560785    12040.185     1000 
  510000    0.7953755   -1.2858751    1.1918702 -0.094004946   0.12680322     11963.72     1000 
  512000   0.77371397    -1.213078    1.1594104 -0.053667605     0.143926    11585.804     1000 
  514000   0.80296902   -1.3007632    1.2032491  -0.09751407   0.13572243    11912.243     1000 
  516000   0.79669185   -1.3023851    1.1938427  -0.10854241   0.13447593     11979.75     1000 
  518000   0.79879856   -1.3109194    1.1969996  -0.11391971   0.12800663    12142.312     1000 
  520000   0.82117898   -1.2947665    1.2305367 -0.064229839   0.12147381    11963.398     1000 
  522000   0.80758192   -1.3120405    1.2101615  -0.10187898   0.13083173    11891.426     1000 
  524000   0.77484641   -1.3362096    1.1611073  -0.17510221   0.11852477     12101.75     1000 
  526000   0.80884784   -1.2901164    1.2120585 -0.078057878    0.1351735    12006.901     1000 
  528000   0.79864121   -1.2892672    1.1967639 -0.092503343   0.13504374    11803.707     1000 
  530000   0.79859938   -1.2918455    1.1967012 -0.095144357   0.13074359    12181.775     1000 
  532000    0.8086634   -1.3195082    1.2117821  -0.10772609   0.13649235    11977.536     1000 
  534000   0.82777243   -1.2847408     1.240417 -0.044323849   0.13172661    11896.377     1000 
  536000   0.79444114   -1.2942403      1.19047  -0.10377022   0.12949925    12045.441     1000 
  538000   0.81848172   -1.3473448    1.2264949  -0.12084998   0.12986871    12055.509     1000 
  540000   0.79298601   -1.3142816    1.1882895  -0.12599207   0.14540545    11643.951     1000 
  542000   0.80487161   -1.3448958    1.2061001  -0.13879574   0.13339168    12009.954     1000 
  544000   0.78656631   -1.3372282    1.1786696  -0.15855858   0.13649555     11913.14     1000 
  546000   0.79078375   -1.2958108    1.1849894  -0.11082132   0.12295334    12091.385     1000 
  548000    0.7846609   -1.3189649    1.1758144  -0.14315057   0.13456128    11823.618     1000 
  550000   0.76803024    -1.300083    1.1508933  -0.14918972   0.12747092     12274.79     1000 
  552000   0.82566873   -1.2487951    1.2372646 -0.011530545   0.12266051    12089.536     1000 
  554000    0.8124509   -1.2874031    1.2174577 -0.069945418   0.13910229    11840.217     1000 
  556000   0.77530453   -1.3684427    1.1617938  -0.20664884   0.12212265    12204.158     1000 
  558000   0.81124529   -1.2968135    1.2156511 -0.081162404   0.12929928      11908.7     1000 
  560000   0.78638449   -1.3211518    1.1783972  -0.14275468   0.11346042    12284.376     1000 
  562000   0.80529599   -1.2597545     1.206736 -0.053018436   0.12683185     12002.24     1000 
  564000   0.78589934   -1.2622019    1.1776702 -0.084531728   0.13654111    11990.224     1000 
  566000   0.80436556   -1.2876296    1.2053418 -0.082287791   0.13357617    11857.368     1000 
  568000   0.82797175   -1.3614158    1.2407157  -0.12070015   0.11608995     12038.41     1000 
  570000   0.80128702   -1.2965429    1.2007286 -0.095814332   0.12882615     12036.87     1000 
  572000   0.79699122   -1.2781726    1.1942913 -0.083881251   0.12477996    12155.096     1000 
  574000   0.83638142   -1.3092801    1.2533176 -0.055962518   0.13145766    12226.692     1000 
  576000   0.77423606   -1.3196053    1.1601927  -0.15941259   0.11378001    12039.047     1000 
  578000   0.78112534   -1.2751227    1.1705163  -0.10460641   0.13064167    12071.707     1000 
  580000   0.78869381   -1.2693913    1.1818577 -0.087533614   0.13323355    11824.928     1000 
  582000    0.7636955   -1.2978416    1.1443977  -0.15344386   0.12828152    11788.484     1000 
  584000    0.8073418   -1.2704798    1.2098017  -0.06067814    0.1371729    11970.528     1000 
  586000   0.79373783   -1.2323186    1.1894161 -0.042902445   0.12865394    11876.273     1000 
  588000   0.78454366   -1.2860858    1.1756387  -0.11044708   0.12523281    12205.335     1000 
  590000    0.7428175   -1.3380535     1.113112  -0.22494143   0.11565785    12161.135     1000 
  592000   0.80973143   -1.2895965    1.2133825 -0.076213999   0.12930604    11911.037     1000 
  594000   0.81939873   -1.2992514     1.227869 -0.071382423   0.13084664    11997.692     1000 
  596000   0.77547949   -1.3099285     1.162056  -0.14787245   0.11626179    12266.984     1000 
  598000   0.78734741   -1.2888538    1.1798401   -0.1090137   0.13197209    11828.466     1000 
  600000   0.80982934    -1.276966    1.2135293 -0.063436709   0.12998813    12137.785     1000 
  602000   0.80791767   -1.2501551    1.2106646 -0.039490451   0.13278197    11949.576     1000 
  604000   0.79763662   -1.2566549    1.1952585 -0.061396442   0.13412014    11926.009     1000 
  606000   0.77791733   -1.3217793    1.1657091  -0.15607022   0.12223841    12187.202     1000 
  608000   0.77527328   -1.3122695     1.161747  -0.15052248   0.12209568    12144.608     1000 
  610000   0.79960889   -1.3070114    1.1982139  -0.10879747   0.13804969    11871.171     1000 
  612000    0.7581566   -1.2974411    1.1360977  -0.16134339   0.13000027     11912.61     1000 
  614000   0.79617337   -1.2201376    1.1930658 -0.027071788    0.1293399    11942.285     1000 
  616000   0.80136349    -1.285597    1.2008432 -0.084753792   0.15271167    11707.422     1000 
  618000   0.81574048    -1.341989    1.2223871   -0.1196019   0.12649414    12059.925     1000 
  620000   0.79606998   -1.3317975    1.1929109  -0.13888662   0.13259662    11971.913     1000 
  622000    0.8120883   -1.2739446    1.2169143 -0.057030279   0.14111588    11821.144     1000 
  624000   0.79440043   -1.2863525     1.190409 -0.095943428   0.11233757    12344.457     1000 
  626000   0.81439235   -1.3955227    1.2203669   -0.1751558   0.12627666     11965.26     1000 
  628000   0.80193137   -1.3332294    1.2016942  -0.13153526   0.14684697    11769.466     1000 
  630000   0.74695177   -1.3342959    1.1193072  -0.21498866   0.12692068     12059.68     1000 
  632000   0.79347586   -1.2368477    1.1890236 -0.047824087   0.13509304    12072.623     1000 
  634000   0.80359323   -1.3421581    1.2041845  -0.13797369   0.12700183    12059.514     1000 
  636000    0.7807352   -1.2823012    1.1699317  -0.11236951   0.12289411    12122.365     1000 
  638000   0.78795023   -1.3283232    1.1807434  -0.14757983   0.13859474    11831.729     1000 
  640000   0.78915857   -1.2711213    1.1825541 -0.088567211   0.13689613     11697.77     1000 
  642000   0.78012113   -1.3172283    1.1690115  -0.14821675   0.13040897    12027.661     1000 
  644000   0.82993494   -1.2608868    1.2436575 -0.017229281   0.13124607    12126.546     1000 
  646000   0.78571326   -1.3147702    1.1773913   -0.1373789   0.12118428    12123.416     1000 
  648000   0.78447156   -1.2704892    1.1755306 -0.094958571   0.12880246    11838.808     1000 
  650000   0.81688931   -1.3077725    1.2241086 -0.083663854    0.1329887    11776.972     1000 
  652000   0.76244382   -1.2805589    1.1425221  -0.13803681   0.13318087    11714.572     1000 
  654000   0.79074681   -1.2577108    1.1849341 -0.072776683   0.12806697    11921.432     1000 
  656000   0.76598658   -1.3210885    1.1478309  -0.17325763   0.12588287    11991.901     1000 
  658000   0.78017368   -1.3033036    1.1690903  -0.13421333   0.11907541    12059.429     1000 
  660000   0.80519548   -1.2884891    1.2065854 -0.081903713   0.13025086    11951.936     1000 
  662000   0.82015543   -1.3352734    1.2290029  -0.10627047   0.11800042     12123.22     1000 
  664000   0.81114111   -1.3110247    1.2154949 -0.095529705    0.1240077    12038.268     1000 
  666000   0.78883234   -1.3676147    1.1820653  -0.18554948   0.13148202    11816.013     1000 
  668000   0.76679494   -1.3177277    1.1490422   -0.1686855    0.1251353    12117.564     1000 
  670000   0.79523149   -1.3519118    1.1916544  -0.16025741   0.14529154    11769.025     1000 
  672000   0.79172442   -1.2294814     1.186399  -0.04308232   0.13738206    11766.928     1000 
  674000   0.78601507   -1.2999286    1.1778436  -0.12208498   0.13790674    11906.409     1000 
  676000   0.81069192     -1.32942    1.2148218   -0.1145982   0.12488618    11960.756     1000 
  678000   0.79470467   -1.2879113     1.190865 -0.097046344   0.12739584    11964.698     1000 
  680000   0.81420254   -1.3416151    1.2200825  -0.12153256   0.14232134    11754.388     1000 
  682000   0.76632951   -1.3794539    1.1483448  -0.23110915   0.11876045    12070.173     1000 
  684000   0.80040502   -1.3068281    1.1994069  -0.10742114   0.12618737    11989.217     1000 
  686000   0.77748252   -1.3551725    1.1650576  -0.19011492   0.13267417    12050.416     1000 
  688000   0.78477179   -1.3262239    1.1759805  -0.15024333   0.11545191    12173.918     1000 
  690000    0.8273658   -1.2440112    1.2398076 -0.004203525   0.12809133    12034.177     1000 
  692000   0.79123678   -1.3104447    1.1856683  -0.12477638   0.13149554    11783.063     1000 
  694000   0.78003284   -1.2796953    1.1688792   -0.1108161   0.12569377    12140.897     1000 
  696000   0.78215235   -1.3046344    1.1720553  -0.13257912   0.13529218    11939.036     1000 
  698000   0.77443755   -1.3497578    1.1604947  -0.18926312   0.13209603    11874.712     1000 
  700000    0.7595244   -1.3550051    1.1381473  -0.21685777   0.14342625    11812.247     1000 
  702000   0.81527007   -1.2934941    1.2216822 -0.071811855   0.12962168    12071.956     1000 
  704000   0.80960813   -1.2885151    1.2131978 -0.075317359     0.130097    11910.274     1000 
  706000   0.77319882   -1.3192139    1.1586384  -0.16057545   0.11947229    12129.909     1000 
  708000   0.75546137   -1.3036104    1.1320589  -0.17155151   0.12178361    11873.892     1000 
  710000   0.81070964   -1.2697417    1.2148484 -0.054893334   0.14935708    11458.365     1000 
  712000   0.80254381   -1.2380171    1.2026119  -0.03540516   0.12716747    12086.854     1000 
  714000   0.82741802   -1.3321367    1.2398859 -0.092250755   0.13807471    11909.061     1000 
  716000   0.80063267   -1.2989746    1.1997481 -0.099226545    0.1366884    11849.266     1000 
  718000   0.80907675   -1.2221896    1.2124015 -0.0097880391   0.12673149    11892.252     1000 
  720000   0.82194467   -1.3197113    1.2316841 -0.088027217   0.13508751     11945.56     1000 
  722000   0.79448811   -1.3602421    1.1905404  -0.16970166   0.12908481    12010.313     1000 
  724000   0.82749546   -1.3463992    1.2400019  -0.10639729   0.13211211    11913.611     1000 
  726000   0.79562477   -1.3111351    1.1922437   -0.1188914   0.12979476    12243.171     1000 
  728000    0.7713712   -1.3205103    1.1558997  -0.16461053   0.14313376    11771.112     1000 
  730000   0.79283212   -1.3045295    1.1880589  -0.11647059   0.13318051    12012.283     1000 
  732000   0.80603082   -1.3051526    1.2078372 -0.097315451    0.1357073    11874.312     1000 
  734000   0.79463837   -1.3325958    1.1907656  -0.14183015   0.12135896    12251.032     1000 
  736000   0.79108555   -1.2825268    1.1854417 -0.097085144    0.1281678    11857.028     1000 
  738000    0.8118579   -1.2473923    1.2165691 -0.030823268    0.1321481    11888.034     1000 
  740000   0.78968768   -1.2514448     1.183347 -0.068097829   0.12470913    11945.227     1000 
  742000   0.79975077   -1.3069527    1.1984265  -0.10852612   0.11798519    12013.061     1000 
  744000   0.77705687   -1.3716729    1.1644197  -0.20725314    0.1149649    12294.179     1000 
  746000   0.81110142   -1.3303264    1.2154355  -0.11489095   0.13800899    11814.547     1000 
  748000   0.82634739   -1.3217578    1.2382816  -0.08347625   0.13997653    11962.669     1000 
  750000   0.79622802   -1.3261643    1.1931477  -0.13301658   0.12945243    11910.796     1000 
  752000   0.80438233   -1.2674671    1.2053669  -0.06210022   0.12866624    12089.316     1000 
  754000   0.76152126   -1.3182152    1.1411396  -0.17707563   0.12884473    12209.499     1000 
  756000   0.82553071   -1.2601375    1.2370578 -0.023079763   0.13152523    11881.812     1000 
  758000   0.79844964   -1.3104283    1.1964768  -0.11395148   0.13363187    12052.641     1000 
  760000   0.84313565   -1.2825873    1.2634388 -0.019148554   0.12321437    12219.626     1000 
  762000   0.79665081    -1.212339    1.1937812  -0.01855781   0.13769679    11764.358     1000 
  764000   0.81405688   -1.2689495    1.2198642 -0.049085293   0.13689344    11833.288     1000 
  766000    0.7753531   -1.3003935    1.1618666  -0.13852685   0.13177991    11816.128     1000 
  768000   0.82450276    -1.347214    1.2355174  -0.11169665   0.12407874    11936.999     1000 
  770000   0.80549795   -1.3166359    1.2070387  -0.10959723   0.12211696    12215.391     1000 
  772000    0.7921353   -1.1954991    1.1870147 -0.0084843075    0.1195384     11827.16     1000 
  774000   0.75902092   -1.3157638    1.1373929  -0.17837094   0.13046353    11884.184     1000 
  776000   0.79533409   -1.2626378    1.1918081 -0.070829641     0.117875    12147.609     1000 
  778000   0.78802736   -1.2480411     1.180859 -0.067182072   0.12789847    12180.675     1000 
  780000   0.79689517   -1.2802803    1.1941474 -0.086132896   0.12544576    12087.811     1000 
  782000   0.76953753    -1.293607     1.153152  -0.14045498   0.12734321     11911.79     1000 
  784000   0.76138158   -1.3532131    1.1409303  -0.21228283   0.12047596     12223.61     1000 
  786000   0.81083514   -1.3192867    1.2150365  -0.10425022   0.14515569    12018.561     1000 
  788000   0.79179179   -1.3385791       1.1865  -0.15207913   0.12897304    12060.654     1000 
  790000    0.8151631   -1.2896483    1.2215219 -0.068126412   0.11887058    12033.902     1000 
  792000    0.8359271   -1.2789553    1.2526368 -0.026318541   0.12536505    12314.421     1000 
  794000   0.77236843   -1.3093172    1.1573941  -0.15192314   0.13540086    11682.637     1000 
  796000    0.7939825    -1.355704    1.1897828  -0.16592118   0.13723319    11818.398     1000 
  798000    0.8003684   -1.2903318    1.1993521 -0.090979791    0.1360444    11929.634     1000 
  800000   0.80911871   -1.3301991    1.2124644  -0.11773469    0.1363989    11863.684     1000 
  802000   0.80123007    -1.257703    1.2006433 -0.057059736   0.12926817    11896.435     1000 
  804000   0.81107694   -1.2511011    1.2153988 -0.035702349   0.12798049    12148.724     1000 
  806000   0.78071337   -1.2966884     1.169899  -0.12678945   0.12614715    12159.832     1000 
  808000   0.81709649    -1.275244    1.2244191 -0.050824903   0.13937493    11896.642     1000 
  810000   0.81325896   -1.3413607    1.2186685  -0.12269215   0.11468591    12312.311     1000 
  812000   0.77439832   -1.2647201    1.1604359  -0.10428417   0.12585099    12083.646     1000 
  814000   0.80397576   -1.3421638    1.2047577  -0.13740615   0.13399235    11973.876     1000 
  816000   0.82135887   -1.3437797    1.2308063  -0.11297342    0.1428482    11726.004     1000 
  818000   0.74735551   -1.2817171    1.1199122   -0.1618049   0.12835999    12055.655     1000 
  820000   0.83679476    -1.294902    1.2539369 -0.040965071    0.1437167    11953.376     1000 
  822000   0.77059378    -1.251774    1.1547348 -0.097039178   0.13954193    11719.632     1000 
  824000   0.82557467   -1.3107249    1.2371236 -0.073601251   0.13589838    11975.641     1000 
  826000    0.8262683   -1.2402427     1.238163 -0.0020796348   0.12139195    12163.813     1000 
  828000   0.82360989   -1.3330796    1.2341794 -0.098900162   0.12777881    11918.971     1000 
  830000   0.79126575    -1.281252    1.1857117 -0.095540271   0.13789947    11887.508     1000 
  832000   0.76212619   -1.3330203    1.1420461  -0.19097423   0.12832044    12012.707     1000 
  834000   0.79694355   -1.3763712    1.1942199  -0.18215132   0.13270045     12063.58     1000 
  836000   0.78233999   -1.3206267    1.1723365  -0.14829021   0.14211898    11816.292     1000 
  838000   0.81846355   -1.3544034    1.2264676   -0.1279358   0.12714966    12032.629     1000 
  840000   0.80468677   -1.2798363    1.2058231 -0.074013145   0.14168084    11820.725     1000 
  842000   0.76104134   -1.3154862    1.1404204  -0.17506571   0.11626883    12165.598     1000 
  844000    0.8021164   -1.2185845    1.2019714 -0.016613065   0.12476045    11812.437     1000 
  846000   0.77148658   -1.3272156    1.1560726  -0.17114295   0.14189894    11772.818     1000 
  848000   0.80253183    -1.239163    1.2025939 -0.036569017   0.13670931    11934.334     1000 
  850000   0.81893152   -1.3108847    1.2271689 -0.083715833   0.13528907     12048.88     1000 
  852000   0.82452294   -1.3295006    1.2355476 -0.093952923   0.14414776    11878.914     1000 
  854000   0.79846895   -1.2906303    1.1965057 -0.094124602   0.12426977    11939.282     1000 
  856000   0.78897955   -1.2961821    1.1822859  -0.11389619   0.12913681    12106.657     1000 
  858000   0.79240136   -1.3043109    1.1874134  -0.11689747   0.14895507    11696.082     1000 
  860000   0.77409867   -1.2937997    1.1599869   -0.1338128   0.13464233    12032.492     1000 
  862000   0.79924804   -1.3470011    1.1976732  -0.14932794   0.14565976    11858.294     1000 
  864000   0.79788782   -1.3295006    1.1956349  -0.13386567   0.12913096    11998.449     1000 
  866000   0.82802629   -1.2544456    1.2407974 -0.013648248   0.13621494    12117.573     1000 
  868000   0.79763871   -1.2970864    1.1952616  -0.10182482   0.12477266    11834.053     1000 
  870000   0.84199802   -1.2490852     1.261734  0.012648836   0.14223493    11769.877     1000 
  872000   0.78815806   -1.2816402    1.1810549  -0.10058533   0.12677949    11926.183     1000 
  874000   0.86259241   -1.3132862    1.2925947 -0.020691428   0.14072985    11848.819     1000 
  876000   0.85016205   -1.3253972    1.2739678 -0.051429389   0.13220966    12097.595     1000 
  878000   0.79969591   -1.3414461    1.1983443  -0.14310175   0.12560778     12015.64     1000 
  880000   0.82283695   -1.3575885    1.2330212  -0.12456735   0.12847448    12142.871     1000 
  882000    0.8079225    -1.348018    1.2106719  -0.13734614   0.13298261    11927.197     1000 
  884000   0.81308956   -1.3127605    1.2184147  -0.09434579   0.13652046    12004.041     1000 
  886000   0.79168044    -1.253358    1.1863331 -0.067024866   0.12418622    12104.761     1000 
  888000   0.80094378   -1.2853217    1.2002142  -0.08510749   0.13235274    11997.953     1000 
  890000   0.82937676   -1.3550866    1.2428211  -0.11226555   0.14041689    12124.848     1000 
  892000   0.79550055   -1.3397261    1.1920576   -0.1476685    0.1370819     11781.83     1000 
  894000   0.80781625   -1.3138884    1.2105127  -0.10337578   0.12884246    12005.795     1000 
  896000   0.83280174    -1.277191    1.2479534 -0.029237587    0.1269936    12289.157     1000 
  898000    0.7792145   -1.2495802    1.1676529 -0.081927238   0.13315703    12031.504     1000 
  900000   0.78453254   -1.3060469     1.175622  -0.13042486   0.13249881    11901.145     1000 
  902000   0.79684682   -1.3155159     1.194075  -0.12144098   0.13714577    11714.122     1000 
  904000   0.77863967   -1.3747737    1.1667916  -0.20798218   0.12130291    12189.439     1000 
  906000   0.81997473   -1.2703271    1.2287321 -0.041594999   0.12815675    11919.971     1000 
  908000   0.78284188   -1.3374571    1.1730886  -0.16436856   0.13286232    11974.444     1000 
  910000   0.77588044   -1.3374635    1.1626568  -0.17480668   0.12981101     11759.96     1000 
  912000   0.80356666    -1.246363    1.2041446 -0.042218366   0.12412103    11807.772     1000 
  914000   0.82316341   -1.3198087    1.2335104 -0.086298333   0.13148052    11945.015     1000 
  916000   0.81179793   -1.3329111    1.2164792  -0.11643189   0.11968133    12173.969     1000 
  918000   0.76926088   -1.3217894    1.1527374  -0.16905202   0.10970339    12211.021     1000 
  920000   0.78348107   -1.2663514    1.1740464 -0.092304995    0.1314948    11861.388     1000 
  922000   0.81240281   -1.3028478    1.2173856 -0.085462202   0.12220294    12264.184     1000 
  924000   0.78831256   -1.3251446    1.1812864  -0.14385826   0.13460167    11878.149     1000 
  926000   0.81510668   -1.3255241    1.2214374  -0.10408677   0.12367984    12157.881     1000 
  928000   0.80661608   -1.2682968    1.2087142 -0.059582629   0.12688767    11992.757     1000 
  930000   0.82701938   -1.3512697    1.2392885  -0.11198116   0.11967658    12288.668     1000 
  932000   0.77767014   -1.3692343    1.1653387  -0.20389556   0.11594927    12241.416     1000 
  934000   0.79286344   -1.3049156    1.1881059   -0.1168097   0.13628883    12133.423     1000 
  936000   0.77139851   -1.3038373    1.1559407  -0.14789659    0.1307741    12055.167     1000 
  938000   0.84453262   -1.3537133    1.2655321 -0.088181124    0.1376695     11951.71     1000 
  940000   0.81444017   -1.2880991    1.2204386 -0.067660523   0.12151449    12292.465     1000 
  942000   0.81562408   -1.1825462    1.2222127  0.039666486   0.13181292    12018.167     1000 
  944000   0.81523703   -1.3005991    1.2216327 -0.078966426   0.14307447    11850.487     1000 
  946000    0.7995933   -1.2927885    1.1981906 -0.094597956   0.13519943    11968.643     1000 
  948000   0.79535942   -1.2578666    1.1918461 -0.066020465   0.11771795    12114.153     1000 
  950000   0.80210539   -1.2937246    1.2019549 -0.091769619    0.1468777    11710.051     1000 
  952000    0.8129396   -1.2902164      1.21819 -0.072026433   0.13399168    12014.427     1000 
  954000   0.76829249    -1.306127    1.1512863  -0.15484069   0.12881636    11966.746     1000 
  956000   0.80331853   -1.2915281    1.2037728 -0.087755265   0.13026962    12104.696     1000 
  958000   0.78522912   -1.2661686    1.1766658 -0.089502773   0.13355193     11827.17     1000 
  960000   0.79442927   -1.2768523    1.1904523 -0.086400083   0.13081255    11796.828     1000 
  962000    0.8218934   -1.2729369    1.2316073 -0.041329618   0.12722186    12122.237     1000 
  964000   0.79139631   -1.3110463    1.1859074  -0.12513891   0.13451324    11864.529     1000 
  966000   0.78042979    -1.329724     1.169474  -0.16024997     0.144064    11784.051     1000 
  968000    0.7813161   -1.3089043    1.1708022  -0.13810211   0.10918188    12277.716     1000 
  970000   0.79142578   -1.3426181    1.1859515  -0.15666657   0.11938718    12386.898     1000 
  972000   0.79731936   -1.3021485    1.1947831  -0.10736545   0.13411548     11933.09     1000 
  974000   0.80708891   -1.2953171    1.2094227 -0.085894366   0.14296926     11867.37     1000 
  976000   0.80637816   -1.3434356    1.2083577  -0.13507792   0.13247583    12106.133     1000 
  978000   0.84675481   -1.3163756    1.2688621 -0.047513528   0.14105467    11923.173     1000 
  980000     0.790653   -1.2472898    1.1847935 -0.062496238   0.13067886    11874.211     1000 
  982000   0.78876441   -1.3216767    1.1819635  -0.13971327   0.12876657    11910.743     1000 
  984000   0.77886518   -1.2790243    1.1671295  -0.11189487   0.11925945    12169.967     1000 
  986000   0.82124362   -1.3211388    1.2306336 -0.090505266   0.13521182    11938.453     1000 
  988000   0.80752191   -1.3320021    1.2100716  -0.12193048   0.14650563    11538.614     1000 
  990000   0.79476111   -1.3127043    1.1909495  -0.12175474   0.12203467    12081.536     1000 
  992000   0.82167558   -1.2759572    1.2312809 -0.044676385     0.144426    12025.829     1000 
  994000   0.78503701    -1.291691     1.176378  -0.11531303   0.12048655    11941.667     1000 
  996000   0.82452618   -1.3078571    1.2355525 -0.072304584   0.13489888        11931     1000 
  998000     0.820883   -1.3119356    1.2300932  -0.08184239   0.13509128     11968.38     1000 
 1000000   0.80738987   -1.3006773    1.2098737 -0.090803536   0.12996923      12041.7     1000 
 1002000   0.77687393   -1.3537037    1.1641456  -0.18955807    0.1217498    12322.704     1000 
 1004000   0.83238661   -1.3127297    1.2473313 -0.065398362   0.12788156    12046.711     1000 
 1006000    0.7953816   -1.2910674    1.1918793 -0.099188078   0.12996788    11817.802     1000 
 1008000   0.80028719    -1.268497    1.1992304 -0.069266616   0.12179606    11983.424     1000 
 1010000   0.80860337   -1.2607168    1.2116922  -0.04902467   0.14358034    11846.176     1000 
 1012000   0.78355272    -1.362404    1.1741537  -0.18825023   0.11942794     12209.34     1000 
 1014000   0.77642739   -1.3170946    1.1634764  -0.15361812   0.12364797     12155.08     1000 
 1016000   0.77048307   -1.3043776    1.1545689  -0.14980873   0.11543955    12280.346     1000 
 1018000   0.80425027   -1.2854371     1.205169 -0.080268046   0.12771166    11692.335     1000 
 1020000   0.79846104    -1.346308    1.1964939  -0.14981416   0.13112216    11871.659     1000 
 1022000   0.79870196   -1.2994156    1.1968549  -0.10256074   0.12795934    12198.117     1000 
 1024000   0.80467772   -1.2941032    1.2058096 -0.088293686   0.13476904    11900.293     1000 
 1026000   0.79126811   -1.2609731    1.1857153 -0.075257876   0.13103352    12103.523     1000 
 1028000   0.80818222   -1.3287858    1.2110611  -0.11772477   0.13577485    11938.331     1000 
 1030000   0.77779529   -1.2790175    1.1655262   -0.1134913   0.12415374    12051.524     1000 
 1032000   0.77006614   -1.2661889    1.1539441   -0.1122448   0.14045603    11543.185     1000 
 1034000   0.82769032   -1.3260641    1.2402939 -0.085770144   0.12950661    12015.198     1000 
 1036000   0.82958759   -1.3519915     1.243137  -0.10885446    0.1346607    11984.091     1000 
 1038000   0.78986152   -1.3077656    1.1836075  -0.12415812   0.13736954    11866.095     1000 
 1040000   0.78636758   -1.2830631    1.1783718  -0.10469126    0.1121703    12183.197     1000 
 1042000   0.79184091   -1.2519043    1.1865736 -0.065330678   0.12906934    11848.134     1000 
 1044000   0.78874795   -1.2671106    1.1819388 -0.085171838   0.12665314    11959.112     1000 
 1046000    0.7806898   -1.3411651    1.1698637  -0.17130138   0.13362193    11883.173     1000 
 1048000   0.82978244   -1.2319964     1.243429  0.011432567   0.13764051    11858.416     1000 
 1050000   0.78010418   -1.2952835    1.1689861  -0.12629735   0.13433406    11805.048     1000 
 1052000   0.79390694   -1.2456875    1.1896696 -0.056017969   0.12522492    11992.652     1000 
 1054000   0.83280126   -1.3002504    1.2479527 -0.052297722   0.15311124    11625.193     1000 
 1056000   0.78315484    -1.248085    1.1735575 -0.074527471   0.13501329    11658.673     1000 
 1058000   0.81406094   -1.3255597    1.2198703  -0.10568941   0.12690728        12029     1000 
 1060000   0.79122024   -1.3043739    1.1856435  -0.11873038   0.13026598    11828.967     1000 
 1062000   0.79508696   -1.3176448    1.1914378  -0.12620704   0.12583969    12080.991     1000 
 1064000   0.78405177   -1.3032973    1.1749016  -0.12839568   0.13217303    11980.525     1000 
 1066000   0.76744126   -1.3346095    1.1500107   -0.1845988    0.1148732    12117.205     1000 
 1068000   0.81084399   -1.2692946    1.2150497 -0.054244926   0.13892611    11997.026     1000 
 1070000   0.82336212   -1.3065461    1.2338081 -0.072737947   0.13569843    11911.058     1000 
 1072000   0.79632531    -1.322351    1.1932935  -0.12905753   0.14066842    11784.235     1000 
 1074000   0.76086783   -1.2671624    1.1401604  -0.12700196   0.11936496    12178.023     1000 
 1076000   0.78822943   -1.2651503    1.1811618 -0.083988524   0.12880363      12232.9     1000 
 1078000   0.79856299   -1.3384426    1.1966466  -0.14179595   0.12297566     12146.17     1000 
 1080000   0.75606227   -1.2492847    1.1329593  -0.11632543   0.12608124    12002.057     1000 
 1082000   0.77067978   -1.3214648    1.1548637  -0.16660116   0.11042759    12213.836     1000 
 1084000   0.83276688   -1.3103859    1.2479012 -0.062484741    0.1470453    11754.513     1000 
 1086000   0.83627048    -1.262105    1.2531513 -0.0089537242   0.12152898    12209.918     1000 
 1088000   0.78860433   -1.3261009    1.1817236  -0.14437729   0.11984043    12172.737     1000 
 1090000   0.79963989   -1.3420618    1.1982604   -0.1438014   0.12290014    12013.722     1000 
 1092000   0.77947205   -1.3047342    1.1680389  -0.13669535   0.13910823    11838.275     1000 
 1094000   0.77549736   -1.2883901    1.1620828   -0.1263073   0.12127946    11834.132     1000 
 1096000   0.80523724   -1.3076692     1.206648  -0.10102115   0.12118384    12204.908     1000 
 1098000   0.81857449   -1.2651455    1.2266339 -0.038511639   0.13424423    11804.532     1000 
 1100000    0.7889405   -1.3105232    1.1822273  -0.12829584   0.13793052    11829.745     1000 
 1102000    0.8069951    -1.266862    1.2092822 -0.057579834   0.12632541    12156.813     1000 
 1104000   0.79168635   -1.2858787     1.186342 -0.099536741   0.13464301    11809.958     1000 
 1106000   0.81667293   -1.2818488    1.2237844  -0.05806445    0.1376541    11794.536     1000 
 1108000   0.80353986   -1.2459011    1.2041045 -0.041796574   0.13102494    11891.471     1000 
 1110000    0.8191466   -1.2770773    1.2274912 -0.049586133   0.13001551    12237.252     1000 
 1112000   0.81036464   -1.3290915    1.2143314  -0.11476008   0.13196635    11955.359     1000 
 1114000   0.82471689   -1.3345793    1.2358383 -0.098741036   0.13232765    12168.575     1000 
 1116000   0.79707874   -1.2970928    1.1944225  -0.10267032   0.13423581     12019.55     1000 
 1118000   0.76491328   -1.2922168    1.1462226  -0.14599422   0.12449029    11971.923     1000 
 1120000   0.80491288   -1.3118394     1.206162  -0.10567745   0.12560581    12084.597     1000 
 1122000   0.83112842   -1.3241944    1.2454459 -0.078748423   0.13345603    12115.221     1000 
 1124000   0.79171535   -1.3075323    1.1863855  -0.12114682   0.12316722    12059.438     1000 
 1126000   0.79731845   -1.2775086    1.1947817  -0.08272687    0.1317077    11857.422     1000 
 1128000   0.78705563   -1.3625175    1.1794029   -0.1831146    0.1275915    12006.306     1000 
 1130000     0.815685   -1.3029395     1.222304 -0.080635518    0.1182494     12119.75     1000 
 1132000   0.77504609   -1.3472061    1.1614066  -0.18579956    0.1288206    11900.528     1000 
 1134000   0.80954145   -1.2461065    1.2130979 -0.033008655   0.13273482    12017.821     1000 
 1136000    0.8145333   -1.3123299    1.2205781  -0.09175176   0.13284938    11994.248     1000 
 1138000   0.83968245    -1.263304    1.2582642 -0.0050397992   0.12968828    12138.763     1000 
 1140000   0.80670243   -1.3347643    1.2088436  -0.12592073   0.12729123    12066.787     1000 
 1142000   0.75911003   -1.2461683    1.1375264  -0.10864196   0.12913364    11919.468     1000 
 1144000   0.81395928   -1.3145045     1.219718 -0.094786504    0.1406906    11724.677     1000 
 1146000   0.79926855    -1.284026    1.1977039 -0.086322128   0.12554537    12036.343     1000 
 1148000   0.79246262   -1.3459162    1.1875052    -0.158411   0.12712887      12137.8     1000 
 1150000   0.82372567   -1.2516853    1.2343529 -0.017332397   0.14342044    11696.919     1000 
 1152000    0.8127378   -1.2738141    1.2178876 -0.055926458   0.12495614    11919.083     1000 
 1154000   0.81433882   -1.2903882    1.2202867 -0.070101488   0.12602003    11875.028     1000 
 1156000   0.82152159    -1.320959    1.2310501 -0.089908908   0.12669115    12130.961     1000 
 1158000   0.83233852   -1.2528146    1.2472593 -0.0055553425   0.14684358    11722.273     1000 
 1160000   0.85973956   -1.2826695    1.2883197 0.0056501838   0.13597051    12155.545     1000 
 1162000   0.81543776   -1.2994864    1.2219335 -0.077552949   0.13820642    12060.372     1000 
 1164000   0.81473563   -1.3414793    1.2208813  -0.12059798   0.13856793     11726.01     1000 
 1166000   0.83092817   -1.3177097    1.2451459 -0.072563831   0.13038667    12207.277     1000 
 1168000   0.79510599   -1.2446202    1.1914663  -0.05315387   0.13266879    11976.962     1000 
 1170000   0.77217259   -1.2806509    1.1571006  -0.12355029   0.13143389    11780.341     1000 
 1172000   0.81221365   -1.2886843    1.2171022 -0.071582188   0.13398988    11645.967     1000 
 1174000   0.80678184   -1.2901009    1.2089626 -0.081138279   0.12976042    12050.424     1000 
 1176000   0.78252788   -1.3738883     1.172618  -0.20127027   0.13328233    12196.222     1000 
 1178000   0.81642665    -1.300286    1.2234153 -0.076870663   0.13660447    11972.215     1000 
 1180000   0.80919532   -1.3429622    1.2125792  -0.13038302   0.13169332     11978.54     1000 
 1182000   0.79077446   -1.2799186    1.1849755 -0.094943064   0.14399617    11700.032     1000 
 1184000   0.79935326   -1.2863338    1.1978309 -0.088502895   0.12801192    12120.738     1000 
 1186000   0.81464223   -1.3325041    1.2207414  -0.11176274   0.12382537    11862.343     1000 
 1188000   0.79606102   -1.2841112    1.1928974 -0.091213714   0.12933746    12001.118     1000 
 1190000   0.81561961   -1.3263668     1.222206  -0.10416079   0.14580631    11756.463     1000 
 1192000   0.80290196   -1.3178039    1.2031486  -0.11465532   0.12427531    11857.037     1000 
 1194000   0.81073828   -1.3463606    1.2148913  -0.13146928   0.12738694    12113.748     1000 
 1196000    0.8360063   -1.3031195    1.2527554 -0.050364008   0.12467272    11935.152     1000 
 1198000   0.78429817   -1.2357987    1.1752708 -0.060527915   0.12448753    11892.445     1000 
 1200000   0.81042924   -1.3299331    1.2144282   -0.1155049    0.1238756     12111.84     1000 
 1202000   0.82188035   -1.2951786    1.2315877 -0.063590887   0.14239131    11673.387     1000 
 1204000   0.81751708   -1.2732882    1.2250493 -0.048238819   0.12799412    12172.358     1000 
 1206000   0.79214767   -1.3432089    1.1870333  -0.15617563   0.13312966    12045.537     1000 
 1208000   0.79284712   -1.3057195    1.1880814  -0.11763811   0.12709892    12036.295     1000 
 1210000    0.8253425   -1.3524487    1.2367757  -0.11567293   0.14644748    11757.015     1000 
 1212000    0.7854721   -1.2663898    1.1770299 -0.089359822   0.12232805    11877.301     1000 
 1214000   0.80794417   -1.2879499    1.2107043   -0.0772456   0.12520513    12074.887     1000 
 1216000   0.79756179   -1.3255326    1.1951463  -0.13038623   0.14259121    11683.703     1000 
 1218000   0.79688246   -1.3362176    1.1941284  -0.14208923   0.12855229    11999.434     1000 
 1220000   0.81218979   -1.3217247    1.2170664  -0.10465826   0.12653891    12255.386     1000 
 1222000   0.76542713   -1.3028425    1.1469926   -0.1558499    0.1277026    12182.051     1000 
 1224000   0.78032621   -1.3134118    1.1693188  -0.14409298   0.13124403    11956.247     1000 
 1226000   0.80003787   -1.2915784    1.1988567 -0.092721625   0.13623681    11826.816     1000 
 1228000   0.77957289   -1.3837839      1.16819  -0.21559387   0.12838456    11996.925     1000 
 1230000   0.79724863    -1.285452    1.1946771 -0.090774912    0.1275252     12001.26     1000 
 1232000   0.82614881   -1.3183827     1.237984 -0.080398754   0.12677042     11979.54     1000 
 1234000   0.79584279   -1.3108661    1.1925704  -0.11829568   0.11604028    12132.042     1000 
 1236000   0.80266447    -1.331148    1.2027927  -0.12835526   0.12537816    12212.271     1000 
 1238000   0.77809568   -1.3429116    1.1659764   -0.1769352   0.13217146    12026.967     1000 
 1240000   0.80380581   -1.2987578     1.204503 -0.094254747   0.13061942    11802.938     1000 
 1242000   0.79271339   -1.3392407     1.187881  -0.15135973   0.12042388    12115.668     1000 
 1244000   0.78900596   -1.2919809    1.1823254  -0.10965545   0.13061283    11880.746     1000 
 1246000   0.78567421   -1.3070057    1.1773328  -0.12967293    0.1262257    12206.463     1000 
 1248000   0.79717647   -1.2751817    1.1945689  -0.08061278   0.13081249    11798.517     1000 
 1250000   0.80130915   -1.3056735    1.2007618  -0.10491177   0.13525754    11766.409     1000 
 1252000   0.83017542   -1.2985982    1.2440179 -0.054580329   0.12370301    12218.336     1000 
 1254000   0.79716977    -1.341679    1.1945589  -0.14712011   0.12099076    12094.924     1000 
 1256000   0.82085204   -1.3749497    1.2300468  -0.14490293   0.11939675    11993.934     1000 
 1258000     0.761123   -1.3134701    1.1405428  -0.17292725   0.13351193    12045.268     1000 
 1260000   0.80257653   -1.2763074    1.2026609 -0.073646468   0.13397123    11944.447     1000 
 1262000   0.77140952   -1.3061038    1.1559572  -0.15014663   0.12882177    11950.605     1000 
 1264000   0.81056489   -1.3641625    1.2146315    -0.149531   0.14045635    11793.095     1000 
 1266000   0.83144345   -1.2449042     1.245918 0.0010138141   0.14374116    11795.689     1000 
 1268000   0.75637717    -1.232651    1.1334312 -0.099219858   0.13675821    11878.756     1000 
 1270000   0.77253568   -1.2583704    1.1576447  -0.10072573    0.1316943    11772.374     1000 
 1272000   0.76338122   -1.3127458    1.1439268    -0.168819   0.12410632    11892.865     1000 
 1274000   0.79889768   -1.3096027    1.1971482   -0.1124545   0.14908636     11598.99     1000 
 1276000   0.79452484   -1.3313609    1.1905955  -0.14076545   0.13601685    12023.845     1000 
 1278000     0.798631   -1.2931654    1.1967485 -0.096416816   0.12117243     11976.98     1000 
 1280000    0.7979694   -1.3240353    1.1957571  -0.12827813   0.14154226    11960.595     1000 
 1282000   0.81217976   -1.2940433    1.2170514 -0.076991934   0.13452002    12024.279     1000 
 1284000   0.79228494   -1.3391889     1.187239   -0.1519499    0.1442183     11649.39     1000 
 1286000   0.80169651   -1.3348004    1.2013422  -0.13345817   0.13754171    11961.962     1000 
 1288000   0.79835477   -1.2958823    1.1963346 -0.099547654   0.13663101    12052.292     1000 
 1290000   0.80297715   -1.2820328    1.2032613 -0.078771566   0.11983225    12022.975     1000 
 1292000    0.8141167   -1.3637165    1.2199539  -0.14376266   0.12864516    12005.197     1000 
 1294000   0.84004991   -1.2512439    1.2588148 0.0075708564   0.12563653    12082.151     1000 
 1296000   0.84024316   -1.3242396    1.2591044 -0.065135208    0.1229675     12387.23     1000 
 1298000   0.81694179   -1.2888411    1.2241873  -0.06465387   0.12862184     11993.68     1000 
 1300000   0.82585702   -1.3738285    1.2375467  -0.13628174   0.12103428    12167.438     1000 
 1302000   0.81710581   -1.3358504    1.2244331  -0.11141733   0.12927052    12047.094     1000 
 1304000   0.74756559   -1.3215755     1.120227  -0.20134844    0.1229307    12154.615     1000 
 1306000   0.81235969   -1.2691589     1.217321 -0.051837943   0.13152795    11952.554     1000 
 1308000   0.77880687   -1.3331938    1.1670421  -0.16615174   0.13926639    11755.861     1000 
 1310000   0.77353657   -1.3152773    1.1591445  -0.15613271   0.12984162    12120.048     1000 
 1312000   0.79614068     -1.23283    1.1930168 -0.039813139   0.13593569    11995.867     1000 
 1314000   0.83666788   -1.3135669    1.2537468 -0.059820117   0.13940894    12014.926     1000 
 1316000   0.79408937   -1.2667639    1.1899429  -0.07682099   0.11949327    11968.552     1000 
 1318000    0.7895985   -1.3472286    1.1832133  -0.16401526   0.12614534    11967.347     1000 
 1320000   0.80885716   -1.3431372    1.2120725  -0.13106475   0.12913986    12053.301     1000 
 1322000   0.78387856   -1.3466759     1.174642  -0.17203391   0.13795427    11847.005     1000 
 1324000   0.81972731   -1.3051389    1.2283614   -0.0767775   0.12420515    11939.119     1000 
 1326000   0.77702411   -1.2751763    1.1643706  -0.11080566    0.1337503    12047.438     1000 
 1328000    0.7963567   -1.2867232    1.1933405 -0.093382717    0.1294543    11889.531     1000 
 1330000   0.79426629    -1.300679     1.190208  -0.11047098   0.12420741    12028.389     1000 
 1332000   0.83701633   -1.2975029     1.254269  -0.04323392   0.14593236    11730.725     1000 
 1334000   0.81439595   -1.3154522    1.2203723 -0.095079878   0.12747948    11820.163     1000 
 1336000   0.81891632   -1.3041528    1.2271461 -0.077006704   0.14424973    11817.575     1000 
 1338000   0.77813258   -1.2974935    1.1660317  -0.13146185   0.11670575    12056.219     1000 
 1340000   0.83070913   -1.3042717    1.2448176 -0.059454059    0.1289468     11959.72     1000 
 1342000   0.78634614   -1.2728689    1.1783397 -0.094529174   0.12846772    11858.466     1000 
 1344000   0.79778737   -1.2624626    1.1954844 -0.066978209   0.13121334    11999.526     1000 
 1346000   0.79333676   -1.3779799    1.1888151  -0.18916472   0.13025383    11929.262     1000 
 1348000    0.7886514   -1.2805138    1.1817941 -0.098719678   0.12325919     12123.53     1000 
 1350000   0.80878354   -1.3165237    1.2119621  -0.10456153   0.12528728     12063.78     1000 
 1352000   0.81281833    -1.290611    1.2180083 -0.072602772   0.14058794     11843.93     1000 
 1354000   0.80550461   -1.3663296    1.2070487   -0.1592809    0.1309369    11819.501     1000 
 1356000   0.81706654   -1.3336399    1.2243742   -0.1092657   0.12427899    11878.376     1000 
 1358000   0.82327168    -1.288842    1.2336726 -0.055169428   0.12386761    12012.328     1000 
 1360000   0.75188463    -1.241417    1.1266991  -0.11471791   0.13109765    11938.999     1000 
 1362000   0.80986108   -1.2832567    1.2135768 -0.069679837   0.13229466    12050.478     1000 
 1364000   0.83890947   -1.2919764    1.2571058 -0.034870559   0.13503751    12124.908     1000 
 1366000   0.77063946   -1.3346151    1.1548032   -0.1798119   0.12575364    12131.229     1000 
 1368000   0.80378259   -1.3206912    1.2044682  -0.11622304   0.11183532    12199.394     1000 
 1370000   0.82528911    -1.279342    1.2366957 -0.042646297   0.13741042    11999.101     1000 
 1372000   0.79271893   -1.3096685    1.1878893  -0.12177914   0.14660929    11773.617     1000 
 1374000   0.82688154   -1.3126224     1.239082 -0.073540428   0.12790182    11898.353     1000 
 1376000   0.80218874   -1.3119468    1.2020798  -0.10986699   0.13698612    12105.579     1000 
 1378000   0.78660205   -1.2637297    1.1787232 -0.085006557    0.1277195    11872.514     1000 
 1380000   0.76237867   -1.2890228    1.1424244  -0.14659838    0.1278451    11880.393     1000 
 1382000   0.81467227    -1.302148    1.2207864 -0.081361619   0.13278466    11904.851     1000 
 1384000   0.78570146   -1.3336144    1.1773736  -0.15624078   0.13870533    12056.741     1000 
 1386000   0.82976455   -1.3831675    1.2434022  -0.13976533   0.11939131    12467.522     1000 
 1388000    0.7724653   -1.2529896    1.1575392 -0.095450319   0.14077279    11933.313     1000 
 1390000   0.82318065   -1.3121807    1.2335362 -0.078644479   0.11770524    12317.065     1000 
 1392000   0.80517552   -1.3333469    1.2065555  -0.12679143   0.13997089    11820.633     1000 
 1394000   0.74734565   -1.2761331    1.1198975  -0.15623567    0.1214841     11832.62     1000 
 1396000   0.80549543    -1.264626    1.2070349 -0.057591047   0.13656167    11925.296     1000 
 1398000   0.82001037   -1.2572737    1.2287855 -0.028488168   0.13874649    11855.591     1000 
 1400000   0.76847829   -1.3658816    1.1515647  -0.21431689   0.12349049    12137.887     1000 
 1402000   0.79459837   -1.2832409    1.1907057 -0.092535264   0.12337543    12062.043     1000 
 1404000   0.83739365   -1.3620394    1.2548344  -0.10720502   0.12682309    12114.771     1000 
 1406000   0.81565228   -1.3504565    1.2222549  -0.12820155   0.13194063    12210.496     1000 
 1408000   0.80648793   -1.3586416    1.2085222   -0.1501194   0.12333863    12126.171     1000 
 1410000   0.77857869   -1.3162281    1.1667002  -0.14952797   0.13259751    11778.716     1000 
 1412000   0.82425693   -1.3213923     1.235149 -0.086243276   0.13033297    12171.121     1000 
 1414000   0.81170656   -1.2958841    1.2163423 -0.079541796   0.13784103    11750.598     1000 
 1416000   0.80095368   -1.2844173    1.2002291 -0.084188233   0.13113225    12033.006     1000 
 1418000     0.766788   -1.3350737    1.1490318  -0.18604187   0.12525145    11930.731     1000 
 1420000   0.76955643    -1.284227    1.1531803  -0.13104667   0.12845837     12100.82     1000 
 1422000   0.77516981   -1.3210919     1.161592  -0.15949992   0.11696135    12407.686     1000 
 1424000   0.82635661   -1.2701977    1.2382954 -0.031902294   0.13361156    11909.917     1000 
 1426000   0.78057206   -1.3019776    1.1696872  -0.13229039   0.13409426     12085.61     1000 
 1428000   0.81382646   -1.3136825     1.219519 -0.094163508   0.13646075    12020.308     1000 
 1430000   0.83394238   -1.3153366    1.2496627 -0.065673978   0.12993573    12103.914     1000 
 1432000   0.79587198   -1.3053349    1.1926142  -0.11272074   0.14140806    11757.407     1000 
 1434000   0.80251187   -1.3313333     1.202564  -0.12876927   0.11716695    12063.803     1000 
 1436000   0.81071841   -1.3201875    1.2148615  -0.10532595   0.14019125    11858.357     1000 
 1438000   0.78267777   -1.3023551    1.1728426  -0.12951251   0.12029479    12139.441     1000 
 1440000   0.79511236   -1.2865856    1.1914759  -0.09510976   0.11343278    12230.652     1000 
 1442000   0.79066123   -1.2845833    1.1848059 -0.099777433   0.12325532    12155.648     1000 
 1444000    0.8002145   -1.3249399    1.1991214  -0.12581843   0.12357806    12072.324     1000 
 1446000   0.77896974   -1.2855706    1.1672862  -0.11828445   0.12635052    11967.184     1000 
 1448000    0.8154417   -1.3339782    1.2219394  -0.11203876   0.13063176     12078.79     1000 
 1450000   0.79191933   -1.3143183    1.1866911  -0.12762722   0.13641234    12001.914     1000 
 1452000   0.81195571   -1.2946561    1.2167156 -0.077940452   0.12893994     12125.51     1000 
 1454000   0.81888349   -1.3310911    1.2270969  -0.10399417   0.12415778    12001.947     1000 
 1456000   0.82296529   -1.2532882    1.2332135 -0.020074661   0.13400157    11966.007     1000 
 1458000   0.78974722   -1.2958696    1.1834362  -0.11243342   0.12632385    11919.007     1000 
 1460000   0.76712557   -1.3083755    1.1495377  -0.15883787   0.13511537    11931.269     1000 
 1462000    0.7976561   -1.3287474    1.1952877  -0.13345974   0.14896066    11939.849     1000 
 1464000   0.79593428   -1.3451876    1.1927075  -0.15248009   0.13230975    11988.173     1000 
 1466000   0.79272763   -1.2774542    1.1879023  -0.08955187   0.11951628      12079.1     1000 
 1468000   0.79377313   -1.2717528     1.189469 -0.082283753   0.13664273    11813.194     1000 
 1470000   0.77989941   -1.2844538    1.1686793  -0.11577448   0.12999779    11749.055     1000 
 1472000   0.80364031   -1.2973558     1.204255 -0.093100771   0.12416061    12278.644     1000 
 1474000   0.81070927   -1.3066151    1.2148478 -0.091767299   0.12423822    12060.091     1000 
 1476000   0.79810889    -1.310996    1.1959662   -0.1150298   0.13728229    11905.854     1000 
 1478000    0.7933122   -1.2877886    1.1887783 -0.099010254   0.14192798    11729.918     1000 
 1480000   0.78930634   -1.2488969    1.1827756 -0.066121328   0.13375895    11978.262     1000 
 1482000   0.79027802   -1.3105854    1.1842316  -0.12635377    0.1216211     12185.31     1000 
 1484000   0.79443107   -1.2958229     1.190455  -0.10536798   0.13701103    11909.579     1000 
 1486000   0.80693639   -1.3380215    1.2091942   -0.1288273   0.12805153    11761.532     1000 
 1488000   0.81920414    -1.339679    1.2275774  -0.11210155   0.12972472    12063.059     1000 
 1490000   0.78798441   -1.3205837    1.1807946  -0.13978908   0.12781729    11855.899     1000 
 1492000   0.81402204   -1.3682631     1.219812  -0.14845105   0.13485132    12002.563     1000 
 1494000   0.79805824   -1.3246112    1.1958903  -0.12872088   0.13487838    12072.875     1000 
 1496000   0.82700955   -1.2751669    1.2392738 -0.035893095   0.13800159    11781.379     1000 
 1498000   0.79476729    -1.289722    1.1909588  -0.09876327   0.13981037    11771.978     1000 
 1500000   0.74408166   -1.3651116    1.1150064  -0.25010521   0.12544063    12050.322     1000 
 1502000    0.8229526   -1.3148854    1.2331945 -0.081690899   0.13946496    11725.928     1000 
 1504000   0.78306212   -1.3408807    1.1734186   -0.1674621     0.120969    12156.417     1000 
 1506000   0.79373927   -1.3219624    1.1894183  -0.13254414   0.13198417    11851.638     1000 
 1508000    0.8030662   -1.2762904    1.2033947 -0.072895672   0.12673222    11905.906     1000 
 1510000   0.77672675   -1.3356066     1.163925  -0.17168152   0.12504176    12008.588     1000 
 1512000   0.83530379    -1.302682    1.2517027 -0.050979284   0.13701795    12018.967     1000 
 1514000   0.83639963   -1.3221622    1.2533448 -0.068817353   0.13348458     12007.67     1000 
 1516000   0.79022996   -1.3443201    1.1841596  -0.16016049   0.11029011    12356.298     1000 
 1518000   0.81169057   -1.3694329    1.2163183   -0.1531146   0.13268828     11915.93     1000 
 1520000   0.79898501   -1.2941846     1.197279 -0.096905547   0.13344359    11760.558     1000 
 1522000   0.78418891   -1.3161738    1.1751071   -0.1410667   0.13749691    11947.869     1000 
 1524000   0.78607387   -1.3335472    1.1779317  -0.15561552   0.12621904    12174.439     1000 
 1526000   0.80182022    -1.265608    1.2015276 -0.064080397   0.12776826    11966.264     1000 
 1528000   0.82225653   -1.3199792    1.2321514 -0.087827822   0.13403141     11905.42     1000 
 1530000    0.7773688   -1.3360846    1.1648871  -0.17119741   0.13403394    11862.182     1000 
 1532000    0.8067385   -1.3213813    1.2088976  -0.11248363   0.12853122    11856.082     1000 
 1534000    0.7736216   -1.3029409     1.159272  -0.14366894   0.11926148    11805.074     1000 
 1536000   0.77153016   -1.2979976    1.1561379  -0.14185968   0.12699564    11937.576     1000 
 1538000    0.8092761   -1.3049209    1.2127002 -0.092220615    0.1311274    12010.425     1000 
 1540000     0.784263   -1.2640039    1.1752181 -0.088785771   0.11320337    11899.198     1000 
 1542000   0.79007726   -1.3575329    1.1839308  -0.17360214    0.1176072    12106.558     1000 
 1544000   0.78522841   -1.2990359    1.1766648  -0.12237111   0.13268154    11853.487     1000 
 1546000   0.80434355   -1.2843897    1.2053088  -0.07908091   0.13796444    11965.152     1000 
 1548000   0.77983277   -1.2965972    1.1685794  -0.12801783   0.12491185    11876.207     1000 
 1550000   0.79604267   -1.3028054    1.1928699  -0.10993545   0.13559601    11877.064     1000 
 1552000   0.76969081   -1.3182923    1.1533817  -0.16491058   0.13422096    11696.272     1000 
 1554000   0.82920779    -1.345401    1.2425679  -0.10283316   0.11904028    12277.248     1000 
 1556000   0.82290872   -1.3387684    1.2331287   -0.1056397   0.13697187    11890.878     1000 
 1558000   0.77846778      -1.2837     1.166534  -0.11716603     0.127933    11953.876     1000 
 1560000   0.80645817   -1.2917214    1.2084776 -0.083243884   0.12496045    12213.556     1000 
 1562000   0.80721438   -1.2927028    1.2096108 -0.083092039   0.12794657    12181.411     1000 
 1564000   0.81657206   -1.2916025    1.2236332 -0.067969261   0.13290633    11998.674     1000 
 1566000   0.80870811   -1.2158858    1.2118491 -0.0040366607   0.11929698    12093.544     1000 
 1568000    0.8089273   -1.3078193    1.2121776  -0.09564171   0.14261152    11740.495     1000 
 1570000   0.79241867   -1.3068875    1.1874394  -0.11944811   0.13243383    11988.275     1000 
 1572000   0.75852667   -1.2522358    1.1366522  -0.11558359   0.11833782    12013.846     1000 
 1574000   0.80718812   -1.2923591    1.2095714 -0.082787691   0.13137381    12234.573     1000 
 1576000   0.80149901   -1.2993773    1.2010463 -0.098331061   0.12974149    12072.715     1000 
 1578000   0.79994364    -1.391062    1.1987155  -0.19234645   0.12282909     12213.78     1000 
 1580000   0.80096067   -1.3087788    1.2002396  -0.10853922   0.14500896    11742.877     1000 
 1582000   0.79313819   -1.2916321    1.1885176  -0.10311452   0.12969715    11777.738     1000 
 1584000   0.78092355   -1.3192752    1.1702139  -0.14906126   0.11979224    12044.825     1000 
 1586000   0.79378558    -1.270757    1.1894877 -0.081269262   0.13506787    11952.052     1000 
 1588000   0.79252184   -1.3501665     1.187594   -0.1625725   0.12135961     12289.13     1000 
 1590000   0.78489359   -1.3153088    1.1761631  -0.13914574   0.12819618    12117.244     1000 
 1592000   0.84290115   -1.3025777    1.2630874 -0.039490295   0.12806349    12008.492     1000 
 1594000   0.81216686   -1.2748515     1.217032 -0.057819515   0.13535723    11917.071     1000 
 1596000   0.77629129   -1.2651279    1.1632725  -0.10185543   0.13539076    11822.146     1000 
[...]
 2612000   0.81574316   -1.2840059    1.2223911 -0.061614731   0.13192794    12207.979     1000 
 2614000   0.80518995   -1.2776976    1.2065771 -0.071120498    0.1414382    11794.869     1000 
 2616000   0.81326481   -1.3235498    1.2186773  -0.10487253   0.11889935    12182.509     1000 
 2618000   0.81114495    -1.330142    1.2155007  -0.11464125   0.12223785     12107.47     1000 
 2620000   0.78483603   -1.3428693    1.1760768  -0.16679247   0.12273597    11971.984     1000 
 2622000   0.76490041   -1.3359672    1.1462033  -0.18976396    0.1281498    11870.711     1000 
 2624000   0.78819559   -1.3306579    1.1811111  -0.14954685   0.11727587    12170.382     1000 
 2626000   0.78447703   -1.3206671    1.1755388  -0.14512829   0.13177409    11927.299     1000 
 2628000   0.83190433   -1.3324927    1.2466086 -0.085884035   0.13167278    11990.101     1000 
 2630000   0.75755075   -1.2881746    1.1351898  -0.15298476   0.12377809    11795.496     1000 
 2632000   0.80858837   -1.3135138    1.2116697  -0.10184408   0.12879262     11742.92     1000 
 2634000    0.7925936   -1.2834463    1.1877015 -0.095744817   0.12793871    12033.315     1000 
 2636000   0.82049545   -1.2943384    1.2295124 -0.064826015   0.13210923    11890.581     1000 
 2638000   0.80571205   -1.3040466    1.2073595 -0.096687103   0.14666622    11812.143     1000 
 2640000    0.7851424   -1.2842627    1.1765359  -0.10772678   0.12177979    12003.863     1000 
 2642000   0.80853172   -1.2913961    1.2115848 -0.079811332   0.12214438    12171.622     1000 
 2644000   0.81156309   -1.2901742    1.2161273 -0.074046917   0.13292143    11811.359     1000 
 2646000   0.80026639   -1.2690461    1.1991992 -0.069846944   0.13371144    12036.635     1000 
 2648000   0.78384226   -1.3124571    1.1745876   -0.1378695   0.11404594    12237.099     1000 
 2650000     0.757389   -1.3380708    1.1349474  -0.20312337   0.12120063    11929.033     1000 
 2652000   0.79389471   -1.3538296    1.1896512  -0.16417841   0.11246725    12349.142     1000 
 2654000   0.77332771   -1.2760016    1.1588316  -0.11717001   0.13417379    12070.422     1000 
 2656000   0.82492997   -1.3826827    1.2361576  -0.14652518   0.11215674    12194.741     1000 
 2658000   0.78510683   -1.2724038    1.1764826 -0.095921171   0.13105479    11978.542     1000 
 2660000   0.79598484    -1.287454    1.1927833 -0.094670703   0.13365534    11896.963     1000 
 2662000   0.81936023   -1.3061496    1.2278113  -0.07833826   0.12483329    12081.734     1000 
 2664000   0.81493971    -1.270352    1.2211872 -0.049164878    0.1225937    12123.062     1000 
 2666000   0.81105709   -1.3628131    1.2153691  -0.14744409   0.14135023    11911.881     1000 
 2668000   0.80116783   -1.2952583      1.20055 -0.094708257   0.12818114    12075.778     1000 
 2670000   0.80243832   -1.3085907    1.2024538  -0.10613683   0.13357913    11961.102     1000 
 2672000   0.83843553   -1.3261968    1.2563956 -0.069801188   0.13816945    11740.152     1000 
 2674000   0.75408544    -1.313782     1.129997  -0.18378502   0.12509516    11962.972     1000 
 2676000   0.80105913   -1.3090211    1.2003871  -0.10863398   0.12947479    12004.281     1000 
 2678000   0.79952392    -1.286211    1.1980866 -0.088124405   0.12617034    12108.869     1000 
 2680000   0.78417696   -1.2966759    1.1750892  -0.12158678    0.1246085    12086.541     1000 
 2682000   0.80882168    -1.270931    1.2120193 -0.058911697   0.14552472    11829.331     1000 
 2684000   0.81376024   -1.2447189    1.2194197 -0.025299182   0.14108266    11745.339     1000 
 2686000   0.82676904   -1.3368106    1.2389134 -0.097897162   0.13684107    11865.539     1000 
 2688000   0.81746043   -1.2877633    1.2249645 -0.062798895   0.12607063    11769.052     1000 
 2690000   0.78273861   -1.2998905    1.1729338  -0.12695665   0.12454327     12164.36     1000 
 2692000   0.85366977   -1.3192363    1.2792242 -0.040012139   0.12352675    12311.388     1000 
 2694000   0.82563882   -1.2907921    1.2372198 -0.053572302   0.13331663    11727.561     1000 
 2696000   0.79623661   -1.2683507    1.1931606 -0.075190114   0.12467591    12044.511     1000 
 2698000   0.82446961   -1.3488093    1.2354677   -0.1133416   0.12206674    11842.187     1000 
 2700000   0.78323388   -1.3437967     1.173676  -0.17012073   0.13017758    12050.067     1000 
 2702000   0.77462052   -1.2886648    1.1607689   -0.1278959   0.12747283    11932.259     1000 
 2704000   0.80066291   -1.3107192    1.1997934   -0.1109258   0.11960824    12158.094     1000 
 2706000   0.81485807   -1.2872616    1.2210648 -0.066196808   0.14348457    11707.818     1000 
 2708000   0.79565192   -1.2736865    1.1922844  -0.08140206   0.13668376     12083.69     1000 
 2710000   0.78565143   -1.3191677    1.1772987  -0.14186899   0.12888932    11938.419     1000 
 2712000   0.79768073   -1.3035254    1.1953246  -0.10820086   0.13588206    11929.797     1000 
 2714000   0.79159084   -1.3330482    1.1861989  -0.14684935   0.13076779    12051.429     1000 
 2716000   0.82050185   -1.3400752     1.229522  -0.11055318   0.14396194    11979.965     1000 
 2718000   0.78943694   -1.3517791    1.1829713   -0.1688079   0.12410413    12105.633     1000 
 2720000   0.76662381   -1.3138053    1.1487858   -0.1650195   0.14086183     11792.86     1000 
 2722000    0.8199213   -1.3110365    1.2286521 -0.082384443   0.14472238    11637.113     1000 
 2724000   0.80488693   -1.3193773    1.2061231  -0.11325423   0.11535839     12099.86     1000 
 2726000   0.79637804   -1.3575744    1.1933725  -0.16420195   0.12172807    12210.361     1000 
 2728000   0.82487333   -1.3276221    1.2360727 -0.091549463   0.12384564    11894.945     1000 
 2730000   0.79974024   -1.3024292    1.1984107  -0.10401841   0.12904498    11828.393     1000 
 2732000   0.79403032   -1.3401527    1.1898544  -0.15029822   0.13083692    11887.871     1000 
 2734000   0.78518037   -1.3333576    1.1765928   -0.1567648    0.1312284    11883.947     1000 
 2736000   0.79166056   -1.2926451    1.1863034  -0.10634178   0.12315503    12189.494     1000 
 2738000   0.82234316    -1.321193    1.2322812  -0.08891175   0.12919683     12032.35     1000 
 2740000   0.78427337   -1.3038964    1.1752336  -0.12866276   0.12398423    11915.013     1000 
 2742000   0.77830297   -1.3062903     1.166287  -0.14000332   0.13334881    11680.514     1000 
 2744000   0.77631678    -1.382872    1.1633107  -0.21956133    0.1257341    11946.018     1000 
 2746000   0.82917698   -1.3412736    1.2425217 -0.098751941   0.10848958    12329.113     1000 
 2748000   0.79085282    -1.291503    1.1850929  -0.10641007   0.13185899    11951.903     1000 
 2750000   0.81263444   -1.2806079    1.2177327 -0.062875232   0.13025589    11718.464     1000 
 2752000    0.8166601   -1.2949017    1.2237652  -0.07113654   0.12113944    12237.124     1000 
 2754000   0.79681823    -1.286829    1.1940321 -0.092796841   0.12607962    11795.287     1000 
 2756000   0.77157539   -1.3214345    1.1562057   -0.1652288    0.1258156    11905.788     1000 
 2758000   0.79184733   -1.2926691    1.1865832  -0.10608584   0.12099938    12293.736     1000 
 2760000   0.76321598   -1.2928626    1.1436791   -0.1491835   0.14304408    11717.426     1000 
 2762000   0.77420306   -1.2568594    1.1601433 -0.096716073   0.12600871    11808.655     1000 
 2764000   0.79465963   -1.3367525    1.1907975  -0.14595503    0.1545161    11810.708     1000 
 2766000   0.77941489   -1.3472642    1.1679532  -0.17931097   0.11546052     12305.38     1000 
 2768000   0.82935421   -1.2747299    1.2427873  -0.03194259    0.1300178     11961.44     1000 
 2770000   0.78179191   -1.2439111    1.1715152 -0.072395928   0.13252334    11991.325     1000 
 2772000   0.79063916   -1.3002809    1.1847728  -0.11550814   0.12893644    12074.712     1000 
 2774000   0.77937454    -1.336172    1.1678928  -0.16827928    0.1277194    11810.196     1000 
 2776000   0.79858497   -1.2894189    1.1966796 -0.092739366   0.13295107    11975.193     1000 
 2778000   0.78145132   -1.3085175    1.1710048  -0.13751274   0.12384152    12094.639     1000 
 2780000   0.81460056    -1.278557    1.2206789 -0.057878032    0.1280126    12027.845     1000 
 2782000   0.81037885   -1.3717052    1.2143527  -0.15735251   0.13477113    11985.542     1000 
 2784000   0.80915988   -1.2353278    1.2125261 -0.022801709   0.13171729      11644.5     1000 
 2786000   0.82964075   -1.2775223    1.2432167 -0.034305625   0.13123217    12095.874     1000 
 2788000   0.80590813   -1.2470335    1.2076533 -0.039380123   0.12737587    12001.497     1000 
 2790000     0.827211   -1.3185209    1.2395757 -0.078945238   0.13137323     12026.77     1000 
 2792000   0.78661989   -1.2790528    1.1787499  -0.10030294   0.15006411    11805.128     1000 
 2794000   0.82018165   -1.3175755    1.2290422 -0.088533301   0.12081806    12219.649     1000 
 2796000   0.81621346   -1.3193455    1.2230959 -0.096249656    0.1368537    12033.746     1000 
 2798000   0.79302043   -1.3292677    1.1883411  -0.14092659    0.1166886    12056.582     1000 
 2800000   0.81436155   -1.3144725    1.2203208 -0.094151719   0.14635582    11781.304     1000 
 2802000   0.77139689   -1.3058823    1.1559382  -0.14994403   0.12069126     12068.88     1000 
 2804000   0.79002846   -1.3356302    1.1838577  -0.15177259   0.12939342    11785.704     1000 
 2806000   0.81986275   -1.3182061    1.2285643 -0.089641727   0.12731566    12011.032     1000 
 2808000    0.7913433   -1.3184795    1.1858279  -0.13265155    0.1352398    11961.544     1000 
 2810000   0.79337356   -1.3587487    1.1888703  -0.16987843   0.10996555    12302.244     1000 
 2812000   0.80072578   -1.3240966    1.1998876  -0.12420903   0.12995128    12009.682     1000 
 2814000   0.76674743   -1.3480079     1.148971  -0.19903684   0.11990668    12173.407     1000 
 2816000   0.81766222   -1.3258303    1.2252668  -0.10056342    0.1215957    11977.408     1000 
 2818000   0.78244234   -1.3209137    1.1724898  -0.14842382   0.13685013    11880.894     1000 
 2820000   0.79255985   -1.2968722    1.1876509   -0.1092213   0.12827153    12057.616     1000 
 2822000   0.82441309   -1.3143758     1.235383 -0.078992813   0.13359263    11929.854     1000 
 2824000   0.81424048   -1.3156436    1.2201394 -0.095504221   0.11608561    12462.329     1000 
 2826000     0.813314   -1.2931812     1.218751 -0.074430197    0.1370987    11934.134     1000 
 2828000   0.79078377   -1.2553993    1.1849895 -0.070409832   0.13527325    12082.708     1000 
 2830000     0.819269   -1.3004916    1.2276746 -0.072816968    0.1445212    11888.413     1000 
 2832000   0.82126116   -1.3699816    1.2306599   -0.1393217   0.13246215    11955.378     1000 
 2834000   0.80460649   -1.3192308    1.2057028    -0.113528    0.1384884     11803.96     1000 
 2836000    0.7780164   -1.3354793    1.1658576  -0.16962169   0.12553508    11968.903     1000 
 2838000   0.80264152   -1.3013039    1.2027583 -0.098545558   0.13809741    11816.252     1000 
 2840000   0.79501658   -1.3233285    1.1913323  -0.13199617   0.12291572    12001.473     1000 
 2842000   0.81955236   -1.2671011    1.2280992 -0.039001864   0.13751057    11971.667     1000 
 2844000   0.81143627   -1.3580067    1.2159373  -0.14206949   0.13613034    12075.537     1000 
 2846000   0.79218072   -1.3528977    1.1870828   -0.1658149   0.11992062    12198.411     1000 
 2848000   0.79061379   -1.2925022    1.1847348   -0.1077674   0.13421858    11909.157     1000 
 2850000   0.79954776   -1.2764569    1.1981223 -0.078334534    0.1314968    11890.957     1000 
 2852000   0.83420387   -1.2965077    1.2500545 -0.046453203   0.13941832    11868.317     1000 
 2854000   0.82802009   -1.3026976    1.2407881 -0.061909471   0.12806012    12188.732     1000 
 2856000   0.82020058    -1.253964    1.2290706 -0.024893433   0.12621993    12203.159     1000 
 2858000   0.80275006    -1.315916     1.202921  -0.11299508   0.12118308    12142.238     1000 
 2860000   0.77395634   -1.2928513    1.1597736  -0.13307776   0.13459903    11800.313     1000 
 2862000   0.79244747   -1.3120131    1.1874825  -0.12453055   0.13107311    11836.627     1000 
 2864000    0.8212977   -1.2657738    1.2307146 -0.035059146    0.1432573    11671.037     1000 
 2866000   0.82446702   -1.3394326    1.2354638  -0.10396875   0.13410132    12109.178     1000 
 2868000   0.81005372   -1.3534933    1.2138655  -0.13962776   0.12289102    12219.757     1000 
 2870000    0.7758661    -1.357206    1.1626353  -0.19457068   0.13649844    12063.006     1000 
 2872000   0.80403061   -1.3069792    1.2048399  -0.10213937   0.14151749    11798.586     1000 
 2874000   0.81452019   -1.2944707    1.2205585 -0.073912204   0.12851882    11992.041     1000 
 2876000   0.79979581   -1.3125064     1.198494  -0.11401243   0.12539251    12222.441     1000 
 2878000   0.76424973   -1.3473852    1.1452282  -0.20215698   0.12422117    12126.903     1000 
 2880000   0.83951334   -1.2627646    1.2580107 -0.0047539099   0.12907462    11996.654     1000 
 2882000   0.80097624   -1.3058715    1.2002629  -0.10560864   0.14607171    11709.406     1000 
 2884000    0.8057964   -1.2783544    1.2074859 -0.070868478   0.12361386    12001.989     1000 
 2886000   0.79001954   -1.3759628    1.1838443  -0.19211848   0.13933127    11876.638     1000 
 2888000    0.7966722   -1.3035912    1.1938133  -0.10977794   0.13194632    11900.642     1000 
 2890000   0.78635769   -1.3016429     1.178357  -0.12328587   0.13194268    11982.143     1000 
 2892000   0.80759513   -1.3168807    1.2101813  -0.10669938   0.13595496    11901.492     1000 
 2894000   0.80263608   -1.3627629    1.2027502  -0.16001273   0.12741285    12131.206     1000 
 2896000   0.82780697   -1.2371096    1.2404687 0.0033591347   0.12117993    12399.395     1000 
 2898000   0.81634537   -1.3151913    1.2232935 -0.091897744   0.13994009    11764.931     1000 
 2900000    0.7938096    -1.282433    1.1895237 -0.092909294   0.12069467    12192.175     1000 
 2902000   0.82393746   -1.3005029    1.2346703 -0.065832663   0.14334364    11984.466     1000 
 2904000   0.80711075    -1.299178    1.2094555 -0.089722536   0.13626888    11882.631     1000 
 2906000   0.80411581   -1.3497841    1.2049675  -0.14481653    0.1286844    12161.771     1000 
 2908000   0.78757619   -1.3550048    1.1801829  -0.17482186   0.13307945    11829.153     1000 
 2910000   0.78304936    -1.286183    1.1733995  -0.11278352   0.13169254    11763.353     1000 
 2912000   0.79844205   -1.2558429    1.1964654 -0.059377457   0.12122354    12104.127     1000 
 2914000   0.80396191    -1.312231    1.2047369  -0.10749407   0.13087065     11971.46     1000 
 2916000   0.82614497   -1.2750111    1.2379782 -0.037032914   0.13684222    11727.956     1000 
 2918000    0.7822224   -1.2647415    1.1721603 -0.092581246   0.12973251    11861.044     1000 
 2920000    0.7664768   -1.3802387    1.1485655  -0.23167319   0.11606558    12237.034     1000 
 2922000   0.80322051   -1.3548702    1.2036259  -0.15124427   0.13283252    11842.257     1000 
 2924000   0.82360942   -1.2305754    1.2341787 0.0036033448   0.14631966    11799.954     1000 
 2926000   0.82221635   -1.2331086    1.2320912 -0.0010174152   0.12189367    12155.843     1000 
 2928000   0.80702954   -1.3132493    1.2093338   -0.1039155   0.11837906    12172.396     1000 
 2930000   0.78620614   -1.3372541    1.1781299  -0.15912423   0.11962789     12076.22     1000 
 2932000   0.81630176   -1.2786512    1.2232282 -0.055423018   0.12922436    12006.749     1000 
 2934000   0.78194905   -1.2581033    1.1717507 -0.086352602   0.12584466    11975.397     1000 
 2936000   0.83303396   -1.3013925    1.2483014 -0.053091137    0.1358211    11931.888     1000 
 2938000   0.80230488   -1.3258809    1.2022539    -0.123627   0.13333032    11960.583     1000 
 2940000   0.77575838   -1.2828201    1.1624739  -0.12034619   0.13639214    12166.163     1000 
 2942000   0.83231811   -1.2863593    1.2472287 -0.039130643   0.14136006     11957.23     1000 
 2944000    0.7935919   -1.2855609    1.1891975 -0.096363431   0.14304497    11894.895     1000 
 2946000   0.77716601   -1.3022193    1.1645833    -0.137636   0.12288892    11806.708     1000 
 2948000   0.78527037   -1.3262448    1.1767276  -0.14951718   0.13151367    11974.871     1000 
 2950000   0.79808425   -1.2989731    1.1959293  -0.10304381   0.13227819    11863.228     1000 
 2952000   0.78057789   -1.3633771     1.169696  -0.19368116    0.1233642    11874.671     1000 
 2954000   0.81657245   -1.2876629    1.2236338 -0.064029087   0.14147077    11867.223     1000 
 2956000   0.79166571   -1.3339777    1.1863111   -0.1476666   0.12975782    12070.894     1000 
 2958000   0.83662193   -1.3363015     1.253678  -0.08262351   0.13299022    12041.769     1000 
 2960000   0.78163279   -1.2383027    1.1712767 -0.067025998   0.13935565    11885.224     1000 
 2962000   0.80177704   -1.3104467    1.2014629  -0.10898377     0.126701    12317.203     1000 
 2964000   0.79000363   -1.2329488    1.1838204 -0.049128318   0.11583222    12130.614     1000 
 2966000   0.79281396   -1.2635587    1.1880317 -0.075526951   0.14024219    11807.915     1000 
 2968000   0.82445602   -1.3105508    1.2354473 -0.075103479   0.14041588    11812.402     1000 
 2970000   0.80439769   -1.3128106    1.2053899  -0.10742066    0.1383412    11996.526     1000 
 2972000   0.79984763   -1.3527989    1.1985717   -0.1542272   0.13326831    12011.318     1000 
 2974000   0.78658148   -1.3009213    1.1786924  -0.12222892   0.13074439    12084.571     1000 
 2976000   0.79782558   -1.2813913    1.1955416 -0.085849664   0.12633075    11720.176     1000 
 2978000   0.79564473   -1.2463113    1.1922736 -0.054037674   0.13730849    11966.529     1000 
 2980000    0.8136038   -1.3282087    1.2191853  -0.10902343   0.13146267     12096.48     1000 
 2982000   0.80438768    -1.295517    1.2053749  -0.09014203   0.15120105    11710.404     1000 
 2984000   0.79835429   -1.3265903    1.1963339  -0.13025639   0.13262392    11904.459     1000 
 2986000   0.83857872   -1.2621466    1.2566102 -0.0055364142    0.1340238    11836.469     1000 
 2988000   0.77726836   -1.3256283    1.1647366   -0.1608917   0.12903619    11807.506     1000 
 2990000    0.8069439   -1.3127059    1.2092054  -0.10350044   0.13081491    12123.239     1000 
 2992000   0.78819694   -1.2504907    1.1811131 -0.069377558   0.13450041    11876.237     1000 
 2994000   0.81698366   -1.3279118      1.22425  -0.10366181   0.13812643    11988.379     1000 
 2996000   0.80259688   -1.3075704    1.2026914  -0.10487899   0.13000852    12126.856     1000 
 2998000   0.81812085     -1.27958    1.2259541  -0.05362593   0.14116754    11801.487     1000 
 3000000   0.78355314   -1.3219909    1.1741544  -0.14783653     0.112634    12129.273     1000 
Loop time of 1062.48 on 4 procs for 3000000 steps with 1000 atoms

Performance: 1219791.603 tau/day, 2823.592 timesteps/s
95.2% CPU use with 4 MPI tasks x no OpenMP threads

MPI task timing breakdown:
Section |  min time  |  avg time  |  max time  |%varavg| %total
---------------------------------------------------------------
Pair    | 768.04     | 771.02     | 775.25     |   9.6 | 72.57
Neigh   | 75.22      | 75.323     | 75.419     |   0.8 |  7.09
Comm    | 160.43     | 164.64     | 167.32     |  20.1 | 15.50
Output  | 0.023547   | 0.026202   | 0.034077   |   2.8 |  0.00
Modify  | 44.623     | 44.9       | 45.282     |   3.8 |  4.23
Other   |            | 6.563      |            |       |  0.62

Nlocal:    250 ave 257 max 243 min
Histogram: 1 0 0 1 0 0 1 0 0 1
Nghost:    1667.75 ave 1681 max 1657 min
Histogram: 1 0 0 1 1 0 0 0 0 1
Neighs:    13464.8 ave 13627 max 13129 min
Histogram: 1 0 0 0 0 0 0 0 2 1

Total # of neighbors = 53859
Ave neighs/atom = 53.859
Neighbor list builds = 150000
Dangerous builds not checked

Total wall time: 0:17:42
