LAMMPS (3 Mar 2020)
# ----------------------- Inicialização -----------------------

units			lj
atom_style 		atomic
dimension 		3
boundary 		p p p

# -------------------- Criação dos Átomos ---------------------

read_data 		topologia.txt
  orthogonal box = (0 0 0) to (21.54 21.54 21.54)
  1 by 2 by 2 MPI processor grid
  reading atoms ...
  1000 atoms
  read_data CPU = 0.00315544 secs

velocity 		all create ${temp} 87287 rot yes dist gaussian
velocity 		all create 0.85 87287 rot yes dist gaussian

# ------------------ Interação Interatômica -------------------

pair_style		table linear 1300
pair_coeff		1 1 force.table AA 6.5
WARNING: 2 of 1300 force values in table are inconsistent with -dE/dr.
  Should only be flagged at inflection points (src/pair_table.cpp:483)
pair_coeff		1 2 force.table AB 6.5
WARNING: 1 of 1300 force values in table are inconsistent with -dE/dr.
  Should only be flagged at inflection points (src/pair_table.cpp:483)
pair_coeff		2 2 force.table BB 6.5
pair_write		1 1 1600 r 0.008 6.5 table.check AA
Neighbor list info ...
  update every 1 steps, delay 10 steps, check yes
  max neighbors/atom: 2000, page size: 100000
  master list distance cutoff = 6.8
  ghost atom cutoff = 6.8
  binsize = 3.4, bins = 7 7 7
  1 neighbor lists, perpetual/occasional/extra = 1 0 0
  (1) pair table, perpetual
      attributes: half, newton on
      pair build: half/bin/atomonly/newton
      stencil: half/bin/3d/newton
      bin: standard
pair_write		1 2 1600 r 0.008 6.5 table.check AB
pair_write		2 2 1600 r 0.008 6.5 table.check BB

neighbor 		0.3 bin
neigh_modify	every 20 delay 0 check no

# ------------------------- Ensemble --------------------------------------

fix 1			all npt temp ${temp} ${temp} 0.5 iso ${press} ${press} 5
fix 1			all npt temp 0.85 ${temp} 0.5 iso ${press} ${press} 5
fix 1			all npt temp 0.85 0.85 0.5 iso ${press} ${press} 5
fix 1			all npt temp 0.85 0.85 0.5 iso 0.13 ${press} 5
fix 1			all npt temp 0.85 0.85 0.5 iso 0.13 0.13 5

# ---------------------- Função de Distribuição Radial -----------------------

#compute RDF 	all rdf 2000 1 1 1 2 2 2
#fix 2 			all ave/time 1 2000 2000 c_RDF[*] file rdf.data mode vector

# ------------------------- Execução ---------------------------

timestep 		0.005
thermo_style	custom step temp pe ke etotal press vol atoms
thermo			2000
run				3000000
Per MPI rank memory allocation (min/avg/max) = 2.675 | 2.675 | 2.675 Mbytes
Step Temp PotEng KinEng TotEng Press Volume Atoms 
       0         0.85   -0.9940566     1.273725    0.2796684   0.15336545    9993.9483     1000 
    2000   0.88960262   -1.2553809    1.3330695  0.077688584   0.13179312    12154.371     1000 
    4000   0.89360701   -1.1697312    1.3390701   0.16933887   0.12622699    12014.512     1000 
    6000    0.8581022   -1.2853033    1.2858662 0.00056285294   0.12946129     12207.88     1000 
    8000   0.88346674   -1.1812815    1.3238749   0.14259342   0.12267914    12088.302     1000 
   10000   0.87435632   -1.2369043    1.3102229  0.073318646   0.12711176    12169.999     1000 
   12000   0.88541768    -1.241495    1.3267984  0.085303353   0.13128269    12142.061     1000 
   14000   0.84687013   -1.2013621    1.2690349  0.067672801   0.12681767    12043.928     1000 
   16000   0.87291721   -1.1949211    1.3080664   0.11314534   0.13136471    12197.397     1000 
   18000   0.84064736   -1.2778568    1.2597101 -0.018146733   0.13521052    12151.014     1000 
   20000   0.85396257   -1.2048233    1.2796629  0.074839583   0.12857939    12026.973     1000 
   22000   0.85595274   -1.1835254    1.2826452    0.0991198   0.12343361    12277.833     1000 
   24000   0.84605669   -1.2383484     1.267816  0.029467519   0.12007533    12440.344     1000 
   26000   0.81662415    -1.274856    1.2237113 -0.051144709   0.12725043     12081.31     1000 
   28000    0.8573182    -1.181846    1.2846913   0.10284528    0.1216658    12027.023     1000 
   30000   0.86825745   -1.1753182    1.3010838   0.12576556   0.12799345    12072.416     1000 
   32000   0.85008289   -1.1861879    1.2738492  0.087661357   0.12378517    12223.064     1000 
   34000   0.82649494   -1.2254184    1.2385027  0.013084296   0.12788577    12442.695     1000 
   36000   0.84605208    -1.250947     1.267809  0.016862055   0.12995314     12346.83     1000 
   38000   0.85933454   -1.2367134    1.2877128  0.050999379   0.12395046    12212.833     1000 
   40000   0.84302551   -1.2284902    1.2632737  0.034783529   0.12898296     12126.98     1000 
   42000   0.85723866   -1.1811534    1.2845721   0.10341873   0.12911085    12170.469     1000 
   44000    0.8438989   -1.2753825    1.2645825 -0.010800048     0.140438    12130.047     1000 
   46000    0.8152969   -1.2692836    1.2217224 -0.047561176   0.12197907    12394.148     1000 
   48000   0.87430246   -1.2300629    1.3101422  0.080079387   0.13074296    12263.834     1000 
   50000   0.86678663   -1.2068498    1.2988798  0.092029933   0.12210644    12550.172     1000 
   52000    0.8711441   -1.2160017    1.3054094  0.089407781   0.12379218    12204.371     1000 
   54000   0.83678957   -1.2588707    1.2539292 -0.004941556   0.13352175    11991.693     1000 
   56000    0.8683668   -1.2305597    1.3012477  0.070687916   0.13207358    11968.412     1000 
   58000   0.85217668   -1.2044429    1.2769868  0.072543901    0.1374749    12152.885     1000 
   60000   0.81912066   -1.2576824    1.2274523 -0.030230078   0.12393379    12467.429     1000 
   62000   0.85406299   -1.2206408    1.2798134  0.059172539     0.126233    12207.042     1000 
   64000   0.85309354   -1.2023829    1.2783607  0.075977734   0.12730521    12205.346     1000 
   66000   0.85098919   -1.2469504    1.2752073  0.028256891   0.11393338    12341.831     1000 
   68000   0.86826036   -1.2583829    1.3010882  0.042705241   0.12439702    12624.213     1000 
   70000   0.88265317   -1.2077178    1.3226558   0.11493801   0.13651345    12139.717     1000 
   72000   0.84628731   -1.2119583    1.2681615  0.056203222   0.13421575    12103.081     1000 
   74000   0.85499591   -1.2394735    1.2812114  0.041737857   0.12092536    12426.871     1000 
   76000    0.8518472   -1.2025705     1.276493  0.073922574   0.13339756    12136.057     1000 
   78000   0.85558853   -1.2852678    1.2820994 -0.0031684053   0.11818484    12280.807     1000 
   80000   0.85033388   -1.2090569    1.2742253  0.065168428   0.12516452    12222.501     1000 
   82000   0.84404362   -1.2302323    1.2647994  0.034567092   0.13565886    11836.684     1000 
   84000   0.83769279   -1.2616687    1.2552826 -0.0063860531   0.12209345    12074.483     1000 
   86000   0.87169179   -1.2735849    1.3062301  0.032645281   0.12851778    12309.885     1000 
   88000   0.84098922   -1.2263261    1.2602223  0.033896284    0.1251451    12300.783     1000 
   90000   0.87736043   -1.2188492    1.3147246  0.095875366   0.12650273    12363.001     1000 
   92000   0.85705015   -1.2173852    1.2842897  0.066904448   0.13171588    12027.687     1000 
   94000   0.86555898   -1.2787693    1.2970401  0.018270812   0.12249308    12021.586     1000 
   96000   0.84006202   -1.1949762    1.2588329  0.063856727   0.15433671    11880.517     1000 
   98000   0.85000469   -1.2162536     1.273732  0.057478451   0.14391779    12106.895     1000 
  100000   0.86529315   -1.2117245    1.2966418  0.084917281   0.12710999    12343.825     1000 
  102000   0.83881085   -1.2487393    1.2569581 0.0082187939   0.13855173     12113.65     1000 
  104000   0.85918743   -1.2056591    1.2874924  0.081833225     0.132055    12293.123     1000 
  106000    0.8574482   -1.2394198    1.2848861  0.045466357   0.12887847    12248.876     1000 
  108000   0.87217855   -1.2526956    1.3069596  0.054263932   0.13885161    11998.859     1000 
  110000   0.81253782   -1.2340127    1.2175879 -0.016424796   0.12466034    12413.761     1000 
  112000   0.82484761   -1.2026217    1.2360341  0.033412437   0.12953952    12054.734     1000 
  114000   0.85765277    -1.310464    1.2851927 -0.025271365   0.11994393    12523.806     1000 
  116000    0.8625607     -1.27299    1.2925472  0.019557223   0.13817094    12032.733     1000 
  118000   0.88029806   -1.2756924    1.3191266  0.043434204   0.12983979    12231.552     1000 
  120000   0.82773445   -1.2158004    1.2403601  0.024559665   0.12613358    12028.626     1000 
  122000   0.86697192   -1.2258179    1.2991574  0.073339467   0.13436402    12120.188     1000 
  124000   0.86054417   -1.2491547    1.2895254   0.04037076   0.13392535    12223.055     1000 
  126000   0.87082413   -1.2589658      1.30493  0.045964148    0.1389749    11955.576     1000 
  128000   0.83395137   -1.1986016    1.2496761   0.05107452   0.12790711    12095.179     1000 
  130000   0.85393194    -1.234803     1.279617  0.044814041   0.13222314    12061.916     1000 
  132000   0.83757029   -1.2312394    1.2550991  0.023859711   0.13729033    12142.919     1000 
  134000   0.81189708   -1.2101312    1.2166278 0.0064965424   0.12338675     12097.49     1000 
  136000   0.84970247   -1.2512501    1.2732791  0.022029005   0.13666308     12030.22     1000 
  138000   0.82667905   -1.2160529    1.2387786  0.022725645   0.13717624    12028.539     1000 
  140000   0.84994886   -1.1921892    1.2736484  0.081459156   0.12309005    12134.926     1000 
  142000   0.89327469   -1.2839364    1.3385721  0.054635724   0.13465817    12168.972     1000 
  144000   0.84046765   -1.2861891    1.2594408 -0.026748299   0.12772011    12234.283     1000 
  146000   0.83259569    -1.177649    1.2476446  0.069995658   0.13028133    12151.579     1000 
  148000   0.81844025   -1.2372196    1.2264327 -0.010786931   0.13111885    11861.095     1000 
  150000   0.86236509   -1.2529277    1.2922541  0.039326396   0.14897283    12037.977     1000 
  152000    0.8996092   -1.3140688    1.3480644  0.033995591   0.11839642    12160.305     1000 
  154000   0.86235067    -1.278953    1.2922325  0.013279444   0.11593782    12501.917     1000 
  156000   0.83697746    -1.260787    1.2542107 -0.0065762875   0.13070175    12181.767     1000 
  158000    0.8898461   -1.2211325    1.3334344   0.11230185   0.11992408    12593.616     1000 
  160000   0.85202305   -1.2550417    1.2767565  0.021714815    0.1329739     12078.73     1000 
  162000   0.88982276   -1.2736385    1.3333994  0.059760906   0.12174401    12384.804     1000 
  164000   0.84485386   -1.2512816    1.2660135  0.014731911   0.12005283    12325.989     1000 
  166000   0.86783528   -1.2228264    1.3004512  0.077624718   0.13443724    12309.245     1000 
  168000   0.87006593   -1.2281426    1.3037938  0.075651232   0.13270843     12152.21     1000 
  170000   0.88216779   -1.2239276    1.3219284  0.098000864   0.13144745    12046.751     1000 
  172000   0.83690918    -1.212698    1.2541084  0.041410404   0.13867562    11967.779     1000 
  174000   0.83061852   -1.2201603    1.2446818  0.024521556   0.12307044    12213.363     1000 
  176000   0.89277867   -1.3076126    1.3378288   0.03021626    0.1126882    12508.984     1000 
  178000   0.84720989   -1.2416228     1.269544  0.027921187   0.12946607    12265.291     1000 
  180000   0.81803933   -1.2176031    1.2258319 0.0082288659   0.12221953    12263.822     1000 
  182000   0.84488813   -1.2295082    1.2660649   0.03655667   0.12142108    12017.593     1000 
  184000    0.8741837   -1.2310578    1.3099643  0.078906516   0.14428363    11794.344     1000 
  186000   0.86247973   -1.2718157    1.2924259   0.02061017   0.12930995    12188.702     1000 
  188000   0.84313185   -1.2675808    1.2634331 -0.0041476668   0.12773716    12078.399     1000 
  190000   0.84283382   -1.2652868    1.2629865 -0.0023003679   0.12710861    12412.314     1000 
  192000   0.87569458   -1.2691771    1.3122283  0.043051204   0.12500475    12127.968     1000 
  194000   0.87332658   -1.2080247    1.3086799   0.10065515    0.1257607    12246.513     1000 
  196000   0.86572288   -1.1905625    1.2972857   0.10672322   0.13769877      11989.8     1000 
  198000   0.81418123   -1.2602611    1.2200506 -0.040210511   0.13180347    12018.523     1000 
  200000   0.84551127   -1.2089141    1.2669986  0.058084525   0.13058744    12088.529     1000 
  202000   0.84737076   -1.2015763    1.2697851  0.068208807   0.12857844    12442.964     1000 
  204000   0.89125622   -1.2372977    1.3355475  0.098249707   0.12940627    12320.578     1000 
  206000   0.83947085    -1.194742    1.2579471  0.063205123   0.12536585    12099.284     1000 
  208000    0.8666905   -1.2300435    1.2987357  0.068692236   0.13745919    12096.296     1000 
  210000   0.86298357   -1.2779619    1.2931809  0.015218953   0.12973332    12315.619     1000 
  212000   0.87554286   -1.2368147     1.312001  0.075186266   0.11187887    12441.499     1000 
  214000   0.83492529   -1.2567751    1.2511355 -0.0056395759   0.12629658    12188.958     1000 
  216000   0.81212607    -1.261173    1.2169709 -0.044202073   0.12468487    11997.047     1000 
  218000    0.8110922   -1.1825585    1.2154217  0.032863163   0.13408418    11890.677     1000 
  220000   0.82366502   -1.1967436     1.234262  0.037518393   0.12218041    12184.582     1000 
  222000   0.83716206   -1.2589912    1.2544873 -0.0045038699   0.12257184     12051.71     1000 
  224000   0.87847095   -1.1932238    1.3163887   0.12316491   0.12932395    12169.139     1000 
  226000   0.86333279   -1.1985607    1.2937042  0.095143461   0.12783829    12076.785     1000 
  228000    0.8385595   -1.2424447    1.2565814  0.014136739   0.12382677     11999.39     1000 
  230000    0.8019594   -1.2366054    1.2017362 -0.034869205   0.13526611    12016.975     1000 
  232000   0.82129484    -1.232652    1.2307103 -0.0019416603   0.12699972    12154.015     1000 
  234000   0.87794464   -1.2013693       1.3156   0.11423078   0.13399908    11930.877     1000 
  236000   0.83845194   -1.1972665    1.2564202  0.059153734   0.13056928    12126.419     1000 
  238000   0.86973409    -1.259679    1.3032965  0.043617545    0.1201336    12318.716     1000 
  240000   0.85881812   -1.2525789     1.286939  0.034360105   0.13417168    11964.345     1000 
  242000   0.88291819   -1.2391264    1.3230529    0.0839265   0.12846326    12241.326     1000 
  244000   0.83406263   -1.2447278    1.2498429  0.005115066   0.12162615    12383.567     1000 
  246000   0.81350681   -1.2352721      1.21904 -0.016232102   0.12502936    12459.188     1000 
  248000   0.83284509   -1.2433965    1.2480184 0.0046218818    0.1313977    12255.165     1000 
  250000   0.83249923   -1.2340372    1.2475001  0.013462931   0.13123448    12117.847     1000 
  252000   0.87622804    -1.206164    1.3130277   0.10686376   0.12988638    12204.739     1000 
  254000   0.84040281   -1.2816265    1.2593436 -0.022282853   0.12788075    12415.976     1000 
  256000   0.85740685   -1.1886475    1.2848242  0.096176638   0.13275288     12070.64     1000 
  258000   0.90098497   -1.2442033     1.350126   0.10592268   0.13477825    12018.732     1000 
  260000   0.84010995   -1.2494662    1.2589048 0.0094385253   0.13632856    12071.776     1000 
  262000   0.82766849   -1.2366691    1.2402612 0.0035921576   0.12141306    12254.027     1000 
  264000   0.83931311   -1.2220663    1.2577107  0.035644385   0.13324253    12039.775     1000 
  266000   0.85407902   -1.1595038    1.2798374   0.12033361   0.13449966    11950.175     1000 
  268000   0.86850379   -1.2882621    1.3014529  0.013190795   0.11880728     12325.36     1000 
  270000   0.79958243    -1.173664    1.1981743  0.024510223   0.12709656    12077.819     1000 
  272000   0.82498154   -1.1944403    1.2362348  0.041794495   0.13101432    11919.502     1000 
  274000   0.88070826   -1.1799381    1.3197413   0.13980324   0.14881248    11862.594     1000 
  276000   0.86934037   -1.2451288    1.3027065  0.057577734   0.12679679    12221.899     1000 
  278000   0.85248532   -1.2214133    1.2774493  0.056035906   0.13873545    12078.281     1000 
  280000   0.85683964   -1.2513563    1.2839742  0.032617914   0.12739158    12171.076     1000 
  282000   0.83708547   -1.2818443    1.2543726 -0.027471706   0.13212426    12372.356     1000 
  284000    0.8669413    -1.231803    1.2991115  0.067308563   0.13608405    12070.844     1000 
  286000   0.84806924   -1.2808665    1.2708318 -0.010034739   0.11864783    12368.557     1000 
  288000   0.88489475   -1.1765443    1.3260148   0.14947048   0.13294185    12174.454     1000 
  290000   0.83177617   -1.2597273    1.2464166 -0.013310673   0.13239881    12179.438     1000 
  292000   0.84889705   -1.2668585    1.2720722 0.0052137239   0.12347491    12370.085     1000 
  294000    0.8065123   -1.3292512    1.2085587   -0.1206925   0.12509983    12072.061     1000 
  296000   0.87311883   -1.1965674    1.3083686   0.11180113   0.12556043    12210.041     1000 
  298000   0.84523163   -1.2621654    1.2665796 0.0044141642   0.12534112    12217.376     1000 
  300000   0.85431742   -1.2536217    1.2801947  0.026573005    0.1248118    12356.818     1000 
  302000   0.83579633   -1.2161292    1.2524408  0.036311582   0.13145512    12103.601     1000 
  304000   0.82486225   -1.2799998    1.2360561 -0.043943704   0.12098481    12202.589     1000 
  306000   0.84815202   -1.2843534    1.2709558 -0.013397562   0.13184649    12054.843     1000 
  308000   0.87910948   -1.2077429    1.3173456   0.10960262   0.13956531    11659.574     1000 
  310000   0.82222645   -1.2744029    1.2321063  -0.04229652   0.14499917    11859.414     1000 
  312000   0.88676088   -1.2353344    1.3288112  0.093476799   0.13613928     12003.14     1000 
  314000   0.84356151   -1.2456627    1.2640769  0.018414264   0.13568676      12220.5     1000 
  316000   0.81992807     -1.24105    1.2286622 -0.012387828   0.12822065    12113.341     1000 
  318000   0.84313126   -1.2783264    1.2634322 -0.014894227   0.12295729    12312.062     1000 
  320000   0.87486699   -1.2445631    1.3109882  0.066425091   0.12919659    12250.234     1000 
  322000   0.82731605   -1.1971532    1.2397331   0.04257994   0.12379632    12113.308     1000 
  324000   0.88325277    -1.266632    1.3235543  0.056922302    0.1374472    11908.903     1000 
  326000   0.82135957   -1.1621408    1.2308073  0.068666472   0.12916998    12132.101     1000 
  328000   0.84082628   -1.2233417    1.2599782  0.036636458   0.13014353    11922.459     1000 
  330000    0.8507262   -1.2566725    1.2748132  0.018140722   0.12624559    12087.293     1000 
  332000   0.84636289   -1.2389671    1.2682748  0.029307649   0.14310295    12230.596     1000 
  334000   0.83991626   -1.2144054    1.2586145   0.04420911   0.11813571      12367.9     1000 
  336000   0.84792662   -1.2752719     1.270618 -0.0046538674   0.12573477    12250.734     1000 
  338000     0.848462   -1.2006213    1.2714203  0.070799048   0.13582417    12000.044     1000 
  340000   0.85530363   -1.2759939    1.2816725  0.005678586   0.13210954    12157.363     1000 
  342000   0.88721247   -1.2974831    1.3294879  0.032004804    0.1225004    12396.372     1000 
  344000   0.85142294    -1.256661    1.2758573  0.019196256   0.12478961    12193.702     1000 
  346000   0.86101105   -1.2549724    1.2902251  0.035252621    0.1273646    12300.681     1000 
  348000   0.86418145    -1.208044    1.2949759  0.086931869    0.1292749    12382.959     1000 
  350000   0.84537994   -1.1925801    1.2668018  0.074221727   0.11616282    12382.858     1000 
  352000     0.891631   -1.2420402     1.336109   0.09406887   0.13864825    12126.092     1000 
  354000   0.85058681   -1.2325689    1.2746043    0.0420354    0.1318749    12301.579     1000 
  356000   0.85041005   -1.1728612    1.2743395   0.10147829   0.13261348    12327.031     1000 
  358000    0.8440679   -1.2744988    1.2648357 -0.0096630393   0.13509152    11919.414     1000 
  360000   0.87174745   -1.1816848    1.3063136   0.12462874    0.1443317    11922.501     1000 
  362000    0.8637625   -1.2162512    1.2943481  0.078096905   0.12147047    12303.753     1000 
  364000   0.87354364   -1.2337082    1.3090051  0.075296963   0.13857724    12037.609     1000 
  366000    0.8734925   -1.2292818    1.3089285  0.079646755    0.1323916    12029.894     1000 
  368000   0.87173783   -1.2205364    1.3062991  0.085762745   0.14002174    12229.264     1000 
  370000    0.8576899   -1.2309966    1.2852483  0.054251693   0.12760616    12352.255     1000 
  372000     0.839216   -1.2499648    1.2575652 0.0076003918   0.11907246    12192.039     1000 
  374000   0.84994753   -1.2117607    1.2736464  0.061885663   0.14260099    12191.519     1000 
  376000    0.8568106   -1.2563273    1.2839307  0.027603361   0.13182293     11997.82     1000 
  378000   0.86566219    -1.249495    1.2971948   0.04769976   0.13375137    12402.032     1000 
  380000   0.82397441   -1.2550447    1.2347256 -0.020319047    0.1272329     12255.01     1000 
  382000   0.83743034   -1.2326352    1.2548894  0.022254172   0.11698076    12310.194     1000 
  384000   0.85263043    -1.276685    1.2776667 0.00098166113   0.12899747    12079.347     1000 
  386000   0.85127236    -1.276114    1.2756316 -0.00048235741   0.12158961     12105.45     1000 
  388000   0.89393948   -1.2130362    1.3395683   0.12653215   0.13852309    11867.913     1000 
  390000    0.8378494   -1.2395902    1.2555173   0.01592707   0.13189224    12186.392     1000 
  392000   0.83481171   -1.2086339    1.2509653  0.042331399   0.13822197    11892.994     1000 
  394000   0.90522805   -1.2482852    1.3564842   0.10819899   0.14364129    12260.525     1000 
  396000   0.85083649   -1.2967959    1.2749785 -0.021817451   0.12697547    12331.624     1000 
  398000   0.82766941     -1.19341    1.2402626  0.046852594   0.14245066    12126.031     1000 
  400000   0.83502779   -1.2727523    1.2512891 -0.021463191   0.13569523    12039.413     1000 
  402000   0.89271231   -1.2137334    1.3377294   0.12399595   0.12485419    12368.009     1000 
  404000   0.84635108   -1.2529998    1.2682571  0.015257259   0.12938214    12482.344     1000 
  406000    0.8433021   -1.2590481    1.2636882 0.0046401404   0.14169227    12065.573     1000 
  408000   0.81949677   -1.2582746    1.2280159 -0.030258679   0.13242031    11797.089     1000 
  410000   0.83088767   -1.2477011    1.2450852 -0.0026159627   0.12698685    12205.574     1000 
  412000   0.86746501   -1.2483773    1.2998963  0.051519057   0.12647261    12475.381     1000 
  414000   0.81791518   -1.2200377    1.2256459 0.0056081726   0.13643935    11941.759     1000 
  416000   0.87510892   -1.1867407    1.3113507   0.12460999   0.13477935    12225.362     1000 
  418000   0.87186432   -1.2634573    1.3064887  0.043031435   0.13750264    12167.034     1000 
  420000   0.86870741   -1.2412207    1.3017581  0.060537388   0.12798164    12467.927     1000 
  422000   0.88347403   -1.2410441    1.3238858  0.082841751    0.1387282    12248.553     1000 
  424000   0.85144652   -1.1802352    1.2758926  0.095657397   0.12569877     12238.77     1000 
  426000   0.86002845   -1.2363943    1.2887526  0.052358311   0.14275926    12020.742     1000 
  428000   0.85822323   -1.2977429    1.2860475 -0.011695347   0.12722992    12215.908     1000 
  430000   0.82977257   -1.2156978    1.2434142  0.027716369   0.13688154    12125.179     1000 
  432000   0.85476858   -1.2550004    1.2808707  0.025870328   0.12636657    12185.407     1000 
  434000   0.86486618     -1.23917     1.296002   0.05683193   0.11939123    12287.265     1000 
  436000   0.84409695   -1.2564036    1.2648793 0.0084756263   0.11789308    12278.631     1000 
  438000   0.90787585   -1.2722693     1.360452  0.088182696   0.13490225     12127.84     1000 
  440000   0.88320034   -1.2062139    1.3234757   0.11726185   0.14455096    11924.648     1000 
  442000   0.86935485   -1.2410102    1.3027282   0.06171802   0.13025881    12224.716     1000 
  444000    0.8595812   -1.2331809    1.2880824  0.054901482   0.12112149    12288.253     1000 
  446000   0.85001444   -1.2292268    1.2737466  0.044519828   0.13678063    11905.345     1000 
  448000   0.84767371    -1.217047    1.2702391  0.053192075   0.12462832    12387.445     1000 
  450000   0.84496994   -1.2318137    1.2661875  0.034373743   0.12665539    12188.579     1000 
  452000   0.82655537   -1.2036707    1.2385932  0.034922568   0.14012332    11992.502     1000 
  454000   0.84615254   -1.2084147    1.2679596   0.05954483   0.12504741     12387.61     1000 
  456000    0.8374117   -1.2106837    1.2548614  0.044177754   0.12179306    11921.344     1000 
  458000   0.84976989   -1.1733826    1.2733802   0.09999758   0.12132604    12240.967     1000 
  460000   0.88514344   -1.2075557    1.3263874   0.11883169   0.13219432    12016.237     1000 
  462000   0.88488034   -1.1032953    1.3259932   0.22269791   0.12510323    12279.866     1000 
  464000   0.84185562   -1.2924779    1.2615206 -0.030957297   0.13248956    12190.451     1000 
  466000   0.84867069   -1.2062677     1.271733  0.065465322   0.13553699    12114.976     1000 
  468000   0.84658749   -1.2271551    1.2686113  0.041456237   0.13549703    12062.537     1000 
  470000   0.83688259    -1.206074    1.2540686  0.047994567   0.13812483    12151.752     1000 
  472000   0.82896544   -1.2354192    1.2422047 0.0067854968   0.12985394    12220.721     1000 
  474000   0.85814716   -1.2244413    1.2859335  0.061492246   0.13841593    12113.728     1000 
  476000   0.85764785   -1.1708335    1.2851853   0.11435184   0.12435145    12413.844     1000 
  478000   0.83179602   -1.1804219    1.2464463  0.066024479   0.13591103     12009.79     1000 
  480000   0.88982163   -1.2124559    1.3333977   0.12094182   0.13850501    12146.012     1000 
  482000   0.83327483   -1.1895173    1.2486623  0.059145014    0.1311694    12014.309     1000 
  484000    0.8820327   -1.2607579     1.321726  0.060968078   0.12595218    12333.367     1000 
  486000   0.84805236   -1.2077289    1.2708065  0.063077534   0.12574838    12285.125     1000 
  488000   0.81683334   -1.2325053    1.2240248 -0.0084805725   0.11379962    12525.435     1000 
  490000   0.80242786    -1.183664    1.2024382  0.018774198   0.13843274    12084.555     1000 
  492000   0.86815832   -1.2476839    1.3009352  0.053251344   0.12521059    12215.101     1000 
  494000     0.886763   -1.2407795    1.3288144  0.088034903   0.12614117    12268.405     1000 
  496000   0.83297473   -1.1394855    1.2482126   0.10872715   0.14673978    11906.217     1000 
  498000   0.85522356   -1.2337843    1.2815525  0.047768174   0.12974188     12155.23     1000 
  500000    0.8487357   -1.1879535    1.2718305   0.08387692   0.13256025    12101.254     1000 
  502000   0.87852917   -1.2448875     1.316476  0.071588504   0.11371872    12555.704     1000 
  504000   0.84701825    -1.187273    1.2692568  0.081983879   0.14353293    12025.496     1000 
  506000   0.85426464   -1.2745338    1.2801156 0.0055817705   0.13653495    12183.895     1000 
  508000   0.85695694    -1.278568      1.28415 0.0055819336   0.12464626    12292.617     1000 
  510000   0.80941563   -1.2584634    1.2129093  -0.04555405   0.13538947     12102.28     1000 
  512000   0.84392804   -1.2462732    1.2646262   0.01835297   0.13198224    11931.728     1000 
  514000   0.81260034   -1.2194134    1.2176816 -0.0017318063   0.12122435    12127.646     1000 
  516000   0.85754203   -1.2513915    1.2850267  0.033635198   0.13450119    12194.201     1000 
  518000   0.89150387   -1.2242484    1.3359186   0.11167019   0.14346492     12182.04     1000 
  520000   0.84500029   -1.1934995    1.2662329  0.072733428   0.13473529    12160.458     1000 
  522000    0.8030621   -1.2543645    1.2033886 -0.050975996   0.10835198    12428.289     1000 
  524000   0.86700987    -1.233011    1.2992143  0.066203265   0.13011108    12168.374     1000 
  526000   0.87690843   -1.2248792    1.3140473  0.089168096   0.13403413    12221.336     1000 
  528000   0.86352854     -1.25301    1.2939975  0.040987543   0.13269125    11937.845     1000 
  530000   0.83979482   -1.2585907    1.2584325 -0.00015817266   0.12536567    12169.734     1000 
  532000   0.85773321    -1.207247    1.2853132  0.078066243   0.12725827    12267.348     1000 
  534000   0.82248052   -1.2556776    1.2324871 -0.023190527   0.11007374    12636.281     1000 
  536000   0.88527504    -1.192473    1.3265846   0.13411169   0.14108446    12062.317     1000 
  538000   0.91863925   -1.1556384    1.3765809   0.22094256    0.1333725    12184.689     1000 
  540000   0.85795538   -1.2278207    1.2856461  0.057825471   0.12809058    12214.869     1000 
  542000   0.86771654   -1.2040915    1.3002732  0.096181762   0.12997439    12183.871     1000 
  544000   0.84888268   -1.2301078    1.2720507   0.04194288   0.13156948    12189.642     1000 
  546000   0.86588155   -1.2065421    1.2975235  0.090981426   0.13185148    11942.867     1000 
  548000   0.83232491   -1.1856466    1.2472389  0.061592295    0.1344659    12039.803     1000 
  550000   0.85548296   -1.2605847    1.2819412  0.021356514   0.13100359    12178.476     1000 
  552000   0.82605352   -1.2286173    1.2378412 0.0092239142   0.11990498    12294.537     1000 
  554000   0.82625756   -1.2644058     1.238147 -0.026258884    0.1303363    12080.358     1000 
  556000   0.85965363   -1.2330491     1.288191  0.055141822   0.13909208     12277.17     1000 
  558000   0.86683784   -1.1921116    1.2989565   0.10684486   0.12785121    12119.917     1000 
  560000   0.87767008   -1.2190479    1.3151886  0.096140699    0.1279393    12354.963     1000 
  562000   0.83788626   -1.2427644    1.2555726  0.012808187   0.13086843     12148.41     1000 
  564000   0.80419336   -1.2078582    1.2050837 -0.0027744096   0.12081974    12279.114     1000 
  566000   0.83194024    -1.233579    1.2466625  0.013083407   0.13540438    12074.605     1000 
  568000   0.84371212   -1.2277683    1.2643026  0.036534316   0.13187408    11996.047     1000 
  570000   0.83956645   -1.1895649    1.2580903  0.068525421   0.12901667    12091.384     1000 
  572000   0.84024372   -1.1927062    1.2591052  0.066399037   0.12973592     12202.52     1000 
  574000    0.8372853   -1.2080759     1.254672  0.046596093   0.14913488    11809.941     1000 
  576000   0.86840842   -1.1805994      1.30131   0.12071061   0.12897928    12086.292     1000 
  578000   0.82590254   -1.2436669     1.237615 -0.0060519724   0.10941677     12359.63     1000 
  580000   0.83149872   -1.2604911    1.2460008 -0.014490281   0.12485377    12096.812     1000 
  582000   0.79910139    -1.220265    1.1974534 -0.022811534    0.1315923    11865.836     1000 
  584000   0.84397357   -1.3059838    1.2646944 -0.041289389   0.12187623    12303.518     1000 
  586000   0.87519621   -1.2207495    1.3114815  0.090732048   0.12755044    12315.718     1000 
  588000   0.86853762   -1.1922042    1.3015036   0.10929942   0.14097565     12167.04     1000 
  590000   0.81207185   -1.2508857    1.2168897 -0.033996076   0.13827154      11992.9     1000 
  592000   0.84136028   -1.2235382    1.2607784  0.037240185   0.12099453    12171.476     1000 
  594000   0.86181957   -1.2210808    1.2914366  0.070355807   0.12679308    12283.599     1000 
  596000   0.86692359   -1.2808243     1.299085  0.018260733    0.1286309     12200.45     1000 
  598000   0.83154958   -1.2037599     1.246077  0.042317115   0.13771631    11995.529     1000 
  600000   0.88177009   -1.2095391    1.3213325   0.11179338   0.13255677    12353.438     1000 
  602000   0.86318781   -1.2407445    1.2934869  0.052742413   0.13166392    12064.724     1000 
  604000   0.85983091    -1.210456    1.2884566  0.078000642   0.12144057    12239.853     1000 
  606000    0.8459546   -1.1667733     1.267663    0.1008897   0.13114965    12206.755     1000 
  608000   0.80631708   -1.2126293    1.2082661 -0.0043631495   0.12796778    12098.881     1000 
  610000   0.84433072   -1.1437846    1.2652296   0.12144497   0.13703291    12082.928     1000 
  612000    0.8330048   -1.2545292    1.2482577 -0.006271546   0.13456632    12240.701     1000 
  614000   0.85677903   -1.1847787    1.2838834  0.099104655   0.13866824    11902.919     1000 
  616000   0.86357238   -1.2013691    1.2940632  0.092694145   0.12598864    12403.904     1000 
  618000    0.8565471   -1.2256118    1.2835358  0.057924042   0.14033297    12076.627     1000 
  620000    0.8441507    -1.268763    1.2649598 -0.0038031973    0.1284356    12309.916     1000 
  622000   0.87253009   -1.2442579    1.3074863  0.063228464     0.121777    12346.375     1000 
  624000   0.84075321   -1.2484605    1.2598687  0.011408153   0.13469715    12005.345     1000 
  626000   0.87119615   -1.1839478    1.3054874   0.12153962   0.13801315    12149.557     1000 
  628000   0.86970095   -1.2456004    1.3032469  0.057646501   0.11414639    12464.688     1000 
  630000   0.86545857   -1.2038664    1.2968897  0.093023223     0.129786      12116.3     1000 
  632000   0.86957285   -1.2473047    1.3030549  0.055750225   0.12029649    12209.083     1000 
  634000    0.8289756   -1.2000455    1.2422199  0.042174413   0.13651423    11977.544     1000 
  636000   0.82965932   -1.2263554    1.2432445  0.016889047   0.12105877    12406.081     1000 
  638000   0.85724191   -1.2165753     1.284577  0.068001686   0.11567392    12439.817     1000 
  640000   0.83957867   -1.2426696    1.2581086  0.015439066   0.12744533    12137.001     1000 
  642000   0.86181588     -1.22798    1.2914311  0.063451049   0.12676701     12199.23     1000 
  644000   0.83410789   -1.1975909    1.2499107  0.052319821    0.1238221    12133.873     1000 
  646000   0.86659597   -1.2178547    1.2985941  0.080739381   0.13910322    12267.346     1000 
  648000   0.82973334   -1.2894049    1.2433554 -0.046049528   0.14539561    11997.278     1000 
  650000   0.82280782   -1.2301512    1.2329775  0.002826293   0.12448134    12366.502     1000 
  652000   0.86273364   -1.2709813    1.2928064  0.021825105   0.13201848    12323.634     1000 
  654000   0.82043735   -1.2265964    1.2294254 0.0028289297   0.12200822    12289.285     1000 
  656000   0.87005745   -1.1671734    1.3037811   0.13660769   0.15027261    11896.356     1000 
  658000   0.85339533   -1.2758138    1.2788129  0.002999141   0.13366531    11940.464     1000 
  660000   0.89684489   -1.2567062    1.3439221  0.087215893   0.13096066    12170.528     1000 
  662000    0.8632808   -1.2591886    1.2936263  0.034437682   0.11825253    12407.999     1000 
  664000   0.85672499   -1.1848599    1.2838024   0.09894254   0.14271075     11932.69     1000 
  666000   0.89062229   -1.2401714    1.3345975  0.094426109   0.12795857    12060.228     1000 
  668000   0.88391732   -1.2105041    1.3245501   0.11404604    0.1268147    12412.015     1000 
  670000   0.84646612   -1.2687288    1.2684295 -0.00029936464   0.14047157    12079.768     1000 
  672000   0.84927515   -1.2076596    1.2726388  0.064979167   0.13860428    11872.542     1000 
  674000   0.83513287   -1.2575397    1.2514466 -0.0060931244   0.13396368    12032.584     1000 
  676000   0.89851604   -1.2584049    1.3464263  0.088021376   0.14302952    11944.146     1000 
  678000   0.84519492   -1.1994135    1.2665246  0.067111046   0.12575464    12032.892     1000 
  680000   0.84377636   -1.2799538    1.2643989 -0.015554954   0.14302989    11975.286     1000 
  682000   0.81803546   -1.2702475    1.2258261 -0.044421328   0.13033176    11979.016     1000 
  684000   0.88378832   -1.2751314    1.3243568  0.049225392   0.12792347    12263.825     1000 
  686000   0.84262751   -1.2144043    1.2626773  0.048273062   0.13704335    11987.774     1000 
  688000   0.86506228    -1.202815    1.2962958  0.093480873    0.1387163    12001.571     1000 
  690000   0.85967989   -1.1797176    1.2882303    0.1085127   0.12754111    12131.723     1000 
  692000   0.89302102   -1.2666525     1.338192  0.071539484   0.13730431    12057.788     1000 
  694000   0.86400057   -1.2810166    1.2947049  0.013688266   0.13284206    11949.012     1000 
  696000   0.88130939   -1.1938981    1.3206421   0.12674404     0.134433     12128.61     1000 
  698000   0.83414601   -1.2611553    1.2499678  -0.01118755   0.12275067    12143.507     1000 
  700000   0.83923526   -1.2553884     1.257594 0.0022056323   0.12586147    12355.749     1000 
  702000   0.82150898   -1.1854887    1.2310312  0.045542547   0.13563772    11838.965     1000 
  704000   0.83585207   -1.2563395    1.2525243 -0.0038151579   0.12805531    12235.059     1000 
  706000    0.8578006   -1.2343385    1.2854142  0.051075717   0.14391675    11901.282     1000 
  708000   0.86190099   -1.2127581    1.2915586  0.078800498   0.13431924    12449.085     1000 
  710000   0.85785216    -1.224025    1.2854915  0.061466496   0.13598252    11982.664     1000 
  712000   0.86418249   -1.2293821    1.2949775  0.065595345   0.13591749    12056.573     1000 
  714000   0.85876826   -1.2908223    1.2868642 -0.0039580213   0.12288107    12383.184     1000 
  716000    0.8548112   -1.2748035    1.2809346 0.0061310442   0.12797389    12256.976     1000 
  718000   0.88653696    -1.230331    1.3284756  0.098144677    0.1314692     11946.23     1000 
  720000   0.88311599   -1.2385114    1.3233493   0.08483789   0.12305003    12339.746     1000 
  722000   0.85072255   -1.2584146    1.2748077  0.016393157   0.12745144    12309.172     1000 
  724000   0.87437406   -1.2659193    1.3102495  0.044330263   0.11779135    12453.436     1000 
  726000   0.81368014   -1.2466822    1.2192997 -0.027382544   0.12341951    12237.616     1000 
  728000   0.86225905   -1.2116391    1.2920952  0.080456069   0.13825899    11775.087     1000 
  730000   0.85553455   -1.2114394    1.2820185  0.070579074   0.12802181    11954.333     1000 
  732000    0.8766846   -1.2241818    1.3137119  0.089530112   0.12641703    12362.738     1000 
  734000   0.88362013   -1.2375961    1.3241048  0.086508648   0.13155966    12164.977     1000 
  736000   0.83394668   -1.2535548    1.2496691 -0.0038857043   0.12350334    12133.178     1000 
  738000   0.81652859   -1.1924793    1.2235681  0.031088763   0.12699651    12372.666     1000 
  740000   0.84316316   -1.2239242      1.26348  0.039555773   0.13931398    11899.003     1000 
  742000   0.82626305   -1.2337703    1.2381552 0.0043848797   0.11844801    12176.646     1000 
  744000   0.88658673   -1.1832887    1.3285502    0.1452615   0.14352791    12171.793     1000 
  746000   0.87737043   -1.1803337    1.3147396   0.13440588    0.1274504    12069.127     1000 
  748000   0.84086065   -1.3364956    1.2600297 -0.076465942   0.12859771    12277.995     1000 
  750000   0.82315411   -1.2113383    1.2334964  0.022158124   0.12576743    12359.958     1000 
  752000   0.87354345   -1.2310577    1.3090049  0.077947197   0.13248924    12134.171     1000 
  754000   0.78178687   -1.2628969    1.1715076 -0.091389296   0.13139114    12000.879     1000 
  756000   0.88497449   -1.2558452    1.3261343  0.070289112   0.11105926    12435.093     1000 
  758000   0.85532357   -1.2081503    1.2817024  0.073552043    0.1342079    12337.167     1000 
  760000   0.88076943   -1.1474728     1.319833   0.17236015   0.14657904    12106.998     1000 
  762000   0.85911518   -1.2531931    1.2873841  0.034191013   0.12533443    11996.276     1000 
  764000    0.8497111   -1.2088755    1.2732921  0.064416597   0.14264547    12244.227     1000 
  766000   0.84826592   -1.2452354    1.2711265  0.025891103   0.13277014    12222.562     1000 
  768000   0.84273975   -1.1896515    1.2628455  0.073194036   0.13429958    11930.288     1000 
  770000   0.86999753    -1.240084    1.3036913  0.063607269   0.13333471    12225.642     1000 
  772000   0.84819803   -1.3198904    1.2710248  -0.04886564   0.11565523    12416.545     1000 
  774000   0.84423902   -1.2105435    1.2650922  0.054548658    0.1335347    12175.107     1000 
  776000   0.82649241   -1.2963899    1.2384989  -0.05789098    0.1300995     12191.98     1000 
  778000   0.84607162   -1.2590072    1.2678383 0.0088311548   0.12835307    12062.389     1000 
  780000   0.86317554   -1.2502879    1.2934685  0.043180636   0.12679047    12170.487     1000 
  782000   0.85653935   -1.2248452    1.2835242   0.05867901   0.12868572    12421.657     1000 
  784000   0.85888998   -1.2203538    1.2870466  0.066692813   0.13199231    12350.998     1000 
  786000   0.85226061   -1.2316989    1.2771125  0.045413586   0.11333793    12230.652     1000 
  788000   0.86319246    -1.234553    1.2934939  0.058940894   0.13288467    11975.375     1000 
  790000   0.87058238   -1.2105416    1.3045677  0.094026082   0.12694237    12281.491     1000 
  792000   0.85556561   -1.2221355    1.2820651  0.059929555   0.12150334    12181.968     1000 
  794000   0.83308534   -1.2282509    1.2483784   0.02012746    0.1137169    12135.824     1000 
  796000   0.84908698   -1.2189538    1.2723568  0.053403067   0.12108077    11967.104     1000 
  798000    0.8676896   -1.2253682    1.3002329  0.074864688    0.1405697    12029.665     1000 
  800000   0.83991735    -1.271669    1.2586162  -0.01305282   0.12344045    12126.521     1000 
  802000    0.8513455   -1.2607166    1.2757412  0.015024682   0.13046939    12281.388     1000 
  804000   0.81343206     -1.26549    1.2189279 -0.046562035   0.12839603    12321.958     1000 
  806000   0.83688756   -1.2171232     1.254076  0.036952842   0.13586499    11989.581     1000 
  808000   0.85898513   -1.2515874    1.2871892  0.035601846   0.12912237    12315.791     1000 
  810000   0.86686268   -1.2369117    1.2989937  0.062081999   0.13122747        12221     1000 
  812000   0.82382848   -1.1998291     1.234507   0.03467792    0.1423096    12067.888     1000 
  814000   0.87807612   -1.2518021    1.3157971     0.063995   0.12478448    12216.708     1000 
  816000   0.86940366   -1.2142421    1.3028014   0.08855931   0.13176866     12115.24     1000 
  818000   0.84142858   -1.2315667    1.2608807  0.029314074   0.12850276     12353.41     1000 
  820000   0.81957487   -1.1699485    1.2281329  0.058184401   0.12425732    12057.903     1000 
  822000   0.84914796    -1.189427    1.2724482  0.083021212   0.12273404    12171.774     1000 
  824000   0.84656402   -1.2486515    1.2685762  0.019924674   0.12390159    12130.064     1000 
  826000   0.80684013   -1.2712724    1.2090499 -0.062222455   0.12137669    12337.751     1000 
  828000   0.85036302   -1.2540584     1.274269  0.020210531   0.12083103    12187.505     1000 
  830000   0.88643471   -1.2738731    1.3283224   0.05444933   0.13744602    12258.258     1000 
  832000   0.85579515   -1.2710477     1.282409  0.011361345   0.12838083    12306.849     1000 
  834000   0.86064325   -1.1900019    1.2896739  0.099672004   0.12275896    12178.879     1000 
  836000   0.87329734   -1.2401874    1.3086361  0.068448659   0.14012178    12069.545     1000 
  838000   0.83443263   -1.2534688    1.2503973 -0.0030715072    0.1353253    12189.416     1000 
  840000   0.82508118   -1.2635515    1.2363841 -0.027167326   0.13959601    12082.145     1000 
  842000   0.81150261   -1.2585096    1.2160367 -0.042472972   0.12678137    12305.095     1000 
  844000   0.86960552   -1.2150578    1.3031039  0.088046091   0.13505297    12202.709     1000 
  846000   0.81353037   -1.1818943    1.2190753  0.037180944   0.11956713    12363.434     1000 
  848000   0.83537634   -1.2643151    1.2518114 -0.012503687   0.13538407    12107.446     1000 
  850000   0.85269352   -1.1943095    1.2777612  0.083451719   0.11807025    12433.377     1000 
  852000   0.83033445   -1.2141327    1.2442562  0.030123438   0.12671318    12234.144     1000 
  854000    0.8343417   -1.2357749     1.250261   0.01448615   0.13466325    11985.779     1000 
  856000   0.82890597   -1.2117299    1.2421156  0.030385659   0.11977935    12478.698     1000 
  858000   0.83501366   -1.2087257     1.251268  0.042542274   0.13266612    12088.938     1000 
  860000   0.86171262   -1.2025369    1.2912764   0.08873946    0.1324551     12255.17     1000 
  862000   0.86257163   -1.1666336    1.2925636   0.12593003   0.13617058    11982.346     1000 
  864000   0.83092576   -1.2540641    1.2451422 -0.0089218843   0.12707156    12078.134     1000 
  866000   0.87845051   -1.2732461    1.3163581  0.043112008   0.14031231    12189.421     1000 
  868000   0.86266492   -1.2233712    1.2927034   0.06933213   0.13140563    12325.168     1000 
  870000   0.84380768   -1.1724777    1.2644458  0.091968077   0.15088125    11887.734     1000 
  872000   0.87338114   -1.2666861    1.3087616  0.042075551   0.13352723    12004.658     1000 
  874000   0.86721339    -1.250559    1.2995193  0.048960302   0.12918092    12200.449     1000 
  876000   0.85218419   -1.2161602     1.276998  0.060837778   0.14571615    12182.134     1000 
  878000   0.84279706   -1.1771256    1.2629314  0.085805814   0.13341043    12286.414     1000 
  880000   0.83580067   -1.2710596    1.2524473 -0.018612281    0.1268931    12238.429     1000 
  882000   0.85389625   -1.2029949    1.2795635  0.076568655   0.14016146    12048.592     1000 
  884000    0.8484259   -1.1977017    1.2713662  0.073664513   0.14684222    12131.456     1000 
  886000   0.84909647   -1.2549023    1.2723711  0.017468756   0.13351652    12056.187     1000 
  888000   0.83047933    -1.207468    1.2444733  0.037005306   0.14830369    11950.575     1000 
  890000   0.85448976   -1.2416385    1.2804529  0.038814426   0.12516791    12360.553     1000 
  892000   0.86327406   -1.2223784    1.2936162  0.071237736   0.12808809    12279.278     1000 
  894000   0.87217605   -1.2270842    1.3069558  0.079871618   0.14087506    11925.474     1000 
  896000   0.81373125   -1.1794602    1.2193763  0.039916116   0.11992609    12352.297     1000 
  898000   0.84701009   -1.1874948    1.2692446   0.08174982   0.12613945    12131.247     1000 
  900000   0.83704316   -1.1980196    1.2543092  0.056289591   0.12910978    12062.939     1000 
  902000    0.8236795   -1.2877253    1.2342837 -0.053441612    0.1182206    12253.879     1000 
  904000   0.87406305   -1.1477317    1.3097835   0.16205174   0.12547792    12331.096     1000 
  906000   0.85393199   -1.1795216    1.2796171   0.10009546   0.12710935    12151.678     1000 
  908000    0.8210213   -1.1479358    1.2303004  0.082364601   0.13413509    12048.195     1000 
  910000   0.85309874   -1.2157406    1.2783685  0.062627816   0.11928308    12331.932     1000 
  912000    0.8302264   -1.1808616    1.2440943  0.063232712    0.1338142    12252.048     1000 
  914000    0.8702244   -1.2391555    1.3040313  0.064875722   0.14410841    12021.596     1000 
  916000   0.86871215   -1.1989498    1.3017652   0.10281535   0.12767866    12132.597     1000 
  918000   0.85428913   -1.2522734    1.2801523  0.027878824   0.12671787     12364.63     1000 
  920000   0.85404983   -1.2399109    1.2797937  0.039882821   0.13042754    12096.576     1000 
  922000      0.82755   -1.2537139    1.2400837 -0.013630235   0.11711694    12379.263     1000 
  924000   0.85710324   -1.2498437    1.2843692  0.034525451   0.11618081    12515.611     1000 
  926000     0.896891   -1.2215407    1.3439912   0.12245048    0.1290614    12183.569     1000 
  928000   0.86546147   -1.2207318     1.296894  0.076162216   0.13023855    12177.986     1000 
  930000   0.86173703   -1.3016512    1.2913129 -0.010338308   0.12300967    12327.629     1000 
  932000   0.84729884   -1.2586689    1.2696773  0.011008383   0.13404185     11963.59     1000 
  934000   0.81535304   -1.2023573    1.2218065  0.019449239    0.1356102     11983.53     1000 
  936000   0.85454013   -1.1813734    1.2805284  0.099154942   0.13685591      12198.8     1000 
  938000   0.83868464   -1.2371484    1.2567689  0.019620496   0.12652023    11967.715     1000 
  940000   0.83409923   -1.2080905    1.2498977  0.041807163   0.12322382    12080.769     1000 
  942000   0.87093598   -1.2186685    1.3050976  0.086429105   0.12236233    12041.324     1000 
  944000   0.87623569   -1.1814985    1.3130392   0.13154069   0.13646864    11925.494     1000 
  946000   0.82881558   -1.2441536    1.2419802 -0.0021734764   0.12518919    12332.913     1000 
  948000    0.8670363   -1.1992963    1.2992539   0.09995761   0.13711774    11987.241     1000 
  950000   0.83981205   -1.3170518    1.2584584 -0.058593478   0.13250204    12076.598     1000 
  952000   0.84008306   -1.1836608    1.2588645  0.075203657   0.11952266    12342.637     1000 
  954000   0.84907517   -1.3074798    1.2723391  -0.03514066   0.13464026    12168.036     1000 
  956000   0.89245093   -1.2342769    1.3373377   0.10306082   0.13023563    12279.851     1000 
  958000    0.8357363   -1.2603709    1.2523508 -0.0080200168   0.12660184    12192.354     1000 
  960000   0.84503748   -1.1872288    1.2662887  0.079059909   0.12802165    12154.287     1000 
  962000   0.82871516   -1.2353626    1.2418297 0.0064670698   0.12906537    12171.001     1000 
  964000   0.85860226   -1.2142408    1.2866155  0.072374678   0.12906558    12126.922     1000 
  966000    0.8660852   -1.2042926    1.2978287  0.093536097   0.13091289    12015.976     1000 
  968000   0.85916334   -1.2365771    1.2874563  0.050879156   0.13107772    12169.331     1000 
  970000   0.83956778   -1.2373566    1.2580923  0.020735692   0.12968654    11920.321     1000 
  972000   0.86142868   -1.2403997    1.2908509  0.050451167   0.13123412    11983.604     1000 
  974000   0.84472845   -1.1662808    1.2658256  0.099544772   0.13543012    11907.451     1000 
  976000   0.83031265   -1.2699147    1.2442235 -0.025691145   0.13498136    11960.712     1000 
  978000   0.82014917   -1.2346458    1.2289935 -0.0056522245   0.12968508    12301.971     1000 
  980000   0.84800787   -1.1654623    1.2707398   0.10527751   0.13113877    12295.448     1000 
  982000   0.85012843   -1.1924634    1.2739175  0.081454094   0.14836921    11921.301     1000 
  984000   0.88435411   -1.2940346    1.3252046  0.031170078    0.1087903    12558.025     1000 
  986000   0.86394988   -1.2416335    1.2946289  0.052995445   0.12375187    12398.403     1000 
  988000   0.85700076   -1.1497539    1.2842156    0.1344617   0.13586701    12053.012     1000 
  990000   0.85693116   -1.2453717    1.2841113    0.0387396    0.1181407    12151.235     1000 
  992000   0.84201291   -1.2732796    1.2617563  -0.01152322   0.12761178    12045.653     1000 
  994000   0.88907298    -1.241494    1.3322759  0.090781916   0.13783013    12338.681     1000 
  996000   0.85632781   -1.1984772    1.2832072  0.084729994    0.1237752    12096.641     1000 
  998000   0.85128333    -1.234608    1.2756481  0.041040102   0.12321929    12246.472     1000 
 1000000   0.88309071   -1.1779809    1.3233114   0.14533055   0.13833258    12130.041     1000 
 1002000   0.86205197   -1.2231387    1.2917849  0.068646203   0.12630696    12394.787     1000 
 1004000   0.86318699   -1.2145249    1.2934857  0.078960793   0.12982736    12117.988     1000 
 1006000   0.82089979   -1.2037868    1.2301183  0.026331484   0.13315765     11896.54     1000 
 1008000    0.8580812   -1.2354645    1.2858347  0.050370197   0.12562596    12137.126     1000 
 1010000   0.85391015   -1.2926908    1.2795844 -0.013106394   0.13348392    12165.149     1000 
 1012000   0.86292856   -1.2480011    1.2930984  0.045097299   0.11968239    12470.078     1000 
 1014000   0.86936043   -1.2124097    1.3027366  0.090326937   0.14135658    11985.362     1000 
 1016000   0.87734318   -1.2515251    1.3146988   0.06317365   0.12628017    12427.178     1000 
 1018000   0.83116875   -1.1887011    1.2455064  0.056805254   0.13525848    12068.942     1000 
 1020000   0.83960483   -1.2301117    1.2581478   0.02803619   0.13659206    12058.416     1000 
 1022000   0.83901696   -1.2676401    1.2572669 -0.010373148   0.12989518     12196.63     1000 
 1024000   0.79562075   -1.2297682    1.1922377 -0.037530473   0.11430745    12524.609     1000 
 1026000   0.86003393   -1.2923411    1.2887608 -0.0035802411   0.13615569    12082.558     1000 
 1028000   0.85775914   -1.2565223    1.2853521  0.028829741    0.1273923    12333.256     1000 
 1030000    0.8652596   -1.2027427    1.2965915  0.093848797    0.1368831    12127.397     1000 
 1032000    0.8413511   -1.2254727    1.2607646    0.0352919   0.13031898    12082.205     1000 
 1034000   0.85406715   -1.2224216    1.2798196   0.05739801   0.13248199    12014.161     1000 
 1036000   0.87601077   -1.2548391    1.3127021  0.057863008   0.13977314    11983.686     1000 
 1038000   0.89071397   -1.2676917    1.3347349    0.0670432   0.13664112    12106.375     1000 
 1040000   0.86065757   -1.2265637    1.2896954  0.063131685   0.12655828    12223.428     1000 
 1042000   0.85559908   -1.2746422    1.2821152 0.0074730172   0.12698966    12150.174     1000 
 1044000   0.85531995   -1.2869501    1.2816969 -0.0052531657   0.12774442    12341.775     1000 
 1046000   0.85492086   -1.2797281    1.2810989 0.0013707961     0.129945    12112.938     1000 
 1048000   0.80391431   -1.2490777    1.2046656 -0.044412094   0.11114649    12430.283     1000 
 1050000   0.87319216   -1.2103589    1.3084784  0.098119581   0.14059287    12152.575     1000 
 1052000   0.85380878   -1.2101429    1.2794325   0.06928957   0.12660557    12547.734     1000 
 1054000    0.8150364   -1.2129199     1.221332 0.0084121187   0.12431045    12151.036     1000 
 1056000   0.87365313   -1.1933666    1.3091692   0.11580264   0.12669198    11947.697     1000 
 1058000   0.81096446   -1.2537562    1.2152302  -0.03852591   0.13407974    12106.547     1000 
 1060000   0.87259432   -1.2236271    1.3075826  0.083955453   0.12925681    12319.631     1000 
 1062000   0.84902584   -1.2069878    1.2722652  0.065277473   0.13989909    12158.593     1000 
 1064000   0.89885026   -1.2483494    1.3469271  0.098577728   0.13253227    12128.311     1000 
 1066000   0.83134153   -1.2384318    1.2457653  0.007333539   0.11425935    12332.979     1000 
 1068000   0.85925477   -1.2175856    1.2875933  0.070007707   0.15037339    11964.828     1000 
 1070000   0.83833541   -1.2227368    1.2562456  0.033508831   0.14323422    12219.481     1000 
 1072000   0.84735223   -1.2397376    1.2697573  0.030019691   0.13340803      12226.6     1000 
 1074000   0.85226563   -1.2481159      1.27712  0.029004193   0.13588722    12120.811     1000 
 1076000   0.85717206   -1.2142762    1.2844723  0.070196171   0.13704765    11921.394     1000 
 1078000   0.89797218   -1.1606572    1.3456113   0.18495408   0.13630862    11892.223     1000 
 1080000   0.85373179   -1.2335996    1.2793171  0.045717435   0.13341683    12089.173     1000 
 1082000   0.86696329   -1.2131332    1.2991445  0.086011269   0.12295498    12441.769     1000 
 1084000   0.84113586   -1.1954785    1.2604421  0.064963583   0.11985475    12613.799     1000 
 1086000   0.87883162   -1.2034615    1.3169292   0.11346764   0.14250142     11961.87     1000 
 1088000   0.85094814   -1.2264468    1.2751458  0.048699031   0.12541858    12207.356     1000 
 1090000   0.82595291   -1.2028459    1.2376904  0.034844531   0.13030222     12168.26     1000 
 1092000   0.84339422    -1.255031    1.2638262 0.0087952679   0.13086004    12012.891     1000 
 1094000   0.86930332   -1.2912986     1.302651  0.011352466   0.14249867    11889.883     1000 
 1096000   0.87014541   -1.2227147    1.3039129  0.081198217   0.13320786    12082.373     1000 
 1098000   0.88094073      -1.3005    1.3200897  0.019589663   0.12960669     12168.31     1000 
 1100000    0.8576955   -1.2395021    1.2852567  0.045754569   0.12334296    12354.262     1000 
 1102000   0.84258974   -1.2370498    1.2626207  0.025570945   0.13117416    12326.305     1000 
 1104000   0.87104369   -1.1401831     1.305259   0.16507583   0.14382142    12009.144     1000 
 1106000   0.83480001   -1.2023485    1.2509478  0.048599295    0.1384293    12068.739     1000 
 1108000   0.87852411   -1.2829501    1.3164684  0.033518288   0.13019369    12497.723     1000 
 1110000   0.86766195    -1.203182    1.3001914  0.097009425   0.14211193    11798.543     1000 
 1112000   0.84909212   -1.2482739    1.2723645  0.024090691   0.13421445    12094.271     1000 
 1114000    0.8647196   -1.2091412    1.2957823  0.086641129   0.12091065    12424.949     1000 
 1116000   0.83742782   -1.2211581    1.2548856  0.033727475   0.12474344    12295.307     1000 
 1118000   0.84739345   -1.2457833    1.2698191  0.024035798   0.14029471    12067.071     1000 
 1120000    0.8596852   -1.2318007    1.2882383    0.0564376   0.13701997    12184.213     1000 
 1122000   0.87172465    -1.197052    1.3062794   0.10922738   0.13702658    12115.131     1000 
 1124000   0.83630607   -1.2503519    1.2532046 0.0028526982   0.13002007    12029.906     1000 
 1126000   0.81780196   -1.2081962    1.2254762  0.017280056   0.12811457    12064.853     1000 
 1128000   0.89590102   -1.2394021    1.3425077   0.10310558   0.12568804    12117.571     1000 
 1130000   0.84640649   -1.2483794    1.2683401  0.019960742   0.12498833    12169.096     1000 
 1132000   0.83380632   -1.1987853    1.2494588  0.050673487    0.1310067    12191.833     1000 
 1134000    0.8292557   -1.2323398    1.2426397  0.010299824   0.13904624    11921.131     1000 
 1136000   0.87377931   -1.2756722    1.3093583  0.033686122   0.12449925    12398.212     1000 
 1138000    0.8705438   -1.1971307    1.3045099   0.10737917   0.13756392     12066.78     1000 
 1140000   0.86336055   -1.2364179    1.2937458  0.057327833   0.13003955    12228.096     1000 
 1142000   0.83613534   -1.1992659    1.2529488  0.053682927   0.12950288    12205.475     1000 
 1144000   0.86285433   -1.2504389    1.2929872  0.042548342   0.14080586    12039.763     1000 
 1146000   0.87290125   -1.2125703    1.3080425  0.095472251   0.15053737    11728.862     1000 
 1148000   0.89483377   -1.2709661    1.3409084  0.069942288   0.13473305     12096.53     1000 
 1150000   0.86230387   -1.2191661    1.2921624  0.072996275   0.14001036    12048.939     1000 
 1152000   0.85721849   -1.1723296    1.2845419   0.11221234   0.13142382    12436.749     1000 
 1154000   0.88694937   -1.2040838    1.3290936   0.12500985    0.1353144    12004.926     1000 
 1156000    0.8538941   -1.2399724    1.2795603  0.039587932   0.12035446    12146.622     1000 
 1158000   0.86159794   -1.2274963    1.2911045  0.063608205   0.11409983    12432.343     1000 
 1160000   0.84857991   -1.2323559     1.271597  0.039241069   0.14810294    11866.127     1000 
 1162000   0.84389517   -1.3036179    1.2645769 -0.039041007   0.12921233    12188.828     1000 
 1164000   0.85190025   -1.2295356    1.2765725  0.047036957   0.13527954    12004.619     1000 
 1166000   0.86894998    -1.235251    1.3021215  0.066870526   0.13271943    12108.225     1000 
 1168000   0.83130319   -1.2520325    1.2457078 -0.0063246742    0.1235921    12381.508     1000 
 1170000   0.85563027   -1.2784839     1.282162 0.0036780216   0.12126973    12364.522     1000 
 1172000    0.8223992   -1.2069199    1.2323652  0.025445265   0.13254936    12123.932     1000 
 1174000   0.86240736   -1.2554112    1.2923174  0.036906234   0.13262615    12333.514     1000 
 1176000   0.86776906    -1.217594    1.3003519  0.082757962   0.13852463     12306.85     1000 
 1178000   0.83818269   -1.2541454    1.2560168 0.0018713769   0.12885692    12108.132     1000 
 1180000   0.87191055    -1.213043     1.306558   0.09351493   0.12806611    12072.365     1000 
 1182000   0.83922906   -1.2639741    1.2575847 -0.0063893524   0.12537066    12125.033     1000 
 1184000   0.85498686   -1.1352809    1.2811978   0.14591689   0.13449925     11845.99     1000 
 1186000   0.84992674   -1.2560105    1.2736152  0.017604702   0.13320173    12213.558     1000 
 1188000   0.83105396   -1.1864817    1.2453344  0.058852664   0.13567302     12095.44     1000 
 1190000   0.86111468   -1.2223592    1.2903803    0.0680211   0.12613729     12155.77     1000 
 1192000   0.85330399   -1.1601458     1.278676   0.11853022   0.12520155    12145.684     1000 
 1194000   0.87920691   -1.1901465    1.3174915   0.12734506   0.13528692    11916.633     1000 
 1196000   0.85536096   -1.2230706    1.2817584  0.058687793    0.1253501    12298.952     1000 
 1198000   0.87159136   -1.2130606    1.3060797  0.093019087   0.13692902    12058.866     1000 
 1200000   0.85520037   -1.2192924    1.2815178  0.062225361   0.12444633    12374.724     1000 
 1202000   0.89190797   -1.2382125    1.3365241  0.098311632   0.13872359     12128.63     1000 
 1204000   0.86283107   -1.2137246    1.2929524  0.079227731   0.14739405    11801.655     1000 
 1206000   0.84890755   -1.1905632     1.272088  0.081524716   0.13087174    12113.986     1000 
 1208000   0.86493186   -1.2323409    1.2961004  0.063759524   0.13759425    12030.343     1000 
 1210000   0.88165021   -1.2235669    1.3211528  0.097585898   0.14144187    12015.978     1000 
 1212000   0.86482574   -1.1999128    1.2959414  0.096028562   0.12939844    12400.067     1000 
 1214000   0.85233968   -1.2297642     1.277231  0.047466789   0.13332719    12329.891     1000 
 1216000   0.85979236   -1.2349573    1.2883988  0.053441525   0.12317642    12374.463     1000 
 1218000   0.88046049   -1.2519948      1.31937  0.067375198   0.13767526    12154.168     1000 
 1220000   0.84069611   -1.2031746    1.2597831  0.056608501   0.12399296    12144.932     1000 
 1222000   0.82572623   -1.2671738    1.2373508 -0.029823084   0.12651425    12215.841     1000 
 1224000   0.84845992     -1.24836    1.2714172  0.023057211   0.13194202     12212.32     1000 
 1226000   0.82954069   -1.2082794    1.2430667  0.034787285   0.13011298    12157.613     1000 
 1228000   0.84679026   -1.2017736    1.2689152  0.067141578    0.1406297    11719.988     1000 
 1230000   0.87526822   -1.2348504    1.3115894  0.076739032   0.13440788    11932.509     1000 
 1232000   0.86586207   -1.1878735    1.2974943   0.10962086   0.13475053    12099.644     1000 
 1234000   0.85792786   -1.2090054    1.2856049  0.076599514   0.13130321    12216.181     1000 
 1236000   0.83990747   -1.2380798    1.2586013  0.020521526   0.13874334    11959.727     1000 
 1238000   0.88144388   -1.2302753    1.3208437  0.090568303   0.12180653    12288.269     1000 
 1240000   0.86752705   -1.2352728    1.2999893    0.0647165   0.11644861     12510.16     1000 
 1242000   0.83635126   -1.2417475    1.2532724  0.011524825   0.13238694    12148.429     1000 
 1244000   0.83580124   -1.2554058    1.2524482 -0.0029576235   0.10843823    12628.708     1000 
 1246000   0.84862636   -1.2273107    1.2716666  0.044355902   0.12683342    12172.793     1000 
 1248000   0.85019952   -1.2008392     1.274024  0.073184754   0.13211713     12084.83     1000 
 1250000    0.8336448   -1.3027806    1.2492167 -0.053563832   0.12343186    12242.091     1000 
 1252000   0.84997806   -1.2355375    1.2736921  0.038154627   0.12134414    12610.611     1000 
 1254000   0.86943087   -1.2908483    1.3028422  0.011993882   0.12947084    12048.596     1000 
 1256000   0.82796454   -1.2289964    1.2407049   0.01170846   0.13045383    12192.064     1000 
 1258000    0.8443498   -1.2287114    1.2652582  0.036546782   0.14450489    12052.516     1000 
 1260000   0.82388526   -1.2825372    1.2345921   -0.0479451   0.11554262    12389.715     1000 
 1262000    0.8536583   -1.1771516     1.279207   0.10205532   0.13073504      12061.7     1000 
 1264000   0.80647352   -1.2827738    1.2085006 -0.074273219   0.11759264    12240.314     1000 
 1266000   0.83497176    -1.185563    1.2512052  0.065642139   0.14469537    11903.855     1000 
 1268000   0.85682607   -1.1857542    1.2839539  0.098199614   0.13425101     12052.42     1000 
 1270000   0.87010097   -1.2156326    1.3038463  0.088213727   0.13506402    12265.586     1000 
 1272000   0.86680612   -1.2570551     1.298909  0.041853871   0.12455961    12311.479     1000 
 1274000   0.85445157   -1.2379246    1.2803957  0.042471032    0.1278659    12185.615     1000 
 1276000   0.85534889   -1.2801019    1.2817403 0.0016383677   0.12697984    12072.062     1000 
 1278000   0.81330568   -1.2359863    1.2187386 -0.017247731   0.12181159    12009.935     1000 
 1280000   0.83107959   -1.1758003    1.2453728  0.069572482   0.13148631    12019.817     1000 
 1282000   0.86225248   -1.1821815    1.2920853   0.10990388   0.13487691    11966.818     1000 
 1284000   0.83133387   -1.2304042    1.2457538   0.01534957   0.13092684    11960.629     1000 
 1286000   0.83538782   -1.2412154    1.2518287  0.010613241   0.12048454    12393.206     1000 
 1288000   0.84957154   -1.2719197     1.273083 0.0011632315   0.13213751    11950.705     1000 
 1290000   0.85780286   -1.2204781    1.2854176  0.064939506   0.12868459    12314.791     1000 
 1292000    0.8444238   -1.2340909    1.2653691    0.0312782   0.12647678    11932.067     1000 
 1294000   0.90521734   -1.1999301    1.3564682   0.15653813   0.13369467    12091.325     1000 
 1296000   0.85685918   -1.2564714    1.2840035  0.027532115   0.12892758    12221.757     1000 
 1298000   0.84132549   -1.2038663    1.2607262  0.056859936   0.12409651    12299.419     1000 
 1300000    0.8572053   -1.2159494    1.2845221  0.068572774   0.12693759    12145.042     1000 
 1302000   0.83559656   -1.2133509    1.2521415  0.038790575   0.12827693    12261.635     1000 
 1304000   0.87812748    -1.265729     1.315874   0.05014507   0.13246096    12026.068     1000 
 1306000    0.8450928   -1.2293576    1.2663716  0.037014003   0.14185078    12178.133     1000 
 1308000   0.83359323   -1.1858423    1.2491395  0.063297127   0.13786951    11982.646     1000 
 1310000   0.84864922   -1.2152978    1.2717009  0.056403101    0.1200553    12258.006     1000 
 1312000   0.83718132   -1.2018183    1.2545162  0.052697938   0.13206211    12311.917     1000 
 1314000   0.83099125   -1.1803394    1.2452404  0.064901005   0.12433646     12083.78     1000 
 1316000   0.82839254   -1.2786921    1.2413462 -0.037345867   0.12663408    12144.015     1000 
 1318000   0.87716646   -1.1983954    1.3144339   0.11603851   0.13411659    12148.544     1000 
 1320000   0.84824374   -1.2178261    1.2710932  0.053267159   0.13436427    11992.697     1000 
 1322000   0.84144764   -1.2333534    1.2609093  0.027555932   0.13248541    12188.129     1000 
 1324000    0.8851388   -1.2364302    1.3263805  0.089950323   0.14080985    12016.953     1000 
 1326000   0.85566852   -1.2461508    1.2822193  0.036068486   0.12743009    12033.586     1000 
 1328000   0.86905356   -1.2212506    1.3022768  0.081026172   0.14348126    11950.342     1000 
 1330000     0.839249   -1.2467284    1.2576146  0.010886229   0.12825811    12018.389     1000 
 1332000   0.87076522   -1.2182701    1.3048417  0.086571564   0.13603159     12139.52     1000 
 1334000   0.84926924   -1.2655643      1.27263 0.0070656635   0.12456633    12173.607     1000 
 1336000    0.8754653   -1.2590036    1.3118848  0.052881135    0.1173254    12365.495     1000 
 1338000   0.83759004   -1.1870817    1.2551287  0.068046945    0.1295357    12075.654     1000 
 1340000   0.84120073   -1.1938872    1.2605393  0.066652054   0.12489382    12120.023     1000 
 1342000   0.85367533    -1.177883    1.2792325   0.10134943   0.12540046    12175.602     1000 
 1344000   0.85137883   -1.2871737    1.2757912  -0.01138251   0.12468939    12203.111     1000 
 1346000   0.85486585    -1.213905    1.2810165  0.067111497   0.12497091    12108.518     1000 
 1348000   0.83620267   -1.2072936    1.2530497  0.045756054   0.12837461    12063.788     1000 
 1350000   0.83126222   -1.2210898    1.2456464  0.024556654   0.12373705    12371.444     1000 
 1352000   0.85913571   -1.2195309    1.2874149  0.067883935   0.12859176    12159.136     1000 
 1354000   0.83878554   -1.2578348    1.2569201 -0.00091466339   0.12574902    12106.483     1000 
 1356000   0.81698944   -1.2592834    1.2242587 -0.035024753   0.11972678    12344.419     1000 
 1358000   0.86915754   -1.2862246    1.3024326  0.016207964   0.13200993    12138.202     1000 
 1360000    0.8278764   -1.2354735    1.2405728 0.0050993192   0.13977394    11830.059     1000 
 1362000   0.84275387   -1.2857157    1.2628667 -0.022848998   0.12816708    12061.961     1000 
 1364000   0.84173987   -1.2581013    1.2613472  0.003245907   0.13217734    12183.579     1000 
 1366000   0.85472703   -1.2337152    1.2808084  0.047093238   0.11895898    12389.978     1000 
 1368000    0.8329792   -1.2409092    1.2482193  0.007310093   0.12715188     12173.72     1000 
 1370000   0.88839321   -1.2366963    1.3312572  0.094560882   0.12974247     12254.38     1000 
 1372000   0.82053022   -1.2850186    1.2295645 -0.055454039   0.12425405    12181.646     1000 
 1374000   0.86598766   -1.2247737    1.2976825  0.072908805   0.13120582    12161.632     1000 
 1376000   0.88469127   -1.2602291    1.3257099  0.065480749   0.13498905    12241.814     1000 
 1378000   0.86701478   -1.2507477    1.2992216  0.048473921   0.13092727    12093.432     1000 
 1380000   0.86736122   -1.2636567    1.2997408  0.036084075   0.13244186      12300.4     1000 
 1382000   0.82987219    -1.223529    1.2435635  0.020034502   0.11553244    12414.116     1000 
 1384000    0.8550147   -1.1890039    1.2812395   0.09223565   0.12402709    12217.462     1000 
 1386000   0.83552499   -1.2251743    1.2520342  0.026859899   0.11996664    12033.008     1000 
 1388000   0.80479422   -1.2156516    1.2059841 -0.0096674203   0.12767733    12198.224     1000 
 1390000   0.83225856   -1.2828046    1.2471395 -0.035665102    0.1183726    12446.668     1000 
 1392000   0.84471463   -1.2527099    1.2658049  0.013094961   0.12374024    12116.169     1000 
 1394000   0.84808867   -1.2722983    1.2708609 -0.001437402   0.12837316    12227.748     1000 
 1396000   0.83957913    -1.189174    1.2581093  0.068935305   0.13980722    11948.575     1000 
 1398000   0.86581744   -1.2119619    1.2974274   0.08546555   0.14892294    12047.724     1000 
 1400000   0.88459191   -1.2200288     1.325561   0.10553218   0.12624597    12303.927     1000 
 1402000    0.8616625    -1.212663    1.2912013  0.078538235   0.12625008    12206.424     1000 
 1404000   0.81389235   -1.2566508    1.2196177 -0.037033111   0.12411528    12006.501     1000 
 1406000    0.8194771   -1.2482372    1.2279864 -0.020250805   0.13175525    12146.015     1000 
 1408000   0.86097625   -1.2267293    1.2901729  0.063443601    0.1212017    12157.085     1000 
 1410000   0.82379151   -1.3042026    1.2344516 -0.069751002   0.11463163    12293.362     1000 
 1412000   0.84284354   -1.1822844     1.263001  0.080716625   0.13379967    12075.896     1000 
 1414000   0.87741908   -1.2457972    1.3148125  0.069015255   0.13048987    12167.891     1000 
 1416000   0.84619881   -1.1929524    1.2680289  0.075076475   0.12418975    12312.908     1000 
 1418000   0.84621297   -1.1933865    1.2680501  0.074663609   0.13302396     12091.13     1000 
 1420000   0.86365794   -1.2391652    1.2941914  0.055026255   0.10734993    12543.915     1000 
 1422000   0.86526642   -1.2224572    1.2966017  0.074144486   0.13013402    12093.953     1000 
 1424000   0.86446168   -1.2342323    1.2953958  0.061163494    0.1319991    12037.786     1000 
 1426000   0.85361662   -1.2382713    1.2791445  0.040873169   0.12207032     12307.04     1000 
 1428000   0.85712178   -1.2402941     1.284397  0.044102857   0.12485736    12362.151     1000 
 1430000   0.84195543   -1.2590877    1.2616702 0.0025825441   0.12524016    12140.865     1000 
 1432000   0.81473355    -1.316636    1.2208782 -0.095757778   0.11865803    12166.792     1000 
 1434000   0.84136013   -1.1480861    1.2607782   0.11269209   0.14165402    11962.407     1000 
 1436000   0.86378407   -1.2348274    1.2943804  0.059553011   0.13305031    12158.094     1000 
 1438000   0.86128618   -1.2843605    1.2906373 0.0062768668   0.12358309    12302.578     1000 
 1440000   0.82697744   -1.1743908    1.2392257  0.064834866   0.13538696    11960.924     1000 
 1442000   0.85313762    -1.278218    1.2784267 0.00020875215     0.138277    12294.731     1000 
 1444000   0.81635432   -1.2528072    1.2233069 -0.029500216   0.12166557    12153.695     1000 
 1446000   0.84558665   -1.1517209    1.2671116   0.11539073   0.14505338    11759.028     1000 
 1448000   0.83452584   -1.2700581     1.250537 -0.019521112   0.11936789    12053.775     1000 
 1450000   0.83698228    -1.221439    1.2542179  0.032778977   0.12695965    12203.566     1000 
 1452000    0.8615211    -1.260169    1.2909894   0.03082036   0.12610376    12142.002     1000 
 1454000    0.8471122   -1.1622747    1.2693976   0.10712289   0.13748655    12042.499     1000 
 1456000    0.8423605   -1.1882422    1.2622772  0.074034998   0.13355242     11974.97     1000 
 1458000   0.81466934   -1.2239789     1.220782 -0.0031969125     0.117476    12200.987     1000 
 1460000   0.83609608   -1.2548372      1.25289 -0.0019472079   0.12343612    12087.504     1000 
 1462000   0.80089154   -1.2307392     1.200136 -0.030603269   0.12584973    12053.137     1000 
 1464000   0.83228611   -1.3023908    1.2471807 -0.055210066   0.12064782    12179.906     1000 
 1466000   0.84636396   -1.2503605    1.2682764  0.017915843    0.1366898    12019.583     1000 
 1468000    0.8231441     -1.18278    1.2334814  0.050701395   0.12354517    12174.014     1000 
 1470000   0.84405604   -1.2250637     1.264818  0.039754279   0.12860143    12075.343     1000 
 1472000   0.85544103   -1.2143281    1.2818784  0.067550251   0.13838466    11938.943     1000 
 1474000   0.85369053   -1.2421973    1.2792553  0.037058002   0.12340379    12177.817     1000 
 1476000   0.83788497   -1.2799734    1.2555706 -0.024402815   0.13419587    12184.574     1000 
 1478000    0.8546684   -1.1997429    1.2807206   0.08097767   0.12028596    12126.531     1000 
 1480000    0.8649342   -1.2408569    1.2961039  0.055247001   0.14814617    11917.225     1000 
 1482000   0.85825823   -1.2338973       1.2861  0.052202614   0.13829898    11995.055     1000 
 1484000      0.82587   -1.2191486    1.2375662  0.018417583   0.11392194    12574.094     1000 
 1486000   0.84294244   -1.2475668    1.2631492  0.015582426   0.13282822    12147.781     1000 
 1488000   0.83568368   -1.2668221     1.252272 -0.014550138   0.12642586    12217.237     1000 
 1490000   0.86540716   -1.1905708    1.2968126   0.10624186   0.12922611    12145.037     1000 
 1492000   0.80733673   -1.2465787    1.2097941 -0.036784595   0.14008173    12152.702     1000 
 1494000   0.88299236   -1.2202589     1.323164   0.10290511   0.13363895    12130.352     1000 
 1496000   0.84888269   -1.2579346    1.2720507  0.014116104   0.12814211    12041.124     1000 
 1498000   0.85669155   -1.2046795    1.2837523  0.079072787   0.14056252    11867.604     1000 
 1500000   0.86423004   -1.2237927    1.2950487  0.071256047   0.14150787    12132.271     1000 
 1502000   0.89585937    -1.235686    1.3424453   0.10675924   0.13332757    12243.215     1000 
 1504000   0.85403913   -1.2230566    1.2797776  0.056721067   0.13441491    11832.305     1000 
 1506000   0.89051189   -1.2196449    1.3344321   0.11478722   0.13572815    12113.172     1000 
 1508000   0.83069699   -1.2613321    1.2447994 -0.016532674   0.11965012    11969.545     1000 
 1510000   0.85637955   -1.2889058    1.2832848 -0.0056210895    0.1284265    12071.298     1000 
 1512000   0.80125338    -1.138396    1.2006782  0.062282232   0.13348844    12101.277     1000 
 1514000   0.81159144   -1.2346954    1.2161698 -0.018525668   0.13766973    11843.519     1000 
 1516000   0.85113959   -1.1995306    1.2754327  0.075902066   0.13469806    12051.544     1000 
 1518000   0.85294771   -1.2207059    1.2781421  0.057436265   0.12724795    11982.664     1000 
 1520000   0.78917906   -1.2135007    1.1825848 -0.030915929   0.12059654    12384.552     1000 
 1522000   0.84609763   -1.2679282    1.2678773 -5.0860603e-05   0.12113797    12298.387     1000 
 1524000   0.86448091   -1.2203761    1.2954246  0.075048542   0.13259936    12089.786     1000 
 1526000    0.8564593   -1.2798667    1.2834043 0.0035375443   0.14093221     11966.52     1000 
 1528000   0.87329214   -1.2320507    1.3086283  0.076577593   0.13189184    12172.017     1000 
 1530000   0.87426294    -1.282768     1.310083  0.027315031   0.12657148    12252.398     1000 
 1532000   0.89033567   -1.1376869     1.334168   0.19648109   0.14073952    12068.466     1000 
 1534000   0.85589379    -1.165395    1.2825568    0.1171618    0.1330218    12057.866     1000 
 1536000   0.83364745   -1.2270699    1.2492207  0.022150779   0.13306832    12143.748     1000 
 1538000   0.84434243   -1.2207871    1.2652471  0.044460057   0.13091869    12141.194     1000 
 1540000   0.87454387   -1.2401293     1.310504   0.07037465   0.14114116    12103.579     1000 
 1542000   0.86314937   -1.2784112    1.2934293  0.015018107   0.12895435    12087.678     1000 
 1544000   0.86366811    -1.260025    1.2942067  0.034181623   0.11255281    12264.885     1000 
 1546000   0.85855718   -1.2300061    1.2865479  0.056541836   0.11880093    12535.175     1000 
 1548000   0.86436364   -1.2535793    1.2952489  0.041669588   0.14094241    12045.201     1000 
 1550000   0.85595908    -1.135658    1.2826547   0.14699666   0.13535323    11959.487     1000 
 1552000   0.79902727   -1.1427881    1.1973424  0.054554284   0.12812747    12292.343     1000 
 1554000     0.877973   -1.1698837    1.3156425   0.14575888   0.13927871    11992.943     1000 
 1556000   0.88446457   -1.2412034    1.3253702  0.084166797   0.12151831     12134.37     1000 
 1558000   0.85296173   -1.2345191    1.2781632  0.043644085   0.13670555    11895.021     1000 
 1560000   0.81158875   -1.2215222    1.2161657 -0.005356444   0.13135247    11984.189     1000 
 1562000   0.82264107   -1.2770851    1.2327276 -0.044357453   0.11732724    12504.768     1000 
 1564000   0.79917328   -1.1750121    1.1975612  0.022549099   0.12672754     12163.65     1000 
 1566000   0.82799148   -1.2795211    1.2407452 -0.038775909   0.13301372    12085.266     1000 
 1568000   0.83978702   -1.2770196    1.2584208 -0.018598756   0.12593418    12229.867     1000 
 1570000   0.84965776   -1.2043145    1.2732122  0.068897675   0.12747702    12056.685     1000 
 1572000   0.87632684   -1.1951125    1.3131758   0.11806332    0.1343903    12127.348     1000 
 1574000   0.87379425   -1.2664363    1.3093807  0.042944421   0.12542449    12492.358     1000 
 1576000   0.86732462   -1.2388091    1.2996859  0.060876838   0.13121457    12178.986     1000 
 1578000   0.85168414   -1.2296108    1.2762487  0.046637889   0.13371662    12111.051     1000 
 1580000   0.85235634   -1.2288752     1.277256    0.0483808   0.12789537    12031.125     1000 
 1582000   0.83269912   -1.2252367    1.2477996  0.022562957   0.13259761    11890.365     1000 
 1584000   0.82929055   -1.2860593    1.2426919 -0.043367408   0.13372439    12199.767     1000 
 1586000   0.85240824   -1.2149893    1.2773337  0.062344453   0.13507546    12118.966     1000 
 1588000   0.81580936   -1.2092463    1.2224903  0.013244072   0.12637508    12010.014     1000 
 1590000   0.88011533   -1.2528303    1.3188528  0.066022534   0.13404346    12089.732     1000 
 1592000    0.8562263   -1.1631567    1.2830551   0.11989845   0.11629675    12200.634     1000 
 1594000   0.90681363   -1.2780871    1.3588602   0.08077315   0.11601614    12509.952     1000 
[...]
 2612000   0.81750504   -1.2294719    1.2250313 -0.0044406214   0.12230487    12316.369     1000 
 2614000   0.82321014    -1.153062    1.2335804  0.080518417   0.14029241    12004.191     1000 
 2616000   0.86907812   -1.2528588    1.3023136  0.049454749   0.13614136    12254.486     1000 
 2618000   0.86892871   -1.2348777    1.3020897  0.067211994   0.10954782    12503.129     1000 
 2620000   0.88506166   -1.1685671    1.3262649   0.15769784   0.13663556    12007.466     1000 
 2622000    0.8597042   -1.2545246    1.2882667  0.033742167   0.11344617    12204.249     1000 
 2624000   0.90547206   -1.2607014    1.3568499   0.09614848   0.12617189    12267.458     1000 
 2626000   0.87171061   -1.2680277    1.3062583  0.038230649   0.12253842    12313.695     1000 
 2628000   0.85764025     -1.23469    1.2851739  0.050483924   0.12459996    12191.988     1000 
 2630000   0.85522744   -1.2308202    1.2815583  0.050738117   0.13545538    12146.525     1000 
 2632000   0.86508084   -1.2343369    1.2963236  0.061986704   0.13443068    12138.494     1000 
 2634000    0.8466956   -1.2085253    1.2687734  0.060248025   0.11984155    12297.849     1000 
 2636000   0.86674825   -1.2179644    1.2988223  0.080857861   0.13164724    12032.221     1000 
 2638000    0.8573266   -1.2500128    1.2847039  0.034691094   0.12542217    12427.002     1000 
 2640000   0.87308742   -1.2492756    1.3083215  0.059045893   0.13885303    12205.876     1000 
 2642000   0.87096603   -1.2438894    1.3051426  0.061253208   0.13360429    12087.391     1000 
 2644000   0.86191179   -1.2346392    1.2915748  0.056935571   0.12947033    11943.296     1000 
 2646000   0.84795436   -1.2240819    1.2706596  0.046577712   0.13316892     12040.07     1000 
 2648000   0.83093197   -1.2675609    1.2451516 -0.022409385   0.13352362    12034.673     1000 
 2650000   0.86805587    -1.230144    1.3007817  0.070637764   0.11712179    12635.158     1000 
 2652000   0.86844908   -1.2179355     1.301371  0.083435482    0.1313393    12164.266     1000 
 2654000   0.85256814   -1.2254639    1.2775734  0.052109426    0.1366732    12149.256     1000 
 2656000   0.83207067   -1.3027004    1.2468579 -0.055842484   0.12454653    12010.053     1000 
 2658000   0.87161991    -1.279194    1.3061224   0.02692844   0.11835603    12305.336     1000 
 2660000   0.84468346   -1.2686969    1.2657582 -0.0029387555   0.11820523    12214.585     1000 
 2662000   0.86312213   -1.2199049    1.2933885  0.073483579   0.13724796    12172.715     1000 
 2664000   0.86603615   -1.2791923    1.2977552  0.018562892   0.12611622    12022.103     1000 
 2666000   0.83461337    -1.225375    1.2506681  0.025293182   0.14511693    11764.523     1000 
 2668000    0.8292902   -1.3055512    1.2426914  -0.06285988   0.12360978    12433.294     1000 
 2670000    0.8540604   -1.1838687    1.2798095  0.095940815   0.14033393    12147.145     1000 
 2672000   0.84273047   -1.1835391    1.2628316  0.079292555   0.14010379     12156.37     1000 
 2674000   0.87879514    -1.327678    1.3168745 -0.010803475   0.12932522     12227.03     1000 
 2676000   0.88190468   -1.1877947    1.3215342   0.13373943   0.14152348    12081.611     1000 
 2678000   0.88258578   -1.2183399    1.3225548   0.10421485   0.14388871    11932.275     1000 
 2680000   0.85670046   -1.2449541    1.2837656  0.038811532   0.10889096    12543.479     1000 
 2682000   0.84637882    -1.261166    1.2682987  0.007132682   0.14161682    12080.495     1000 
 2684000   0.85344627   -1.2890214    1.2788892 -0.010132201   0.14143508    11917.263     1000 
 2686000   0.85350851   -1.2679706    1.2789825  0.011011897   0.13960528    12171.514     1000 
 2688000   0.80649471   -1.1960253    1.2085323  0.012507048   0.11718428    12302.813     1000 
 2690000   0.87192242    -1.180582    1.3065757   0.12599371   0.13687227      12098.4     1000 
 2692000   0.84001137   -1.2212612     1.258757  0.037495817   0.12830292    12135.642     1000 
 2694000   0.83600742   -1.2267085    1.2527571  0.026048615   0.12945132    12147.815     1000 
 2696000   0.84453409    -1.205733    1.2655343   0.05980136   0.12732582    12096.384     1000 
 2698000   0.85133246    -1.222435    1.2757217  0.053286656     0.125604    12309.105     1000 
 2700000    0.8606097    -1.247963    1.2896236  0.041660596   0.14080264    12079.345     1000 
 2702000   0.84881705   -1.2834016    1.2719524 -0.011449214   0.12622743    12483.243     1000 
 2704000   0.84239535   -1.2078805    1.2623294  0.054448952   0.12754995    12417.023     1000 
 2706000   0.87624687   -1.2162328    1.3130559  0.096823143   0.13619616    11955.652     1000 
 2708000   0.83410645   -1.2545728    1.2499085 -0.004664303   0.13305884    11907.404     1000 
 2710000    0.8478426   -1.2747449    1.2704921 -0.0042527814   0.12246252    12101.748     1000 
 2712000   0.83437358   -1.1650221    1.2503088  0.085286761   0.13309913     12055.28     1000 
 2714000   0.82086578   -1.2350761    1.2300674 -0.0050087696   0.12472192    12015.207     1000 
 2716000   0.81870082   -1.2798203    1.2268232 -0.052997121   0.13468316    12083.532     1000 
 2718000   0.83914335   -1.2848259    1.2574563 -0.027369578   0.12173799    12338.672     1000 
 2720000   0.84507353   -1.2196698    1.2663427  0.046672907   0.13117041     11986.28     1000 
 2722000    0.8419626   -1.2343131     1.261681  0.027367884   0.12681429    12075.329     1000 
 2724000   0.83925062   -1.2617998    1.2576171 -0.0041827427   0.13284627    11856.614     1000 
 2726000   0.81680381   -1.2484373    1.2239805 -0.024456749   0.11901715    12177.597     1000 
 2728000   0.82833989   -1.1924024    1.2412673  0.048864956   0.12983593    12100.878     1000 
 2730000   0.84456158   -1.2412679    1.2655755  0.024307613    0.1444643     11852.33     1000 
 2732000    0.8559774   -1.2203054    1.2826821   0.06237672   0.13092524    12033.442     1000 
 2734000   0.84851666   -1.2474997    1.2715022  0.024002483   0.12021236    12310.649     1000 
 2736000    0.8795362   -1.2172454     1.317985   0.10073963   0.14032654    11965.082     1000 
 2738000   0.83239831     -1.29197    1.2473489 -0.044621186   0.11620335     12461.81     1000 
 2740000   0.84847679   -1.2888792    1.2714425 -0.017436719   0.12805845    12174.656     1000 
 2742000    0.8324422    -1.256434    1.2474146 -0.0090193539   0.13480822    12130.437     1000 
 2744000   0.86338217    -1.266466    1.2937782  0.027312135   0.12242597    12165.779     1000 
 2746000   0.83873216   -1.2134223    1.2568401  0.043417885   0.14370845    11905.539     1000 
 2748000   0.85442764   -1.2835068    1.2803598 -0.0031470149   0.12466671    12160.954     1000 
 2750000   0.84072588     -1.20564    1.2598277  0.054187719   0.13850033    12022.182     1000 
 2752000   0.84086046   -1.2110924    1.2600294  0.048937002   0.14588453     11785.23     1000 
 2754000   0.85570755   -1.2462569    1.2822778  0.036020914   0.11769131    12295.662     1000 
 2756000   0.88276495   -1.2092664    1.3228233   0.11355691   0.13866214    12011.812     1000 
 2758000   0.84955296   -1.2355902    1.2730551  0.037464881   0.12585479    12398.209     1000 
 2760000   0.88206129   -1.2112354    1.3217688   0.11053344   0.13330016    12083.635     1000 
 2762000   0.82216642   -1.2045964    1.2320164  0.027419944   0.12973577    12030.549     1000 
 2764000   0.86064218   -1.1992648    1.2896723  0.090407538   0.12544101    12205.691     1000 
 2766000   0.83174126   -1.1869003    1.2463643  0.059463944   0.13955584    12055.512     1000 
 2768000   0.87833764   -1.2403399    1.3161889  0.075849076   0.13992751    12003.812     1000 
 2770000   0.84893692   -1.2004846     1.272132  0.071647406   0.13818425    11963.569     1000 
 2772000   0.82507068   -1.2696997    1.2363684  -0.03333125   0.12419997    12114.809     1000 
 2774000   0.85652428   -1.2542421    1.2835016   0.02925952     0.131207    11923.245     1000 
 2776000    0.8871824   -1.2246537    1.3294428   0.10478909   0.13729221    12022.231     1000 
 2778000   0.83245017   -1.2268553    1.2474266  0.020571311   0.13013974    12028.942     1000 
 2780000   0.83510781   -1.2470289     1.251409 0.0043801481   0.12455044    12274.641     1000 
 2782000   0.79478201   -1.2706893    1.1909808 -0.079708445   0.12530586    12033.951     1000 
 2784000   0.87571319   -1.2274281    1.3122562  0.084828123   0.13058663    12250.521     1000 
 2786000   0.86894332   -1.1727331    1.3021116   0.12937849   0.12392871    12032.886     1000 
 2788000   0.83987477   -1.2876429    1.2585523 -0.029090566   0.12871925    12256.586     1000 
 2790000   0.86381258   -1.2741105    1.2944232  0.020312676   0.13333598    12011.373     1000 
 2792000   0.87044005   -1.2251813    1.3043544   0.07917307   0.13963617    12165.213     1000 
 2794000   0.85077395   -1.1864597    1.2748848  0.088425097   0.11329996    12545.577     1000 
 2796000   0.86265146    -1.240159    1.2926832  0.052524246   0.12968319    12195.742     1000 
 2798000   0.84516841   -1.2368378    1.2664849  0.029647061   0.13226429    12064.414     1000 
 2800000    0.8550569   -1.2142258    1.2813028  0.067076959   0.13245063    11944.688     1000 
 2802000   0.81212566   -1.2003273    1.2169703  0.016643024   0.13088496    11779.418     1000 
 2804000   0.86184238   -1.2503367    1.2914708  0.041134089   0.12693687    12195.193     1000 
 2806000    0.8938636    -1.224271    1.3394546   0.11518362   0.13935206    12119.069     1000 
 2808000   0.83639158   -1.2926477    1.2533328 -0.039314971   0.12956768    12169.042     1000 
 2810000   0.85037577   -1.2450261    1.2742881  0.029261966     0.115627    12380.914     1000 
 2812000   0.85776877   -1.2628185    1.2853665  0.022548006   0.13597402    12155.751     1000 
 2814000   0.83849144   -1.1478273    1.2564794   0.10865209   0.12610713    12067.086     1000 
 2816000    0.8530496   -1.2280211    1.2782948  0.050273753    0.1236898    12043.459     1000 
 2818000   0.86171838   -1.2594576     1.291285   0.03182738   0.13645448    12236.672     1000 
 2820000   0.85433343   -1.1774541    1.2802186   0.10276459   0.14546916    11919.956     1000 
 2822000   0.85699041   -1.2558739    1.2842001  0.028326235   0.13543629    12120.678     1000 
 2824000   0.84090606   -1.1551982    1.2600977   0.10489955   0.13054161    12285.001     1000 
 2826000    0.8651865   -1.2321206     1.296482  0.064361384   0.12434896    12414.025     1000 
 2828000   0.84588623   -1.2951867    1.2675605 -0.027626149   0.12691306    12420.562     1000 
 2830000   0.81546876   -1.2222178    1.2219799 -0.00023790862   0.13846828    12080.447     1000 
 2832000   0.82807971   -1.2602217    1.2408774 -0.019344248   0.13177046    11990.246     1000 
 2834000   0.85030841   -1.2638006    1.2741871  0.010386544   0.13963748    11989.233     1000 
 2836000   0.83722731   -1.1925734    1.2545851  0.062011735   0.13463409    12035.348     1000 
 2838000   0.82962984   -1.2343627    1.2432003 0.0088376567   0.12452299    12130.435     1000 
 2840000    0.8434661   -1.2078545     1.263934  0.056079498   0.13481867    11950.846     1000 
 2842000   0.82105711   -1.2959237    1.2303541 -0.065569662   0.13695269    12009.967     1000 
 2844000   0.83119558   -1.2088135    1.2455466   0.03673309   0.12909924    12083.054     1000 
 2846000   0.85647363   -1.2336845    1.2834257  0.049741248   0.13912523     11891.01     1000 
 2848000   0.83171706   -1.1527814     1.246328  0.093546643   0.12743993    12401.422     1000 
 2850000   0.85512042    -1.246579    1.2813979  0.034818928   0.13423321     12082.05     1000 
 2852000   0.87754446   -1.2189875    1.3150004   0.09601284   0.13890751    11776.526     1000 
 2854000   0.85522068   -1.2678873    1.2815482  0.013660865   0.12631459    12247.581     1000 
 2856000   0.84221643    -1.147568    1.2620613   0.11449329   0.12894498     12251.84     1000 
 2858000   0.84408849   -1.2441011    1.2648666  0.020765474   0.13622791    12093.673     1000 
 2860000   0.85490467   -1.2262852    1.2810746  0.054789461    0.1256724     12318.41     1000 
 2862000   0.83871596   -1.2445282    1.2568159  0.012287693   0.12616699    12510.242     1000 
 2864000   0.87248751   -1.2154886    1.3074225  0.091933923   0.13732611    12079.468     1000 
 2866000   0.88077646   -1.2444376    1.3198435  0.075405911   0.13003348    12340.759     1000 
 2868000     0.850513   -1.2766726    1.2744937 -0.0021788859    0.1285395    12063.752     1000 
 2870000   0.85390665   -1.2660544    1.2795791  0.013524695   0.13277138    12085.506     1000 
 2872000   0.85425058   -1.2552467    1.2800945  0.024847754   0.12021339    12301.779     1000 
 2874000   0.81911713   -1.2568689     1.227447 -0.029421841   0.13850421    12033.269     1000 
 2876000   0.86850713   -1.2374926    1.3014579  0.063965338   0.12876198     12287.47     1000 
 2878000   0.83742564   -1.1847723    1.2548823  0.070110013    0.1305319    12314.785     1000 
 2880000   0.85471399    -1.241084    1.2807889  0.039704953   0.13577485    12070.031     1000 
 2882000   0.83580723   -1.2209146    1.2524571  0.031542505   0.12551227    12256.981     1000 
 2884000   0.81416857   -1.2652707    1.2200316 -0.045239073   0.12648369    12224.263     1000 
 2886000     0.830309   -1.2008855     1.244218  0.043332535   0.13500726    12115.855     1000 
 2888000   0.85165342   -1.2319232    1.2762027  0.044279462   0.12868682    12257.355     1000 
 2890000   0.86425174   -1.2371659    1.2950812  0.057915358   0.12532905    12126.703     1000 
 2892000   0.84870629   -1.2439409    1.2717864  0.027845429   0.13997052    11841.602     1000 
 2894000   0.84884022   -1.2690081    1.2719871 0.0029789639   0.13113634    12242.615     1000 
 2896000   0.82736891   -1.2363921    1.2398123 0.0034202598   0.11166238    12370.695     1000 
 2898000   0.87302254   -1.2212792    1.3082243  0.086945085   0.13310374    12198.096     1000 
 2900000   0.84900761   -1.2339099    1.2722379  0.038328042   0.13039753    12136.009     1000 
 2902000   0.82231218   -1.2559798    1.2322348 -0.023744976   0.12514359    12122.403     1000 
 2904000   0.86911654   -1.2173366    1.3023711  0.085034498   0.13660466    12054.606     1000 
 2906000   0.86391639   -1.2164072    1.2945787   0.07817147   0.12365515    12192.674     1000 
 2908000   0.88812028   -1.2151322    1.3308482     0.115716   0.13815476    12304.563     1000 
 2910000   0.83240763   -1.2215792    1.2473628  0.025783589   0.12751373    12303.606     1000 
 2912000   0.85232956   -1.2251656    1.2772158  0.052050281   0.12761785    12186.764     1000 
 2914000   0.86939365   -1.2197972    1.3027864  0.082989162   0.12980484    12238.623     1000 
 2916000   0.84019441   -1.2377285    1.2590313  0.021302801   0.11969294    12547.146     1000 
 2918000   0.83538286   -1.2316077    1.2518212  0.020213506   0.12700841    12165.297     1000 
 2920000   0.84397521   -1.2083438    1.2646969  0.056353067   0.13445719    11961.102     1000 
 2922000   0.81267611     -1.21536    1.2177952 0.0024351021   0.13442159    12097.697     1000 
 2924000   0.84972059   -1.1881675    1.2733063  0.085138771   0.14070184    12146.543     1000 
 2926000   0.85063852   -1.2810793    1.2746818 -0.006397439   0.12030587    12202.208     1000 
 2928000   0.82575811   -1.1429214    1.2373985  0.094477107   0.12957483    12036.923     1000 
 2930000   0.81999799   -1.2742858     1.228767 -0.045518784   0.12082855    12284.511     1000 
 2932000   0.86181476   -1.2505837    1.2914294  0.040845728   0.14035669    12082.789     1000 
 2934000   0.83361162   -1.2522888     1.249167 -0.0031218005   0.12372639    12322.202     1000 
 2936000   0.86642845   -1.2519172     1.298343  0.046425835   0.12651581    12489.981     1000 
 2938000   0.83870036   -1.2272039    1.2567925  0.029588546   0.13292641    12138.171     1000 
 2940000   0.86095117    -1.256278    1.2901353  0.033857314   0.12059541    12238.668     1000 
 2942000    0.9139364   -1.1969367    1.3695337   0.17259702   0.12475876    12337.131     1000 
 2944000   0.83201139   -1.2426513    1.2467691 0.0041177918    0.1158333    12198.336     1000 
 2946000   0.82952311   -1.2500194    1.2430404 -0.0069790309   0.11379828    12589.437     1000 
 2948000   0.84931484   -1.2539558    1.2726983  0.018742439   0.12738345     12173.64     1000 
 2950000    0.8192957    -1.186399    1.2277146  0.041315636   0.13944263    12086.406     1000 
 2952000   0.78633181   -1.2013495    1.1783182 -0.023031275   0.13804449    11884.486     1000 
 2954000   0.88241832   -1.2435145    1.3223038  0.078789309   0.15004432    11919.242     1000 
 2956000   0.85640306   -1.2684301      1.28332  0.014889895   0.12328393    12243.552     1000 
 2958000   0.82555383    -1.272581    1.2370924 -0.035488625   0.13152788    12271.199     1000 
 2960000   0.81682033   -1.2132582    1.2240053  0.010747043   0.13965229    11925.912     1000 
 2962000   0.86637722   -1.2525617    1.2982663  0.045704556   0.12605216    12161.492     1000 
 2964000   0.86705884    -1.216561    1.2992877  0.082726679   0.12448032    12295.415     1000 
 2966000   0.82163624   -1.2661714    1.2312219 -0.034949519   0.12142389    12250.501     1000 
 2968000    0.8676819   -1.2841983    1.3002213  0.016023076   0.12477308    12159.408     1000 
 2970000   0.86937413   -1.1822349    1.3027571   0.12052219   0.12524821     12116.59     1000 
 2972000   0.84084197    -1.260915    1.2600017 -0.00091329922   0.11787827    12611.439     1000 
 2974000   0.82294191   -1.2511431    1.2331785 -0.017964625   0.12115466    12347.204     1000 
 2976000   0.89123098    -1.207425    1.3355096   0.12808466   0.13646256    12241.284     1000 
 2978000   0.86275863   -1.1987024    1.2928438  0.094141364   0.13033808    11949.943     1000 
 2980000   0.84931688    -1.244565    1.2727013  0.028136292   0.12763729    12191.639     1000 
 2982000   0.86123248    -1.205193    1.2905569  0.085363877   0.13960365    11769.167     1000 
 2984000    0.8477583   -1.1959841    1.2703658  0.074381743   0.11771899     12170.12     1000 
 2986000   0.83656186   -1.2258142     1.253588  0.027773702   0.12650471    12343.903     1000 
 2988000   0.82921768    -1.251884    1.2425827 -0.0093013432   0.12507046    12433.889     1000 
 2990000   0.89205884   -1.2567498    1.3367502  0.080000383   0.12279441    12323.576     1000 
 2992000   0.83848738   -1.2307397    1.2564733  0.025733603   0.12663478    11975.931     1000 
 2994000    0.8168081   -1.1719664    1.2239869  0.052020585   0.12605561    11897.802     1000 
 2996000   0.86985063   -1.2570847    1.3034712  0.046386457   0.12978371    12277.013     1000 
 2998000   0.87203931   -1.2736214    1.3067509  0.033129524   0.11778992     12525.54     1000 
 3000000   0.84793466   -1.1873387    1.2706301    0.0832914   0.13216875    12187.491     1000 
Loop time of 1052.41 on 4 procs for 3000000 steps with 1000 atoms

Performance: 1231463.556 tau/day, 2850.610 timesteps/s
95.2% CPU use with 4 MPI tasks x no OpenMP threads

MPI task timing breakdown:
Section |  min time  |  avg time  |  max time  |%varavg| %total
---------------------------------------------------------------
Pair    | 760.21     | 761.5      | 763.52     |   4.4 | 72.36
Neigh   | 74.867     | 75.117     | 75.515     |   2.8 |  7.14
Comm    | 162.62     | 164.93     | 166.22     |  10.7 | 15.67
Output  | 0.023468   | 0.026019   | 0.033342   |   2.6 |  0.00
Modify  | 44.234     | 44.346     | 44.563     |   1.9 |  4.21
Other   |            | 6.485      |            |       |  0.62

Nlocal:    250 ave 261 max 238 min
Histogram: 1 0 1 0 0 0 0 0 1 1
Nghost:    1630 ave 1654 max 1604 min
Histogram: 1 0 0 0 1 0 1 0 0 1
Neighs:    13402.8 ave 14055 max 12449 min
Histogram: 1 0 0 0 1 0 0 0 0 2

Total # of neighbors = 53611
Ave neighs/atom = 53.611
Neighbor list builds = 150000
Dangerous builds not checked

Total wall time: 0:17:32
