LAMMPS (3 Mar 2020)
# ----------------------- Inicialização -----------------------

units			lj
atom_style 		atomic
dimension 		3
boundary 		p p p

# -------------------- Criação dos Átomos ---------------------

read_data 		topologia.txt
  orthogonal box = (0 0 0) to (21.54 21.54 21.54)
  1 by 2 by 2 MPI processor grid
  reading atoms ...
  1000 atoms
  read_data CPU = 0.00217424 secs

velocity 		all create ${temp} 87287 rot yes dist gaussian
velocity 		all create 0.46 87287 rot yes dist gaussian

# ------------------ Interação Interatômica -------------------

pair_style		table linear 1300
pair_coeff		1 1 force.table AA 6.5
WARNING: 2 of 1300 force values in table are inconsistent with -dE/dr.
  Should only be flagged at inflection points (src/pair_table.cpp:483)
pair_coeff		1 2 force.table AB 6.5
WARNING: 1 of 1300 force values in table are inconsistent with -dE/dr.
  Should only be flagged at inflection points (src/pair_table.cpp:483)
pair_coeff		2 2 force.table BB 6.5
pair_write		1 1 1600 r 0.008 6.5 table.check AA
Neighbor list info ...
  update every 1 steps, delay 10 steps, check yes
  max neighbors/atom: 2000, page size: 100000
  master list distance cutoff = 6.8
  ghost atom cutoff = 6.8
  binsize = 3.4, bins = 7 7 7
  1 neighbor lists, perpetual/occasional/extra = 1 0 0
  (1) pair table, perpetual
      attributes: half, newton on
      pair build: half/bin/atomonly/newton
      stencil: half/bin/3d/newton
      bin: standard
pair_write		1 2 1600 r 0.008 6.5 table.check AB
pair_write		2 2 1600 r 0.008 6.5 table.check BB

neighbor 		0.3 bin
neigh_modify	every 20 delay 0 check no

# ------------------------- Ensemble --------------------------------------

fix 1			all npt temp ${temp} ${temp} 0.5 iso ${press} ${press} 5
fix 1			all npt temp 0.46 ${temp} 0.5 iso ${press} ${press} 5
fix 1			all npt temp 0.46 0.46 0.5 iso ${press} ${press} 5
fix 1			all npt temp 0.46 0.46 0.5 iso 0.13 ${press} 5
fix 1			all npt temp 0.46 0.46 0.5 iso 0.13 0.13 5

# ---------------------- Função de Distribuição Radial -----------------------

#compute RDF 	all rdf 2000 1 1 1 2 2 2
#fix 2 			all ave/time 1 2000 2000 c_RDF[*] file rdf.data mode vector

# ------------------------- Execução ---------------------------

timestep 		0.005
thermo_style	custom step temp pe ke etotal press vol atoms
thermo			2000
run				3000000
Per MPI rank memory allocation (min/avg/max) = 2.675 | 2.675 | 2.675 Mbytes
Step Temp PotEng KinEng TotEng Press Volume Atoms 
       0         0.46   -0.9940566      0.68931   -0.3047466   0.11438085    9993.9483     1000 
    2000   0.44995781   -2.0404615   0.67426178   -1.3661997   0.12781329    11379.511     1000 
    4000   0.48166777    -1.990272   0.72177916   -1.2684928   0.13722577    11244.249     1000 
    6000   0.44818761   -2.0474433   0.67160914   -1.3758341   0.12907438    11432.879     1000 
    8000   0.45543706   -2.0291393   0.68247243   -1.3466669   0.11922521    11465.198     1000 
   10000   0.45433465   -2.0171935   0.68082048    -1.336373    0.1159795    11547.907     1000 
   12000     0.470322   -2.0132521   0.70477751   -1.3084746   0.12643586    11404.369     1000 
   14000   0.48440727   -2.0359036    0.7258843   -1.3100193   0.12827876    11448.149     1000 
   16000   0.47349415   -2.0268858   0.70953099   -1.3173548   0.14117747     11210.28     1000 
   18000   0.44466102   -2.0076673   0.66632454   -1.3413427   0.13066376    11387.542     1000 
   20000   0.44758768   -2.0685949   0.67071014   -1.3978848   0.12751976    11358.139     1000 
   22000   0.44797496   -2.0058445   0.67129047    -1.334554   0.12488712    11396.985     1000 
   24000   0.45820544   -1.9999048   0.68662085   -1.3132839   0.13727431     11188.92     1000 
   26000   0.46740021   -2.0035677   0.70039922   -1.3031685   0.14340967    11313.262     1000 
   28000   0.46335881   -2.0026471   0.69434317   -1.3083039    0.1288387    11365.743     1000 
   30000   0.45535356   -2.0503012   0.68234731   -1.3679539   0.13242679    11233.762     1000 
   32000   0.45165899   -2.0510348   0.67681099   -1.3742238   0.13269341    11281.159     1000 
   34000   0.45235682    -2.006514   0.67785669   -1.3286573   0.14242185    11312.262     1000 
   36000   0.48105537   -2.0263901   0.72086147   -1.3055287   0.14022923    11329.073     1000 
   38000   0.46672857   -1.9727998   0.69939277    -1.273407    0.1247565    11431.781     1000 
   40000   0.45078046   -2.0316236   0.67549452   -1.3561291    0.1259106    11447.343     1000 
   42000   0.46805605   -1.9859547   0.70138199   -1.2845727   0.14233788    11213.565     1000 
   44000   0.44766738   -1.9927338   0.67082957   -1.3219042   0.13171131     11247.22     1000 
   46000   0.47637216   -2.0173847   0.71384368    -1.303541   0.14049236    11278.865     1000 
   48000   0.45944585   -2.0249893    0.6884796   -1.3365097   0.14288627    11245.976     1000 
   50000   0.46109226   -2.0096316   0.69094676   -1.3186848   0.14548998    11108.511     1000 
   52000   0.43946853   -2.0264914   0.65854359   -1.3679478   0.13246967    11307.427     1000 
   54000   0.46418909   -1.9934797   0.69558735   -1.2978924   0.14464678    11249.022     1000 
   56000   0.46033251   -2.0038023   0.68980827   -1.3139941   0.13053265    11378.993     1000 
   58000   0.46520468   -2.0085569   0.69710921   -1.3114477   0.13818666    11224.731     1000 
   60000   0.44775993   -2.0403645   0.67096825   -1.3693963   0.11750929    11459.644     1000 
   62000   0.46323796   -2.0355193   0.69416209   -1.3413572   0.13845663    11285.794     1000 
   64000   0.45374348   -1.9905401   0.67993461   -1.3106055   0.12784468    11408.236     1000 
   66000   0.47337228   -2.0256033   0.70934836   -1.3162549   0.12136275    11388.609     1000 
   68000   0.45269554   -2.0063538   0.67836427   -1.3279895   0.12906196    11352.455     1000 
   70000   0.44095155   -2.0348695    0.6607659   -1.3741036   0.11845052    11415.724     1000 
   72000   0.45755512   -2.0427077   0.68564634   -1.3570613   0.13900677    11430.905     1000 
   74000   0.45585248    -2.041844   0.68309494   -1.3587491   0.13604902    11378.295     1000 
   76000   0.43367182   -2.0546085   0.64985723   -1.4047512   0.13808297    11328.171     1000 
   78000   0.45956982   -2.0427612   0.68866537   -1.3540958   0.12971937    11471.881     1000 
   80000    0.4551076   -2.0192551   0.68197874   -1.3372764   0.14722378    11262.655     1000 
   82000   0.47750301   -2.0070306   0.71553826   -1.2914923   0.13735156    11169.046     1000 
   84000   0.44851148   -2.0232165   0.67209445    -1.351122   0.12923267    11312.252     1000 
   86000   0.47280504   -2.0173763   0.70849835    -1.308878   0.13421086    11273.538     1000 
   88000   0.45629575   -1.9881877   0.68375918   -1.3044285   0.13253554    11303.087     1000 
   90000    0.4831748   -2.0264586   0.72403743   -1.3024211   0.14261698    11306.317     1000 
   92000    0.4538422   -2.0440763   0.68008254   -1.3639938   0.12043741    11420.998     1000 
   94000   0.45302359   -2.0080598   0.67885585    -1.329204   0.12315649     11572.61     1000 
   96000   0.46804812   -2.0323534   0.70137011   -1.3309833   0.12976117    11398.259     1000 
   98000   0.46121713   -2.0338852   0.69113387   -1.3427513   0.12673026    11286.217     1000 
  100000   0.45897549   -2.0622289   0.68777477   -1.3744541   0.12460982    11478.947     1000 
  102000   0.47971168   -2.0453834   0.71884796   -1.3265355   0.12461173    11464.124     1000 
  104000   0.47541803   -2.0496358   0.71241392   -1.3372219   0.12913756    11355.928     1000 
  106000   0.45616278    -2.051588   0.68355993   -1.3680281   0.13734114    11322.275     1000 
  108000   0.48095847   -2.1005094   0.72071627   -1.3797931   0.11907936    11607.828     1000 
  110000   0.47248111   -2.0464112   0.70801295   -1.3383983   0.14481149    11384.267     1000 
  112000   0.44130449   -2.0157686   0.66129477   -1.3544738   0.13201749    11340.586     1000 
  114000   0.45689416   -2.0678501    0.6846559   -1.3831942   0.12715482    11371.984     1000 
  116000   0.46097458   -2.0369538   0.69077041   -1.3461833   0.13804786    11270.599     1000 
  118000   0.46798303   -1.9914738   0.70127257   -1.2902012   0.14465814    11288.422     1000 
  120000   0.44374937   -2.0342866   0.66495843   -1.3693282   0.14488866    11233.001     1000 
  122000   0.47792615   -2.0258665   0.71617234   -1.3096942   0.13753248    11408.777     1000 
  124000   0.44013131   -2.0893729   0.65953677   -1.4298361   0.12100119    11435.515     1000 
  126000   0.45108899   -2.0483451   0.67595685   -1.3723883    0.1265024    11546.045     1000 
  128000   0.46208404   -2.0549368   0.69243294   -1.3625038   0.12010719    11481.812     1000 
  130000   0.44387961   -2.0296931   0.66515359   -1.3645395   0.13108322    11358.863     1000 
  132000   0.46666131   -2.0402195   0.69929197   -1.3409275   0.12735908    11438.271     1000 
  134000   0.45186584   -2.0598125   0.67712096   -1.3826915   0.13951345    11339.641     1000 
  136000   0.43792208   -2.0501041   0.65622624   -1.3938778    0.1331529    11170.189     1000 
  138000   0.45140053   -2.0391323   0.67642369   -1.3627086    0.1329845    11334.667     1000 
  140000   0.46833034   -2.0697288   0.70179301   -1.3679357   0.12098354    11492.708     1000 
  142000   0.46115525   -2.0753459   0.69104115   -1.3843048   0.13491979    11267.685     1000 
  144000   0.46743663   -2.0247681   0.70045378   -1.3243144   0.13275549    11394.722     1000 
  146000   0.44800012   -2.0556092   0.67132817    -1.384281   0.12323786    11494.756     1000 
  148000     0.443366   -2.0315201   0.66438396   -1.3671361   0.14545074    11214.983     1000 
  150000   0.46964644    -2.016768   0.70376519   -1.3130028   0.13531862     11400.43     1000 
  152000   0.47235667   -2.0037819   0.70782647   -1.2959554    0.1284657    11391.654     1000 
  154000   0.44941556   -2.0364464   0.67344921   -1.3629972   0.13039481     11439.52     1000 
  156000   0.45479466   -2.0389508   0.68150979    -1.357441   0.15106278    11219.049     1000 
  158000    0.4582154   -2.0661961   0.68663578   -1.3795603    0.1285656    11491.618     1000 
  160000   0.47887635   -2.0242533   0.71759621   -1.3066571   0.12352546    11458.021     1000 
  162000   0.48587566   -1.9936449   0.72808468   -1.2655602    0.1367681    11349.757     1000 
  164000   0.47387782   -2.0201666   0.71010592   -1.3100606   0.13339766    11332.512     1000 
  166000   0.44544239   -2.0650378   0.66749541   -1.3975424    0.1257842    11353.605     1000 
  168000   0.46817079   -2.0393899   0.70155392    -1.337836   0.13733142    11307.204     1000 
  170000   0.46141529   -2.0437587   0.69143081   -1.3523279   0.13069922    11366.133     1000 
  172000   0.46609774   -2.0178445   0.69844746   -1.3193971   0.13100634     11379.48     1000 
  174000   0.45466464   -2.0723394   0.68131497   -1.3910244   0.12346509     11458.78     1000 
  176000   0.46525732   -2.0412539   0.69718809   -1.3440658    0.1339907     11381.17     1000 
  178000   0.45477748   -1.9930624   0.68148406   -1.3115784    0.1389674    11265.998     1000 
  180000    0.4555642   -2.0558898   0.68266295   -1.3732268   0.14369324     11299.44     1000 
  182000   0.45013097   -2.0765682   0.67452126    -1.402047   0.12536314    11428.035     1000 
  184000   0.44775107   -2.0039335   0.67095498   -1.3329785   0.11928484    11482.029     1000 
  186000   0.47175954   -2.0489958   0.70693168   -1.3420642   0.13391887    11299.783     1000 
  188000   0.45915294   -1.9998108   0.68804068   -1.3117702   0.13974954    11214.492     1000 
  190000   0.45911851   -2.0279346   0.68798909   -1.3399455   0.12076774    11364.975     1000 
  192000   0.46328796   -2.0482455     0.694237   -1.3540085   0.11928415    11399.603     1000 
  194000   0.46283076    -2.017217    0.6935519   -1.3236651   0.13594677    11331.108     1000 
  196000   0.46821873   -2.0174646   0.70162577   -1.3158388    0.1377579    11180.503     1000 
  198000   0.47344599    -2.018597   0.70945881   -1.3091382   0.13601857    11319.397     1000 
  200000   0.45487516   -2.0602501   0.68163043   -1.3786197   0.11945268    11445.351     1000 
  202000   0.46028675   -2.0253823    0.6897397   -1.3356426   0.13113606    11332.809     1000 
  204000   0.45569879   -2.0189813   0.68286464   -1.3361166   0.13278883    11271.762     1000 
  206000   0.45827894   -2.0271118   0.68673099   -1.3403808   0.12407757    11334.465     1000 
  208000   0.46849958   -2.0858114   0.70204663   -1.3837647   0.13741203    11346.728     1000 
  210000   0.48397533   -2.0124101   0.72523704   -1.2871731   0.12655387     11473.44     1000 
  212000   0.45060692   -2.0855532   0.67523447   -1.4103187   0.12251984    11423.058     1000 
  214000   0.46852609   -1.9770739   0.70208635   -1.2749876   0.14036808    11293.299     1000 
  216000   0.45646141   -2.0340577   0.68400742   -1.3500502   0.12387724    11360.368     1000 
  218000   0.45179803   -2.0477301   0.67701935   -1.3707108   0.13014035    11433.587     1000 
  220000    0.4531246   -2.0491401   0.67900722   -1.3701329   0.13160615    11356.706     1000 
  222000   0.46136207   -2.0278699   0.69135107   -1.3365189   0.13378157    11263.884     1000 
  224000   0.47447212   -2.0497701   0.71099647   -1.3387736    0.1334369    11396.109     1000 
  226000   0.46684595   -2.0753873   0.69956866   -1.3758186   0.12594204    11535.943     1000 
  228000   0.45396156   -2.0411691    0.6802614   -1.3609077   0.12633272     11411.02     1000 
  230000   0.46718095   -2.0077436   0.70007066   -1.3076729   0.13724206    11243.505     1000 
  232000   0.47350728   -2.0773484   0.70955065   -1.3677977   0.12575705     11395.94     1000 
  234000   0.47096254   -2.0394023   0.70573737    -1.333665   0.12918479    11523.464     1000 
  236000   0.44206185   -2.0583913   0.66242968   -1.3959617   0.12743792    11343.669     1000 
  238000   0.45250493   -2.0397201   0.67807864   -1.3616415   0.13633417    11299.714     1000 
  240000    0.4585691   -2.0684232    0.6871658   -1.3812574   0.13196164    11359.594     1000 
  242000   0.49003772   -2.0148113   0.73432152   -1.2804898   0.13405712    11331.631     1000 
  244000   0.44983856   -2.0456729   0.67408307   -1.3715899   0.12998346    11369.727     1000 
  246000    0.4515856   -2.0333425   0.67670102   -1.3566414   0.13922298    11232.612     1000 
  248000   0.46149939   -2.0593247   0.69155683   -1.3677679   0.12852275    11416.138     1000 
  250000   0.46963585    -2.074418   0.70374931   -1.3706687   0.13355363    11236.814     1000 
  252000   0.46120393   -2.0192622   0.69111409   -1.3281481    0.1301729    11293.601     1000 
  254000   0.45352612   -2.0462164   0.67960888   -1.3666076   0.13654329    11441.221     1000 
  256000   0.47189691   -2.0235794   0.70713752   -1.3164419   0.13672232    11330.982     1000 
  258000   0.45487058   -2.0745493   0.68162356   -1.3929258   0.13352822    11352.766     1000 
  260000   0.46371737    -2.029271   0.69488048   -1.3343906   0.12230899     11394.77     1000 
  262000   0.45718961   -2.0001125   0.68509864   -1.3150138   0.12869545    11365.212     1000 
  264000   0.47088442   -2.0857796   0.70562031   -1.3801593   0.13000408    11385.603     1000 
  266000   0.44473666   -1.9989298   0.66643788   -1.3324919   0.12453836    11463.848     1000 
  268000   0.43826225   -2.0095438   0.65673598   -1.3528078   0.12816444     11390.75     1000 
  270000   0.46311054   -2.0256599   0.69397114   -1.3316888   0.13760053    11360.338     1000 
  272000   0.47030099   -2.0271225   0.70474604   -1.3223764   0.13197633    11453.809     1000 
  274000   0.46740459   -2.0243114   0.70040579   -1.3239056   0.14244474    11244.628     1000 
  276000   0.44841228   -1.9679219   0.67194581    -1.295976   0.13554006    11322.093     1000 
  278000   0.47019442   -2.0315944   0.70458634   -1.3270081    0.1285607     11426.95     1000 
  280000   0.46468051   -2.0485973   0.69632375   -1.3522736    0.1204545    11554.597     1000 
  282000   0.46945008   -2.0769546   0.70347095   -1.3734836   0.12422605    11485.999     1000 
  284000   0.45653963   -2.0346077   0.68412464   -1.3504831   0.13102853    11270.722     1000 
  286000   0.47463093   -2.0250862   0.71123444   -1.3138517   0.13302514    11286.102     1000 
  288000   0.47065728    -2.033963   0.70527994    -1.328683   0.13121639    11314.362     1000 
  290000    0.4687454    -2.029776   0.70241497    -1.327361   0.12388817    11408.035     1000 
  292000   0.46876205   -2.0558288   0.70243993   -1.3533889   0.12652358     11370.46     1000 
  294000   0.47377228   -2.0090048   0.70994775   -1.2990571   0.14475673    11218.763     1000 
  296000   0.46829223   -2.0823069    0.7017359    -1.380571   0.13031747    11378.785     1000 
  298000   0.45962402   -2.0018571    0.6887466   -1.3131105    0.1376897    11203.985     1000 
  300000   0.45231023   -2.0388244   0.67778689   -1.3610375   0.12481399    11418.023     1000 
  302000    0.4670868   -2.0428326   0.69992957    -1.342903   0.13784848    11356.333     1000 
  304000    0.4585473   -2.0197437   0.68713313   -1.3326106   0.12655781    11359.482     1000 
  306000   0.46901227   -2.0458335   0.70281489   -1.3430186    0.1395455    11193.251     1000 
  308000    0.4657604   -2.0119424   0.69794196   -1.3140004   0.13683675    11189.112     1000 
  310000   0.46030698   -2.0335729   0.68977001   -1.3438029   0.12923026    11378.799     1000 
  312000   0.46186962   -2.0387571   0.69211163   -1.3466455   0.12761244     11431.74     1000 
  314000   0.46446022   -2.0634424   0.69599364   -1.3674488   0.12487514    11418.301     1000 
  316000   0.45463107   -2.0706531   0.68126465   -1.3893885   0.13161991    11342.993     1000 
  318000   0.46126962   -2.0588399   0.69121253   -1.3676273   0.14111681    11341.077     1000 
  320000   0.46003086   -1.9904865   0.68935624   -1.3011302   0.12633601    11364.563     1000 
  322000   0.45627832   -2.0477212   0.68373306   -1.3639881    0.1427533    11311.306     1000 
  324000   0.44686705   -2.0252011   0.66963028   -1.3555708   0.12882202    11419.038     1000 
  326000   0.46287074    -2.018186   0.69361181   -1.3245742   0.11998886    11461.335     1000 
  328000    0.4619604   -1.9599644   0.69224766   -1.2677168   0.15130493     11202.97     1000 
  330000   0.46442497   -2.0373895   0.69594081   -1.3414487   0.11830153    11432.494     1000 
  332000   0.42785225   -2.0560914    0.6411366   -1.4149548   0.13165276    11388.026     1000 
  334000   0.45084399   -2.0425758   0.67558972   -1.3669861   0.12815191    11341.334     1000 
  336000   0.44906784   -2.0312939   0.67292815   -1.3583658   0.12983707    11333.589     1000 
  338000   0.47207575   -2.0500563   0.70740551   -1.3426508   0.12227217    11549.565     1000 
  340000   0.44918078   -2.0371284   0.67309741    -1.364031   0.12315519    11404.258     1000 
  342000   0.45667926    -2.024562   0.68433387   -1.3402281   0.11105063    11526.589     1000 
  344000   0.46419828   -2.0404849   0.69560112   -1.3448837   0.12499374    11362.881     1000 
  346000   0.46025185   -2.0616421   0.68968739   -1.3719547   0.11857245    11425.411     1000 
  348000   0.49281122   -2.0337774   0.73847762   -1.2952998   0.13737336    11288.778     1000 
  350000   0.46174668   -2.0325161    0.6919274   -1.3405887   0.12296905    11458.733     1000 
  352000    0.4547244   -2.0341094   0.68140451   -1.3527049   0.13016095    11322.892     1000 
  354000   0.45638621   -1.9995804   0.68389473   -1.3156856   0.13473843    11255.297     1000 
  356000   0.46376126   -2.0334658   0.69494625   -1.3385196    0.1319399    11312.858     1000 
  358000   0.45596532    -2.034195   0.68326402   -1.3509309   0.13824532    11282.816     1000 
  360000   0.44989877   -2.0211996   0.67417331   -1.3470263   0.13758677    11310.074     1000 
  362000   0.45462248   -2.0178415   0.68125179   -1.3365897   0.13653071    11400.991     1000 
  364000   0.44236902   -2.0521032   0.66288997   -1.3892133   0.12949353     11457.17     1000 
  366000   0.46144287   -2.0179532   0.69147214   -1.3264811   0.12627912    11315.061     1000 
  368000   0.46747336   -2.0583654   0.70050883   -1.3578565   0.13817268    11318.085     1000 
  370000   0.47754532   -2.0273988   0.71560166   -1.3117971   0.13093536     11423.89     1000 
  372000   0.46875281    -2.039123   0.70242609   -1.3366969   0.12664082    11405.397     1000 
  374000   0.46777417   -2.0623513   0.70095959   -1.3613917   0.12462919    11399.492     1000 
  376000   0.46558703    -2.062025   0.69768216   -1.3643428   0.12858208    11442.072     1000 
  378000   0.45943608   -2.0318694   0.68846497   -1.3434045   0.13470318    11302.233     1000 
  380000   0.46938728   -2.0298572   0.70337683   -1.3264804   0.13274987    11313.134     1000 
  382000   0.44951466   -2.0849119   0.67359771   -1.4113142   0.11231246    11567.146     1000 
  384000   0.46168149   -2.0689579   0.69182971   -1.3771282    0.1316935    11392.353     1000 
  386000   0.46560621    -2.026223    0.6977109   -1.3285121   0.12237517    11424.308     1000 
  388000   0.45086466   -2.0488326   0.67562069   -1.3732119   0.11316782    11505.902     1000 
  390000   0.48492554    -2.029438   0.72666092   -1.3027771   0.13576541    11384.132     1000 
  392000   0.45664876   -2.0131399   0.68428817   -1.3288518   0.14308352     11216.95     1000 
  394000   0.43919347   -2.0459626   0.65813141   -1.3878312   0.13235907    11306.767     1000 
  396000   0.44917189   -2.0325736   0.67308408   -1.3594895   0.12356925    11315.566     1000 
  398000      0.45236   -1.9993949   0.67786147   -1.3215334   0.11617651    11494.324     1000 
  400000   0.46829421    -2.051724   0.70173887   -1.3499851   0.14319521    11400.357     1000 
  402000   0.47295042   -2.0405849   0.70871621   -1.3318687      0.13301    11385.227     1000 
  404000   0.46636302   -2.0412886   0.69884498   -1.3424436   0.14364696    11265.618     1000 
  406000   0.46174933   -2.0331603   0.69193137    -1.341229   0.12755358    11371.113     1000 
  408000   0.45582461   -2.0857166   0.68305317   -1.4026634    0.1184579    11516.815     1000 
  410000   0.45172137   -2.0314733   0.67690448   -1.3545688   0.12700171     11402.42     1000 
  412000   0.44621013   -2.0377161   0.66864588   -1.3690702   0.12751466     11532.77     1000 
  414000   0.46230274   -2.0602136   0.69276066   -1.3674529   0.12818285    11446.473     1000 
  416000   0.45760196   -2.0461423   0.68571654   -1.3604257    0.1462993    11220.039     1000 
  418000   0.47154051   -2.0048227   0.70660346   -1.2982193   0.13458473    11297.174     1000 
  420000   0.44639959   -2.0149144   0.66892978   -1.3459847    0.1241774    11337.241     1000 
  422000    0.4637576   -2.0395716   0.69494076   -1.3446308   0.14186952    11251.253     1000 
  424000   0.44965894   -2.0286569   0.67381393    -1.354843   0.13096126    11313.761     1000 
  426000    0.4821634   -1.9935324   0.72252185   -1.2710106   0.13276627    11409.069     1000 
  428000    0.4236782   -2.0637442   0.63488178   -1.4288625   0.12401903    11483.041     1000 
  430000   0.46910329   -2.0113651   0.70295128   -1.3084138   0.14077315    11240.867     1000 
  432000   0.47023462   -2.0257045   0.70464657   -1.3210579   0.13700177    11289.097     1000 
  434000   0.44810573   -2.0010065   0.67148644     -1.32952   0.13357586    11315.115     1000 
  436000   0.45446557   -2.0225855   0.68101665   -1.3415688   0.12753649    11438.927     1000 
  438000   0.46857454    -2.039143   0.70215894    -1.336984   0.12526174    11401.719     1000 
  440000   0.47739057   -2.0481269   0.71536977   -1.3327571   0.12314327    11472.067     1000 
  442000   0.44353391   -2.0609604   0.66463556   -1.3963249   0.13726605    11366.754     1000 
  444000   0.44902371   -2.0591896   0.67286202   -1.3863276   0.13344488     11366.12     1000 
  446000   0.45165506   -2.0641439    0.6768051   -1.3873388   0.13563906    11278.451     1000 
  448000   0.46789379   -2.0389704   0.70113884   -1.3378315    0.1295752     11335.36     1000 
  450000   0.45457106   -2.0237556   0.68117474   -1.3425808   0.12342406    11411.022     1000 
  452000   0.43012174   -2.0469634   0.64453742    -1.402426   0.12085561    11393.318     1000 
  454000   0.45407064   -2.0346315   0.68042485   -1.3542066   0.12011143    11472.211     1000 
  456000   0.44548534   -1.9984767   0.66755978   -1.3309169   0.12704351    11272.577     1000 
  458000   0.44977868     -2.02506   0.67399335   -1.3510667   0.13711365    11363.841     1000 
  460000   0.44509751   -2.0257789   0.66697861   -1.3588002   0.12305732    11482.611     1000 
  462000   0.44435725   -2.0172469   0.66586934   -1.3513776   0.12335565    11407.857     1000 
  464000   0.45231354   -2.0671399   0.67779184    -1.389348   0.12576435    11509.679     1000 
  466000   0.46149789   -2.0222424   0.69155458   -1.3306878    0.1176086     11446.13     1000 
  468000   0.44981362   -2.0651397   0.67404571    -1.391094   0.12781905     11429.15     1000 
  470000   0.46024976   -2.0309382   0.68968426    -1.341254   0.12700193    11377.516     1000 
  472000    0.4567344   -2.0512987    0.6844165   -1.3668822   0.13294319    11258.942     1000 
  474000   0.45351771   -2.0808138   0.67959629   -1.4012175    0.1177063    11449.897     1000 
  476000   0.46828754   -2.0239723   0.70172887   -1.3222434   0.14396267    11256.722     1000 
  478000   0.45063436   -2.0626991   0.67527558   -1.3874236   0.13037937    11431.949     1000 
  480000    0.4665652     -2.04574   0.69914795   -1.3465921   0.12055373    11484.743     1000 
  482000   0.45409919   -2.0516757   0.68046764    -1.371208   0.11639395    11498.164     1000 
  484000   0.45742434   -2.0312731   0.68545038   -1.3458227   0.14923983    11257.955     1000 
  486000    0.4391039   -2.0582702   0.65799719    -1.400273   0.12470304    11501.544     1000 
  488000   0.45543853   -1.9900117   0.68247464    -1.307537   0.13876724    11253.977     1000 
  490000   0.45902349   -2.0622611   0.68784669   -1.3744144   0.12435281    11441.995     1000 
  492000   0.46446155   -2.0608844   0.69599563   -1.3648888   0.12538857    11427.722     1000 
  494000   0.47789856   -1.9967716     0.716131   -1.2806406   0.13781056    11323.041     1000 
  496000   0.43618119   -2.0789459   0.65361751   -1.4253284   0.13364106    11356.895     1000 
  498000   0.46280983   -2.0938577   0.69352053   -1.4003371    0.1305766    11395.081     1000 
  500000   0.45038318   -2.0572295    0.6748992   -1.3823303   0.12686232    11347.288     1000 
  502000   0.47671767   -2.0834248   0.71436143   -1.3690633    0.1280074    11474.744     1000 
  504000   0.47104217   -2.0688996   0.70585669    -1.363043   0.13707131    11331.303     1000 
  506000   0.44466095   -2.0334141   0.66632444   -1.3670896   0.14019973    11196.984     1000 
  508000   0.46578731   -2.0514006   0.69798229   -1.3534183    0.1337535    11402.535     1000 
  510000   0.46446294   -2.0558831   0.69599771   -1.3598853   0.12480171    11411.189     1000 
  512000   0.47873558   -2.0193702   0.71738526   -1.3019849   0.12256783    11438.594     1000 
  514000   0.45686055   -1.9854675   0.68460553    -1.300862   0.14657087    11172.682     1000 
  516000   0.44262116   -1.9881106   0.66326781   -1.3248427   0.13220266    11256.617     1000 
  518000   0.45009465   -2.0787274   0.67446683   -1.4042606   0.13741479    11305.141     1000 
  520000   0.44499548   -2.0307428   0.66682572   -1.3639171   0.12193472    11337.455     1000 
  522000   0.44388174   -2.0453779   0.66515679   -1.3802211   0.13093793    11414.607     1000 
  524000   0.46078839   -2.0274561    0.6904914   -1.3369647   0.13148611    11409.342     1000 
  526000   0.46640042   -2.0248007   0.69890103   -1.3258996   0.12733574    11315.015     1000 
  528000   0.43142961   -2.0213079   0.64649727   -1.3748106   0.12599415    11360.883     1000 
  530000   0.45711291   -2.0344444    0.6849837   -1.3494607   0.11605105    11389.666     1000 
  532000   0.45538298   -2.0332972   0.68239139   -1.3509058   0.13437358    11374.177     1000 
  534000   0.45626909   -2.0451381   0.68371923   -1.3614189   0.12496706    11379.874     1000 
  536000   0.47106181   -2.0336756   0.70588613   -1.3277895   0.13045406    11307.043     1000 
  538000   0.46364588   -2.0260603   0.69477336   -1.3312869   0.13497417    11382.999     1000 
  540000   0.44586508   -2.0383585   0.66812882   -1.3702296   0.12674095    11317.667     1000 
  542000   0.45306408   -2.0305545   0.67891652    -1.351638   0.13496576    11251.541     1000 
  544000   0.47355185   -2.0281616   0.70961744   -1.3185441   0.13104433    11429.125     1000 
  546000   0.46044336   -2.0066286   0.68997438   -1.3166542   0.11915963    11476.867     1000 
  548000   0.44434329   -2.0840839   0.66584843   -1.4182355   0.12927824    11486.842     1000 
  550000   0.44933484    -2.044994   0.67332826   -1.3716657   0.12585853    11454.254     1000 
  552000    0.4481127   -2.0027364   0.67149688   -1.3312395   0.14190118    11293.346     1000 
  554000   0.46185142   -1.9894054   0.69208436   -1.2973211   0.12691694    11376.809     1000 
  556000   0.45128222   -1.9967124   0.67624641    -1.320466   0.13355058    11266.988     1000 
  558000   0.46280171    -2.029849   0.69350837   -1.3363406   0.12675046    11392.894     1000 
  560000   0.46434606   -2.0467426   0.69582257     -1.35092   0.13115143    11326.988     1000 
  562000   0.46703375   -2.0684761   0.69985008    -1.368626   0.13880037    11351.707     1000 
  564000   0.44723405   -2.0401573   0.67018023    -1.369977   0.13808816    11350.462     1000 
  566000   0.47532673   -2.0043213    0.7122771   -1.2920442   0.13076664    11288.254     1000 
  568000   0.45090994   -2.0199273   0.67568854   -1.3442387   0.13091911    11317.801     1000 
  570000   0.45295893   -2.0306678   0.67875895   -1.3519089   0.13705677    11274.862     1000 
  572000   0.45679094   -2.0893026   0.68450122   -1.4048013   0.12524003    11417.402     1000 
  574000   0.47241415   -2.0408492    0.7079126   -1.3329366   0.11798905    11447.917     1000 
  576000   0.43776066   -2.0485434   0.65598435   -1.3925591   0.12945922    11388.254     1000 
  578000   0.47419037   -2.0389552   0.71057427    -1.328381   0.13172918    11372.579     1000 
  580000   0.46154485   -2.0234172   0.69162496   -1.3317923   0.13777382    11385.168     1000 
  582000   0.45925003   -2.0735033   0.68818617   -1.3853171   0.13281288    11259.354     1000 
  584000   0.45103595   -2.0607736   0.67587738   -1.3848962   0.12447344    11438.059     1000 
  586000   0.46874443   -1.9856974   0.70241352   -1.2832839   0.13420095    11140.353     1000 
  588000   0.45335529   -1.9626811    0.6793529   -1.2833282   0.14174001    11220.018     1000 
  590000   0.46600561   -1.9865842   0.69830941   -1.2882747   0.11886213    11419.354     1000 
  592000   0.46666808   -2.0360948   0.69930212   -1.3367927   0.13220184    11492.267     1000 
  594000   0.44506157   -2.0400884   0.66692476   -1.3731637   0.13120907    11329.549     1000 
  596000   0.44427631    -2.064333   0.66574804   -1.3985849    0.1364621    11380.625     1000 
  598000   0.47613063   -1.9781417   0.71348174     -1.26466   0.12024547    11322.128     1000 
  600000   0.45698888   -2.0558399   0.68479784   -1.3710421   0.13193228    11398.628     1000 
  602000   0.46996882   -2.0492847   0.70424828   -1.3450364   0.13140718    11369.859     1000 
  604000   0.47993172   -2.0187046   0.71917768   -1.2995269   0.13278549    11348.939     1000 
  606000   0.47076416   -2.0758869   0.70544009   -1.3704468   0.12657548    11568.047     1000 
  608000   0.44634962   -2.0213832    0.6688549   -1.3525283   0.13004517     11339.21     1000 
  610000   0.46898464   -2.0781385   0.70277348    -1.375365   0.11731234    11543.635     1000 
  612000   0.45133488   -2.0031326   0.67632531   -1.3268073   0.11572225    11351.117     1000 
  614000   0.45227854   -2.0382826   0.67773939   -1.3605432   0.11596962    11362.502     1000 
  616000   0.44256981   -2.0161505   0.66319086   -1.3529596   0.13452586    11255.857     1000 
  618000   0.44790974   -2.0125604   0.67119275   -1.3413676   0.12574043    11409.589     1000 
  620000   0.44643142    -2.003689   0.66897748   -1.3347116   0.12958259    11396.239     1000 
  622000   0.43955203   -2.0552817   0.65866871    -1.396613   0.11456518    11502.556     1000 
  624000   0.45376791   -2.0276581   0.67997121   -1.3476868   0.12996465    11440.406     1000 
  626000   0.45317551   -2.0219817    0.6790835   -1.3428982   0.14146297    11305.366     1000 
  628000   0.46771497   -2.0850282   0.70087088   -1.3841573   0.12986475    11478.728     1000 
  630000    0.4518837   -2.0208108   0.67714772    -1.343663   0.12929466    11362.615     1000 
  632000   0.45605783   -1.9899757   0.68340265    -1.306573   0.14487012     11311.75     1000 
  634000   0.44654766   -2.0445235   0.66915167   -1.3753719    0.1301949    11478.458     1000 
  636000   0.47430094   -2.0654621   0.71073995   -1.3547221   0.12325435    11439.449     1000 
  638000   0.46138162   -2.0427132   0.69138036   -1.3513329   0.13358606    11368.874     1000 
  640000   0.47155379   -2.0426604   0.70662336    -1.336037   0.13467865    11307.952     1000 
  642000    0.4696989   -2.0047496    0.7038438   -1.3009058   0.12385399    11290.789     1000 
  644000   0.44624617   -1.9704064   0.66869989   -1.3017066   0.13789941    11289.684     1000 
  646000   0.47134146   -1.9663366   0.70630517   -1.2600314   0.13070788    11303.178     1000 
  648000   0.44290943   -2.0163388   0.66369978    -1.352639   0.12718507    11240.969     1000 
  650000   0.48296101   -2.0748329   0.72371707   -1.3511159   0.15140013    11213.184     1000 
  652000   0.48027317   -2.1025834   0.71968935    -1.382894   0.12257061    11466.146     1000 
  654000    0.4686824   -2.0438373   0.70232057   -1.3415167   0.13647095    11386.997     1000 
  656000   0.45568329   -2.0037795   0.68284141   -1.3209381   0.13409116    11337.325     1000 
  658000   0.45046782   -2.0068535   0.67502602   -1.3318275   0.13852731    11158.815     1000 
  660000   0.47041412   -2.0157048   0.70491555   -1.3107892   0.13067198    11342.295     1000 
  662000   0.46187227   -2.0543543    0.6921156   -1.3622387   0.12585717    11503.698     1000 
  664000   0.45964612   -2.0182435    0.6887797   -1.3294638    0.1169203    11542.349     1000 
  666000   0.44720141   -2.0350307   0.67013131   -1.3648994    0.1371903    11346.763     1000 
  668000   0.46573628   -2.0110994   0.69790582   -1.3131936   0.13776249    11204.811     1000 
  670000   0.45132267   -2.0547151   0.67630702   -1.3784081   0.13170484    11240.072     1000 
  672000   0.45522905   -2.0138951   0.68216073   -1.3317343    0.1241077    11491.334     1000 
  674000   0.47294475   -2.0660002    0.7087077   -1.3572925   0.12620764    11378.202     1000 
  676000   0.42989723    -2.044874   0.64420099    -1.400673   0.12554152    11408.223     1000 
  678000   0.45001737   -2.0245112   0.67435102   -1.3501602   0.13008193    11420.653     1000 
  680000   0.46446502   -2.0934248   0.69600084    -1.397424   0.11489523    11517.827     1000 
  682000   0.46710618   -2.0302775   0.69995862   -1.3303189   0.12761289    11360.718     1000 
  684000   0.44898276   -2.0675278   0.67280066   -1.3947271   0.12930761    11348.096     1000 
  686000   0.45348331    -2.063118   0.67954474   -1.3835732    0.1335677    11236.567     1000 
  688000   0.46320161   -2.0297493   0.69410761   -1.3356417   0.12157528    11484.019     1000 
  690000   0.46948964   -2.0462809   0.70353023   -1.3427507   0.13448901    11337.341     1000 
  692000   0.46163174   -1.9998009   0.69175516   -1.3080457   0.13246235    11308.486     1000 
  694000   0.47610877    -2.012785   0.71344899    -1.299336   0.12856038    11435.995     1000 
  696000   0.43333657   -2.0549023   0.64935485   -1.4055474   0.11601475    11472.499     1000 
  698000   0.45047206   -1.9858938   0.67503238   -1.3108614   0.13256123    11223.897     1000 
  700000   0.47265724   -2.0212995   0.70827687   -1.3130227   0.12754281    11414.779     1000 
  702000   0.44919375    -2.033475   0.67311684   -1.3603582     0.137074    11280.968     1000 
  704000   0.46520526   -2.0279019   0.69711008   -1.3307918   0.14139099    11449.585     1000 
  706000   0.45018304   -2.0789242   0.67459929   -1.4043249   0.12213771    11356.725     1000 
  708000   0.47402222   -2.0054157    0.7103223   -1.2950934   0.14042834     11262.42     1000 
  710000   0.46445497    -2.053622   0.69598577   -1.3576363   0.11775948    11470.999     1000 
  712000     0.452306   -1.9753593   0.67778054   -1.2975788   0.13220497    11231.343     1000 
  714000   0.45510344   -2.0452965    0.6819725    -1.363324   0.13610835     11303.03     1000 
  716000   0.45442784   -1.9896638   0.68096012   -1.3087036   0.12955462    11306.385     1000 
  718000   0.46316979   -1.9914309   0.69405993    -1.297371   0.13264398    11375.587     1000 
  720000    0.4570515   -2.0178024   0.68489167   -1.3329107   0.13679843    11319.548     1000 
  722000   0.47635596    -2.044171   0.71381941   -1.3303516   0.12518027    11312.351     1000 
  724000   0.42643797   -2.0235102    0.6390173   -1.3844929   0.12637667    11350.736     1000 
  726000   0.44872176   -2.0457512   0.67240955   -1.3733416   0.12955974    11356.603     1000 
  728000   0.45420811   -2.0465839   0.68063085   -1.3659531   0.14046424    11349.343     1000 
  730000   0.45349582   -2.0207817   0.67956348   -1.3412182    0.1345466    11337.706     1000 
  732000   0.45835743   -2.0366294    0.6868486   -1.3497808   0.12852851    11432.063     1000 
  734000   0.47007681   -2.0226508    0.7044101   -1.3182407    0.1259387    11411.526     1000 
  736000   0.45861693   -2.0815177   0.68723747   -1.3942802   0.12213883    11531.181     1000 
  738000   0.46100338    -2.030249   0.69081357   -1.3394355   0.13482155    11318.864     1000 
  740000   0.43409128   -2.0166168   0.65048578    -1.366131   0.12333771    11408.422     1000 
  742000   0.43873906   -2.0277364   0.65745049   -1.3702859   0.13140409    11349.925     1000 
  744000   0.46100416   -2.0116732   0.69081474   -1.3208584   0.13681301      11206.4     1000 
  746000   0.46600717   -2.0080689   0.69831174   -1.3097572   0.13631571    11280.668     1000 
  748000   0.45563781   -2.0437214   0.68277326   -1.3609482   0.12473822    11409.777     1000 
  750000   0.45882657    -2.014925   0.68755161   -1.3273734   0.13097254    11367.778     1000 
  752000   0.47890283   -2.0109703   0.71763589   -1.2933344   0.12732126    11313.483     1000 
  754000   0.47697738   -2.0301245   0.71475061   -1.3153739   0.11840961    11537.177     1000 
  756000   0.46019171   -2.0881141   0.68959728   -1.3985168   0.13484415    11413.771     1000 
  758000   0.49079521   -2.0650516   0.73545662    -1.329595    0.1361351    11481.538     1000 
  760000   0.45545497   -2.0099754   0.68249928   -1.3274762   0.12370807    11397.228     1000 
  762000   0.45707789   -2.0855892   0.68493121   -1.4006579   0.12699814    11377.149     1000 
  764000   0.45343767   -2.0185348   0.67947635   -1.3390585   0.11894672    11419.155     1000 
  766000   0.47084824   -2.0771047   0.70556609   -1.3715386   0.13644402    11439.517     1000 
  768000   0.45275277   -2.0084495   0.67845003   -1.3299995   0.12881064    11454.963     1000 
  770000   0.46333572   -2.0334899   0.69430857   -1.3391813   0.13272424    11290.476     1000 
  772000   0.45986241    -2.030539   0.68910382   -1.3414352   0.13323117    11356.749     1000 
  774000   0.47235833   -1.9866888   0.70782896   -1.2788599   0.13581925    11228.422     1000 
  776000   0.47431751   -2.0803736   0.71076479   -1.3696088   0.13763418    11346.485     1000 
  778000    0.4592855   -2.0310814   0.68823933   -1.3428421   0.13271487    11398.523     1000 
  780000   0.45469888   -1.9783249   0.68136627   -1.2969586   0.13864757    11207.203     1000 
  782000    0.4534191   -2.0146228   0.67944852   -1.3351742   0.12030595    11508.998     1000 
  784000   0.46061226   -2.0278537   0.69022747   -1.3376262   0.13234546    11336.306     1000 
  786000   0.46025571   -2.0276658   0.68969318   -1.3379727   0.12668258    11568.269     1000 
  788000   0.44736678   -2.0183127   0.67037912   -1.3479336   0.12337032     11379.49     1000 
  790000   0.46980383   -2.0182763   0.70400104   -1.3142753   0.13676164    11366.608     1000 
  792000   0.47621643     -1.98416   0.71361032   -1.2705497   0.12947134    11326.492     1000 
  794000   0.45848604   -2.0343878   0.68704134   -1.3473465    0.1370831    11290.056     1000 
  796000   0.44643075   -2.0057867   0.66897648   -1.3368102   0.13687186     11319.61     1000 
  798000   0.45783605   -1.9911379   0.68606732   -1.3050706   0.14086477    11214.982     1000 
  800000   0.47692695   -2.0382125   0.71467503   -1.3235375   0.13171775    11343.112     1000 
  802000   0.45039334     -2.04149   0.67491442   -1.3665756   0.13044128    11398.341     1000 
  804000   0.45583229   -2.0337195   0.68306468   -1.3506548    0.1348255     11331.95     1000 
  806000   0.46440642   -2.0337477   0.69591303   -1.3378347   0.13657885    11357.554     1000 
  808000    0.4760546   -2.0507178   0.71336781     -1.33735    0.1458615    11269.617     1000 
  810000   0.47487955   -2.0828342   0.71160701   -1.3712272   0.12495097    11447.392     1000 
  812000   0.44220026   -1.9393395   0.66263709   -1.2767024   0.13817068    11186.209     1000 
  814000   0.45500951   -2.0396524   0.68183175   -1.3578206   0.12304789    11470.713     1000 
  816000   0.44933138   -2.0265228   0.67332307   -1.3531997   0.11904724    11375.017     1000 
  818000   0.44606474   -2.0105016   0.66842801   -1.3420736   0.13554052        11387     1000 
  820000    0.4514515   -2.0385157   0.67650007   -1.3620156   0.14338522     11397.71     1000 
  822000   0.44883686   -2.0528833   0.67258203   -1.3803012   0.12617082    11313.693     1000 
  824000   0.46697394   -2.0371342   0.69976044   -1.3373738   0.12481551    11399.129     1000 
  826000   0.46048625   -2.0341345   0.69003864   -1.3440959   0.12063654    11492.296     1000 
  828000   0.44763424   -2.0209657   0.67077991   -1.3501858   0.14061326    11196.983     1000 
  830000    0.4476885   -2.0342164   0.67086122   -1.3633551   0.12494043    11405.823     1000 
  832000   0.46564369   -2.0484364   0.69776706   -1.3506694    0.1292758    11434.148     1000 
  834000   0.48418028   -2.0341303   0.72554415   -1.3085861   0.13472942    11380.469     1000 
  836000    0.4612442   -2.0478138   0.69117443   -1.3566394   0.13477749    11283.382     1000 
  838000   0.45386174   -2.0728514   0.68011182   -1.3927396   0.13027308    11398.798     1000 
  840000   0.44648689   -2.0286288   0.66906061   -1.3595682   0.12770263     11392.15     1000 
  842000   0.45009851   -2.0027117   0.67447261   -1.3282391   0.13450056    11216.916     1000 
  844000   0.45735374   -2.0320111   0.68534458   -1.3466665    0.1289636    11402.255     1000 
  846000   0.46279757   -1.9994723   0.69350216   -1.3059702   0.14191237    11264.036     1000 
  848000   0.47876922   -2.0211526   0.71743568    -1.303717   0.14143708    11194.811     1000 
  850000   0.44333653   -2.0663923   0.66433978   -1.4020525   0.12238244    11473.015     1000 
  852000   0.46835109   -2.0594892   0.70182412   -1.3576651   0.12892738    11377.676     1000 
  854000   0.47527723   -2.0428515   0.71220292   -1.3306486   0.12079622    11496.198     1000 
  856000   0.45461752   -2.0613789   0.68124435   -1.3801345   0.12137864    11406.384     1000 
  858000   0.43645621   -2.0529409   0.65402963   -1.3989113   0.13113578     11422.75     1000 
  860000    0.4790917   -2.0488495   0.71791892   -1.3309306   0.13226958    11388.991     1000 
  862000   0.46416497   -2.0898154   0.69555121   -1.3942642   0.11137524    11564.412     1000 
  864000   0.46441396   -2.0489192   0.69592432   -1.3529949   0.14608057    11327.075     1000 
  866000   0.44028423   -1.9818835   0.65976592   -1.3221176   0.15130838    11189.177     1000 
  868000   0.44941812   -2.0178164   0.67345305   -1.3443633   0.12416269    11374.552     1000 
  870000   0.45963711   -2.0495868   0.68876621   -1.3608205   0.13273674    11353.263     1000 
  872000   0.47828245   -2.0009654   0.71670626   -1.2842592   0.14004197    11319.554     1000 
  874000   0.46151642   -2.0230748   0.69158235   -1.3314924   0.12410656    11395.701     1000 
  876000   0.45848134   -2.0434694   0.68703428   -1.3564351   0.13437698    11458.646     1000 
  878000   0.46801808   -2.0106241   0.70132509    -1.309299   0.12936542    11394.367     1000 
  880000   0.44696184   -2.0920639   0.66977232   -1.4222916   0.12653747    11486.596     1000 
  882000   0.45323172   -2.0615411   0.67916773   -1.3823734   0.13229082    11356.964     1000 
  884000   0.45363461   -2.0378749   0.67977146   -1.3581035   0.12800291    11368.628     1000 
  886000   0.46647071   -2.0192868   0.69900636   -1.3202805    0.1303272    11295.059     1000 
  888000   0.46319278   -2.0282508   0.69409438   -1.3341564   0.12354021    11421.415     1000 
  890000   0.45126064   -2.0059954   0.67621407   -1.3297813   0.12414613    11471.584     1000 
  892000   0.45163472   -2.0203661   0.67677463   -1.3435914   0.11678435    11419.247     1000 
  894000   0.45452665   -2.0601198   0.68110819   -1.3790116   0.11639829    11448.623     1000 
  896000   0.46343478   -2.0505313   0.69445701   -1.3560743   0.13015089    11382.138     1000 
  898000   0.44486822   -2.0397493   0.66663503   -1.3731143   0.12513298    11406.204     1000 
  900000   0.46698518   -2.0220535    0.6997773   -1.3222762   0.13678543    11347.218     1000 
  902000    0.4733517   -2.0291699   0.70931753   -1.3198524   0.13637385     11372.24     1000 
  904000   0.46698547   -2.0158936   0.69977773   -1.3161158   0.11532068    11508.525     1000 
  906000   0.45503983   -2.0197224   0.68187718   -1.3378453   0.14181764        11263     1000 
  908000   0.46836597   -2.0252976    0.7018464   -1.3234512   0.13510637    11389.326     1000 
  910000   0.45571532   -2.0111624   0.68288941    -1.328273   0.12864052     11287.86     1000 
  912000   0.45770907   -2.0075213   0.68587705   -1.3216443   0.12881877     11359.86     1000 
  914000   0.45936583   -2.0138783    0.6883597   -1.3255186   0.13201446    11346.515     1000 
  916000   0.46360343   -2.0206958   0.69470974   -1.3259861   0.14638868    11334.126     1000 
  918000   0.47586859   -2.0229944   0.71308909   -1.3099053    0.1326086    11342.904     1000 
  920000   0.46114042   -2.0213738   0.69101892   -1.3303549    0.1399699    11229.715     1000 
  922000   0.46711411   -2.0027163   0.69997049   -1.3027458   0.12928955    11405.678     1000 
  924000   0.45942151   -2.0289647   0.68844313   -1.3405216   0.12649395    11521.342     1000 
  926000   0.45653045   -2.0039174   0.68411088   -1.3198065   0.13002779    11224.223     1000 
  928000    0.4465009   -2.0678923    0.6690816   -1.3988107   0.12578968    11371.213     1000 
  930000   0.45562635   -2.0129824   0.68275608   -1.3302264   0.13928371    11331.499     1000 
  932000   0.48270096   -2.0668386   0.72332739   -1.3435112   0.13840097    11428.552     1000 
  934000    0.4748871   -2.0435382   0.71161832   -1.3319199   0.13319027    11346.451     1000 
  936000   0.46783065   -2.0306003   0.70104423    -1.329556   0.13826747     11255.75     1000 
  938000   0.46703407   -2.0529484   0.69985055   -1.3530978   0.13711536    11339.826     1000 
  940000   0.46178901   -2.0627663   0.69199083   -1.3707755   0.13322882    11215.579     1000 
  942000   0.45969549   -1.9866197   0.68885368    -1.297766   0.13609422    11256.323     1000 
  944000   0.47455118   -2.0289328   0.71111495   -1.3178178   0.11814146    11538.518     1000 
  946000    0.4652227   -2.0242548   0.69713622   -1.3271186   0.13291029     11331.42     1000 
  948000   0.44971233   -2.0709742   0.67389393   -1.3970803   0.12490396    11517.869     1000 
  950000   0.43574635   -2.0710046    0.6529659   -1.4180387   0.12471962    11413.717     1000 
  952000   0.44800883   -2.0118986   0.67134123   -1.3405573   0.12059465    11530.375     1000 
  954000   0.46108166   -2.0476721   0.69093087   -1.3567413   0.12207687    11489.168     1000 
  956000   0.44895632   -2.0354427   0.67276105   -1.3626817   0.12137343    11334.576     1000 
  958000   0.45149043   -2.0286945   0.67655841   -1.3521361   0.13274443    11356.732     1000 
  960000   0.46665151    -2.016498   0.69927729   -1.3172207   0.14131515    11385.325     1000 
  962000   0.46529975   -2.0032196   0.69725168    -1.305968   0.12864295    11381.791     1000 
  964000   0.45747415   -2.0242311   0.68552501   -1.3387061   0.14506258    11273.519     1000 
  966000   0.45134135   -2.0256458   0.67633501   -1.3493108    0.1205519    11407.026     1000 
  968000   0.45846826   -2.0112678   0.68701468   -1.3242531   0.12929331    11389.342     1000 
  970000   0.44921237   -2.0147432   0.67314474   -1.3415985   0.12476749    11397.625     1000 
  972000   0.46346902   -1.9865571   0.69450833   -1.2920488   0.13638881    11209.028     1000 
  974000   0.46703338   -2.0395016   0.69984953   -1.3396521   0.12033639    11468.679     1000 
  976000   0.45836265   -2.0159711   0.68685643   -1.3291146   0.14136738    11295.673     1000 
  978000   0.44848739   -2.0501145   0.67205835   -1.3780562    0.1300814    11345.811     1000 
  980000   0.45284141   -2.0720807   0.67858285   -1.3934978   0.12713705    11365.913     1000 
  982000   0.43761234    -2.009786   0.65576209   -1.3540239   0.13989867    11285.588     1000 
  984000   0.45160614   -2.0250737    0.6767318   -1.3483419    0.1361001    11313.147     1000 
  986000   0.47679554   -2.0337849   0.71447812   -1.3193068   0.14423109    11183.164     1000 
  988000   0.45601881    -2.004691   0.68334419   -1.3213468   0.12686223    11364.773     1000 
  990000   0.44949261   -2.0099875   0.67356468   -1.3364228     0.124236    11417.399     1000 
  992000   0.47523052   -2.0472798   0.71213293   -1.3351469    0.1253931    11326.636     1000 
  994000   0.47239428   -2.0297098   0.70788283    -1.321827    0.1334335    11468.686     1000 
  996000   0.46695027   -2.0380576   0.69972498   -1.3383326   0.14138457    11327.497     1000 
  998000   0.46176429   -2.0690245   0.69195379   -1.3770707   0.12660425    11373.524     1000 
 1000000   0.46733879   -2.0392148   0.70030718   -1.3389076   0.12130585    11454.457     1000 
 1002000   0.44532354   -2.0228216   0.66731733   -1.3555043   0.13871337    11285.281     1000 
 1004000   0.46553872   -2.0665596   0.69760977   -1.3689498   0.12568645    11370.837     1000 
 1006000   0.44895857   -2.0267975   0.67276442   -1.3540331   0.13315705    11312.845     1000 
 1008000   0.47112821    -2.050795   0.70598562   -1.3448094   0.13937277    11386.227     1000 
 1010000   0.45384299   -2.0198981   0.68008371   -1.3398144   0.13565522    11277.572     1000 
 1012000    0.4689909   -2.0853066   0.70278286   -1.3825237   0.12551444     11483.98     1000 
 1014000   0.44414372   -2.0458508   0.66554937   -1.3803015   0.12539306    11430.322     1000 
 1016000   0.47639838   -2.0043522   0.71388297   -1.2904693   0.11897687    11520.181     1000 
 1018000   0.47274716   -2.0565942   0.70841162   -1.3481826   0.12264073    11465.875     1000 
 1020000   0.46459454   -2.0209008   0.69619492   -1.3247059   0.12559747    11415.207     1000 
 1022000   0.45415888     -1.99544   0.68055708   -1.3148829   0.13148502    11335.726     1000 
 1024000   0.48693212   -2.0150884   0.72966778   -1.2854206   0.14220046    11218.347     1000 
 1026000    0.4335659   -2.0564178    0.6496985   -1.4067193   0.12589612    11414.854     1000 
 1028000   0.48573339   -2.0167298   0.72787149   -1.2888583   0.14545227    11302.106     1000 
 1030000   0.47565433   -1.9698176   0.71276801   -1.2570495   0.14199203    11214.089     1000 
 1032000   0.44947415   -2.0285915   0.67353701   -1.3550544   0.12464603    11336.292     1000 
 1034000   0.45041129   -2.0447308   0.67494131   -1.3697895   0.13473247    11342.019     1000 
 1036000   0.44262074   -2.0101474   0.66326718   -1.3468802   0.14143598    11288.819     1000 
 1038000    0.4547823    -2.013344   0.68149127   -1.3318527   0.12167039    11509.875     1000 
 1040000   0.47719725   -2.0448901   0.71508007   -1.3298101   0.13618999    11355.936     1000 
 1042000   0.46198094   -2.0218393   0.69227844   -1.3295608   0.13084644    11464.489     1000 
 1044000   0.45472152   -2.0263857    0.6814002   -1.3449855   0.12470188    11446.538     1000 
 1046000   0.45748167   -2.0154582   0.68553628   -1.3299219   0.13315451    11366.795     1000 
 1048000   0.46268143   -2.0014619   0.69332813   -1.3081338   0.12201094    11355.179     1000 
 1050000   0.46344786   -2.1049909   0.69447662   -1.4105142   0.12637377    11356.488     1000 
 1052000   0.47446379   -2.0239686   0.71098399   -1.3129846   0.12071718    11599.749     1000 
 1054000    0.4673661   -2.0535116    0.7003481   -1.3531635   0.12237341    11447.602     1000 
 1056000   0.46906475   -2.0360207   0.70289353   -1.3331272      0.13568    11400.405     1000 
 1058000   0.46495021   -2.0242749   0.69672789    -1.327547   0.12598678    11475.615     1000 
 1060000   0.45055628   -2.0040424   0.67515859   -1.3288838   0.14760237    11132.907     1000 
 1062000   0.47887874   -2.0134796    0.7175998   -1.2958798   0.12784891    11383.237     1000 
 1064000   0.43976199   -2.0076062   0.65898334   -1.3486228   0.12300738    11344.015     1000 
 1066000   0.44937972   -2.0709502   0.67339551   -1.3975547   0.13448567    11351.547     1000 
 1068000   0.45633026   -1.9996453    0.6838109   -1.3158344   0.14944483    11122.113     1000 
 1070000   0.43957961    -2.020598   0.65871005   -1.3618879   0.13710398    11239.276     1000 
 1072000   0.47051437   -1.9708139   0.70506579   -1.2657481    0.1184721    11458.405     1000 
 1074000   0.46618583    -1.996632   0.69857946   -1.2980525   0.13976324    11262.175     1000 
 1076000   0.49932518   -2.0464904   0.74823879   -1.2982516   0.13706977    11292.588     1000 
 1078000   0.45342423   -2.0719491   0.67945621   -1.3924928   0.13529416    11288.245     1000 
 1080000   0.46333284   -2.0280452   0.69430426   -1.3337409   0.13489468    11344.246     1000 
 1082000   0.44820466   -2.0832232   0.67163468   -1.4115885   0.13980073     11405.85     1000 
 1084000   0.46112561   -1.9981125   0.69099672   -1.3071158   0.13613862    11261.257     1000 
 1086000   0.43351103   -2.0154081   0.64961628   -1.3657918   0.13967037    11190.139     1000 
 1088000   0.46221882   -2.0356185    0.6926349   -1.3429836   0.12966751    11362.778     1000 
 1090000   0.45354386   -2.0765874   0.67963547    -1.396952   0.12739477    11339.336     1000 
 1092000   0.45650085   -2.0364842   0.68406652   -1.3524177   0.11750378    11538.817     1000 
 1094000   0.45097455   -2.0225675   0.67578537   -1.3467821   0.12850934    11379.847     1000 
 1096000   0.47853014   -2.0316284   0.71707741    -1.314551   0.13038868     11449.55     1000 
 1098000   0.47477187   -1.9941201   0.71144564   -1.2826744   0.14080501    11382.277     1000 
 1100000   0.45425757   -2.0584198   0.68070497   -1.3777148   0.12136349    11459.553     1000 
 1102000   0.46198805   -2.0761017    0.6922891   -1.3838126   0.13732672    11328.674     1000 
 1104000   0.46797934   -2.0382223   0.70126704   -1.3369553   0.13574705    11206.332     1000 
 1106000   0.47462277    -2.053807   0.71122221   -1.3425848   0.12840897    11355.949     1000 
 1108000   0.48376941   -2.0838292   0.72492846   -1.3589008   0.13377223    11363.581     1000 
 1110000    0.4744014   -2.0538182    0.7108905   -1.3429277    0.1375865    11338.085     1000 
 1112000   0.45199133   -2.0443881   0.67730901   -1.3670791   0.12537472    11475.878     1000 
 1114000   0.46136064   -2.0058162   0.69134891   -1.3144673   0.13645412    11246.349     1000 
 1116000   0.46849124   -2.0449695   0.70203412   -1.3429354   0.12869593    11509.656     1000 
 1118000   0.47905669   -2.0644612   0.71786645   -1.3465948    0.1304086    11418.532     1000 
 1120000   0.46555343   -2.0442368   0.69763181    -1.346605   0.12786603    11347.578     1000 
 1122000   0.45149662   -2.0362322   0.67656769   -1.3596645   0.12496471    11435.598     1000 
 1124000   0.46929744   -2.0216387   0.70324221   -1.3183965   0.13866754    11320.044     1000 
 1126000   0.45342148   -2.0329585   0.67945209   -1.3535064   0.13077841    11392.477     1000 
 1128000    0.4563164   -2.0528434   0.68379012   -1.3690533   0.12552248    11400.812     1000 
 1130000   0.46456518   -2.0280286   0.69615092   -1.3318777   0.11839532    11472.459     1000 
 1132000   0.46258197    -2.053707   0.69317908   -1.3605279   0.13179466    11422.353     1000 
 1134000   0.47607078   -2.0498292   0.71339206   -1.3364371   0.14598395    11260.156     1000 
 1136000   0.46959761   -2.0289119   0.70369202   -1.3252199   0.13553438    11286.004     1000 
 1138000   0.46876249   -2.0476341   0.70244059   -1.3451935   0.13039138    11337.507     1000 
 1140000   0.45077982   -2.0193316   0.67549356    -1.343838   0.13091007    11380.845     1000 
 1142000   0.48412308   -1.9815484   0.72545844     -1.25609   0.13727325    11311.018     1000 
 1144000   0.46899081   -2.0160282   0.70278273   -1.3132455   0.12257477    11452.354     1000 
 1146000   0.47602576   -2.0154336   0.71332461    -1.302109   0.11799443    11501.133     1000 
 1148000   0.46167158   -2.0418273   0.69181486   -1.3500124   0.13190517    11383.017     1000 
 1150000   0.45376685   -1.9997798   0.67996962   -1.3198102   0.12278889    11499.719     1000 
 1152000    0.4488579   -2.0260483   0.67261356   -1.3534348   0.12174148    11568.823     1000 
 1154000   0.44964875   -2.0318412   0.67379865   -1.3580426   0.14468169    11320.157     1000 
 1156000   0.46183134   -2.0852049   0.69205427   -1.3931506   0.12662912    11429.273     1000 
 1158000   0.46207097   -2.0452408   0.69241334   -1.3528275   0.12945211    11414.847     1000 
 1160000   0.44268446   -2.0540254   0.66336266   -1.3906627   0.12744341    11335.117     1000 
 1162000   0.45265764   -2.0158496   0.67830747   -1.3375421   0.14155597    11281.231     1000 
 1164000   0.46655642   -2.0082516   0.69913479   -1.3091168    0.1406012    11211.042     1000 
 1166000   0.45896508   -2.0626808   0.68775917   -1.3749217    0.1261983    11505.101     1000 
 1168000   0.46005245   -2.0710191    0.6893886   -1.3816305   0.13366961    11383.716     1000 
 1170000   0.45947534   -2.0122287    0.6885238   -1.3237049   0.13758298    11292.665     1000 
 1172000   0.46535134   -2.0488728   0.69732898   -1.3515438   0.13223771    11375.443     1000 
 1174000   0.46096903   -2.0095877   0.69076209   -1.3188256   0.14032127     11336.82     1000 
 1176000   0.47455729   -2.0464068    0.7111241   -1.3352827    0.1233014    11382.748     1000 
 1178000   0.46451543   -2.0510947   0.69607637   -1.3550183   0.11328376    11489.211     1000 
 1180000   0.47169769   -2.0436859   0.70683898   -1.3368469   0.12136322    11376.464     1000 
 1182000   0.45368388   -2.0374894   0.67984529   -1.3576441   0.12220987    11463.254     1000 
 1184000    0.4268017   -2.0235816   0.63956235   -1.3840193   0.11920678    11409.585     1000 
 1186000   0.48155526   -2.0522987   0.72161055   -1.3306881   0.12919409    11353.514     1000 
 1188000   0.45083479   -2.0362232   0.67557594   -1.3606473    0.1278242    11378.172     1000 
 1190000   0.48439897   -2.0384407   0.72587186   -1.3125689   0.12683655     11464.34     1000 
 1192000   0.46784513   -2.0386096   0.70106593   -1.3375437   0.12917703    11357.265     1000 
 1194000   0.46250406   -2.0047309   0.69306233   -1.3116686   0.14391436    11180.604     1000 
 1196000   0.47320114   -2.0160224   0.70909191   -1.3069305   0.12604811    11269.993     1000 
 1198000   0.43659084   -2.0452192   0.65423137   -1.3909879   0.12619414     11354.11     1000 
 1200000   0.45507755   -2.0075757   0.68193371    -1.325642   0.12782823    11422.577     1000 
 1202000   0.48211055   -1.9966782   0.72244265   -1.2742356   0.12554103    11473.424     1000 
 1204000   0.45213936   -2.0245597   0.67753083   -1.3470288   0.13198983    11363.166     1000 
 1206000   0.48454492   -2.0393382   0.72609056   -1.3132477   0.13898315    11274.349     1000 
 1208000   0.47448459   -1.9777041   0.71101516   -1.2666889   0.13784395    11259.608     1000 
 1210000   0.46093045   -2.0001548   0.69070428   -1.3094505   0.12825497    11395.088     1000 
 1212000   0.45969056   -2.0468294    0.6888463   -1.3579831   0.13701729    11271.003     1000 
 1214000   0.47279657   -2.0004506   0.70848567    -1.291965   0.12817308    11321.398     1000 
 1216000   0.49303169    -2.075647   0.73880799    -1.336839   0.12939041    11486.626     1000 
 1218000   0.45009706   -2.0095034   0.67447045    -1.335033   0.12551728    11403.467     1000 
 1220000   0.46567825   -2.0293211   0.69781885   -1.3315023    0.1154788    11523.697     1000 
 1222000   0.47699706   -2.0658294    0.7147801   -1.3510493   0.13356465    11431.846     1000 
 1224000   0.45171597   -2.0376369   0.67689638   -1.3607405   0.12713912    11364.916     1000 
 1226000   0.45524322   -2.0128467   0.68218197   -1.3306648   0.13298238    11236.511     1000 
 1228000   0.46015481   -2.0838364   0.68954199   -1.3942944   0.11148961    11580.783     1000 
 1230000   0.46776248   -2.0174217   0.70094207   -1.3164797   0.13284995    11400.728     1000 
 1232000   0.45044315   -2.0653567   0.67498905   -1.3903677   0.14236624    11258.838     1000 
 1234000   0.45083239    -2.057336   0.67557234   -1.3817636   0.11488674    11561.255     1000 
 1236000   0.45262377   -1.9965115   0.67825673   -1.3182548   0.13387773    11260.642     1000 
 1238000   0.48055506   -2.0539035   0.72011175   -1.3337918   0.14008882    11312.073     1000 
 1240000   0.46110897   -1.9881697   0.69097179   -1.2971979   0.13363646    11310.117     1000 
 1242000   0.45841266   -2.0356423   0.68693137    -1.348711    0.1258153    11414.242     1000 
 1244000   0.47364121   -2.0288643   0.70975136   -1.3191129   0.13442114    11261.104     1000 
 1246000   0.47558672   -2.0086578    0.7126667   -1.2959911   0.12294184    11390.818     1000 
 1248000     0.459535   -2.0338111    0.6886132   -1.3451979   0.13513803    11400.589     1000 
 1250000   0.45798474   -2.0537104   0.68629014   -1.3674203   0.12484701    11462.816     1000 
 1252000   0.48959321     -2.08774   0.73365542   -1.3540846   0.13854347    11350.688     1000 
 1254000   0.48276782    -2.022018   0.72342758   -1.2985904   0.13130656    11308.252     1000 
 1256000   0.45029879   -2.0270804   0.67477274   -1.3523076   0.12614903    11513.623     1000 
 1258000   0.46127062   -2.0896466   0.69121402   -1.3984326   0.12719542    11415.077     1000 
 1260000   0.44978671   -2.0132688   0.67400538   -1.3392634   0.14041343    11253.161     1000 
 1262000   0.45643076   -2.0539878   0.68396149   -1.3700263   0.13718909    11320.695     1000 
 1264000   0.48616693   -2.0560896   0.72852115   -1.3275684   0.13625217    11427.038     1000 
 1266000   0.46980355   -2.0059381   0.70400062   -1.3019375   0.13641771     11390.43     1000 
 1268000   0.48068459   -2.0486802   0.72030587   -1.3283743   0.13248574    11382.346     1000 
 1270000   0.44663719   -1.9859918   0.66928583    -1.316706   0.13456684    11283.797     1000 
 1272000   0.45767014   -2.0666505    0.6858187   -1.3808318   0.12691105    11345.403     1000 
 1274000   0.44067368   -2.0730266   0.66034951   -1.4126771   0.14167674    11318.867     1000 
 1276000    0.4581756   -2.0923085   0.68657614   -1.4057324   0.11950548    11516.484     1000 
 1278000   0.48308208   -2.1151191    0.7238985   -1.3912206   0.12235373    11512.548     1000 
 1280000   0.45441545   -2.0372582   0.68094156   -1.3563166   0.12242291    11455.775     1000 
 1282000   0.47462429   -2.0021917    0.7112245   -1.2909672   0.13154282    11336.792     1000 
 1284000   0.46425562   -2.0201648   0.69568705   -1.3244777   0.13150951    11414.884     1000 
 1286000    0.4511492   -2.0885403   0.67604708   -1.4124932    0.1186156    11443.513     1000 
 1288000   0.47410024   -2.0498487   0.71043921   -1.3394094   0.13432419    11385.088     1000 
 1290000   0.45983824   -2.0579832    0.6890676   -1.3689156   0.12813613    11455.443     1000 
 1292000   0.46179093    -1.988117   0.69199371   -1.2961233   0.13167417    11359.013     1000 
 1294000   0.46293151   -2.0065429   0.69370286   -1.3128401   0.13592394    11354.351     1000 
 1296000   0.48130536   -2.0297707   0.72123608   -1.3085346   0.13877456    11217.922     1000 
 1298000   0.47770405    -2.028293   0.71583951   -1.3124535   0.12302973    11377.253     1000 
 1300000   0.43415845   -2.0411353   0.65058644   -1.3905489   0.12923085    11299.328     1000 
 1302000   0.47503636   -2.0213981   0.71184199   -1.3095562   0.14087697    11287.787     1000 
 1304000   0.45449877   -1.9934613   0.68106641   -1.3123949   0.13183194     11284.84     1000 
 1306000   0.45158467   -2.0204676   0.67669963    -1.343768   0.12639202    11415.862     1000 
 1308000   0.45967575   -2.0323287   0.68882411   -1.3435046    0.1332852    11224.936     1000 
 1310000   0.45180187   -2.0383383    0.6770251   -1.3613132   0.12721426    11377.493     1000 
 1312000   0.46111725   -2.0485626   0.69098421   -1.3575784   0.13183001    11396.724     1000 
 1314000   0.46574988   -1.9859027   0.69792619   -1.2879765   0.13463173    11358.779     1000 
 1316000   0.45273792   -2.0772145   0.67842777   -1.3987868   0.13140399     11463.76     1000 
 1318000   0.45305221   -2.0285015   0.67889873   -1.3496027   0.12725652    11310.748     1000 
 1320000   0.45428929   -2.0427985   0.68075249    -1.362046   0.12784354    11357.258     1000 
 1322000   0.45740816   -2.0399705   0.68542613   -1.3545443   0.12806604    11402.955     1000 
 1324000   0.46147786    -2.030179   0.69152458   -1.3386544   0.13457314    11302.048     1000 
 1326000   0.44735156   -2.0165463   0.67035632     -1.34619   0.14297938     11250.62     1000 
 1328000   0.43417216   -2.0685595   0.65060699   -1.4179526   0.11498761    11546.377     1000 
 1330000   0.46950638   -2.0797827    0.7035553   -1.3762274   0.12057189    11423.824     1000 
 1332000   0.46713744   -2.0780879   0.70000545   -1.3780825   0.14119149    11275.843     1000 
 1334000   0.46964389   -2.0595244   0.70376137    -1.355763   0.14247367    11330.908     1000 
 1336000   0.44967612   -2.0173996   0.67383966   -1.3435599   0.12904387    11374.636     1000 
 1338000   0.44064685    -2.012777   0.66030931   -1.3524677   0.12205288    11347.039     1000 
 1340000   0.45206692   -2.0617297   0.67742228   -1.3843075   0.13051926    11341.877     1000 
 1342000   0.47007639   -2.0598343   0.70440947   -1.3554248   0.13051815    11463.519     1000 
 1344000   0.46873851   -1.9941106   0.70240465    -1.291706    0.1327921    11216.693     1000 
 1346000    0.4756136   -2.0118279   0.71270698   -1.2991209   0.13316798    11341.216     1000 
 1348000   0.47239776   -2.0506203   0.70788804   -1.3427322   0.13131536    11337.386     1000 
 1350000    0.4549639   -2.0883332    0.6817634   -1.4065698    0.1255376    11354.368     1000 
 1352000   0.45819792   -2.0317733   0.68660958   -1.3451637   0.11385685    11507.702     1000 
 1354000   0.45385464   -1.9990917   0.68010118   -1.3189906   0.12837307    11396.567     1000 
 1356000   0.45529011   -2.0295502   0.68225223   -1.3472979   0.13776683    11403.013     1000 
 1358000    0.4694174   -2.0318537   0.70342198   -1.3284317   0.14162346    11253.142     1000 
 1360000   0.44758278   -2.0456811   0.67070279   -1.3749783   0.11374359    11456.121     1000 
 1362000   0.46704517   -2.0060866   0.69986719   -1.3062194   0.12567574     11312.74     1000 
 1364000   0.48112233   -2.0337861   0.72096181   -1.3128243   0.12828237    11331.277     1000 
 1366000   0.46872732   -2.0624645   0.70238788   -1.3600767    0.1238228    11345.225     1000 
 1368000   0.46219426   -2.0503123    0.6925981   -1.3577142    0.1229578    11382.776     1000 
 1370000   0.46585195   -2.0525897   0.69807915   -1.3545105    0.1349331    11424.648     1000 
 1372000   0.46172028    -2.006602   0.69188784   -1.3147141   0.14114949     11301.36     1000 
 1374000   0.47574221   -2.0071214   0.71289971   -1.2942217   0.12701234    11352.756     1000 
 1376000   0.44772675     -2.05596   0.67091854   -1.3850414   0.11713146    11318.057     1000 
 1378000   0.45787101   -2.0335816   0.68611971   -1.3474619   0.13281981    11400.121     1000 
 1380000   0.46297493   -2.0215893   0.69376793   -1.3278213   0.14033987    11209.399     1000 
 1382000   0.46475483   -2.0264244   0.69643511   -1.3299893   0.11984351     11368.89     1000 
 1384000   0.46987687   -2.0407852   0.70411049   -1.3366748   0.13258505    11412.585     1000 
 1386000   0.47119452   -2.0373122   0.70608498   -1.3312272   0.13000316     11438.68     1000 
 1388000   0.46783196   -2.0030572    0.7010462    -1.302011   0.13362312     11299.07     1000 
 1390000   0.46245094   -2.0548094   0.69298274   -1.3618267   0.13612649    11325.122     1000 
 1392000   0.45612096   -2.0687512   0.68349726   -1.3852539   0.12117563     11415.66     1000 
 1394000   0.45521239   -2.0557594   0.68213577   -1.3736237   0.13860035    11244.131     1000 
 1396000   0.45950805   -2.0323905   0.68857281   -1.3438177   0.12451644    11542.955     1000 
 1398000   0.47520233   -2.0574052   0.71209069   -1.3453145   0.12285633    11464.167     1000 
 1400000   0.46221384   -2.0520203   0.69262743   -1.3593928   0.12922277    11392.242     1000 
 1402000    0.4596168   -2.0517862   0.68873577   -1.3630505   0.12370527    11436.085     1000 
 1404000   0.45183897   -2.0314473    0.6770807   -1.3543666   0.13153929    11332.428     1000 
 1406000   0.44531165   -2.0261677   0.66729951   -1.3588682   0.12977029     11369.45     1000 
 1408000    0.4506063   -2.0439569   0.67523354   -1.3687234   0.12498668    11458.966     1000 
 1410000    0.4685261   -2.0278695   0.70208636   -1.3257831   0.13434981     11393.92     1000 
 1412000   0.46524212   -2.0099184   0.69716532    -1.312753   0.13911857    11280.337     1000 
 1414000   0.44484596    -2.000442   0.66660168   -1.3338403    0.1198409    11495.832     1000 
 1416000   0.47405803    -1.983574   0.71037596   -1.2731981    0.1288358    11365.872     1000 
 1418000   0.45503737   -2.0746307    0.6818735   -1.3927572   0.13449986    11299.887     1000 
 1420000   0.45851306   -2.0364369   0.68708182   -1.3493551   0.13150089    11305.178     1000 
 1422000   0.45218317   -2.0025652   0.67759649   -1.3249688   0.13920331    11197.368     1000 
 1424000   0.47138262   -2.0831875   0.70636686   -1.3768206   0.13244213    11456.202     1000 
 1426000   0.46767661     -1.99839    0.7008134   -1.2975766   0.13129637    11373.033     1000 
 1428000   0.45259037   -2.0546356   0.67820666   -1.3764289   0.12875134    11404.722     1000 
 1430000   0.46037634   -2.0895959   0.68987394   -1.3997219   0.12744123    11498.919     1000 
 1432000   0.46916858    -2.038513   0.70304911   -1.3354639   0.13363387    11367.079     1000 
 1434000   0.46074199   -2.0749833   0.69042187   -1.3845614   0.12472698     11390.07     1000 
 1436000   0.45193235   -2.0689848   0.67722062   -1.3917642   0.13439964    11464.319     1000 
 1438000   0.49143985   -2.0213893   0.73642261   -1.2849667    0.1415487    11345.465     1000 
 1440000   0.46540487   -2.0017098    0.6974092   -1.3043006   0.14151686    11249.194     1000 
 1442000    0.4774519   -2.0819812   0.71546166   -1.3665196   0.12737525    11459.954     1000 
 1444000   0.45037763   -2.0191137   0.67489088   -1.3442228   0.11330011    11512.896     1000 
 1446000   0.45191327   -2.0926297   0.67719204   -1.4154377   0.12388383    11418.444     1000 
 1448000   0.45928064   -2.0074086   0.68823204   -1.3191766   0.12856106    11405.657     1000 
 1450000    0.4590199   -2.0098918   0.68784131   -1.3220505   0.12526569    11398.726     1000 
 1452000   0.46791732   -2.0554925    0.7011741   -1.3543184   0.12823046    11391.021     1000 
 1454000   0.45466391   -2.0315135   0.68131387   -1.3501996    0.1256007    11360.129     1000 
 1456000   0.44308745   -2.0203923   0.66396654   -1.3564257   0.13437738    11317.485     1000 
 1458000   0.44920692   -2.0281307   0.67313657   -1.3549941   0.12681777    11305.537     1000 
 1460000   0.46174108   -2.0901899   0.69191901   -1.3982709    0.1311578     11418.66     1000 
 1462000   0.46266253   -2.0625775   0.69329981   -1.3692777   0.12164988    11492.326     1000 
 1464000    0.4691004    -2.029785   0.70294695   -1.3268381   0.11919466    11555.633     1000 
 1466000   0.49252291   -2.0309671   0.73804558   -1.2929215   0.12772403    11416.208     1000 
 1468000   0.44660976   -2.0351321   0.66924472   -1.3658873    0.1303982    11409.518     1000 
 1470000   0.46067646   -2.0370701   0.69032367   -1.3467464   0.12906407    11372.521     1000 
 1472000   0.46648982   -2.0343103     0.699035   -1.3352753   0.12286806    11407.979     1000 
 1474000   0.48291218   -2.0105297   0.72364391   -1.2868858   0.12897461    11362.301     1000 
 1476000   0.45514039   -2.0300195   0.68202787   -1.3479917   0.12860522    11327.085     1000 
 1478000   0.47538422   -2.0225879   0.71236326   -1.3102247   0.13240474    11285.776     1000 
 1480000   0.44899506   -2.0172459   0.67281909   -1.3444269    0.1273011    11307.528     1000 
 1482000   0.44636843   -2.0380834   0.66888309   -1.3692003   0.12422954    11347.789     1000 
 1484000   0.47760074   -2.0136091   0.71568471   -1.2979244     0.133526    11219.523     1000 
 1486000   0.45866516   -2.0178117   0.68730974    -1.330502   0.13349765    11375.739     1000 
 1488000   0.48210333   -2.0179335   0.72243185   -1.2955017     0.127971    11325.507     1000 
 1490000    0.4334052   -2.0303703    0.6494577   -1.3809126   0.13617768    11327.183     1000 
 1492000   0.45834209   -2.0678256   0.68682563       -1.381   0.12953674    11438.973     1000 
 1494000   0.45381571   -2.0323659   0.68004284   -1.3523231    0.1291694     11305.15     1000 
 1496000   0.47652099   -2.0359187    0.7140667    -1.321852   0.14574333    11245.685     1000 
 1498000     0.453381    -2.010177   0.67939143   -1.3307856   0.12857221     11308.51     1000 
 1500000   0.46126916    -1.965976   0.69121184   -1.2747641   0.12482505    11240.687     1000 
 1502000   0.43279602   -2.0524357   0.64854484   -1.4038909   0.12689531    11387.792     1000 
 1504000   0.47713897   -1.9852303   0.71499274   -1.2702376   0.14247017    11255.657     1000 
 1506000   0.44885688   -2.0088506   0.67261203   -1.3362386   0.13500882     11255.63     1000 
 1508000   0.46761093     -2.05632   0.70071498   -1.3556051   0.11265965    11514.293     1000 
 1510000   0.47182918   -2.0636952   0.70703603   -1.3566592   0.14553424    11224.902     1000 
 1512000   0.44763166   -2.0348541   0.67077604   -1.3640781   0.13073488    11511.228     1000 
 1514000   0.46618013   -2.0976584   0.69857092   -1.3990875   0.13186033    11382.401     1000 
 1516000    0.4716806   -2.0831033   0.70681338     -1.37629    0.1200592    11497.103     1000 
 1518000   0.46270353   -2.0484634   0.69336124   -1.3551022   0.12967135    11362.944     1000 
 1520000   0.47136712   -2.0544024   0.70634362   -1.3480587   0.12447714    11398.294     1000 
 1522000    0.4777355   -1.9828989   0.71588665   -1.2670122   0.12819047    11287.712     1000 
 1524000   0.47057634    -2.058576   0.70515864   -1.3534174   0.11109895    11476.893     1000 
 1526000   0.46275084   -1.9869697   0.69343213   -1.2935376   0.12253438    11306.656     1000 
 1528000   0.47547598   -2.0615174   0.71250075   -1.3490166   0.12898261    11464.987     1000 
 1530000   0.46537817   -2.0649904    0.6973692   -1.3676212   0.14619216    11287.645     1000 
 1532000   0.47587008   -2.0144235   0.71309132   -1.3013321   0.13627294    11265.851     1000 
 1534000   0.47290334    -2.012027   0.70864566   -1.3033813    0.1256711    11379.095     1000 
 1536000   0.47035488   -2.0355615   0.70482679   -1.3307347   0.12258887    11450.666     1000 
 1538000   0.45073111   -2.0439954   0.67542056   -1.3685749    0.1352111    11216.587     1000 
 1540000   0.47158384   -2.0242259   0.70666839   -1.3175575   0.13998886    11310.609     1000 
 1542000   0.43752229   -2.0388789   0.65562715   -1.3832518   0.12915211    11397.487     1000 
 1544000   0.47683938   -2.0320538   0.71454381     -1.31751   0.13232501    11384.538     1000 
 1546000   0.45648075    -2.044628    0.6840364   -1.3605916     0.128618     11379.88     1000 
 1548000   0.45764221    -2.071534   0.68577685   -1.3857572    0.1418856    11219.643     1000 
 1550000   0.44660028   -2.0511583   0.66923052   -1.3819278   0.12388731    11357.934     1000 
 1552000   0.45868513   -2.0351427   0.68733966    -1.347803   0.12749998    11422.299     1000 
 1554000   0.43418239   -2.0831523   0.65062231     -1.43253    0.1237797    11349.032     1000 
 1556000   0.45038121    -2.032935   0.67489624   -1.3580388   0.12451991    11496.443     1000 
 1558000   0.45465617   -2.0418819   0.68130228   -1.3605796   0.13240904    11267.595     1000 
 1560000   0.45941373   -2.0560163   0.68843147   -1.3675849   0.13172562    11394.907     1000 
 1562000   0.45233433    -1.986469     0.677823    -1.308646   0.13666043    11238.881     1000 
 1564000   0.44573207   -2.0405131    0.6679295   -1.3725836   0.12106385    11504.293     1000 
 1566000   0.47110897   -2.0174246   0.70595679   -1.3114678   0.12185267    11448.396     1000 
 1568000   0.45356269   -2.0202517   0.67966369    -1.340588   0.14014224    11362.302     1000 
 1570000   0.45012705   -2.0521121   0.67451538   -1.3775967   0.12847665    11179.758     1000 
 1572000   0.46650569   -1.9957075   0.69905877   -1.2966487   0.13563834    11307.553     1000 
 1574000   0.44160231   -2.0079499   0.66174106   -1.3462088   0.12877841    11307.341     1000 
 1576000    0.4680255   -2.0923348   0.70133621   -1.3909986   0.13608806    11343.177     1000 
 1578000   0.45357076   -2.0084349   0.67967579   -1.3287591   0.12531628    11388.252     1000 
 1580000   0.44988881   -2.0093011   0.67415838   -1.3351427   0.13316778    11299.573     1000 
 1582000   0.46859163   -2.0208124   0.70218456   -1.3186279   0.12278739    11339.995     1000 
 1584000   0.45759385   -2.0313703   0.68570438    -1.345666   0.12267978    11445.792     1000 
 1586000   0.44945666   -2.0578237    0.6735108   -1.3843129   0.11568123    11503.167     1000 
 1588000   0.46714951    -2.061159   0.70002355   -1.3611355    0.1332779    11400.268     1000 
 1590000   0.46011569   -2.0424934   0.68948336     -1.35301   0.13134202    11342.689     1000 
 1592000   0.46185611   -2.0759212   0.69209138   -1.3838298   0.12795558    11376.089     1000 
 1594000   0.43658012    -1.993636   0.65421532   -1.3394207    0.1209377    11408.422     1000 
 1596000   0.45427216   -2.0436643   0.68072684   -1.3629374   0.13368285    11399.959     1000 
[...]
 2612000   0.47439295   -1.9771168   0.71087784    -1.266239   0.12933902    11170.781     1000 
 2614000   0.45506335   -2.0442227   0.68191243   -1.3623102   0.12954951    11514.272     1000 
 2616000   0.46772481    -2.034121   0.70088563   -1.3332354   0.13698126    11394.521     1000 
 2618000   0.45905444    -2.114904   0.68789308   -1.4270109   0.12763018    11476.685     1000 
 2620000   0.46993734   -2.0157171    0.7042011    -1.311516   0.11967959    11469.508     1000 
 2622000    0.4930237   -2.0829821   0.73879602   -1.3441861   0.11537056    11550.733     1000 
 2624000   0.47441805   -2.0946449   0.71091544   -1.3837295   0.12285585    11543.706     1000 
 2626000   0.45104354   -2.0400069   0.67588874   -1.3641181   0.12123695    11444.466     1000 
 2628000   0.47646793   -2.0798466    0.7139872   -1.3658594   0.13440549    11349.647     1000 
 2630000   0.45908977   -2.0043099   0.68794602   -1.3163639   0.11777494    11439.708     1000 
 2632000   0.46086761   -2.0662096   0.69061011   -1.3755995   0.12948216    11324.683     1000 
 2634000   0.43512122   -1.9863869   0.65202914   -1.3343577   0.12731179     11328.29     1000 
 2636000   0.46016845   -2.0435446   0.68956242   -1.3539822   0.11573525    11485.789     1000 
 2638000   0.45875222   -2.0475139    0.6874402   -1.3600737   0.11890588    11406.145     1000 
 2640000   0.45493353   -2.0130345   0.68171789   -1.3313166   0.13372403    11276.304     1000 
 2642000   0.44900413   -2.0068949   0.67283268   -1.3340622   0.12693989    11496.703     1000 
 2644000   0.46451893   -2.0494865   0.69608161   -1.3534049    0.1240004    11275.303     1000 
 2646000   0.44610583   -2.0318289   0.66848959   -1.3633393   0.13142954    11380.786     1000 
 2648000   0.46933761   -2.0646102   0.70330241   -1.3613078   0.13361183    11320.917     1000 
 2650000    0.5002901    -2.078069   0.74968471   -1.3283843   0.12489882    11450.476     1000 
 2652000   0.44765792   -2.0502302    0.6708154   -1.3794148   0.13351613    11341.401     1000 
 2654000   0.46481042   -2.0292372   0.69651841   -1.3327188   0.14499638     11206.81     1000 
 2656000    0.4741775   -2.1126046   0.71055498   -1.4020496   0.11897285     11584.75     1000 
 2658000   0.45142749   -2.0876486   0.67646409   -1.4111845   0.14185815    11347.603     1000 
 2660000   0.45264489   -2.0451976   0.67828836   -1.3669092   0.12976308    11309.528     1000 
 2662000   0.44965959   -2.0487173   0.67381489   -1.3749024   0.13107313    11290.759     1000 
 2664000   0.44551657   -2.0046039   0.66760658   -1.3369974    0.1288484    11268.271     1000 
 2666000   0.49326839   -2.0334492   0.73916268   -1.2942865   0.13113474    11378.656     1000 
 2668000   0.48398274   -2.0750474   0.72524814   -1.3497993   0.13877058    11316.497     1000 
 2670000   0.45467603   -2.0324875   0.68133203   -1.3511555   0.12664303    11466.501     1000 
 2672000   0.45502043   -2.0799203   0.68184812   -1.3980721   0.12806193    11337.332     1000 
 2674000   0.48406921   -2.0161697   0.72537771    -1.290792   0.13257464     11346.61     1000 
 2676000   0.46148559    -2.054561   0.69153616   -1.3630249    0.1222972    11469.089     1000 
 2678000   0.46108173   -2.0548852   0.69093098   -1.3639542   0.12292049    11451.605     1000 
 2680000   0.43228199   -2.0028719   0.64777456   -1.3550974   0.12337021    11453.769     1000 
 2682000   0.47930257   -2.0388119    0.7182349    -1.320577       0.1412    11295.212     1000 
 2684000   0.44541109   -2.0113481   0.66744851   -1.3438996   0.13011928    11274.517     1000 
 2686000   0.44334369   -2.0457086   0.66435052   -1.3813581   0.13030749    11508.584     1000 
 2688000   0.47467025   -2.0475906   0.71129337   -1.3362973    0.1303619    11485.343     1000 
 2690000   0.43975967   -2.0945007   0.65897986   -1.4355208   0.13244322    11452.284     1000 
 2692000   0.44085287   -2.0302026   0.66061802   -1.3695846   0.12372851    11368.116     1000 
 2694000   0.46649397    -2.067766   0.69904121   -1.3687247   0.13013112    11417.251     1000 
 2696000   0.46334989   -1.9916848   0.69432981    -1.297355   0.12953276    11324.566     1000 
 2698000   0.46940441   -2.0222977    0.7034025   -1.3188952   0.13377696    11374.728     1000 
 2700000   0.48007611   -2.0006653   0.71939405   -1.2812712    0.1420886    11349.735     1000 
 2702000   0.46930288   -2.0646075   0.70325037   -1.3613572   0.13747993    11401.117     1000 
 2704000   0.45486199   -1.9991614   0.68161069   -1.3175507   0.13282792    11290.082     1000 
 2706000   0.45997538   -2.0732083   0.68927311   -1.3839352   0.12350932    11529.753     1000 
 2708000   0.46177985   -2.1003289    0.6919771   -1.4083518     0.113974    11540.301     1000 
 2710000   0.44459178   -2.0229705   0.66622078   -1.3567497   0.11423774    11488.159     1000 
 2712000   0.43677112   -2.0257577   0.65450152   -1.3712562    0.1325157    11396.909     1000 
 2714000   0.48912151   -2.0332372   0.73294858   -1.3002886   0.12947477    11429.345     1000 
 2716000   0.46168405   -2.0435134   0.69183355   -1.3516799   0.13665655    11283.802     1000 
 2718000    0.4591224   -2.0503578   0.68799491   -1.3623628   0.12680474    11498.445     1000 
 2720000   0.45527691   -2.0392688   0.68223245   -1.3570363   0.13039873    11351.737     1000 
 2722000   0.46424648    -2.063379   0.69567335   -1.3677056   0.12062556    11401.831     1000 
 2724000   0.47908251   -2.0506094   0.71790513   -1.3327043   0.13316139    11397.147     1000 
 2726000    0.4739759   -2.0291012   0.71025289   -1.3188483   0.12063774    11421.931     1000 
 2728000   0.46236325   -2.0447715   0.69285133   -1.3519201   0.14179149    11224.008     1000 
 2730000   0.44863911   -2.0677716   0.67228571   -1.3954859   0.12418319    11323.912     1000 
 2732000   0.45017642   -2.0400867   0.67458937   -1.3654974   0.13792955    11215.889     1000 
 2734000   0.47389724   -2.0783516   0.71013502   -1.3682165   0.12493461    11413.863     1000 
 2736000    0.4358602   -2.0304919   0.65313651   -1.3773554   0.13002878     11283.66     1000 
 2738000    0.4479691   -2.0980668    0.6712817   -1.4267851   0.11684912    11474.523     1000 
 2740000   0.46878761   -2.0168848   0.70247824   -1.3144066   0.12660445    11439.905     1000 
 2742000   0.45773155   -2.0345088   0.68591073    -1.348598   0.14556657    11274.497     1000 
 2744000   0.46157906   -2.0168365   0.69167622   -1.3251603   0.12598172    11359.349     1000 
 2746000   0.45265803   -2.0242169   0.67830806   -1.3459088   0.11571858    11471.568     1000 
 2748000   0.47373337   -2.0170222   0.70988945   -1.3071328    0.1336437    11255.846     1000 
 2750000   0.48802987   -2.0506457   0.73131275    -1.319333   0.13352528    11330.657     1000 
 2752000   0.44853179   -2.0161924   0.67212489   -1.3440675   0.12486774    11401.762     1000 
 2754000   0.44130286   -2.0450399   0.66129233   -1.3837476   0.13945165    11293.333     1000 
 2756000    0.4579237   -1.9832625   0.68619867   -1.2970639   0.13729381    11260.497     1000 
 2758000   0.46073794   -1.9878685   0.69041581   -1.2974526    0.1375902    11121.395     1000 
 2760000   0.47197588   -2.0615551   0.70725585   -1.3542992   0.12295343    11564.814     1000 
 2762000   0.45862776   -2.0248282    0.6872537   -1.3375745   0.13154838    11327.141     1000 
 2764000   0.46307864   -2.0285075   0.69392334   -1.3345841   0.12954838    11311.442     1000 
 2766000   0.46343674   -2.0324292   0.69445995   -1.3379693   0.12939524    11314.621     1000 
 2768000   0.44361238   -1.9856605   0.66475316   -1.3209074   0.12291616    11468.865     1000 
 2770000    0.4697039   -2.0552659   0.70385129   -1.3514147   0.13952021    11348.437     1000 
 2772000   0.45164286   -2.0435856   0.67678682   -1.3667988   0.13719842    11304.086     1000 
 2774000   0.45606618   -2.0041936   0.68341517   -1.3207784   0.14156892    11276.801     1000 
 2776000   0.45637251   -2.0119714   0.68387421   -1.3280972   0.13261457    11380.387     1000 
 2778000   0.44771049   -2.0271347   0.67089416   -1.3562406    0.1250953    11393.165     1000 
 2780000   0.43981241   -2.0624275   0.65905889   -1.4033686   0.14347082    11238.822     1000 
 2782000   0.48742494   -2.0181194   0.73040627   -1.2877131   0.12795938    11507.986     1000 
 2784000   0.46701204   -2.0373356   0.69981755    -1.337518   0.12510021    11405.366     1000 
 2786000   0.45852442   -2.0381876   0.68709884   -1.3510888   0.13236308    11255.736     1000 
 2788000   0.43557282   -2.0611172   0.65270587   -1.4084114   0.12718957    11487.812     1000 
 2790000   0.46175015    -2.036301    0.6919326   -1.3443684   0.12245938    11348.068     1000 
 2792000   0.47040498   -1.9884356   0.70490186   -1.2835337   0.13762402    11332.082     1000 
 2794000   0.44394035   -1.9954945   0.66524461   -1.3302498   0.13759337    11365.907     1000 
 2796000   0.45697419   -2.0143621   0.68477582   -1.3295863   0.12806084    11381.443     1000 
 2798000   0.44664182   -2.0684229   0.66929277   -1.3991302   0.12356407    11522.368     1000 
 2800000   0.44394727   -2.0709842   0.66525499   -1.4057292   0.11823903    11478.256     1000 
 2802000   0.45853545   -1.9804737   0.68711538   -1.2933583   0.13998017    11269.758     1000 
 2804000   0.47292222   -2.0152596   0.70867395   -1.3065856    0.1314299    11264.105     1000 
 2806000   0.43959199   -2.0255632   0.65872859   -1.3668346   0.12144407    11374.702     1000 
 2808000   0.45142952   -2.0586178   0.67646713   -1.3821506   0.13266871    11432.263     1000 
 2810000   0.47482733   -2.0325492   0.71152876   -1.3210205   0.12866616    11434.135     1000 
 2812000   0.45937506   -2.0020563   0.68837353   -1.3136828   0.13329834    11326.344     1000 
 2814000   0.44728975   -1.9983282   0.67026368   -1.3280645    0.1225388    11428.058     1000 
 2816000   0.46767389   -2.0610359   0.70080933   -1.3602266   0.13317225    11404.417     1000 
 2818000   0.45163628   -2.0518057   0.67677697   -1.3750287   0.13546907    11334.448     1000 
 2820000   0.46553627   -2.0229436    0.6976061   -1.3253375   0.12475718    11446.829     1000 
 2822000   0.45826051   -2.0946337   0.68670337   -1.4079304   0.12696805    11500.467     1000 
 2824000   0.45492424   -2.0949055   0.68170398   -1.4132015    0.1177394    11527.726     1000 
 2826000   0.45784027   -2.0368966   0.68607364    -1.350823   0.12582914    11433.583     1000 
 2828000   0.44432966   -2.0262662     0.665828   -1.3604382   0.11777757    11452.576     1000 
 2830000   0.47481441   -2.0154531   0.71150939   -1.3039437   0.13856301    11289.197     1000 
 2832000   0.45690759   -2.0521372   0.68467602   -1.3674612   0.11942715    11476.968     1000 
 2834000   0.45303779   -2.0317461   0.67887713    -1.352869   0.13166045    11343.509     1000 
 2836000   0.46621052   -2.0377526   0.69861646   -1.3391361    0.1254022    11274.159     1000 
 2838000   0.46502597   -1.9793356   0.69684141   -1.2824942   0.15130216    11126.682     1000 
 2840000    0.4475874   -2.0134447   0.67070972    -1.342735   0.13335804    11515.192     1000 
 2842000   0.46894161   -2.0685857   0.70270901   -1.3658767   0.12700172    11417.233     1000 
 2844000   0.47330636   -2.0486001   0.70924958   -1.3393505   0.13704853    11355.051     1000 
 2846000   0.45409401   -1.9958097   0.68045987   -1.3153498   0.12504672    11315.179     1000 
 2848000   0.44944223   -2.0285983   0.67348918   -1.3551091   0.12067192    11479.255     1000 
 2850000   0.45345357   -2.0704921   0.67950018   -1.3909919   0.14024548    11138.123     1000 
 2852000   0.46821726   -2.0761758   0.70162356   -1.3745522   0.12453327    11497.356     1000 
 2854000   0.47157461    -2.009161   0.70665456   -1.3025064   0.12798904    11380.565     1000 
 2856000   0.45852289   -2.0309881   0.68709656   -1.3438915    0.1321583    11336.702     1000 
 2858000   0.48351445   -2.0236888    0.7245464   -1.2991424    0.1347038    11354.957     1000 
 2860000   0.47418191   -2.0252961   0.71056159   -1.3147345   0.14468725    11219.775     1000 
 2862000   0.45933843   -2.0314963   0.68831864   -1.3431777   0.12867833    11368.229     1000 
 2864000   0.45167036   -2.0393018   0.67682803   -1.3624737   0.13338486    11323.624     1000 
 2866000    0.4377656   -2.0657031   0.65599175   -1.4097114   0.12558138    11467.063     1000 
 2868000   0.46182589   -2.0255135    0.6920461   -1.3334674   0.12767812    11418.452     1000 
 2870000   0.46346647   -2.0472476   0.69450451   -1.3527431    0.1328273    11444.019     1000 
 2872000   0.45882576   -2.0416229    0.6875504   -1.3540725   0.13722486    11359.852     1000 
 2874000   0.48005128   -2.0568706   0.71935685   -1.3375137   0.13490887    11272.732     1000 
 2876000   0.44248946   -2.0531163   0.66307045   -1.3900458   0.12434957    11394.679     1000 
 2878000   0.49480963   -2.0427373   0.74147223   -1.3012651   0.13064656     11425.77     1000 
 2880000   0.46166188    -2.052549   0.69180033   -1.3607486   0.13091354    11436.845     1000 
 2882000   0.44657844   -2.0386495   0.66919779   -1.3694517    0.1376697    11306.505     1000 
 2884000   0.47604194    -2.045716   0.71334885   -1.3323672   0.13099539    11371.897     1000 
 2886000   0.48394115   -2.0238053   0.72518582   -1.2986195   0.12671402    11375.835     1000 
 2888000   0.46506747      -2.0263   0.69690361   -1.3293964   0.13666009    11296.027     1000 
 2890000   0.44411846   -2.0218727   0.66551152   -1.3563612   0.13343391    11307.963     1000 
 2892000   0.45022907   -2.0084424   0.67466827   -1.3337742    0.1243615    11488.244     1000 
 2894000   0.46388825   -2.0155029   0.69513654   -1.3203663   0.12841314    11300.083     1000 
 2896000   0.45344067   -2.0135264   0.67948085   -1.3340455   0.12515573    11441.193     1000 
 2898000   0.43801535   -2.0110289     0.656366   -1.3546629   0.13030283     11406.31     1000 
 2900000   0.45243183   -2.0672765    0.6779691   -1.3893074   0.12130655    11496.489     1000 
 2902000   0.44570472   -2.0163156   0.66788852   -1.3484271    0.1259602    11345.962     1000 
 2904000   0.46550087   -2.0157622   0.69755305   -1.3182091   0.11639333    11448.057     1000 
 2906000   0.45604681   -2.0401858   0.68338615   -1.3567997   0.13415624    11412.878     1000 
 2908000   0.45157253   -2.0162245   0.67668144   -1.3395431   0.13946161    11371.515     1000 
 2910000   0.45917409   -1.9980933   0.68807237   -1.3100209    0.1388084    11218.542     1000 
 2912000   0.47740223     -1.99955   0.71538724   -1.2841628   0.13262801    11304.995     1000 
 2914000   0.46232397   -1.9812541   0.69279247   -1.2884617   0.12632112      11313.7     1000 
 2916000   0.45181504    -1.998767   0.67704484   -1.3217222   0.13370179    11234.728     1000 
 2918000   0.47531062   -1.9880071   0.71225296   -1.2757541   0.14204425    11312.144     1000 
 2920000   0.48984894   -2.0207758   0.73403863   -1.2867372   0.12838703    11528.085     1000 
 2922000   0.46012499   -2.0407871    0.6894973   -1.3512898   0.13499442    11317.721     1000 
 2924000   0.45397531   -2.0299764     0.680282   -1.3496944   0.14840759    11221.397     1000 
 2926000   0.44550985    -2.064569   0.66759652   -1.3969725   0.11111586    11543.096     1000 
 2928000   0.46163524   -1.9818409   0.69176041   -1.2900805   0.13168917    11340.989     1000 
 2930000    0.4588393   -2.0293326   0.68757069   -1.3417619    0.1262723    11430.396     1000 
 2932000   0.46799897   -2.0458989   0.70129645   -1.3446025   0.12864791    11264.156     1000 
 2934000   0.45760761   -1.9775439     0.685725   -1.2918189   0.12726662    11388.055     1000 
 2936000   0.46130931   -2.0385892     0.691272   -1.3473172   0.12973211    11320.909     1000 
 2938000   0.46589748   -2.0638944   0.69814738    -1.365747   0.13623425    11320.393     1000 
 2940000   0.45712629   -2.0142838   0.68500375     -1.32928   0.13032519    11493.901     1000 
 2942000   0.44313439   -2.0519733   0.66403689   -1.3879365   0.12442666    11393.374     1000 
 2944000   0.45975252   -2.0152765   0.68893916   -1.3263374   0.12766857    11507.916     1000 
 2946000   0.47078401   -2.0452358   0.70546984   -1.3397659   0.14515456    11210.318     1000 
 2948000   0.46020062   -2.0204798   0.68961062   -1.3308692   0.13472481    11381.472     1000 
 2950000   0.46236769   -2.0864686   0.69285798   -1.3936106   0.12215492    11402.105     1000 
 2952000   0.46943574   -2.0203824   0.70344946   -1.3169329   0.13647099    11237.884     1000 
 2954000    0.4594972   -2.0601267   0.68855655   -1.3715702   0.12336254    11470.462     1000 
 2956000   0.46062468   -2.0613928   0.69024608   -1.3711467   0.12261701    11597.242     1000 
 2958000   0.46332206    -2.019027    0.6942881   -1.3247389   0.13089108    11354.728     1000 
 2960000   0.45376699   -1.9929386   0.67996984   -1.3129688   0.13082619    11353.489     1000 
 2962000   0.46750102   -2.0179657   0.70055028   -1.3174154   0.11850462    11367.454     1000 
 2964000   0.46471731   -2.0334141   0.69637889   -1.3370352   0.13043114    11353.411     1000 
 2966000   0.47525315   -2.0930159   0.71216684   -1.3808491   0.13104069    11506.564     1000 
 2968000   0.47794609    -2.074829   0.71620221   -1.3586268    0.1132681    11500.855     1000 
 2970000     0.469049    -2.080934   0.70286993    -1.378064   0.12120561    11451.576     1000 
 2972000   0.45074084   -2.0663109   0.67543515   -1.3908758   0.13857072    11377.368     1000 
 2974000   0.45792243   -2.0867128   0.68619677    -1.400516   0.12678429    11507.409     1000 
 2976000   0.44505057   -2.0245985   0.66690828   -1.3576902   0.13338524    11363.492     1000 
 2978000   0.45865013   -2.0078548   0.68728723   -1.3205676   0.11973283    11483.425     1000 
 2980000   0.44677166   -2.0653675   0.66948733   -1.3958802   0.12440475    11406.226     1000 
 2982000   0.45073427   -2.0657721    0.6754253   -1.3903468   0.12316257    11475.116     1000 
 2984000    0.4697607   -2.0417727    0.7039364   -1.3378363   0.13449749    11434.022     1000 
 2986000   0.47443878   -2.0498048   0.71094652   -1.3388583   0.12072603    11482.729     1000 
 2988000   0.45515646   -2.0130716   0.68205196   -1.3310197   0.12889167    11413.825     1000 
 2990000   0.47483636   -2.0231655   0.71154228   -1.3116233   0.13597712    11257.828     1000 
 2992000   0.47095536    -2.070438   0.70572661   -1.3647114   0.12830305    11332.251     1000 
 2994000   0.44483883   -2.0306224   0.66659099   -1.3640314   0.12188575    11424.011     1000 
 2996000   0.43588835   -1.9838182   0.65317869   -1.3306395   0.13450223    11303.928     1000 
 2998000   0.47941732   -2.0237397   0.71840685   -1.3053329   0.14053089    11262.624     1000 
 3000000   0.45932526   -2.0824889    0.6882989     -1.39419   0.13227196     11348.53     1000 
Loop time of 1303.14 on 4 procs for 3000000 steps with 1000 atoms

Performance: 994517.219 tau/day, 2302.123 timesteps/s
95.6% CPU use with 4 MPI tasks x no OpenMP threads

MPI task timing breakdown:
Section |  min time  |  avg time  |  max time  |%varavg| %total
---------------------------------------------------------------
Pair    | 823.02     | 924.37     | 980.72     | 198.2 | 70.93
Neigh   | 77.081     | 83.855     | 87.316     |  43.5 |  6.43
Comm    | 173.01     | 234.34     | 344.95     | 429.6 | 17.98
Output  | 0.027616   | 0.030681   | 0.039094   |   2.8 |  0.00
Modify  | 51.145     | 52.827     | 53.751     |  13.7 |  4.05
Other   |            | 7.723      |            |       |  0.59

Nlocal:    250 ave 256 max 242 min
Histogram: 1 0 0 0 0 1 0 1 0 1
Nghost:    1710.5 ave 1721 max 1694 min
Histogram: 1 0 0 0 0 0 0 2 0 1
Neighs:    14521.2 ave 14817 max 13968 min
Histogram: 1 0 0 0 0 0 1 0 0 2

Total # of neighbors = 58085
Ave neighs/atom = 58.085
Neighbor list builds = 150000
Dangerous builds not checked

Total wall time: 0:21:43
