LAMMPS (3 Mar 2020)
# ----------------------- Inicialização -----------------------

units			lj
atom_style 		atomic
dimension 		3
boundary 		p p p

# -------------------- Criação dos Átomos ---------------------

read_data 		topologia.txt
  orthogonal box = (0 0 0) to (21.54 21.54 21.54)
  1 by 2 by 2 MPI processor grid
  reading atoms ...
  1000 atoms
  read_data CPU = 0.00242015 secs

velocity 		all create ${temp} 87287 rot yes dist gaussian
velocity 		all create 0.45 87287 rot yes dist gaussian

# ------------------ Interação Interatômica -------------------

pair_style		table linear 1300
pair_coeff		1 1 force.table AA 6.5
WARNING: 2 of 1300 force values in table are inconsistent with -dE/dr.
  Should only be flagged at inflection points (src/pair_table.cpp:483)
pair_coeff		1 2 force.table AB 6.5
WARNING: 1 of 1300 force values in table are inconsistent with -dE/dr.
  Should only be flagged at inflection points (src/pair_table.cpp:483)
pair_coeff		2 2 force.table BB 6.5
pair_write		1 1 1600 r 0.008 6.5 table.check AA
Neighbor list info ...
  update every 1 steps, delay 10 steps, check yes
  max neighbors/atom: 2000, page size: 100000
  master list distance cutoff = 6.8
  ghost atom cutoff = 6.8
  binsize = 3.4, bins = 7 7 7
  1 neighbor lists, perpetual/occasional/extra = 1 0 0
  (1) pair table, perpetual
      attributes: half, newton on
      pair build: half/bin/atomonly/newton
      stencil: half/bin/3d/newton
      bin: standard
pair_write		1 2 1600 r 0.008 6.5 table.check AB
pair_write		2 2 1600 r 0.008 6.5 table.check BB

neighbor 		0.3 bin
neigh_modify	every 20 delay 0 check no

# ------------------------- Ensemble --------------------------------------

fix 1			all npt temp ${temp} ${temp} 0.5 iso ${press} ${press} 5
fix 1			all npt temp 0.45 ${temp} 0.5 iso ${press} ${press} 5
fix 1			all npt temp 0.45 0.45 0.5 iso ${press} ${press} 5
fix 1			all npt temp 0.45 0.45 0.5 iso 0.13 ${press} 5
fix 1			all npt temp 0.45 0.45 0.5 iso 0.13 0.13 5

# ---------------------- Função de Distribuição Radial -----------------------

#compute RDF 	all rdf 2000 1 1 1 2 2 2
#fix 2 			all ave/time 1 2000 2000 c_RDF[*] file rdf.data mode vector

# ------------------------- Execução ---------------------------

timestep 		0.005
thermo_style	custom step temp pe ke etotal press vol atoms
thermo			2000
run				3000000
Per MPI rank memory allocation (min/avg/max) = 2.675 | 2.675 | 2.675 Mbytes
Step Temp PotEng KinEng TotEng Press Volume Atoms 
       0         0.45   -0.9940566     0.674325   -0.3197316   0.11338125    9993.9483     1000 
    2000   0.42970138   -2.0612827   0.64390752   -1.4173752   0.12582392     11472.44     1000 
    4000   0.44039541   -2.0755602   0.65993252   -1.4156277   0.12886224    11383.272     1000 
    6000    0.4403823   -2.0682513   0.65991288   -1.4083384   0.12639518    11412.641     1000 
    8000   0.44180137   -2.0646889   0.66203935   -1.4026495   0.14049442    11216.571     1000 
   10000   0.46201008   -2.0708092   0.69232211   -1.3784871   0.13106486    11452.136     1000 
   12000   0.46233355   -2.0734245   0.69280682   -1.3806177   0.12352494    11446.513     1000 
   14000   0.44321448    -2.012232   0.66415689   -1.3480751   0.12990852     11304.89     1000 
   16000     0.437942   -2.0846501   0.65625608    -1.428394   0.13274056     11328.42     1000 
   18000    0.4510063   -2.0347081   0.67583294   -1.3588752   0.13070528    11307.412     1000 
   20000   0.44110033   -2.0430107   0.66098884   -1.3820219   0.12935071    11357.624     1000 
   22000    0.4209738   -2.1035608   0.63082924   -1.4727316   0.12311128    11502.835     1000 
   24000   0.44730016   -2.0527445   0.67027929   -1.3824652   0.13848192    11227.098     1000 
   26000   0.45680871   -2.0506657   0.68452785   -1.3661379    0.1361804    11388.435     1000 
   28000   0.44194407   -2.0456911   0.66225319   -1.3834379   0.13318226    11265.262     1000 
   30000   0.45541188   -2.0465452    0.6824347   -1.3641105   0.12283222    11280.817     1000 
   32000   0.44629522   -2.0327762   0.66877339   -1.3640028   0.13292281    11262.412     1000 
   34000   0.44757699   -2.0718777   0.67069412   -1.4011835   0.11828279    11578.113     1000 
   36000    0.4513521   -2.0158154   0.67635113   -1.3394643   0.14783776    11059.822     1000 
   38000   0.45825037    -2.080272   0.68668818   -1.3935839   0.12082422    11387.441     1000 
   40000   0.43426982   -2.0874046   0.65075332   -1.4366512   0.13720388    11357.568     1000 
   42000   0.43591864   -2.0803671   0.65322408   -1.4271431   0.11709226    11590.772     1000 
   44000   0.45804235   -2.0513582   0.68637646   -1.3649817   0.13621736    11338.444     1000 
   46000   0.44926693   -2.0447281   0.67322649   -1.3715016   0.12344747    11416.899     1000 
   48000   0.44616638   -2.0700889   0.66858032   -1.4015086   0.13161219     11348.65     1000 
   50000   0.44563738   -2.0437669   0.66778762   -1.3759793   0.12998621    11312.929     1000 
   52000   0.45043989   -1.9464176   0.67498417   -1.2714334   0.12415479    11280.663     1000 
   54000   0.45003805   -2.0779059   0.67438201   -1.4035239   0.13406642    11386.153     1000 
   56000   0.44710556   -2.0954129   0.66998769   -1.4254252   0.12406504    11473.572     1000 
   58000   0.44987224   -2.0837483   0.67413355   -1.4096147   0.12981634    11394.492     1000 
   60000   0.44759075   -1.9802743   0.67071474   -1.3095595   0.13374402    11230.892     1000 
   62000   0.47094309   -2.0638862   0.70570822    -1.358178   0.14042673     11311.61     1000 
   64000   0.45195757   -2.0309231   0.67725842   -1.3536647   0.12771187    11469.421     1000 
   66000   0.45413198   -2.0470286   0.68051678   -1.3665119   0.12642981    11438.246     1000 
   68000   0.44874311   -2.0675537   0.67244155   -1.3951122   0.13662937    11361.218     1000 
   70000   0.44044854   -2.0860824   0.66001214   -1.4260703   0.12741346    11410.305     1000 
   72000   0.45096887   -2.0376028   0.67577686    -1.361826   0.14290277    11278.816     1000 
   74000   0.44449201    -2.128589   0.66607127   -1.4625177   0.12152442    11479.396     1000 
   76000   0.44592494   -2.0447529   0.66821853   -1.3765343   0.13486584    11318.386     1000 
   78000   0.44571916   -2.0792652   0.66791017    -1.411355   0.13260633    11322.133     1000 
   80000   0.44263653   -2.0853953   0.66329084   -1.4221045   0.12801665    11434.356     1000 
   82000   0.46854857   -2.0292521   0.70212003    -1.327132    0.1320664    11375.287     1000 
   84000   0.44925459   -2.0274516     0.673208   -1.3542436    0.1327729    11346.077     1000 
   86000   0.46845155   -2.0868551   0.70197465   -1.3848804   0.14059596    11321.269     1000 
   88000   0.46328956   -2.0982512    0.6942394   -1.4040118   0.13664524     11361.96     1000 
   90000   0.45443357   -2.0820331   0.68096871   -1.4010644   0.12921802    11435.727     1000 
   92000   0.43694417   -2.0496423   0.65476084   -1.3948814    0.1203888     11456.96     1000 
   94000   0.44797217   -2.0865552    0.6712863   -1.4152689   0.13661382    11426.728     1000 
   96000   0.45734547    -2.017283   0.68533218   -1.3319508   0.12925844    11364.325     1000 
   98000   0.45035751   -2.0822683   0.67486073   -1.4074076   0.13047419    11366.721     1000 
  100000   0.45394198   -2.0812404   0.68023205   -1.4010083   0.11873628    11470.414     1000 
  102000   0.46599141   -2.0534195   0.69828813   -1.3551314   0.13805854    11304.959     1000 
  104000   0.45810573   -2.0669601   0.68647144   -1.3804887   0.11243436    11551.489     1000 
  106000   0.43932309   -2.0566889   0.65832565   -1.3983632   0.13054297    11293.874     1000 
  108000   0.45053679   -2.0831931   0.67512937   -1.4080638   0.12524089    11495.517     1000 
  110000   0.45588952   -2.0622337   0.68315044   -1.3790833   0.12690514      11445.9     1000 
  112000   0.44641808    -2.079461   0.66895749   -1.4105035   0.13678966    11361.061     1000 
  114000   0.43025966   -2.0537616   0.64474411   -1.4090175   0.12783364    11355.201     1000 
  116000   0.45261106    -2.054893   0.67823768   -1.3766553   0.14616168    11233.872     1000 
  118000   0.43078583    -2.080403   0.64553257   -1.4348704   0.11852681    11483.006     1000 
  120000   0.44621592   -2.0278821   0.66865456   -1.3592276    0.1279453      11290.1     1000 
  122000   0.44059149   -2.0493583   0.66022636   -1.3891319   0.13604789    11398.133     1000 
  124000   0.46194077   -2.0115396   0.69221824   -1.3193213   0.14117154    11215.349     1000 
  126000   0.45096015   -2.1003069   0.67576379   -1.4245431   0.12748826    11389.042     1000 
  128000    0.4527151   -2.0360437   0.67839358   -1.3576501   0.12764219     11434.02     1000 
  130000    0.4322629   -2.0392508   0.64774596   -1.3915048   0.13379269    11305.906     1000 
  132000   0.46287309   -2.0383163   0.69361532    -1.344701   0.13352492     11356.99     1000 
  134000   0.47345986   -2.0320525    0.7094796   -1.3225729   0.14252622    11287.191     1000 
  136000   0.46065138   -2.0465355    0.6902861   -1.3562494    0.1249486    11368.429     1000 
  138000   0.45433992   -2.0835147   0.68082837   -1.4026864   0.12404303    11365.606     1000 
  140000    0.4432517   -2.0655797   0.66421267    -1.401367   0.14003233    11278.103     1000 
  142000   0.44622061   -2.0668689   0.66866158   -1.3982073   0.13644704    11303.222     1000 
  144000   0.45732301   -2.0464179   0.68529852   -1.3611193   0.12602161    11317.709     1000 
  146000   0.45082242   -2.0735895    0.6755574   -1.3980321   0.13862685    11383.904     1000 
  148000   0.46052837   -2.0757853   0.69010177   -1.3856835   0.13503895     11328.52     1000 
  150000     0.442047   -2.0720471   0.66240743   -1.4096397   0.12393109    11430.974     1000 
  152000   0.42523945   -2.0799413   0.63722132     -1.44272   0.12008912    11462.536     1000 
  154000   0.45473791   -2.0350118   0.68142476   -1.3535871     0.120152    11388.414     1000 
  156000   0.46007992   -2.0759054   0.68942976   -1.3864756   0.14809292    11222.856     1000 
  158000   0.44223372   -2.0469253   0.66268723   -1.3842381    0.1304056      11327.7     1000 
  160000   0.44703095   -2.0702859   0.66987588     -1.40041   0.13753968    11381.418     1000 
  162000   0.44667755   -2.0944148   0.66934632   -1.4250685   0.13553372    11494.786     1000 
  164000   0.45149864   -2.0779208   0.67657071   -1.4013501     0.125104    11349.234     1000 
  166000   0.45862564   -2.1033745   0.68725052    -1.416124   0.12023583    11492.611     1000 
  168000   0.44800662   -2.0658976   0.67133791   -1.3945597   0.13346988    11270.095     1000 
  170000   0.46869621    -2.106651   0.70234126   -1.4043097     0.131101    11376.401     1000 
  172000   0.45092258   -2.0808872   0.67570749   -1.4051797   0.13250433    11343.609     1000 
  174000   0.42448643   -2.0903118   0.63609292   -1.4542189   0.12750484    11304.208     1000 
  176000   0.44674891   -2.0623801   0.66945325   -1.3929268   0.12913394    11401.481     1000 
  178000   0.46241252   -2.0706976   0.69292516   -1.3777724   0.12098501    11552.756     1000 
  180000   0.44706174   -2.0807075   0.66992201   -1.4107855   0.12869543    11300.242     1000 
  182000   0.45671501   -2.0978865   0.68438744   -1.4134991   0.12615506    11452.899     1000 
  184000   0.44224064   -2.0741118    0.6626976   -1.4114142   0.13101755    11385.251     1000 
  186000   0.45142214   -2.0428746   0.67645607   -1.3664185   0.13738367    11328.628     1000 
  188000   0.46462033   -2.0812857   0.69623357   -1.3850522   0.13212884     11340.92     1000 
  190000   0.44270932   -2.0457177   0.66339992   -1.3823177   0.13601032    11312.396     1000 
  192000   0.45761278   -2.0234725   0.68573275   -1.3377397   0.13567559    11265.517     1000 
  194000   0.46050467   -2.0577472   0.69006625    -1.367681   0.12251642    11438.543     1000 
  196000   0.44446268   -2.0695907   0.66602733   -1.4035633   0.12544339    11469.768     1000 
  198000   0.44816977   -2.0375152   0.67158241   -1.3659327   0.12228671     11348.75     1000 
  200000   0.45091643    -2.087565   0.67569827   -1.4118667   0.13061282    11421.826     1000 
  202000   0.44715909   -2.1162718    0.6700679   -1.4462039   0.12527779    11368.713     1000 
  204000   0.43937657   -2.0197166   0.65840579   -1.3613108   0.12507611    11363.964     1000 
  206000   0.43187431   -2.1026741   0.64716366   -1.4555105   0.12765111      11350.2     1000 
  208000   0.44756997   -2.0828855    0.6706836   -1.4122019   0.13447695    11235.157     1000 
  210000   0.44851961    -2.000239   0.67210664   -1.3281324   0.12379326    11379.079     1000 
  212000   0.44965551   -2.0633308   0.67380879    -1.389522    0.1357117    11324.527     1000 
  214000    0.4585585   -2.0793662   0.68714991   -1.3922163   0.14086603    11291.794     1000 
  216000   0.44130147   -2.0496914   0.66129025   -1.3884012   0.14322245    11266.784     1000 
  218000   0.45368191   -2.1116269   0.67984235   -1.4317845   0.12496407    11544.708     1000 
  220000   0.44690815   -2.0509572   0.66969187   -1.3812653   0.12206668    11433.816     1000 
  222000   0.45222602    -2.057121   0.67766068   -1.3794603   0.12546925    11417.037     1000 
  224000     0.448414   -2.0905405   0.67194838   -1.4185921   0.12369662    11446.638     1000 
  226000   0.42881953   -2.0366023   0.64258606   -1.3940163   0.12487574     11388.82     1000 
  228000   0.43678873   -2.0461975   0.65452791   -1.3916696     0.127732    11373.438     1000 
  230000    0.4276928   -2.1216738   0.64089766   -1.4807761   0.13098464     11391.02     1000 
  232000   0.43107642   -2.1186599   0.64596801   -1.4726919   0.12369843    11467.217     1000 
  234000   0.46337924   -2.0644494   0.69437379   -1.3700756   0.13332958    11402.473     1000 
  236000   0.44530894   -2.0694161   0.66729544   -1.4021207   0.14708464    11282.974     1000 
  238000   0.46395646   -2.0827674   0.69523876   -1.3875286   0.12490518    11501.031     1000 
  240000   0.44768905   -2.1164986   0.67086205   -1.4456365   0.13315172    11386.386     1000 
  242000   0.43709857   -2.0242412   0.65499221    -1.369249    0.1333908    11268.156     1000 
  244000   0.43675645   -2.0454107   0.65447954   -1.3909311   0.13489348    11380.566     1000 
  246000   0.45263732   -2.0785127   0.67827702   -1.4002357   0.12374655    11447.964     1000 
  248000   0.44433869    -2.063537   0.66584152   -1.3976955    0.1302674    11345.335     1000 
  250000   0.46495247   -2.0710356   0.69673128   -1.3743043   0.14072178     11268.37     1000 
  252000   0.44905163   -2.1090466   0.67290386   -1.4361428   0.12159362    11522.352     1000 
  254000   0.44014128   -2.0732582    0.6595517   -1.4137065   0.14324117    11322.313     1000 
  256000   0.46396384   -2.0748916   0.69524982   -1.3796418   0.14579826    11276.454     1000 
  258000    0.4360251   -2.0703732   0.65338361   -1.4169896   0.13173563    11381.462     1000 
  260000   0.45533964   -2.1079725   0.68232645   -1.4256461   0.13456272    11424.083     1000 
  262000   0.45578194   -2.0765579   0.68298924   -1.3935687   0.12485193    11350.384     1000 
  264000   0.46151388   -2.0569254   0.69157854   -1.3653468   0.11553484     11397.53     1000 
  266000   0.45637802   -2.0579595   0.68388247   -1.3740771   0.14062456     11326.46     1000 
  268000   0.46192238   -2.0355844   0.69219068   -1.3433937   0.12387267    11453.931     1000 
  270000   0.45455542   -2.0753188    0.6811513   -1.3941675   0.13264356    11282.495     1000 
  272000   0.46023353   -2.0469803   0.68965994   -1.3573203   0.13521427    11272.854     1000 
  274000   0.46415405   -2.1145816   0.69553484   -1.4190468   0.12384418    11415.937     1000 
  276000   0.46174125   -2.0721641   0.69191926   -1.3802448   0.13222011     11349.11     1000 
  278000   0.45192909    -2.058626   0.67721575   -1.3814103   0.13269271    11359.892     1000 
  280000   0.44216303   -2.0914995   0.66258131   -1.4289182   0.12670763     11463.22     1000 
  282000   0.44149261   -2.0354833   0.66157668   -1.3739067   0.13810046    11308.769     1000 
  284000   0.46430319   -2.0394563   0.69575833    -1.343698   0.13153628    11370.162     1000 
  286000   0.46176284   -2.1097232   0.69195162   -1.4177716   0.11417617    11541.653     1000 
  288000   0.45190634   -2.0728357   0.67718165   -1.3956541   0.12422898    11478.036     1000 
  290000   0.45094586   -2.0311572   0.67574237   -1.3554148   0.13006903    11404.137     1000 
  292000    0.4407024   -2.0318729   0.66039254   -1.3714803   0.13224296    11302.822     1000 
  294000    0.4731988   -2.0550588    0.7090884   -1.3459704    0.1257435    11356.483     1000 
  296000   0.45381398    -2.093566   0.68004025   -1.4135257   0.12678441     11406.43     1000 
  298000   0.42755493   -2.0584418   0.64069106   -1.4177508   0.13111427    11281.211     1000 
  300000   0.46285811   -2.1185353   0.69359289   -1.4249424   0.12699545    11446.185     1000 
  302000   0.45363314   -2.0619835   0.67976927   -1.3822143   0.12078203    11466.376     1000 
  304000   0.44250237   -2.1042342   0.66308981   -1.4411444   0.12742291      11416.4     1000 
  306000   0.46724935   -2.0599517   0.70017314   -1.3597785   0.13446087    11254.911     1000 
  308000   0.45315908   -1.9978029   0.67905888    -1.318744   0.14102533    11141.854     1000 
  310000    0.4586702   -2.0699742    0.6873173   -1.3826569   0.12128606    11366.371     1000 
  312000   0.45136448     -2.08889   0.67636967   -1.4125203   0.13458613    11396.049     1000 
  314000   0.44432147   -2.0818263   0.66581573   -1.4160106   0.12250165    11457.873     1000 
  316000   0.46162399   -2.0710021   0.69174354   -1.3792586   0.12636978    11418.005     1000 
  318000   0.44516984   -2.1162987     0.667087   -1.4492117   0.12808277    11388.232     1000 
  320000   0.45224222   -2.0957301   0.67768497   -1.4180451   0.12784125    11431.695     1000 
  322000   0.44006292   -2.0662672   0.65943428    -1.406833    0.1339759    11352.592     1000 
  324000   0.46071294   -2.0687781   0.69037834   -1.3783997   0.13131193    11349.041     1000 
  326000   0.44992337   -2.1159352   0.67421017   -1.4417251   0.12979872    11423.468     1000 
  328000   0.42808742   -2.0600075     0.641489   -1.4185185   0.13502552      11261.3     1000 
  330000    0.4241534   -2.0606928   0.63559387   -1.4250989   0.13641821     11261.77     1000 
  332000   0.44921713   -2.1022978   0.67315188   -1.4291459   0.13566821    11434.384     1000 
  334000   0.46602115   -2.0850947   0.69833269    -1.386762   0.13389913    11389.274     1000 
  336000   0.44201354   -2.0481366   0.66235729   -1.3857793   0.14035249     11254.08     1000 
  338000   0.46651137   -2.1151172   0.69906728   -1.4160499   0.12118516    11564.561     1000 
  340000    0.4396981   -2.0867556   0.65888761    -1.427868   0.12947685    11353.206     1000 
  342000   0.45885267   -2.0840061   0.68759072   -1.3964154   0.13235144    11470.501     1000 
  344000   0.42970037    -2.077311     0.643906    -1.433405    0.1129974    11475.715     1000 
  346000   0.45431561   -2.0609517   0.68079194   -1.3801598    0.1218175    11427.917     1000 
  348000   0.44559219   -2.0588631   0.66771989   -1.3911432   0.14297179    11278.507     1000 
  350000   0.46658723   -2.0613023   0.69918096   -1.3621214   0.14604805    11308.581     1000 
  352000   0.44905649   -2.0429013   0.67291114   -1.3699902   0.14084861    11291.022     1000 
  354000   0.45300245   -2.1182363   0.67882417   -1.4394122   0.12868623    11370.729     1000 
  356000   0.46332589   -2.0875352   0.69429385   -1.3932414   0.12078375    11537.133     1000 
  358000    0.4485799   -2.0339001   0.67219699   -1.3617031   0.13781352    11347.152     1000 
  360000   0.44591972   -2.0338704   0.66821069   -1.3656597   0.12868499     11242.66     1000 
  362000   0.45940326   -2.1022408   0.68841578    -1.413825   0.11639068    11497.241     1000 
  364000   0.44093778   -2.0404673   0.66074527   -1.3797221   0.12038977    11499.764     1000 
  366000   0.46933799   -2.0660497   0.70330297   -1.3627468   0.12068661    11564.079     1000 
  368000   0.44741319   -1.9982326   0.67044867   -1.3277839    0.1288849    11257.452     1000 
  370000   0.43283608   -2.0507875   0.64860487   -1.4021827   0.13799784    11299.384     1000 
  372000   0.45419466   -2.0726509   0.68061071   -1.3920402   0.12421904    11426.077     1000 
  374000    0.4401968   -2.0751185   0.65963491   -1.4154836   0.12694996        11343     1000 
  376000    0.4356508   -2.0818556   0.65282273   -1.4290329   0.12197997    11478.417     1000 
  378000   0.45754931    -2.084276   0.68563764   -1.3986384   0.12008666    11441.749     1000 
  380000   0.43131559   -2.0375103   0.64632641   -1.3911839   0.12443935    11321.902     1000 
  382000   0.44238631   -2.1189819   0.66291588    -1.456066   0.13459625    11417.562     1000 
  384000   0.45041166   -2.1011741   0.67494187   -1.4262322    0.1211495    11451.842     1000 
  386000   0.46010066   -2.0509894   0.68946085   -1.3615285   0.13531303    11307.154     1000 
  388000   0.43271631   -2.0486995   0.64842539   -1.4002741   0.12927712    11388.221     1000 
  390000   0.45683862   -2.0725238   0.68457267   -1.3879512   0.13227926    11315.795     1000 
  392000   0.43948576   -2.0374311   0.65856942   -1.3788617     0.132164     11230.25     1000 
  394000   0.44106138    -2.008304   0.66093047   -1.3473735   0.12244479    11495.191     1000 
  396000   0.45201881   -2.0330222   0.67735018    -1.355672   0.12260499    11521.097     1000 
  398000   0.44097617   -2.0907429   0.66080278   -1.4299402   0.13745073    11250.777     1000 
  400000   0.44338109   -2.1123953   0.66440657   -1.4479887   0.12454809    11504.421     1000 
  402000   0.45817967   -2.0797313   0.68658224    -1.393149   0.14061644    11269.659     1000 
  404000   0.48686901   -2.0590231   0.72957321   -1.3294499    0.1355023    11328.102     1000 
  406000   0.43033455   -2.0362355   0.64485632   -1.3913792    0.1407323    11168.761     1000 
  408000   0.43723609   -2.1027976   0.65519828   -1.4475993    0.1177962    11405.091     1000 
  410000   0.45875432   -2.0407611   0.68744336   -1.3533178   0.13086023    11341.941     1000 
  412000   0.44779483   -2.0062914   0.67102056   -1.3352708   0.13161148    11205.553     1000 
  414000   0.44525095   -2.0660237   0.66720855   -1.3988152   0.14105494    11265.469     1000 
  416000   0.45997686   -2.0613357   0.68927533   -1.3720603   0.14207571    11267.247     1000 
  418000    0.4522452   -2.0533577   0.67768943   -1.3756683   0.13588622    11362.029     1000 
  420000   0.46896784   -2.0864796    0.7027483   -1.3837313   0.11746143    11479.669     1000 
  422000   0.44297087   -2.0575003   0.66379185   -1.3937085   0.12447174    11423.918     1000 
  424000    0.4539342   -2.0325829    0.6802204   -1.3523625   0.12748475    11392.109     1000 
  426000   0.44957194   -2.0874975   0.67368355   -1.4138139   0.12071359    11468.947     1000 
  428000   0.45524129   -2.0538783   0.68217907   -1.3716992   0.13932118    11272.469     1000 
  430000   0.48088988   -2.0769435   0.72061348     -1.35633   0.11890254    11530.804     1000 
  432000   0.45536564   -2.0397933   0.68236542   -1.3574279   0.13260786    11361.919     1000 
  434000   0.44736205     -2.06784   0.67037204   -1.3974679    0.1178699    11520.465     1000 
  436000   0.45034322   -2.0417859   0.67483932   -1.3669466   0.12051945    11514.332     1000 
  438000   0.44754643   -2.0510067   0.67064832   -1.3803584   0.13483673    11305.732     1000 
  440000   0.45614948   -2.0571706   0.68353999   -1.3736306   0.13811434    11200.581     1000 
  442000   0.46469777   -2.1191799   0.69634961   -1.4228303   0.12760005    11396.308     1000 
  444000   0.45727944   -2.0542764   0.68523324   -1.3690431   0.12324132    11293.807     1000 
  446000   0.44204686   -2.0644317   0.66240722   -1.4020245   0.12165097    11466.952     1000 
  448000   0.44792894   -2.0822232   0.67122151   -1.4110017   0.12958243    11400.212     1000 
  450000   0.44505123   -2.0647115   0.66690927   -1.3978022   0.12833138     11373.91     1000 
  452000   0.46308066   -2.0555314   0.69392637   -1.3616051   0.14172222    11363.793     1000 
  454000   0.45160922   -2.0665546   0.67673641   -1.3898182   0.13407679    11348.963     1000 
  456000   0.44234654   -2.0428986   0.66285629   -1.3800424   0.13717914    11283.911     1000 
  458000   0.44779169   -2.0741791   0.67101585   -1.4031633   0.13190724    11269.518     1000 
  460000   0.46223798   -2.0390583   0.69266361   -1.3463947   0.13537975    11382.636     1000 
  462000   0.45411416   -2.0727925   0.68049007   -1.3923024   0.13117531    11467.237     1000 
  464000   0.45370382   -2.0975336   0.67987517   -1.4176585   0.12682032    11452.218     1000 
  466000   0.45407248   -2.1112024    0.6804276   -1.4307748   0.12234884    11417.666     1000 
  468000   0.44858461   -2.0516258   0.67220404   -1.3794218   0.11757353    11490.905     1000 
  470000   0.45283447   -2.0861278   0.67857245   -1.4075554   0.12687224    11424.727     1000 
  472000   0.47039907   -2.0821978   0.70489301   -1.3773048   0.13318526    11394.106     1000 
  474000   0.45191214   -2.0629097   0.67719034   -1.3857194   0.13164745    11377.954     1000 
  476000   0.45700847   -2.0953041   0.68482719   -1.4104769   0.12066621    11436.049     1000 
  478000    0.4348627   -2.0698546   0.65164175   -1.4182128    0.1332466    11393.048     1000 
  480000   0.45487005   -2.0380927   0.68162278     -1.35647   0.13509726     11298.82     1000 
  482000   0.44623837   -2.0871918   0.66868819   -1.4185036    0.1224381    11392.714     1000 
  484000   0.45723233   -2.0867922   0.68516265   -1.4016296     0.127443     11351.76     1000 
  486000    0.4523963    -2.049294   0.67791586   -1.3713781   0.13356389    11406.805     1000 
  488000   0.46237328   -2.0456964   0.69286636     -1.35283   0.13742641    11323.645     1000 
  490000   0.45290287   -2.0248127   0.67867495   -1.3461378   0.13846612    11254.619     1000 
  492000   0.44121407   -2.0869166   0.66115928   -1.4257573    0.1183797    11352.126     1000 
  494000   0.45835926   -2.0832985   0.68685135   -1.3964472   0.12328058    11434.823     1000 
  496000   0.45866665   -2.0500339   0.68731198   -1.3627219    0.1286464    11275.632     1000 
  498000   0.43746471   -2.0632086   0.65554087   -1.4076677   0.13514729    11359.066     1000 
  500000   0.45906083   -2.0523139   0.68790265   -1.3644112   0.12660158    11403.912     1000 
  502000   0.45135129   -2.0409781   0.67634991   -1.3646282   0.13464687    11343.305     1000 
  504000   0.44783279   -2.0621771   0.67107744   -1.3910996   0.11768549    11524.325     1000 
  506000   0.44526896   -2.0219926   0.66723553   -1.3547571   0.13229284    11372.267     1000 
  508000   0.45007813   -2.0871891   0.67444207    -1.412747   0.12512431    11479.496     1000 
  510000   0.46585069   -2.0546261   0.69807726   -1.3565488   0.13563057    11287.966     1000 
  512000   0.45679241   -2.0521791   0.68450342   -1.3676757    0.1350889     11307.82     1000 
  514000   0.45721762   -2.0588254   0.68514061   -1.3736848   0.12361482    11403.244     1000 
  516000   0.44631858   -2.0387369    0.6688084   -1.3699285   0.12778244    11239.688     1000 
  518000   0.45417966    -2.052289   0.68058822   -1.3717008   0.13646897     11406.55     1000 
  520000   0.44446619   -2.0787094   0.66603258   -1.4126768   0.11987229    11576.295     1000 
  522000   0.46371841   -2.0753965   0.69488204   -1.3805145   0.12747548    11404.323     1000 
  524000   0.45303299   -2.0357452   0.67886993   -1.3568752   0.14356116    11316.874     1000 
  526000   0.45328376   -2.0579197   0.67924572    -1.378674   0.13169169    11362.086     1000 
  528000   0.44819675   -2.0904047   0.67162282   -1.4187819   0.12070191    11482.941     1000 
  530000   0.43673991   -2.0719303   0.65445476   -1.4174755   0.13422525    11276.768     1000 
  532000   0.43338008   -2.1094597   0.64942005   -1.4600397    0.1202037    11393.583     1000 
  534000   0.44049769   -2.0296179   0.66008578   -1.3695321   0.12939084    11381.233     1000 
  536000   0.43598732   -2.0655643   0.65332699   -1.4122373   0.13118125    11367.982     1000 
  538000   0.46622178   -2.0755861   0.69863333   -1.3769527   0.11857192    11524.611     1000 
  540000    0.4570348   -2.1561109   0.68486665   -1.4712443     0.121118    11573.573     1000 
  542000   0.44417094   -2.0477669   0.66559016   -1.3821767   0.13693412    11271.315     1000 
  544000   0.42926605   -2.0734841   0.64325518   -1.4302289    0.1188945    11456.792     1000 
  546000   0.43549448   -2.0827113   0.65258848   -1.4301228   0.13467351    11378.418     1000 
  548000   0.46962123   -2.0669341   0.70372741   -1.3632067   0.13060705    11318.354     1000 
  550000   0.43682361   -2.0685016   0.65458017   -1.4139214    0.1319167    11318.726     1000 
  552000   0.44607232   -2.0537179   0.66843936   -1.3852786   0.12456858    11293.874     1000 
  554000   0.47471215   -2.1307577   0.71135615   -1.4194016   0.13941322    11308.332     1000 
  556000   0.44923746   -2.0663869   0.67318234   -1.3932045   0.12593402     11385.04     1000 
  558000   0.46288574   -2.1743403   0.69363427    -1.480706   0.12750813    11426.164     1000 
  560000   0.45792594   -2.0834502   0.68620202   -1.3972481   0.12440043    11338.729     1000 
  562000   0.45933643   -2.0994442   0.68831565   -1.4111286   0.13248191     11433.52     1000 
  564000   0.44483417   -2.0539378   0.66658401   -1.3873538   0.13100464    11360.111     1000 
  566000   0.46756819   -2.0514552   0.70065093   -1.3508042   0.13543087     11246.51     1000 
  568000   0.45060218   -2.0946832   0.67522736   -1.4194558   0.12449957    11431.506     1000 
  570000   0.44868611   -2.0946838   0.67235613   -1.4223277   0.12913708     11385.58     1000 
  572000   0.44804645    -2.051868   0.67139761   -1.3804704   0.14038116     11276.95     1000 
  574000   0.44546411   -2.0685811   0.66752797   -1.4010531   0.12825986    11372.792     1000 
  576000   0.44075588   -2.0538334   0.66047269   -1.3933607   0.12282047    11287.896     1000 
  578000   0.45482355   -2.0724417   0.68155309   -1.3908886   0.12176631    11545.982     1000 
  580000   0.46218592   -2.0559331    0.6925856   -1.3633475   0.12352739    11370.452     1000 
  582000   0.44301431   -2.0839408   0.66385694   -1.4200839   0.12596369    11289.774     1000 
  584000   0.44553656   -2.0637079   0.66763653   -1.3960714   0.13756846    11281.764     1000 
  586000   0.46590163   -2.0657946   0.69815359    -1.367641   0.13575762    11472.046     1000 
  588000   0.44799612   -2.1015511   0.67132219   -1.4302289    0.1208191    11568.635     1000 
  590000   0.44683092   -2.0638522   0.66957613   -1.3942761   0.13961472    11320.145     1000 
  592000   0.43873096   -2.0632633   0.65743834    -1.405825    0.1330775    11216.022     1000 
  594000   0.45228781   -2.0077653   0.67775329    -1.330012   0.11741845    11456.463     1000 
  596000   0.45958925   -2.0498298   0.68869448   -1.3611353   0.14370295     11276.43     1000 
  598000   0.44604026   -2.0598921   0.66839133   -1.3915007   0.13973455    11336.889     1000 
  600000    0.4340354   -2.0992676   0.65040204   -1.4488655   0.12784686    11441.016     1000 
  602000    0.4825646   -2.0845927   0.72312305   -1.3614696   0.12481639    11437.614     1000 
  604000   0.43852026   -2.0819764    0.6571226   -1.4248538    0.1236297    11391.249     1000 
  606000   0.46112691   -2.0556152   0.69099867   -1.3646165   0.13542457    11354.141     1000 
  608000   0.43874821   -2.0627156    0.6574642   -1.4052514   0.12532962    11356.468     1000 
  610000   0.45941522   -2.0763305    0.6884337   -1.3878968   0.14127623    11319.984     1000 
  612000   0.45045387   -2.0518259   0.67500512   -1.3768208   0.12495676    11437.682     1000 
  614000   0.44935279   -2.0682312   0.67335516   -1.3948761   0.12576584    11405.209     1000 
  616000    0.4452356   -2.0753789   0.66718555   -1.4081934   0.12235057    11444.861     1000 
  618000   0.45460577   -2.0791614   0.68122675   -1.3979346   0.13751248    11331.851     1000 
  620000   0.44656794   -2.0709332   0.66918206   -1.4017511   0.14380497    11304.654     1000 
  622000   0.43135789   -2.0965132   0.64638981   -1.4501234   0.13056653     11391.11     1000 
  624000   0.44451727   -2.0976322   0.66610913   -1.4315231    0.1182564    11421.777     1000 
  626000    0.4486442   -2.0811192   0.67229334   -1.4088259   0.12362385    11415.894     1000 
  628000   0.45942653   -2.0805449   0.68845066   -1.3920943   0.12614949     11442.29     1000 
  630000   0.44611439    -2.039167   0.66850241   -1.3706645   0.13602259    11349.036     1000 
  632000   0.45034479   -2.0732385   0.67484167   -1.3983969   0.15083522    11231.747     1000 
  634000   0.45850864    -2.127064   0.68707519   -1.4399888   0.10376467    11690.066     1000 
  636000    0.4521075   -2.0544239   0.67748309   -1.3769408   0.13456196    11242.256     1000 
  638000   0.45218435   -2.0666484   0.67759824   -1.3890502   0.12973694    11388.945     1000 
  640000   0.43845885   -2.0411399   0.65703058   -1.3841093   0.13422531    11282.806     1000 
  642000   0.43611732   -2.0444487    0.6535218   -1.3909269   0.12027806     11404.15     1000 
  644000   0.44674509   -2.0387883   0.66944752   -1.3693408   0.14128066    11253.583     1000 
  646000   0.44263095   -2.0692243   0.66328248   -1.4059418   0.13500379    11378.592     1000 
  648000   0.47091363   -2.0875063   0.70566408   -1.3818422   0.13452753    11424.571     1000 
  650000   0.43922447    -2.050055   0.65817787   -1.3918772   0.12476911    11305.176     1000 
  652000   0.45124542   -1.9811773   0.67619126    -1.304986   0.12849541    11355.452     1000 
  654000   0.45971489   -2.0632534   0.68888276   -1.3743707   0.12509076    11359.278     1000 
  656000   0.44344482    -2.087412   0.66450207     -1.42291   0.12134244    11417.384     1000 
  658000   0.46755857   -2.0878959   0.70063651   -1.3872594   0.15132278    11265.493     1000 
  660000   0.44830193   -2.0615143   0.67178045   -1.3897339   0.13241909     11314.74     1000 
  662000   0.44493591   -2.0409309   0.66673646   -1.3741944   0.12924572     11289.23     1000 
  664000   0.47484936   -2.0741448   0.71156176   -1.3625831   0.12650066    11429.895     1000 
  666000   0.44238156   -2.0230491   0.66290876   -1.3601404    0.1322274    11373.061     1000 
  668000   0.47387555   -2.0471977   0.71010251   -1.3370952   0.13015013    11405.269     1000 
  670000   0.44957942   -2.0955155   0.67369476   -1.4218207   0.12540552    11531.049     1000 
  672000   0.45181496   -2.0137217   0.67704472   -1.3366769   0.12959339    11216.755     1000 
  674000   0.46790823     -2.04876   0.70116048   -1.3475995   0.13168069    11347.574     1000 
  676000   0.43879645   -2.0330799   0.65753647   -1.3755434    0.1248292    11393.195     1000 
  678000     0.455254   -2.0765836   0.68219811   -1.3943854   0.12575335    11435.441     1000 
  680000   0.45739895    -2.100146   0.68541233   -1.4147336   0.12999078    11450.031     1000 
  682000   0.45125906    -2.032445    0.6762117   -1.3562333   0.13319088    11255.697     1000 
  684000   0.45445885   -2.0533383   0.68100659   -1.3723317   0.12948605    11382.976     1000 
  686000   0.44409724   -2.0698514   0.66547971   -1.4043717   0.14595306    11220.762     1000 
  688000   0.45023947   -2.0740775   0.67468385   -1.3993936    0.1300759    11358.361     1000 
  690000   0.44779577   -2.0640425   0.67102196   -1.3930206   0.11663124    11523.955     1000 
  692000   0.43270275   -2.0732362   0.64840506   -1.4248311   0.12690473    11303.719     1000 
  694000   0.46836393   -2.0888735   0.70184335   -1.3870302   0.11205663    11516.063     1000 
  696000   0.44581783   -2.0700253   0.66805801   -1.4019673   0.13370509    11398.543     1000 
  698000    0.4425187   -2.0666489   0.66311427   -1.4035346   0.12013547    11331.228     1000 
  700000   0.46545016   -2.0192088   0.69747706   -1.3217318   0.13262948    11305.721     1000 
  702000   0.43074985   -2.1025939   0.64547866   -1.4571153   0.13184067    11366.304     1000 
  704000   0.44384642   -2.0728777   0.66510386   -1.4077739   0.13501378    11362.024     1000 
  706000   0.46785792   -2.0757577    0.7010851   -1.3746726   0.14164704    11307.445     1000 
  708000    0.4523765   -2.1171825   0.67788619   -1.4392963   0.12227575    11486.713     1000 
  710000    0.4500171   -2.0959305   0.67435063   -1.4215799   0.12619786    11528.353     1000 
  712000   0.46909372   -2.0810716   0.70293694   -1.3781347   0.13323231    11336.138     1000 
  714000   0.44275488   -2.0709051   0.66346819   -1.4074369   0.12403916    11493.879     1000 
  716000   0.44495327   -2.0963673   0.66676248   -1.4296048    0.1356989    11410.663     1000 
  718000    0.4399654   -2.0443956   0.65928815   -1.3851074   0.13959651    11326.036     1000 
  720000   0.45159489   -2.0710154   0.67671494   -1.3943005   0.12945577    11380.292     1000 
  722000   0.47992533   -2.1006879   0.71916811   -1.3815198    0.1292154    11357.911     1000 
  724000   0.44417561   -2.0825296   0.66559715   -1.4169325    0.1243123    11307.623     1000 
  726000    0.4690011   -2.0887549   0.70279815   -1.3859568   0.11960046    11491.622     1000 
  728000   0.44032152    -2.058993    0.6598218   -1.3991712   0.12983282    11295.505     1000 
  730000   0.43104621    -2.037225   0.64592274   -1.3913023   0.13464363    11326.346     1000 
  732000   0.45281525   -2.0564676   0.67854365   -1.3779239   0.13886884    11311.149     1000 
  734000   0.44844275   -2.0646794   0.67199147    -1.392688   0.11724624    11450.654     1000 
  736000   0.43691701   -2.0579374   0.65472013   -1.4032172    0.1284134    11233.448     1000 
  738000   0.46013371   -2.0187437   0.68951037   -1.3292334   0.13032389    11351.829     1000 
  740000   0.46770925   -2.0207777   0.70086231   -1.3199154   0.14450558    11261.947     1000 
  742000   0.42640619   -2.0903332   0.63896967   -1.4513636   0.13341112    11283.083     1000 
  744000   0.46170638   -2.0826332     0.691867   -1.3907662   0.12776072    11448.255     1000 
  746000   0.42920946    -2.077516   0.64317038   -1.4343457   0.11369249    11561.413     1000 
  748000    0.4550353   -2.1306936   0.68187039   -1.4488232   0.13199911    11397.303     1000 
  750000   0.45619688   -2.0604329   0.68361103   -1.3768219   0.12381325    11375.804     1000 
  752000   0.44772817   -2.0945604   0.67092066   -1.4236397   0.11005271    11614.682     1000 
  754000   0.44227681   -2.0089941   0.66275181   -1.3462423   0.14701838    11174.967     1000 
  756000   0.45551678   -2.0645743    0.6825919   -1.3819824   0.13213457     11264.03     1000 
  758000   0.47317948   -2.0471514   0.70905944    -1.338092   0.13222131    11349.732     1000 
  760000   0.43220371   -2.0727987   0.64765726   -1.4251414   0.13039984    11265.128     1000 
  762000   0.45467576   -2.0779591   0.68133163   -1.3966275   0.13303036    11392.189     1000 
  764000    0.4586567   -2.0231884   0.68729707   -1.3358913   0.13085938     11239.34     1000 
  766000   0.43971233   -2.0235136   0.65890893   -1.3646046    0.1223844     11421.98     1000 
  768000   0.45643712   -2.0665588   0.68397102   -1.3825878   0.12109976     11474.41     1000 
  770000   0.47525294   -2.1105071   0.71216654   -1.3983406   0.12503986    11561.607     1000 
  772000   0.43864853   -2.0842903   0.65731482   -1.4269754   0.12894284    11445.606     1000 
  774000   0.44642276    -2.052183   0.66896451   -1.3832185   0.13450707    11264.243     1000 
  776000   0.44534064    -2.089264   0.66734295    -1.421921   0.14537206    11255.217     1000 
  778000   0.45815566   -2.0644908   0.68654626   -1.3779445   0.11854975    11372.231     1000 
  780000   0.46778107   -2.0889673   0.70096994   -1.3879973   0.13702021      11212.8     1000 
  782000   0.44334475   -2.0874284   0.66435211   -1.4230762   0.12708287    11453.546     1000 
  784000   0.45093024   -2.0903307   0.67571896   -1.4146118   0.13139528    11410.876     1000 
  786000   0.46874181   -2.0403216    0.7024096    -1.337912    0.1396338    11297.004     1000 
  788000   0.45452886   -2.0456895    0.6811115    -1.364578   0.13462492    11387.723     1000 
  790000   0.43638391   -2.0746326   0.65392129   -1.4207113   0.13180041    11275.306     1000 
  792000   0.46674073    -2.066191   0.69941098   -1.3667801   0.12585242    11376.069     1000 
  794000   0.44690184   -2.1019862    0.6696824   -1.4323038   0.12590285    11421.176     1000 
  796000   0.44492095   -2.0568668   0.66671404   -1.3901528   0.13782605     11341.41     1000 
  798000   0.43972799   -2.0508967   0.65893239   -1.3919643   0.13745622    11282.343     1000 
  800000   0.45383126   -2.0763233   0.68006614   -1.3962571   0.13431439     11361.66     1000 
  802000     0.442568   -2.1123877   0.66318814   -1.4491996   0.11659068    11501.107     1000 
  804000   0.44548455    -2.033498    0.6675586   -1.3659394   0.13725848    11305.877     1000 
  806000   0.45657526   -2.0289331   0.68417803   -1.3447551   0.13278225    11402.118     1000 
  808000   0.44432672    -2.085486   0.66582359   -1.4196624   0.13023369    11363.519     1000 
  810000    0.4397494   -2.0273854   0.65896447    -1.368421   0.12824352    11443.903     1000 
  812000   0.44006458   -2.0760088   0.65943678   -1.4165721   0.11637341    11557.549     1000 
  814000   0.44191589    -2.096697   0.66221096    -1.434486   0.12764462    11429.677     1000 
  816000   0.45024299   -2.0795426   0.67468912   -1.4048535   0.11379596     11590.77     1000 
  818000   0.44871001   -2.0599634   0.67239195   -1.3875714   0.13023685    11330.637     1000 
  820000   0.43442229   -2.1149012   0.65098181   -1.4639194   0.12622424    11465.143     1000 
  822000   0.44887637     -2.04679   0.67264124   -1.3741487   0.12515459    11464.882     1000 
  824000    0.4738601   -2.0330074   0.71007937    -1.322928   0.13534318    11221.348     1000 
  826000    0.4417421   -2.0250031   0.66195054   -1.3630525    0.1370116    11350.305     1000 
  828000    0.4567756   -2.0379764   0.68447823   -1.3534982    0.1363338    11236.517     1000 
  830000   0.44049645   -2.1090484   0.66008393   -1.4489645   0.12769894    11443.809     1000 
  832000   0.47437206    -2.057895   0.71084653   -1.3470485   0.11669246    11482.405     1000 
  834000   0.44878093   -2.1174871   0.67249823   -1.4449889   0.12315167    11500.783     1000 
  836000   0.44714206   -2.0768934   0.67004238    -1.406851   0.13611326    11387.693     1000 
  838000   0.44130735   -2.0784895   0.66129906   -1.4171904   0.12497762    11403.015     1000 
  840000    0.4428076   -2.0849885   0.66354719   -1.4214413   0.12839209    11389.125     1000 
  842000   0.46705406    -2.047893   0.69988051   -1.3480125   0.12495336    11466.013     1000 
  844000   0.47461568   -2.0996417    0.7112116   -1.3884301   0.14108146    11301.285     1000 
  846000   0.44333087   -2.0425932   0.66433132   -1.3782619    0.1299161    11334.888     1000 
  848000   0.44513068   -2.0717003   0.66702832   -1.4046719   0.13104114    11369.458     1000 
  850000   0.46541711   -2.0762183   0.69742755   -1.3787908   0.12440929    11455.573     1000 
  852000   0.45803387   -2.1128166   0.68636375   -1.4264529   0.12205812    11522.737     1000 
  854000   0.44217709   -2.0727322   0.66260237   -1.4101298   0.14307469    11252.084     1000 
  856000   0.45526718   -2.0662599   0.68221787    -1.384042   0.12164951    11435.712     1000 
  858000   0.44501985   -2.0721061   0.66686225   -1.4052438   0.12747088    11551.383     1000 
  860000   0.44102776   -2.1135606    0.6608801   -1.4526805   0.12874146    11398.282     1000 
  862000   0.45362877   -2.0875802   0.67976271   -1.4078175   0.12588161    11414.698     1000 
  864000   0.43940023   -2.0614801   0.65844124   -1.4030389   0.12056906    11535.036     1000 
  866000   0.45895347   -2.1054498   0.68774177    -1.417708   0.12168719    11490.361     1000 
  868000   0.42715793   -2.0765269   0.64009615   -1.4364307   0.14054167    11301.588     1000 
  870000   0.45812533   -2.0613135   0.68650081   -1.3748127   0.13201414    11396.448     1000 
  872000    0.4327566   -2.0854875   0.64848576   -1.4370018   0.12493863     11406.87     1000 
  874000   0.45837815   -2.0579382   0.68687966   -1.3710586   0.13996727    11313.171     1000 
  876000   0.46535647   -2.0121734   0.69733666   -1.3148367   0.12436792    11457.807     1000 
  878000    0.4448792   -2.0788352   0.66665148   -1.4121837   0.13303527    11311.054     1000 
  880000   0.45823342   -2.0627859   0.68666277   -1.3761231   0.13410263    11321.128     1000 
  882000    0.4301023   -2.0499934    0.6445083   -1.4054851   0.14301897    11321.961     1000 
  884000   0.45680734   -2.0780498   0.68452579   -1.3935241   0.12435002    11323.794     1000 
  886000   0.44029891   -2.0918657   0.65978792   -1.4320777   0.12437061    11453.868     1000 
  888000   0.45441269   -2.0927295   0.68093742   -1.4117921   0.12770789    11431.143     1000 
  890000   0.44979811   -2.0580272   0.67402247   -1.3840047   0.13181799    11417.296     1000 
  892000   0.46565531   -2.0828568   0.69778448   -1.3850724   0.13342308    11339.635     1000 
  894000   0.44435212   -2.0988777   0.66586166    -1.433016   0.11474154    11505.951     1000 
  896000   0.44463598   -2.0737041   0.66628701   -1.4074171   0.13946306    11267.486     1000 
  898000   0.44477251   -2.0665694    0.6664916   -1.4000778   0.12198231    11571.109     1000 
  900000    0.4463215   -2.0877446   0.66881276   -1.4189318   0.13557783     11431.61     1000 
  902000   0.43943937    -2.102254    0.6584999   -1.4437541   0.11236898    11511.506     1000 
  904000   0.44579216   -2.0660732   0.66801956   -1.3980536    0.1232307    11361.401     1000 
  906000   0.45033047   -2.0843247   0.67482022   -1.4095045   0.13137729    11416.793     1000 
  908000   0.44537055   -2.0519652   0.66738777   -1.3845774   0.11901016    11435.997     1000 
  910000   0.46999157   -2.0452328   0.70428237   -1.3409504   0.13889864    11243.718     1000 
  912000    0.4466042   -2.0973638    0.6692364   -1.4281274   0.11631951    11431.351     1000 
  914000   0.45409985   -2.0547921   0.68046862   -1.3743235   0.12252506    11465.353     1000 
  916000   0.45938923   -2.0892812   0.68839475   -1.4008865   0.13716351    11332.031     1000 
  918000   0.45146813   -2.0777351   0.67652499   -1.4012101    0.1301741    11294.509     1000 
  920000   0.45643869   -2.1027045   0.68397337   -1.4187311   0.13047871    11477.987     1000 
  922000   0.45538032   -2.0815382   0.68238741   -1.3991508   0.12908153    11403.683     1000 
  924000   0.44317661    -2.081187   0.66410015   -1.4170868   0.11999813    11445.884     1000 
  926000   0.46133596    -2.084294   0.69131193   -1.3929821   0.12479415    11437.792     1000 
  928000   0.46454103   -2.0843093   0.69611473   -1.3881946   0.13289288    11463.236     1000 
  930000   0.44885613   -2.0334209   0.67261092     -1.36081    0.1346542    11316.952     1000 
  932000   0.42400338   -2.0682673   0.63536907   -1.4328982   0.11295785    11467.658     1000 
  934000   0.45804705   -2.0961438   0.68638351   -1.4097602   0.12189169    11535.615     1000 
  936000   0.47070454   -2.0755066   0.70535075   -1.3701559   0.12708855    11296.822     1000 
  938000   0.46199687   -2.1001635   0.69230231   -1.4078612   0.11972064    11576.472     1000 
  940000   0.44981394    -2.004399    0.6740462   -1.3303528    0.1483395    11131.009     1000 
  942000   0.46670283   -2.0586988   0.69935419   -1.3593446   0.12792756    11388.308     1000 
  944000   0.45498034   -2.0637357   0.68178804   -1.3819476   0.13477445    11336.307     1000 
  946000   0.46296874   -2.0879794   0.69375866   -1.3942208   0.13513913    11257.396     1000 
  948000   0.44064326   -2.0605644   0.66030392   -1.4002605   0.13224913    11286.377     1000 
  950000    0.4454116   -2.0472864   0.66744929   -1.3798371   0.13325215    11427.168     1000 
  952000    0.4561996   -2.0714662    0.6836151   -1.3878511   0.13123164    11343.114     1000 
  954000   0.46857338   -2.1138106   0.70215721   -1.4116534   0.13067255    11520.652     1000 
  956000   0.44296509   -2.0430678   0.66378318   -1.3792846   0.13044434    11349.126     1000 
  958000   0.45122842   -2.0414962   0.67616579   -1.3653305   0.13267599    11340.323     1000 
  960000   0.45577692   -2.0905176   0.68298172   -1.4075359   0.12323787    11376.835     1000 
  962000   0.44086973   -2.1007621   0.66064329   -1.4401189   0.13332685    11395.936     1000 
  964000   0.46305985    -2.033353   0.69389519   -1.3394578   0.13148483     11428.92     1000 
  966000   0.45001564   -2.0596936   0.67434844   -1.3853451   0.13358291    11360.822     1000 
  968000   0.42833398   -2.0755779   0.64185847   -1.4337194   0.13402347    11300.595     1000 
  970000   0.41767606     -2.06245   0.62588757   -1.4365624   0.12288817    11431.975     1000 
  972000   0.44801017   -2.0691189   0.67134324   -1.3977757   0.13243305    11392.926     1000 
  974000   0.46959671   -2.0651351   0.70369067   -1.3614444    0.1316595    11317.863     1000 
  976000   0.45602376   -2.0503579   0.68335161   -1.3670063   0.13048318    11302.757     1000 
  978000   0.45254777   -2.0663591   0.67814283   -1.3882163   0.14675941    11169.132     1000 
  980000    0.4393891   -2.0631684   0.65842456   -1.4047438   0.13359848    11276.091     1000 
  982000    0.4561852    -2.055234   0.68359352   -1.3716405   0.11068825    11551.121     1000 
  984000   0.45245731   -2.0445407   0.67800729   -1.3665334   0.13391074    11369.853     1000 
  986000    0.4564616   -2.0772877   0.68400771     -1.39328   0.12839415    11392.383     1000 
  988000   0.46172421   -2.0793789   0.69189373   -1.3874852   0.13931128    11264.653     1000 
  990000   0.45216804   -2.0851644   0.67757381   -1.4075906   0.12677525    11403.608     1000 
  992000   0.46282785    -2.032458   0.69354754   -1.3389105   0.10927764    11424.971     1000 
  994000   0.45390541   -2.1113991   0.68017726   -1.4312218    0.1258938    11362.737     1000 
  996000   0.44804905   -2.0351734   0.67140151   -1.3637719   0.13534879    11296.022     1000 
  998000   0.44759665   -2.0703214   0.67072358   -1.3995978   0.13161073     11340.24     1000 
 1000000   0.43317126   -2.0646412   0.64910714   -1.4155341   0.13934501    11189.672     1000 
 1002000   0.44861319   -2.0644323   0.67224687   -1.3921854    0.1288829    11375.253     1000 
 1004000   0.45386822    -2.058966   0.68012152   -1.3788445   0.11428716    11400.972     1000 
 1006000   0.44125625   -2.1276344   0.66122249   -1.4664119   0.13547734     11357.23     1000 
 1008000   0.45962134   -2.0514755   0.68874258   -1.3627329     0.128022    11405.874     1000 
 1010000   0.45945474   -2.1039249   0.68849293   -1.4154319   0.11620307    11556.643     1000 
 1012000   0.46102673   -2.0630023   0.69084856   -1.3721537   0.14097939    11346.769     1000 
 1014000   0.45981846   -2.0493848   0.68903796   -1.3603468   0.12719679    11458.643     1000 
 1016000   0.44099521   -2.1270577   0.66083132   -1.4662264   0.13178065    11320.543     1000 
 1018000   0.43546712   -2.0654218   0.65254748   -1.4128743   0.13538336    11419.724     1000 
 1020000   0.46573233   -2.0252398   0.69789989   -1.3273399   0.13694573    11278.303     1000 
 1022000   0.43729001   -2.0826865   0.65527909   -1.4274074   0.13463511    11240.317     1000 
 1024000   0.45312337   -2.0559542   0.67900537   -1.3769489   0.13003721    11326.628     1000 
 1026000    0.4466511   -2.0427995   0.66930667   -1.3734928   0.14346788    11293.634     1000 
 1028000   0.45854426   -2.1069323   0.68712857   -1.4198038   0.12103874    11598.373     1000 
 1030000   0.45410534   -2.0829023   0.68047685   -1.4024255   0.13130226    11300.707     1000 
 1032000   0.44047163   -2.1150485   0.66004673   -1.4550017   0.13884726     11380.48     1000 
 1034000   0.45358901   -2.0603885   0.67970314   -1.3806854   0.13233301    11294.828     1000 
 1036000   0.44598824   -2.0808292   0.66831338   -1.4125158   0.13146319    11379.242     1000 
 1038000   0.46460034   -2.0745964   0.69620361   -1.3783928   0.11984951    11553.936     1000 
 1040000   0.45989157   -2.0418974   0.68914751   -1.3527499    0.1340715    11340.332     1000 
 1042000   0.42848958   -2.0233269   0.64209164   -1.3812353   0.14227435    11239.391     1000 
 1044000   0.46034314   -2.0938691    0.6898242   -1.4040449    0.1250576    11446.938     1000 
 1046000   0.45965925   -2.0983988   0.68879938   -1.4095994   0.13749728    11355.068     1000 
 1048000   0.45845648   -2.0663667   0.68699704   -1.3793697   0.11928496    11511.792     1000 
 1050000   0.47543409   -2.0335872   0.71243798   -1.3211492   0.14450118    11306.195     1000 
 1052000   0.46833467   -2.0943074   0.70179951   -1.3925079   0.13046124    11431.862     1000 
 1054000   0.43787503   -2.0507221   0.65615573   -1.3945664    0.1454662    11230.554     1000 
 1056000   0.45801215   -2.0889095    0.6863312   -1.4025783   0.13068175    11380.674     1000 
 1058000   0.43730213    -2.048554   0.65529724   -1.3932568   0.13040186    11336.398     1000 
 1060000    0.4652679   -2.0897243   0.69720395   -1.3925203    0.1328192    11287.518     1000 
 1062000   0.45574123   -2.0473993   0.68292823   -1.3644711    0.1349088    11357.668     1000 
 1064000   0.45635711   -2.0789742   0.68385113   -1.3951231   0.11867504    11496.758     1000 
 1066000   0.44037098   -2.0848534   0.65989591   -1.4249575   0.12846558    11324.988     1000 
 1068000   0.45372802   -2.1273844   0.67991144   -1.4474729   0.11646684    11479.937     1000 
 1070000   0.45870764   -2.0980108    0.6873734   -1.4106374   0.11764152    11456.989     1000 
 1072000    0.4549193   -2.0573731   0.68169657   -1.3756766    0.1443986    11246.276     1000 
 1074000   0.45627821    -2.075615    0.6837329   -1.3918821   0.12942301    11295.209     1000 
 1076000   0.45666767   -2.0971738   0.68431651   -1.4128573   0.13448814    11375.531     1000 
 1078000   0.44488832   -2.0397615   0.66666515   -1.3730964   0.13059287    11328.504     1000 
 1080000   0.46384225   -2.0700621   0.69506762   -1.3749945   0.12715444    11359.676     1000 
 1082000   0.45338314   -2.0339963   0.67939463   -1.3546017   0.13407349     11404.93     1000 
 1084000   0.45118767   -2.0402637   0.67610472    -1.364159   0.13298932    11196.636     1000 
 1086000   0.44560344   -2.0697853   0.66773675   -1.4020486   0.13371604    11345.616     1000 
 1088000   0.44010285   -2.0898318   0.65949412   -1.4303377   0.12504717    11470.417     1000 
 1090000   0.45430441     -2.03269   0.68077516   -1.3519148   0.14490313    11381.337     1000 
 1092000   0.47311501   -2.0825427   0.70896285   -1.3735799   0.13360972    11261.281     1000 
 1094000   0.45557528   -2.0723991   0.68267956   -1.3897195   0.13383116    11352.669     1000 
 1096000   0.43713219   -2.0717707   0.65504258   -1.4167281   0.12383179    11404.234     1000 
 1098000   0.44880974   -2.0590308    0.6725414   -1.3864894   0.14364967    11258.552     1000 
 1100000   0.44307673   -2.0264339   0.66395049   -1.3624834   0.12264571    11491.587     1000 
 1102000   0.44048012   -2.0642481   0.66005947   -1.4041886   0.12070293    11490.128     1000 
 1104000   0.44354416   -2.0591678   0.66465092   -1.3945169   0.12907771    11409.961     1000 
 1106000   0.44149616   -2.0999494     0.661582   -1.4383674   0.13137443    11371.713     1000 
 1108000   0.44925351   -2.0940176   0.67320639   -1.4208112   0.12239589    11534.372     1000 
 1110000   0.45414001   -2.0865941    0.6805288   -1.4060653   0.11691624    11500.354     1000 
 1112000   0.43015608   -2.0164954   0.64458889   -1.3719065   0.13067278     11357.05     1000 
 1114000   0.46037546    -2.121021   0.68987263   -1.4311484   0.13319239    11376.212     1000 
 1116000   0.44275216    -2.074577   0.66346412   -1.4111128   0.13276136    11297.936     1000 
 1118000   0.42935636   -2.0802336    0.6433905   -1.4368431   0.12097704    11524.312     1000 
 1120000   0.45600455   -2.0761953   0.68332281   -1.3928725   0.12410155    11381.899     1000 
 1122000   0.45543606   -2.0365877   0.68247094   -1.3541168   0.14097149    11300.596     1000 
 1124000   0.44294271   -2.0748944   0.66374965   -1.4111448   0.13124972      11290.9     1000 
 1126000   0.45380616   -2.0391391   0.68002853   -1.3591106   0.12798895    11442.075     1000 
 1128000   0.46363428   -2.0782592   0.69475597   -1.3835032    0.1294813    11374.748     1000 
 1130000   0.43466013   -2.0746557    0.6513382   -1.4233175   0.13410827    11379.824     1000 
 1132000   0.47371603   -2.0416298   0.70986348   -1.3317663   0.13535176    11284.013     1000 
 1134000    0.4700032   -2.0366891    0.7042998   -1.3323893   0.12898182    11281.378     1000 
 1136000   0.44464362   -2.1085966   0.66629846   -1.4422981   0.11673478    11523.169     1000 
 1138000   0.46215479   -2.1324444   0.69253895   -1.4399055   0.12197769    11569.529     1000 
 1140000   0.46097591   -2.0545457    0.6907724   -1.3637733   0.13315613    11368.796     1000 
 1142000   0.46098493   -2.0648108   0.69078592   -1.3740248   0.14832643    11290.372     1000 
 1144000   0.43536691   -2.0629147   0.65239732   -1.4105174   0.12265772    11419.276     1000 
 1146000   0.46127777   -2.0797561   0.69122474   -1.3885314   0.13062022    11335.235     1000 
 1148000   0.46016196   -2.0738955    0.6895527   -1.3843428   0.13311303    11350.807     1000 
 1150000   0.46977794   -2.0618339   0.70396224   -1.3578717   0.13380466    11341.994     1000 
 1152000   0.44463368   -2.0325619   0.66628357   -1.3662784   0.12858497    11292.834     1000 
 1154000   0.45684404   -2.0704644   0.68458079   -1.3858836   0.13184081    11322.902     1000 
 1156000   0.43693947   -2.0687766   0.65475379   -1.4140228   0.12324238    11446.414     1000 
 1158000   0.46130716   -2.0675091   0.69126878   -1.3762403   0.12810144    11448.933     1000 
 1160000   0.44878892   -2.0643996   0.67251019   -1.3918894   0.13961189     11393.63     1000 
 1162000   0.43617904   -2.0988761   0.65361428   -1.4452618   0.12206074    11382.918     1000 
 1164000   0.46726744   -2.0745369   0.70020025   -1.3743366   0.12521676    11417.122     1000 
 1166000   0.46283844   -2.0383361   0.69356341   -1.3447727   0.13474953    11264.213     1000 
 1168000   0.43154812   -2.0670375   0.64667485   -1.4203626   0.12405386    11373.406     1000 
 1170000    0.4431909   -2.0641791   0.66412156   -1.4000575   0.13132052    11423.077     1000 
 1172000   0.43472066   -2.0687036   0.65142891   -1.4172747   0.13712141    11241.366     1000 
 1174000   0.45274178   -2.0856911   0.67843355   -1.4072576   0.11986876    11444.084     1000 
 1176000   0.46146707   -2.0740127   0.69150841   -1.3825043   0.13454707    11334.731     1000 
 1178000   0.46200054   -2.0696949   0.69230781   -1.3773871   0.13354461    11356.656     1000 
 1180000   0.45540746   -2.0954553   0.68242809   -1.4130272   0.13308735    11403.928     1000 
 1182000   0.43012161   -2.0590591   0.64453723   -1.4145219   0.11797961    11539.963     1000 
 1184000   0.45337904   -2.0193415   0.67938849    -1.339953    0.1379073    11244.358     1000 
 1186000   0.44660122   -2.0977059   0.66923193    -1.428474   0.14108471    11266.177     1000 
 1188000   0.46280365    -2.058561   0.69351127   -1.3650497   0.12386822    11506.846     1000 
 1190000   0.45437258   -2.0528217   0.68087731   -1.3719444   0.12050142    11504.581     1000 
 1192000   0.45448474   -2.0732021   0.68104538   -1.3921567   0.12828776    11462.779     1000 
 1194000   0.45231795   -2.0855306   0.67779845   -1.4077322   0.12964907     11460.74     1000 
 1196000   0.44549134   -2.0663414   0.66756877   -1.3987726   0.13946748    11338.981     1000 
 1198000   0.45007472   -2.1023182   0.67443697   -1.4278812   0.14071877    11259.418     1000 
 1200000   0.45464366   -2.0683605   0.68128352    -1.387077   0.12886043    11482.728     1000 
 1202000   0.45925242   -2.0571927   0.68818976   -1.3690029   0.13305414    11347.036     1000 
 1204000   0.45248209   -2.0805625   0.67804441   -1.4025181   0.13155814    11422.167     1000 
 1206000   0.44603753   -2.0948031   0.66838724   -1.4264158   0.11928984    11392.312     1000 
 1208000   0.44970249    -2.100445   0.67387918   -1.4265658   0.13228147    11374.102     1000 
 1210000   0.43973998   -2.1386391   0.65895036   -1.4796887    0.1019048    11615.414     1000 
 1212000   0.45543465   -2.0601993   0.68246883   -1.3777305   0.12323495    11433.528     1000 
 1214000   0.43662219   -2.0780827   0.65427835   -1.4238043   0.12814241    11419.512     1000 
 1216000   0.45202733   -2.0732831   0.67736295   -1.3959201   0.13395317    11256.941     1000 
 1218000    0.4510871   -2.0707801   0.67595403   -1.3948261   0.12606502    11446.061     1000 
 1220000   0.42340493   -2.0191495   0.63447229   -1.3846772   0.13635206    11263.811     1000 
 1222000    0.4552831   -2.0524587   0.68224173   -1.3702169   0.13462019    11385.302     1000 
 1224000   0.43562306    -2.095116   0.65278115   -1.4423348    0.1391706    11272.804     1000 
 1226000   0.46178721   -2.0221573   0.69198814   -1.3301691   0.13144439    11397.245     1000 
 1228000   0.46051225   -2.0694967   0.69007761   -1.3794191   0.12955209    11498.083     1000 
 1230000   0.44518471   -2.0625889   0.66710929   -1.3954797   0.12778637    11338.666     1000 
 1232000   0.44257141   -2.1118962   0.66319326    -1.448703   0.11578779    11463.855     1000 
 1234000   0.44592536   -2.0334347   0.66821915   -1.3652155   0.13585854    11272.203     1000 
 1236000   0.44598961   -2.0119876   0.66831543   -1.3436722   0.12675515    11303.564     1000 
 1238000   0.43086473   -2.0626154    0.6456508   -1.4169646   0.12237707    11424.785     1000 
 1240000   0.45254594   -2.0600631   0.67814008    -1.381923   0.13056127    11271.295     1000 
 1242000    0.4579119   -2.0623392   0.68618098   -1.3761582   0.12449322    11529.812     1000 
 1244000   0.43777466   -2.0231539   0.65600533   -1.3671486   0.12753891    11281.343     1000 
 1246000   0.44736295   -2.0631831   0.67037338   -1.3928097   0.12464622    11398.407     1000 
 1248000   0.45509934   -2.0692379   0.68196636   -1.3872715   0.11728869    11434.686     1000 
 1250000   0.44141195   -2.0715677    0.6614558   -1.4101119    0.1221828    11458.267     1000 
 1252000   0.44648449   -2.0306039     0.669057   -1.3615469   0.13290266    11347.296     1000 
 1254000   0.46113683   -2.0488694   0.69101353   -1.3578558   0.14284039    11220.504     1000 
 1256000   0.43529734   -2.1110715   0.65229306   -1.4587784   0.13295713    11415.711     1000 
 1258000   0.44636052   -2.0825657   0.66887124   -1.4136945   0.12594085    11392.968     1000 
 1260000   0.44430427   -2.0981902   0.66578995   -1.4324003   0.12893868    11387.543     1000 
 1262000   0.46925371   -2.1007963   0.70317669   -1.3976196   0.13352127    11365.283     1000 
 1264000   0.43417458   -2.0600063   0.65061061   -1.4093956   0.12195497    11312.088     1000 
 1266000   0.44378438   -2.0533968   0.66501089    -1.388386   0.13929412    11324.214     1000 
 1268000   0.45557094   -2.0813938   0.68267306   -1.3987207   0.11718436    11587.403     1000 
 1270000   0.44213305    -1.999961   0.66253638   -1.3374246   0.13515057    11253.985     1000 
 1272000   0.44108597    -2.112218   0.66096733   -1.4512507   0.13223602     11445.06     1000 
 1274000   0.45129408   -2.1051887   0.67626418   -1.4289245   0.12812974    11506.592     1000 
 1276000   0.46566272   -2.0311518   0.69779559   -1.3333562   0.12602811    11398.033     1000 
 1278000   0.45438252   -2.0207782    0.6808922    -1.339886   0.13607973    11302.927     1000 
 1280000   0.44744699   -2.1162622   0.67049931   -1.4457629   0.12162071    11482.719     1000 
 1282000   0.45449713   -2.0496818   0.68106394   -1.3686179   0.13267955    11292.056     1000 
 1284000   0.43541422   -2.0685591   0.65246821   -1.4160909   0.11492025    11450.647     1000 
 1286000   0.44444623   -2.0390537   0.66600267    -1.373051   0.12458037    11434.815     1000 
 1288000   0.46169975   -2.0696805   0.69185707   -1.3778234   0.13146489    11330.453     1000 
 1290000   0.45617749   -2.0804482   0.68358196   -1.3968662   0.12603283    11379.793     1000 
 1292000   0.43455586   -2.1304416   0.65118196   -1.4792596   0.12227571    11482.484     1000 
 1294000   0.45243982   -2.0994914   0.67798107   -1.4215103   0.13258232    11389.149     1000 
 1296000   0.45397361    -2.112685   0.68027945   -1.4324056   0.12946572    11502.436     1000 
 1298000   0.44900891   -2.0906295   0.67283985   -1.4177896   0.12700772    11460.206     1000 
 1300000   0.46214548   -2.0825195   0.69252501   -1.3899945    0.1346427    11287.616     1000 
 1302000    0.4463019   -2.0808558    0.6687834   -1.4120724   0.13141131    11372.295     1000 
 1304000   0.44194267   -2.0461854   0.66225109   -1.3839343   0.12195261    11495.163     1000 
 1306000    0.4253517   -2.1024288   0.63738952   -1.4650393   0.13267033    11512.037     1000 
 1308000   0.45097416   -2.0779861   0.67578478   -1.4022013   0.12316537    11443.018     1000 
 1310000   0.43638789   -2.0381488   0.65392725   -1.3842215   0.13604776    11297.196     1000 
 1312000   0.45643479   -2.0266382   0.68396753   -1.3426706   0.13311047    11395.236     1000 
 1314000   0.45670817    -2.066042   0.68437719   -1.3816648   0.13508368    11401.321     1000 
 1316000    0.4692273   -2.0706051   0.70313711    -1.367468   0.13069036    11233.744     1000 
 1318000   0.45167489   -2.0922257   0.67683483   -1.4153909   0.11305804    11663.682     1000 
 1320000   0.45004202   -2.0224399   0.67438797    -1.348052    0.1375545    11281.531     1000 
 1322000   0.46581256   -2.0541819   0.69802011   -1.3561618   0.13376206    11365.849     1000 
 1324000   0.45180004   -2.0753975   0.67702236   -1.3983751   0.13386772    11373.518     1000 
 1326000   0.43604088   -2.0550922   0.65340725    -1.401685   0.12143849     11407.18     1000 
 1328000   0.46424359   -2.0712998   0.69566901   -1.3756308   0.13131432    11387.111     1000 
 1330000   0.44252558   -2.0715006   0.66312459    -1.408376   0.12967932    11440.714     1000 
 1332000   0.44174419   -2.0555898   0.66195366   -1.3936362   0.13289106    11383.881     1000 
 1334000   0.43866567   -2.0828094    0.6573405   -1.4254689   0.13100562    11429.866     1000 
 1336000   0.43895601   -2.0129315   0.65777557   -1.3551559   0.13235927     11228.76     1000 
 1338000   0.44609172   -2.0705204   0.66846844   -1.4020519   0.13896723    11400.028     1000 
 1340000     0.430238   -2.0336652   0.64471164   -1.3889536   0.12894246    11358.918     1000 
 1342000   0.45367741   -2.0952003    0.6798356   -1.4153646   0.12333733    11493.499     1000 
 1344000   0.43199163   -2.0754069   0.64733946   -1.4280675   0.12253274    11475.838     1000 
 1346000    0.4363151   -2.0941552   0.65381817    -1.440337   0.13106616     11407.34     1000 
 1348000   0.45193464   -2.0555699   0.67722407   -1.3783458   0.14474926    11253.556     1000 
 1350000   0.44893542   -2.0872726   0.67272973   -1.4145429   0.13195174    11419.493     1000 
 1352000    0.4513742   -2.0769174   0.67638423   -1.4005331    0.1353138    11345.729     1000 
 1354000   0.47367825   -2.0327099   0.70980686    -1.322903   0.13062192    11315.421     1000 
 1356000   0.45538076   -2.0557577   0.68238807   -1.3733696    0.1399431    11251.606     1000 
 1358000   0.44216404   -2.0807131   0.66258282   -1.4181302   0.13542417    11373.326     1000 
 1360000   0.45010384     -2.08798   0.67448061   -1.4134994   0.13265447    11364.292     1000 
 1362000   0.45593135   -2.0692915   0.68321313   -1.3860784   0.13351022    11255.866     1000 
 1364000   0.46847896    -2.086341   0.70201572   -1.3843253   0.15308671    11311.836     1000 
 1366000   0.44998895   -2.1009274   0.67430845    -1.426619    0.1411959    11399.108     1000 
 1368000   0.45034201    -2.089034   0.67483751   -1.4141965   0.12652702     11361.76     1000 
 1370000   0.45067069   -2.1093406   0.67533003   -1.4340106   0.11367289    11440.548     1000 
 1372000   0.45687814   -2.0763897   0.68463189   -1.3917578   0.13562818     11496.07     1000 
 1374000   0.45528301   -2.0483846   0.68224159   -1.3661431   0.11902579    11420.264     1000 
 1376000   0.44471597   -2.0759238   0.66640688   -1.4095169   0.13642402    11312.699     1000 
 1378000   0.44383159   -2.0574326   0.66508164    -1.392351   0.13101674    11360.853     1000 
 1380000   0.43999251   -2.0658681   0.65932878   -1.4065393   0.12448188     11474.23     1000 
 1382000   0.44624207   -2.0628818   0.66869374    -1.394188   0.12130259    11452.134     1000 
 1384000   0.43425034   -2.0877879   0.65072413   -1.4370638   0.13117495    11382.636     1000 
 1386000   0.45490248   -2.1179139   0.68167136   -1.4362425   0.12166912    11382.917     1000 
 1388000   0.43957349   -2.0208385   0.65870087   -1.3621376   0.12256068     11396.84     1000 
 1390000   0.45700042   -2.0462926   0.68481512   -1.3614775   0.13919432    11279.366     1000 
 1392000   0.46167915   -2.0533012    0.6918262    -1.361475   0.13797537    11347.531     1000 
 1394000   0.45289483   -2.0587104    0.6786629   -1.3800475   0.12099609    11499.176     1000 
 1396000    0.4456733   -2.0359178   0.66784144   -1.3680764   0.13032843    11330.029     1000 
 1398000   0.45789249     -2.10071   0.68615189   -1.4145581   0.12984621    11481.085     1000 
 1400000   0.43980104   -2.0606406   0.65904186   -1.4015987   0.13840265    11376.438     1000 
 1402000   0.42567851   -2.0535999   0.63787925   -1.4157206   0.12767742    11354.551     1000 
 1404000   0.44645899   -2.0593193   0.66901879   -1.3903006   0.12312038    11385.376     1000 
 1406000   0.45125034   -2.0933615   0.67619864   -1.4171629   0.12801789    11447.849     1000 
 1408000   0.45441383     -2.06155   0.68093913   -1.3806109   0.12832787    11364.637     1000 
 1410000   0.45193896   -2.0742382   0.67723053   -1.3970077   0.11987727     11395.45     1000 
 1412000   0.44917399   -2.0588675   0.67308723   -1.3857803    0.1299907    11399.865     1000 
 1414000   0.45538444   -2.0724565   0.68239358   -1.3900629   0.12805061     11350.85     1000 
 1416000   0.46188848   -2.0584982   0.69213989   -1.3663583   0.13678255    11310.828     1000 
 1418000   0.46052765   -2.0810715   0.69010069   -1.3909708   0.13782544    11315.389     1000 
 1420000   0.44166119   -2.0971345   0.66182929   -1.4353052   0.12797591     11429.62     1000 
 1422000   0.44286652   -2.0852294   0.66363549   -1.4215939   0.13471806    11305.296     1000 
 1424000   0.43516572    -2.055771   0.65209584   -1.4036751   0.12784666     11359.36     1000 
 1426000   0.44212638   -2.0539472   0.66252637   -1.3914208   0.13534584    11313.709     1000 
 1428000   0.45402392   -2.1140105   0.68035485   -1.4336557   0.12051253    11480.846     1000 
 1430000   0.44045153   -2.0621974   0.66001661   -1.4021808   0.12775965     11303.72     1000 
 1432000    0.4565665   -2.0421802   0.68416489   -1.3580153   0.13064079    11440.578     1000 
 1434000   0.45561086   -2.0549516   0.68273288   -1.3722187   0.13061199    11377.159     1000 
 1436000   0.46287323   -2.0949933   0.69361554   -1.4013778   0.12586514    11444.313     1000 
 1438000   0.46586953   -2.0883095    0.6981055    -1.390204   0.14118373    11339.081     1000 
 1440000   0.44506703   -2.0372572   0.66693295   -1.3703243   0.14110693    11285.543     1000 
 1442000   0.42940386    -2.023669   0.64346168   -1.3802073   0.13599677    11332.656     1000 
 1444000   0.44900965   -2.0771995   0.67284097   -1.4043585   0.13116935     11363.57     1000 
 1446000   0.45578428    -2.066731   0.68299274   -1.3837382   0.12529571    11383.952     1000 
 1448000   0.44309908   -2.0753058   0.66398396   -1.4113218   0.12615797    11461.819     1000 
 1450000   0.45583228   -2.0540345   0.68306467   -1.3709698   0.12537545    11482.425     1000 
 1452000   0.42068374    -2.105005   0.63039459   -1.4746104   0.14077788      11288.4     1000 
 1454000    0.4710818   -2.0666908   0.70591608   -1.3607747   0.12273717    11360.605     1000 
 1456000   0.46117407   -2.0679883   0.69106934   -1.3769189   0.12977826    11434.907     1000 
 1458000   0.44660551   -2.0918427   0.66923836   -1.4226043   0.14071368    11307.512     1000 
 1460000   0.43098258   -2.0653792   0.64582739   -1.4195518   0.12066877    11343.022     1000 
 1462000   0.46838703   -2.0978251   0.70187796   -1.3959471   0.12273958    11526.585     1000 
 1464000   0.44531734   -2.0805151   0.66730803   -1.4132071   0.13200207    11388.169     1000 
 1466000   0.45332176   -2.0690387   0.67930266   -1.3897361    0.1352657    11392.403     1000 
 1468000   0.47160242   -2.0635378   0.70669622   -1.3568415   0.14257348     11231.52     1000 
 1470000   0.45033775   -2.0520011   0.67483112     -1.37717   0.13656239    11236.488     1000 
 1472000   0.44520101    -2.062019   0.66713372   -1.3948853   0.13945338    11310.392     1000 
 1474000   0.45027868   -2.0969108   0.67474261   -1.4221682   0.12664062    11471.765     1000 
 1476000   0.43735836   -2.1225463    0.6553815   -1.4671648   0.12984794    11409.498     1000 
 1478000   0.45723611   -2.0407882   0.68516831   -1.3556199   0.12994751    11382.933     1000 
 1480000   0.44680829   -2.0409887   0.66954222   -1.3714465   0.12743138    11398.729     1000 
 1482000   0.45398998   -2.0560136   0.68030399   -1.3757096   0.13546245    11328.784     1000 
 1484000   0.44518355   -2.0797031   0.66710756   -1.4125955   0.13025347    11404.305     1000 
 1486000   0.45774285   -2.1081387   0.68592766   -1.4222111   0.11913258     11486.31     1000 
 1488000   0.44815971   -2.0622686   0.67156733   -1.3907013    0.1278019    11254.677     1000 
 1490000   0.42887369   -2.0496254   0.64266722   -1.4069582   0.13305087    11253.727     1000 
 1492000   0.45647662   -2.1146417   0.68403022   -1.4306115   0.12402681     11465.85     1000 
 1494000   0.44344379   -2.0219327   0.66450052   -1.3574322     0.121975     11330.63     1000 
 1496000   0.44395816   -2.0941493   0.66527131    -1.428878   0.12433818    11403.521     1000 
 1498000    0.4510506   -2.0112064   0.67589933    -1.335307   0.13480654    11254.005     1000 
 1500000   0.47210756   -2.0488016   0.70745318   -1.3413484   0.14259531    11205.395     1000 
 1502000   0.46637961   -2.0267584   0.69886984   -1.3278886   0.12537636    11311.832     1000 
 1504000   0.45380308   -2.0417475   0.68002391   -1.3617236   0.13101835    11191.622     1000 
 1506000    0.4598144    -2.040458   0.68903188   -1.3514262   0.13538631    11374.169     1000 
 1508000   0.45276333    -2.110997   0.67846584   -1.4325311   0.13087037    11367.938     1000 
 1510000   0.43317762   -2.1039756   0.64911667   -1.4548589   0.12767669    11435.885     1000 
 1512000   0.45962202    -2.040299    0.6887436   -1.3515554   0.14541152     11228.84     1000 
 1514000   0.47650312   -2.0727106   0.71403993   -1.3586706   0.13887285    11303.169     1000 
 1516000   0.44502911   -2.0214677   0.66687611   -1.3545916    0.1249167    11334.867     1000 
 1518000   0.44648203    -2.078244   0.66905333   -1.4091907   0.12659469    11381.524     1000 
 1520000   0.47484437   -2.0826158   0.71155428   -1.3710615   0.14409663    11321.939     1000 
 1522000   0.44614615   -2.0427916      0.66855   -1.3742416   0.13288597    11428.914     1000 
 1524000   0.45238752   -2.0305413    0.6779027   -1.3526386   0.12171451    11360.142     1000 
 1526000   0.43571803   -2.0546852   0.65292347   -1.4017617   0.13009544     11364.65     1000 
 1528000   0.45612801   -2.0616508   0.68350783    -1.378143   0.13296007    11407.142     1000 
 1530000   0.43750796   -2.0699662   0.65560568   -1.4143605   0.11974748     11409.61     1000 
 1532000   0.44640024   -2.0778652   0.66893077   -1.4089344   0.13037825    11463.722     1000 
 1534000   0.45369597    -2.041616    0.6798634   -1.3617526   0.11550613    11486.382     1000 
 1536000   0.44733266   -2.0893716   0.67032799   -1.4190436   0.11859718    11446.121     1000 
 1538000   0.45315242   -2.0690633    0.6790489   -1.3900144   0.12523537    11384.747     1000 
 1540000   0.44921595   -2.0660167   0.67315011   -1.3928666   0.11971582    11353.677     1000 
 1542000   0.43052316   -2.0777571   0.64513895   -1.4326181   0.12835619    11527.066     1000 
 1544000   0.44860382   -2.0545587   0.67223283   -1.3823258   0.14185122    11263.944     1000 
 1546000   0.45170531   -2.0523738   0.67688041   -1.3754934   0.13864483    11301.092     1000 
 1548000   0.46738311   -2.1035007   0.70037359   -1.4031271   0.12511187    11372.893     1000 
 1550000   0.44118813   -2.0916979   0.66112041   -1.4305775   0.12303348    11519.901     1000 
 1552000   0.48057883   -2.0862572   0.72014737   -1.3661099   0.13346968    11454.455     1000 
 1554000    0.4636181   -2.0054174   0.69473172   -1.3106857   0.14069083    11340.994     1000 
 1556000   0.45549109    -2.087185    0.6825534   -1.4046316   0.13572913    11270.269     1000 
 1558000   0.45427537   -2.0646409   0.68073164   -1.3839092    0.1288101    11381.538     1000 
 1560000   0.44682446   -2.0630208   0.66956645   -1.3934544   0.11737443    11549.674     1000 
 1562000   0.45313315   -2.0981142   0.67902003   -1.4190941    0.1353055    11365.952     1000 
 1564000   0.45012467   -2.0868103   0.67451182   -1.4122984    0.1390692     11296.26     1000 
 1566000   0.45286138   -2.0849779   0.67861277   -1.4063651   0.12626594    11366.147     1000 
 1568000   0.45049365   -2.0150923   0.67506473   -1.3400276    0.1269172    11438.515     1000 
 1570000   0.45549259    -2.069683   0.68255564   -1.3871274   0.13392107    11394.549     1000 
 1572000   0.44683355    -2.080598   0.66958007   -1.4110179   0.12363357    11370.253     1000 
 1574000   0.43492487   -2.1049714   0.65173492   -1.4532364   0.12862738    11406.102     1000 
 1576000   0.42605866   -2.0372272    0.6384489   -1.3987783   0.13224741    11250.904     1000 
 1578000   0.45500846   -2.1005084   0.68183018   -1.4186783    0.1197595    11443.294     1000 
 1580000      0.46303   -2.0546204   0.69385046   -1.3607699   0.13909168    11358.071     1000 
 1582000   0.44978931   -1.9984499   0.67400928   -1.3244407   0.13846807    11235.028     1000 
 1584000   0.42369411   -2.0383361   0.63490562   -1.4034305   0.14148913    11249.279     1000 
 1586000   0.44603006   -2.0411712   0.66837604   -1.3727951   0.12759711    11381.677     1000 
 1588000   0.46493286   -2.0298546   0.69670188   -1.3331527   0.13895779    11294.375     1000 
 1590000   0.45745472   -2.0801218    0.6854959   -1.3946259   0.13925686    11267.684     1000 
 1592000   0.46329448   -2.0347484   0.69424678   -1.3405016   0.12084581    11448.781     1000 
 1594000   0.46588174   -2.0904061   0.69812378   -1.3922823   0.13240397    11333.754     1000 
 1596000   0.47466195   -2.1039907   0.71128094   -1.3927097   0.12801981    11412.575     1000 
[...]
 2612000   0.46173207   -2.1022091   0.69190551   -1.4103036   0.11571149     11561.15     1000 
 2614000   0.45862915    -2.083581   0.68725579   -1.3963252   0.13665658    11403.004     1000 
 2616000   0.45730941   -2.0612695   0.68527816   -1.3759913   0.11907039    11504.777     1000 
 2618000   0.45074964   -2.0482517   0.67544834   -1.3728034   0.12286957    11373.411     1000 
 2620000   0.44712154   -2.0503982   0.67001163   -1.3803866   0.11984355    11439.332     1000 
 2622000   0.45803448   -2.1035548   0.68636467   -1.4171902   0.13096201    11412.554     1000 
 2624000   0.44625133   -2.0622502   0.66870762   -1.3935426   0.13353805    11293.573     1000 
 2626000   0.46346646   -2.0529393   0.69450449   -1.3584348   0.13097979    11304.752     1000 
 2628000   0.44288095   -2.0597603    0.6636571   -1.3961032   0.13094467    11414.958     1000 
 2630000   0.46111712   -2.0257932     0.690984   -1.3348092   0.11767168     11467.99     1000 
 2632000   0.42603636     -2.06576   0.63841549   -1.4273445   0.13423962    11342.606     1000 
 2634000   0.44362564   -2.1455906   0.66477302   -1.4808176    0.1274953    11470.742     1000 
 2636000   0.45522616   -1.9998793   0.68215639   -1.3177229   0.14509307    11195.982     1000 
 2638000   0.45642669   -2.0827271   0.68395539   -1.3987717   0.11912116    11477.496     1000 
 2640000   0.45142177   -2.1372629   0.67645552   -1.4608074   0.12959011    11471.401     1000 
 2642000   0.44535408   -2.0782373    0.6673631   -1.4108742   0.13326864    11396.568     1000 
 2644000    0.4380069   -2.0854901   0.65635334   -1.4291368   0.13520703     11299.28     1000 
 2646000   0.43117606   -2.0242743   0.64611732   -1.3781569   0.12614618     11358.14     1000 
 2648000   0.44750014   -2.0258388   0.67057896   -1.3552599   0.12081652    11475.251     1000 
 2650000   0.45064761   -2.0342104   0.67529545    -1.358915   0.12917619    11343.197     1000 
 2652000   0.47577783   -2.0900446   0.71295308   -1.3770915   0.14015182     11324.19     1000 
 2654000   0.45803335    -2.085234   0.68636298   -1.3988711   0.13449192    11368.281     1000 
 2656000   0.45182771   -2.0638764   0.67706383   -1.3868126   0.11969257    11489.646     1000 
 2658000   0.46247924   -2.0226768   0.69302513   -1.3296517   0.12999351    11425.291     1000 
 2660000    0.4502392   -2.0854855   0.67468344    -1.410802     0.129359    11369.621     1000 
 2662000   0.43285398   -2.0789617   0.64863168   -1.4303301   0.12809743    11332.912     1000 
 2664000   0.44876639   -2.0470693   0.67247644   -1.3745928   0.13446233     11288.09     1000 
 2666000   0.45097455   -2.0166873   0.67578536   -1.3409019   0.14458309    11122.078     1000 
 2668000   0.46101744   -2.0694376   0.69083464   -1.3786029   0.14443157    11264.234     1000 
 2670000   0.45653628   -2.1426815   0.68411962   -1.4585619    0.1332859    11401.202     1000 
 2672000   0.45791095   -2.0804793   0.68617956   -1.3942997   0.12151083    11442.286     1000 
 2674000   0.44259522    -2.106992   0.66322894   -1.4437631   0.12495258    11496.291     1000 
 2676000    0.4669968   -2.0507578   0.69979471   -1.3509631   0.14172852    11295.484     1000 
 2678000   0.46901007   -2.0735671   0.70281159   -1.3707555   0.14151895    11258.445     1000 
 2680000   0.44255437    -2.007447   0.66316772   -1.3442793   0.12717023    11338.626     1000 
 2682000   0.44923826   -2.0292614   0.67318353   -1.3560779   0.12311648    11383.604     1000 
 2684000   0.44622754   -2.0316625   0.66867197   -1.3629905   0.11937364    11448.124     1000 
 2686000   0.44368892   -2.0788805   0.66486784   -1.4140126   0.11225808    11490.586     1000 
 2688000   0.42724112   -2.0765299   0.64022082   -1.4363091   0.12847467    11310.388     1000 
 2690000   0.44596354   -2.0910519   0.66827637   -1.4227755   0.12986404    11447.765     1000 
 2692000   0.43399486   -2.0990146    0.6503413   -1.4486733   0.12676288    11359.868     1000 
 2694000    0.4617311   -2.0761074   0.69190405   -1.3842034   0.13053984    11422.171     1000 
 2696000   0.45947174   -2.0774299   0.68851841   -1.3889115   0.12331081    11426.025     1000 
 2698000   0.45158796   -2.1110909   0.67670456   -1.4343864   0.13414951    11337.273     1000 
 2700000   0.45568165   -2.1002854   0.68283896   -1.4174465   0.12338691    11406.838     1000 
 2702000   0.44676106     -2.06508   0.66947144   -1.3956085   0.11792616    11526.813     1000 
 2704000   0.45635983   -2.0780288   0.68385521   -1.3941736   0.13562757    11278.419     1000 
 2706000   0.45675413   -2.0611712   0.68444607   -1.3767251   0.13369817    11318.023     1000 
 2708000   0.44391214   -2.0906366   0.66520234   -1.4254342   0.12958896    11395.755     1000 
 2710000   0.45043299   -1.9918535   0.67497384   -1.3168797   0.13154884     11228.35     1000 
 2712000   0.45583948   -2.0400642   0.68307547   -1.3569888   0.11759054    11374.839     1000 
 2714000   0.45477741   -2.0918261   0.68148395   -1.4103421   0.13140092    11412.517     1000 
 2716000   0.44503664    -2.081036    0.6668874   -1.4141486   0.12355937     11475.24     1000 
 2718000   0.45905393   -2.0714442   0.68789231   -1.3835518   0.13443929    11341.803     1000 
 2720000   0.43603542   -2.0973509   0.65339908   -1.4439518   0.12607685    11360.016     1000 
 2722000   0.45812413   -2.0795627     0.686499   -1.3930637   0.12464643     11370.84     1000 
 2724000   0.46173127   -2.0496892   0.69190431   -1.3577849   0.12529409    11345.214     1000 
 2726000   0.44166551   -2.0842163   0.66183576   -1.4223806   0.11693794     11509.19     1000 
 2728000   0.44976091    -2.106787   0.67396673   -1.4328203     0.121542     11433.95     1000 
 2730000   0.44011258   -2.0376848    0.6595087    -1.378176   0.14462414    11158.801     1000 
 2732000   0.43794046   -2.0709701   0.65625378   -1.4147163   0.12688782    11284.376     1000 
 2734000   0.44866351   -2.0551551   0.67232226   -1.3828328   0.12493226    11225.469     1000 
 2736000   0.44026821   -2.1300848   0.65974192   -1.4703429   0.11913413    11471.244     1000 
 2738000   0.44423791   -2.0133574   0.66569051   -1.3476669   0.13672674    11225.058     1000 
 2740000   0.45896648   -2.0556248   0.68776128   -1.3678635   0.13337914    11317.668     1000 
 2742000   0.46512844   -2.0503862   0.69699497   -1.3533912   0.13526477    11233.825     1000 
 2744000    0.4447717   -2.0507737    0.6664904   -1.3842833   0.12207331    11420.151     1000 
 2746000   0.44365407   -2.1001108   0.66481562   -1.4352952   0.11322668      11511.7     1000 
 2748000   0.44211328   -2.1003844   0.66250675   -1.4378776   0.13729097     11410.81     1000 
 2750000   0.43341795    -2.073516   0.64947679   -1.4240392   0.11734621    11487.042     1000 
 2752000   0.44154063   -2.0722933   0.66164864   -1.4106446   0.13277081    11405.741     1000 
 2754000     0.431616   -2.0428215   0.64677658   -1.3960449   0.12725539    11445.564     1000 
 2756000    0.4609594   -2.0701468   0.69074766   -1.3793991   0.12497497    11489.303     1000 
 2758000   0.44076555   -2.1197054   0.66048718   -1.4592182    0.1247805    11393.656     1000 
 2760000   0.44513282   -2.0008137   0.66703153   -1.3337821   0.12496632    11390.979     1000 
 2762000    0.4564234   -2.0858902   0.68395046   -1.4019397   0.13765021    11375.191     1000 
 2764000   0.44255697   -2.0235432   0.66317161   -1.3603716   0.13461268    11234.411     1000 
 2766000   0.44475258   -2.0892754   0.66646175   -1.4228137   0.13048261    11286.528     1000 
 2768000   0.45807869    -2.066496   0.68643091    -1.380065   0.13038651    11315.579     1000 
 2770000   0.45887253   -2.0806586   0.68762049   -1.3930381   0.12115206    11497.965     1000 
 2772000   0.45784931   -2.0729726   0.68608719   -1.3868854   0.13422466    11362.798     1000 
 2774000   0.45554658   -2.0340217   0.68263654   -1.3513852   0.13793917    11337.439     1000 
 2776000   0.47323038    -2.036141   0.70913573   -1.3270053   0.12331835    11369.032     1000 
 2778000   0.44678239   -2.0989951   0.66950341   -1.4294916   0.13341805    11249.306     1000 
 2780000   0.43589383   -2.0347128    0.6531869   -1.3815259   0.13242321    11313.287     1000 
 2782000   0.45335826   -2.1126139   0.67935736   -1.4332566   0.13100171    11385.083     1000 
 2784000   0.45022304   -2.0620085   0.67465923   -1.3873493    0.1239009    11424.752     1000 
 2786000   0.45474625   -2.0936187   0.68143725   -1.4121815   0.12119256    11569.059     1000 
 2788000   0.45586298   -2.1004782   0.68311068   -1.4173675   0.12780277     11394.73     1000 
 2790000   0.45622696   -2.0549288    0.6836561   -1.3712727   0.12373776    11497.285     1000 
 2792000   0.43600389   -2.0500104   0.65335183   -1.3966585   0.13475504    11364.415     1000 
 2794000   0.43861481   -2.0805832   0.65726429   -1.4233189   0.13303923    11262.153     1000 
 2796000   0.46180916   -2.0574463   0.69202102   -1.3654253   0.13622602    11360.165     1000 
 2798000   0.45003585   -2.0463804   0.67437872   -1.3720017   0.12202418     11393.38     1000 
 2800000   0.43381679   -2.0726797   0.65007446   -1.4226052   0.13227503    11376.157     1000 
 2802000   0.44165473   -2.0712017   0.66181962   -1.4093821   0.13106599    11354.444     1000 
 2804000   0.45932169   -2.0504788   0.68829355   -1.3621853   0.13346963    11334.618     1000 
 2806000   0.45340002   -2.0232525   0.67941992   -1.3438325   0.14164636    11267.831     1000 
 2808000   0.45770502   -2.0792516   0.68587097   -1.3933806   0.13090736    11349.483     1000 
 2810000   0.46939223   -2.0930173   0.70338426    -1.389633   0.13131855    11391.876     1000 
 2812000   0.44834836   -2.0938959   0.67185002   -1.4220458   0.13696222    11316.454     1000 
 2814000   0.44651238   -2.1181861   0.66909881   -1.4490873   0.12532898    11417.362     1000 
 2816000   0.44612404   -2.0688157   0.66851687   -1.4002989   0.12628292    11313.001     1000 
 2818000   0.44723183   -2.0553939    0.6701769    -1.385217   0.12668462    11376.986     1000 
 2820000    0.4651041   -2.1041267    0.6969585   -1.4071682   0.13107595    11303.172     1000 
 2822000   0.45368613   -2.0551603   0.67984866   -1.3753116   0.13299333    11305.363     1000 
 2824000   0.43711755   -2.0902596   0.65502064   -1.4352389   0.12844942    11473.352     1000 
 2826000    0.4446382   -2.0712933   0.66629034    -1.405003   0.13956343    11326.421     1000 
 2828000   0.45045059   -2.0819811   0.67500021   -1.4069809    0.1297975      11428.4     1000 
 2830000   0.46041401   -1.9921444   0.68993039    -1.302214   0.13283866    11266.852     1000 
 2832000   0.45458377   -2.0881902   0.68119378   -1.4069965   0.13010605    11306.986     1000 
 2834000   0.42550433   -2.0619181   0.63761823   -1.4242999   0.14211593    11247.561     1000 
 2836000   0.44509129   -2.0469118   0.66696929   -1.3799425   0.12532017    11403.391     1000 
 2838000   0.44902714   -2.0540314   0.67286717   -1.3811642   0.13525102    11294.825     1000 
 2840000   0.45891211   -2.0386805   0.68767979   -1.3510008   0.11929038    11447.609     1000 
 2842000   0.45239316   -2.0531824   0.67791115   -1.3752712   0.13415126    11301.219     1000 
 2844000   0.46841169   -2.0448903   0.70191492   -1.3429754   0.13219914    11353.064     1000 
 2846000   0.43743785   -2.0563856   0.65550062    -1.400885   0.11734019    11386.341     1000 
 2848000    0.4337444   -2.0698265   0.64996598   -1.4198605   0.11553384    11529.663     1000 
 2850000   0.44838897   -2.0120977   0.67191088   -1.3401868   0.13412145    11233.998     1000 
 2852000   0.45215721   -2.0115101   0.67755757   -1.3339525   0.12811422     11322.54     1000 
 2854000   0.45537511   -2.0702196    0.6823796   -1.3878401    0.1273707    11473.434     1000 
 2856000   0.44027592   -2.0920462   0.65975346   -1.4322927   0.12589552    11421.197     1000 
 2858000   0.46621463   -2.0645111   0.69862262   -1.3658885     0.125085    11363.832     1000 
 2860000     0.450908   -2.0607781   0.67568564   -1.3850925   0.13101912      11324.8     1000 
 2862000   0.42267896   -2.1018951   0.63338442   -1.4685107    0.1380908    11217.645     1000 
 2864000    0.4457668   -2.0290156   0.66798156   -1.3610341   0.11792383    11291.109     1000 
 2866000    0.4449816   -2.0520044   0.66680492   -1.3851995   0.13260915    11263.171     1000 
 2868000   0.44477065   -2.0514708   0.66648882   -1.3849819   0.12728968    11436.743     1000 
 2870000   0.45838676   -2.0094167   0.68689256   -1.3225242   0.13317915    11353.735     1000 
 2872000     0.456836   -2.0297637   0.68456874   -1.3451949   0.12944326    11258.023     1000 
 2874000   0.46556909    -2.056858   0.69765528   -1.3592027   0.12195022    11542.852     1000 
 2876000   0.44538189   -2.0342649   0.66740477   -1.3668601   0.14558515    11142.164     1000 
 2878000   0.44521987   -1.9731735   0.66716198   -1.3060115   0.13051155    11260.016     1000 
 2880000   0.44736823    -2.054059   0.67038129   -1.3836777   0.13486413    11262.464     1000 
 2882000   0.43211573   -2.0793288   0.64752542   -1.4318034   0.12511281    11395.346     1000 
 2884000    0.4429706   -2.0767917   0.66379145   -1.4130003   0.13485881    11248.446     1000 
 2886000   0.43937626    -2.096262   0.65840533   -1.4378567   0.13645504    11355.543     1000 
 2888000   0.43948138    -2.046541   0.65856284   -1.3879782   0.13540921    11357.471     1000 
 2890000   0.43683954   -2.0835573   0.65460405   -1.4289533   0.12330133    11451.449     1000 
 2892000   0.42233532   -2.0253055   0.63286948   -1.3924361   0.13827454    11274.492     1000 
 2894000   0.43703074   -2.0383406   0.65489057     -1.38345    0.1299737     11341.35     1000 
 2896000   0.44591911   -1.9901836   0.66820978   -1.3219738   0.12908128    11477.426     1000 
 2898000   0.43058761   -2.0659946   0.64523554   -1.4207591   0.12297383    11364.637     1000 
 2900000   0.43042909   -2.0523312     0.644998   -1.4073332   0.12903079     11369.54     1000 
 2902000   0.46080465   -2.0620424   0.69051577   -1.3715266   0.11863621    11413.174     1000 
 2904000   0.44916871   -2.0401492   0.67307932   -1.3670699    0.1402194    11236.421     1000 
 2906000   0.45520577   -2.0747134   0.68212584   -1.3925876   0.12269423    11435.188     1000 
 2908000   0.45804226   -2.0303797   0.68637632   -1.3440033   0.13423344    11303.408     1000 
 2910000   0.44816513   -2.0962712   0.67157544   -1.4246958   0.11623655     11466.54     1000 
 2912000   0.44940561   -2.0134062   0.67343431   -1.3399719   0.13031962    11334.845     1000 
 2914000   0.45235599   -2.0942066   0.67785546   -1.4163512   0.12746355     11386.06     1000 
 2916000   0.44671976   -2.0524895   0.66940956     -1.38308   0.12859362    11425.059     1000 
 2918000   0.44321001   -2.0461864   0.66415019   -1.3820362   0.11973439     11399.19     1000 
 2920000   0.44934169   -2.0552644   0.67333852   -1.3819258   0.13642802     11450.37     1000 
 2922000   0.45621913   -2.0712012   0.68364437   -1.3875569   0.12844701    11426.162     1000 
 2924000   0.45315428   -2.1141014   0.67905168   -1.4350498   0.12851731    11491.638     1000 
 2926000   0.43750071   -2.0797504   0.65559481   -1.4241556    0.1244872    11459.588     1000 
 2928000   0.44478907   -2.0377675   0.66651643    -1.371251   0.12702847    11276.286     1000 
 2930000   0.44029176    -2.052031    0.6597772   -1.3922538   0.12552542    11374.953     1000 
 2932000    0.4577611   -2.0669543   0.68595501   -1.3809993   0.12648425    11395.367     1000 
 2934000   0.45509844   -2.0609457   0.68196501   -1.3789807   0.13558828    11313.406     1000 
 2936000   0.44986941   -2.0845396   0.67412931   -1.4104103   0.12453673    11471.995     1000 
 2938000    0.4446567   -2.0624966   0.66631806   -1.3961785   0.12508268    11524.046     1000 
 2940000    0.4579302   -2.0496445    0.6862084   -1.3634361   0.12458081    11351.534     1000 
 2942000    0.4330752   -2.0792836   0.64896319   -1.4303204   0.12639496    11471.871     1000 
 2944000    0.4640779   -2.0672137   0.69542073   -1.3717929   0.14661966     11196.57     1000 
 2946000   0.44209791   -2.0293885   0.66248372   -1.3669048    0.1382246    11208.536     1000 
 2948000   0.45262627   -2.0437686   0.67826047   -1.3655081   0.13517778    11350.651     1000 
 2950000   0.44222455   -2.0725589   0.66267349   -1.4098854    0.1219188    11502.559     1000 
 2952000   0.45805562   -2.0375824   0.68639635    -1.351186   0.13660556    11360.069     1000 
 2954000   0.47717109   -2.0294446   0.71504087   -1.3144038   0.13561181     11347.72     1000 
 2956000   0.46431259    -2.066323   0.69577242   -1.3705506    0.1248366    11509.801     1000 
 2958000    0.4553896   -2.0856066   0.68240132   -1.4032053   0.13013302    11331.726     1000 
 2960000   0.44676579   -2.0488711   0.66947854   -1.3793926   0.12823015    11305.519     1000 
 2962000   0.44846284   -2.0752238   0.67202156   -1.4032022   0.13636965     11330.46     1000 
 2964000   0.45795689   -2.1121618    0.6862484   -1.4259134   0.12952995    11486.942     1000 
 2966000   0.43024798   -2.0244674   0.64472659   -1.3797408    0.1403578    11242.582     1000 
 2968000   0.43073706   -2.0416906   0.64545949   -1.3962311   0.12752077    11396.332     1000 
 2970000   0.43453099   -2.0079982   0.65114468   -1.3568535   0.13553678    11337.139     1000 
 2972000   0.44433063   -2.0943043   0.66582945   -1.4284749   0.13873583    11392.349     1000 
 2974000   0.45147787   -2.0585662   0.67653959   -1.3820266   0.13906209    11387.211     1000 
 2976000   0.43569071   -2.0406367   0.65288254   -1.3877542   0.12924008    11338.004     1000 
 2978000    0.4519787   -2.0778153   0.67729008   -1.4005252    0.1277205     11273.34     1000 
 2980000   0.46238139   -2.0790599   0.69287851   -1.3861814   0.13709662     11373.93     1000 
 2982000   0.45457614   -2.0570433   0.68118235    -1.375861   0.12744848    11470.827     1000 
 2984000   0.45829726   -2.0776576   0.68675845   -1.3908992   0.12694552     11343.26     1000 
 2986000   0.44430751   -2.0041758    0.6657948    -1.338381   0.14867022    11152.193     1000 
 2988000    0.4517751   -2.0393995   0.67698499   -1.3624145   0.13350198    11403.703     1000 
 2990000    0.4456803   -2.0646648   0.66785193   -1.3968129   0.12398907    11450.961     1000 
 2992000   0.45327845   -2.0428656   0.67923776   -1.3636279   0.14035857    11288.153     1000 
 2994000   0.46884685   -2.1222718   0.70256701   -1.4197048   0.14101148    11367.018     1000 
 2996000   0.44440693   -2.0932373   0.66594378   -1.4272935   0.11991677    11534.718     1000 
 2998000   0.45236404   -2.0444396   0.67786751   -1.3665721   0.13480288    11338.035     1000 
 3000000   0.43796253   -2.0925448   0.65628685    -1.436258   0.13392646    11215.529     1000 
Loop time of 1798.72 on 4 procs for 3000000 steps with 1000 atoms

Performance: 720510.909 tau/day, 1667.849 timesteps/s
95.8% CPU use with 4 MPI tasks x no OpenMP threads

MPI task timing breakdown:
Section |  min time  |  avg time  |  max time  |%varavg| %total
---------------------------------------------------------------
Pair    | 1165.1     | 1247.7     | 1348.5     | 188.1 | 69.36
Neigh   | 100.25     | 105.87     | 112.67     |  43.8 |  5.89
Comm    | 250.29     | 359.51     | 448.94     | 379.4 | 19.99
Output  | 0.037025   | 0.052272   | 0.097824   |  11.5 |  0.00
Modify  | 74.949     | 75.837     | 76.314     |   6.3 |  4.22
Other   |            | 9.778      |            |       |  0.54

Nlocal:    250 ave 251 max 248 min
Histogram: 1 0 0 0 0 0 1 0 0 2
Nghost:    1727.25 ave 1732 max 1724 min
Histogram: 1 1 0 0 0 1 0 0 0 1
Neighs:    14636.5 ave 14921 max 14384 min
Histogram: 2 0 0 0 0 0 0 0 1 1

Total # of neighbors = 58546
Ave neighs/atom = 58.546
Neighbor list builds = 150000
Dangerous builds not checked

Total wall time: 0:29:58
