LAMMPS (3 Mar 2020)
# ----------------------- Inicialização -----------------------

units			lj
atom_style 		atomic
dimension 		3
boundary 		p p p

# -------------------- Criação dos Átomos ---------------------

read_data 		topologia.txt
  orthogonal box = (0 0 0) to (21.54 21.54 21.54)
  1 by 2 by 2 MPI processor grid
  reading atoms ...
  1000 atoms
  read_data CPU = 0.00220599 secs

velocity 		all create ${temp} 87287 rot yes dist gaussian
velocity 		all create 0.59 87287 rot yes dist gaussian

# ------------------ Interação Interatômica -------------------

pair_style		table linear 1300
pair_coeff		1 1 force.table AA 6.5
WARNING: 2 of 1300 force values in table are inconsistent with -dE/dr.
  Should only be flagged at inflection points (src/pair_table.cpp:483)
pair_coeff		1 2 force.table AB 6.5
WARNING: 1 of 1300 force values in table are inconsistent with -dE/dr.
  Should only be flagged at inflection points (src/pair_table.cpp:483)
pair_coeff		2 2 force.table BB 6.5
pair_write		1 1 1600 r 0.008 6.5 table.check AA
Neighbor list info ...
  update every 1 steps, delay 10 steps, check yes
  max neighbors/atom: 2000, page size: 100000
  master list distance cutoff = 6.8
  ghost atom cutoff = 6.8
  binsize = 3.4, bins = 7 7 7
  1 neighbor lists, perpetual/occasional/extra = 1 0 0
  (1) pair table, perpetual
      attributes: half, newton on
      pair build: half/bin/atomonly/newton
      stencil: half/bin/3d/newton
      bin: standard
pair_write		1 2 1600 r 0.008 6.5 table.check AB
pair_write		2 2 1600 r 0.008 6.5 table.check BB

neighbor 		0.3 bin
neigh_modify	every 20 delay 0 check no

# ------------------------- Ensemble --------------------------------------

fix 1			all npt temp ${temp} ${temp} 0.5 iso ${press} ${press} 5
fix 1			all npt temp 0.59 ${temp} 0.5 iso ${press} ${press} 5
fix 1			all npt temp 0.59 0.59 0.5 iso ${press} ${press} 5
fix 1			all npt temp 0.59 0.59 0.5 iso 0.13 ${press} 5
fix 1			all npt temp 0.59 0.59 0.5 iso 0.13 0.13 5

# ---------------------- Função de Distribuição Radial -----------------------

#compute RDF 	all rdf 2000 1 1 1 2 2 2
#fix 2 			all ave/time 1 2000 2000 c_RDF[*] file rdf.data mode vector

# ------------------------- Execução ---------------------------

timestep 		0.005
thermo_style	custom step temp pe ke etotal press vol atoms
thermo			2000
run				3000000
Per MPI rank memory allocation (min/avg/max) = 2.675 | 2.675 | 2.675 Mbytes
Step Temp PotEng KinEng TotEng Press Volume Atoms 
       0         0.59   -0.9940566     0.884115   -0.1099416   0.12737572    9993.9483     1000 
    2000   0.58392207   -1.7282786   0.87500723  -0.85327139   0.11098517    11631.405     1000 
    4000   0.58615939   -1.7119911   0.87835984  -0.83363131   0.14381297    11281.042     1000 
    6000   0.57074277   -1.7002738   0.85525804  -0.84501576   0.12403605    11415.164     1000 
    8000   0.59519793   -1.6999801    0.8919041    -0.808076   0.12945926    11438.337     1000 
   10000   0.57687263   -1.7230157   0.86444364  -0.85857211   0.12287009    11639.825     1000 
   12000   0.59576278   -1.7541538   0.89275053  -0.86140323   0.12506267    11471.527     1000 
   14000   0.59620854   -1.7069034    0.8934185  -0.81348488   0.12297199    11535.787     1000 
   16000   0.60695356   -1.6729034   0.90951992  -0.76338348   0.13253887    11407.183     1000 
   18000   0.59312353   -1.6960133   0.88879561   -0.8072177   0.12797857     11656.66     1000 
   20000   0.60767829   -1.6875862   0.91060591  -0.77698029    0.1279423    11459.256     1000 
   22000   0.57947796   -1.6892921   0.86834773  -0.82094437   0.12096923    11475.557     1000 
   24000   0.59118579    -1.685971   0.88589191  -0.80007908   0.12460508    11549.556     1000 
   26000   0.58298644    -1.740218   0.87360518  -0.86661279   0.12982204    11453.953     1000 
   28000   0.61422923   -1.6964578    0.9204225   -0.7760353   0.12886589    11495.486     1000 
   30000   0.57518651   -1.6609276   0.86191698  -0.79901057   0.12444206    11550.478     1000 
   32000   0.58291692    -1.662274     0.873501  -0.78877304   0.12286259    11487.577     1000 
   34000   0.57451024   -1.6546435   0.86090359  -0.79373993   0.12524953    11461.202     1000 
   36000   0.58797058   -1.7102966   0.88107391  -0.82922273    0.1307682    11613.821     1000 
   38000   0.57893825    -1.675829   0.86753897  -0.80829006   0.11645969    11556.433     1000 
   40000   0.57875552   -1.6908858   0.86726515  -0.82362066   0.11712765    11775.416     1000 
   42000   0.57250228   -1.6975233   0.85789466  -0.83962864   0.13106258    11382.925     1000 
   44000   0.58821848   -1.7054468    0.8814454  -0.82400145   0.14300162    11411.503     1000 
   46000    0.5794737   -1.7260209   0.86834133   -0.8576796   0.12289522    11573.393     1000 
   48000   0.58983847   -1.7571659   0.88387295  -0.87329299   0.14027316    11424.245     1000 
   50000   0.57214942   -1.7564981    0.8573659  -0.89913219   0.13093749    11560.944     1000 
   52000   0.59134065   -1.7254599   0.88612397  -0.83933589   0.13854936    11444.738     1000 
   54000   0.59378297     -1.65883   0.88978379   -0.7690462   0.12821019    11374.029     1000 
   56000   0.60535267   -1.6829489   0.90712097  -0.77582789   0.12615603    11622.856     1000 
   58000   0.59791412   -1.6934006    0.8959743  -0.79742631   0.13418623     11507.97     1000 
   60000   0.60177536   -1.7610969   0.90176037  -0.85933657   0.11605903    11656.903     1000 
   62000   0.58705025    -1.742908    0.8796948   -0.8632132   0.13215219     11374.55     1000 
   64000   0.60086853   -1.6984631   0.90040149  -0.79806165   0.13283211    11496.414     1000 
   66000    0.5679307   -1.7190205   0.85104415  -0.86797633   0.13316781    11482.446     1000 
   68000   0.60044566   -1.6485694   0.89976782  -0.74880157   0.12794326    11416.756     1000 
   70000   0.60370523   -1.7273654   0.90465229  -0.82271313   0.11878069    11633.282     1000 
   72000   0.61016276   -1.7160414    0.9143289  -0.80171251   0.13908019    11559.634     1000 
   74000   0.60563214   -1.6617509   0.90753975  -0.75421112   0.13466908    11505.561     1000 
   76000   0.61810476   -1.6912738   0.92622998  -0.76504383   0.13541588    11364.681     1000 
   78000   0.58863342   -1.6959082   0.88206718  -0.81384104   0.13576582    11365.977     1000 
   80000   0.59562547   -1.7000675   0.89254476  -0.80752272   0.13222157    11461.857     1000 
   82000   0.57361795   -1.7042124   0.85956649  -0.84464588   0.12695796    11459.818     1000 
   84000   0.59925807   -1.6878775   0.89798821  -0.78988924   0.14174309    11400.935     1000 
   86000   0.55789476   -1.7042268    0.8360053  -0.86822151   0.13615393    11510.462     1000 
   88000   0.56328178   -1.6972767   0.84407775    -0.853199   0.13020624    11558.545     1000 
   90000   0.57778415   -1.6386352   0.86580955  -0.77282568   0.14667308    11295.482     1000 
   92000   0.59382572   -1.7060706   0.88984785   -0.8162228   0.13130624    11510.896     1000 
   94000     0.616158    -1.713643   0.92331276  -0.79033025   0.13383359    11478.752     1000 
   96000    0.6037277   -1.7323548   0.90468595  -0.82766883   0.12942205    11574.905     1000 
   98000   0.63068746   -1.6784197   0.94508515  -0.73333454   0.13120186    11523.156     1000 
  100000   0.59251445   -1.6678226    0.8878829   -0.7799397   0.13977445    11518.189     1000 
  102000   0.57975326   -1.7682703   0.86876026  -0.89951006   0.12727203    11599.484     1000 
  104000   0.60122796   -1.6720481    0.9009401  -0.77110801   0.14021967    11484.442     1000 
  106000   0.61425504   -1.7080419   0.92046118  -0.78758072   0.13945836    11265.296     1000 
  108000   0.60656625   -1.6745026   0.90893953   -0.7655631    0.1342824     11409.24     1000 
  110000   0.57602668   -1.7268899   0.86317598  -0.86371394   0.12712007    11496.202     1000 
  112000   0.60477134   -1.7305908   0.90624985  -0.82434098   0.11454212    11781.847     1000 
  114000   0.57954438   -1.7467803   0.86844725    -0.878333   0.12015761    11694.922     1000 
  116000   0.58648198    -1.667287   0.87884325  -0.78844373   0.12289028    11582.712     1000 
  118000   0.60117734    -1.667102   0.90086425  -0.76623776   0.13158625    11433.441     1000 
  120000    0.5779675   -1.6587526    0.8660843  -0.79266835   0.12697502     11574.75     1000 
  122000   0.60670891   -1.6879188   0.90915331   -0.7787655   0.12426329    11640.735     1000 
  124000   0.61124881   -1.7069789   0.91595635  -0.79102258   0.13129398     11473.29     1000 
  126000   0.58462494   -1.6338712   0.87606048  -0.75781068   0.11715806    11689.283     1000 
  128000   0.59685584   -1.6909004   0.89438848  -0.79651196   0.13121306    11421.873     1000 
  130000   0.59398524   -1.6807991   0.89008689  -0.79071226   0.13616389    11408.615     1000 
  132000   0.60463358   -1.7052101   0.90604342  -0.79916664   0.12677527     11457.01     1000 
  134000   0.56040124   -1.6837214   0.83976126  -0.84396016   0.12886269    11623.744     1000 
  136000   0.57270229   -1.6896636   0.85819438  -0.83146924   0.12037286    11513.483     1000 
  138000   0.59343454   -1.6307957   0.88926166  -0.74153403    0.1486735    11299.786     1000 
  140000   0.62529314   -1.6919007   0.93700178  -0.75489896   0.13785624    11415.511     1000 
  142000   0.60126966   -1.7253984   0.90100259   -0.8243958   0.13369254    11529.244     1000 
  144000    0.5693252    -1.654482   0.85313382  -0.80134816   0.12583865    11454.734     1000 
  146000   0.58185039   -1.6660095   0.87190281  -0.79410669   0.13209505    11462.515     1000 
  148000   0.58905537   -1.6889588   0.88269947  -0.80625934   0.12817664    11656.734     1000 
  150000    0.5711251   -1.6652766   0.85583096  -0.80944568   0.12438849    11492.882     1000 
  152000   0.60885913   -1.7343216    0.9123754  -0.82194617   0.13812074    11525.215     1000 
  154000   0.59915878   -1.6627168   0.89783943  -0.76487735   0.12822671    11592.904     1000 
  156000   0.59704104   -1.6927747   0.89466599  -0.79810873   0.12941728    11435.919     1000 
  158000   0.58382649   -1.7538133     0.874864  -0.87894931   0.12001349    11692.855     1000 
  160000   0.59023272   -1.6755107   0.88446373  -0.79104701   0.13440234    11454.456     1000 
  162000   0.59308241   -1.7025765   0.88873399  -0.81384254   0.12411585      11465.9     1000 
  164000   0.59747098   -1.6361757   0.89531027  -0.74086539   0.13883061    11409.592     1000 
  166000   0.62541936   -1.6648941    0.9371909  -0.72770317   0.12944706    11564.608     1000 
  168000   0.57552381   -1.7395795   0.86242242  -0.87715705   0.12575957    11490.608     1000 
  170000   0.57679557   -1.6550447   0.86432816  -0.79071651   0.13893469    11404.797     1000 
  172000   0.59494288   -1.7465832    0.8915219  -0.85506128   0.13820699    11548.132     1000 
  174000   0.57715404    -1.689179   0.86486533  -0.82431369   0.13489985    11342.544     1000 
  176000   0.60478334   -1.6648856   0.90626783  -0.75861776   0.12465309     11523.75     1000 
  178000   0.58699288    -1.701578   0.87960883  -0.82196914   0.12401233     11578.17     1000 
  180000   0.57424888   -1.7682199   0.86051195  -0.90770792   0.12778383    11536.334     1000 
  182000   0.59113928   -1.7034572   0.88582222  -0.81763495   0.12825416    11650.527     1000 
  184000   0.59273457   -1.7311146   0.88821275  -0.84290185   0.13827564    11454.984     1000 
  186000   0.57375217   -1.6819579   0.85976762  -0.82219029     0.140606    11434.227     1000 
  188000   0.57288487   -1.6788494   0.85846798  -0.82038143   0.11774151    11358.204     1000 
  190000   0.59006184   -1.6451741   0.88420767  -0.76096642   0.12681242    11488.466     1000 
  192000   0.57950039   -1.7286681   0.86838133  -0.86028675   0.11443233    11599.924     1000 
  194000   0.58679358   -1.6735857   0.87931019  -0.79427552    0.1212128     11671.08     1000 
  196000    0.5872033   -1.6379467   0.87992415  -0.75802254   0.12492125    11457.846     1000 
  198000   0.61501594   -1.7543978   0.92160138  -0.83279645   0.12645218    11577.399     1000 
  200000   0.59602716   -1.7470692    0.8931467   -0.8539225   0.11122519    11708.976     1000 
  202000   0.59934151   -1.6641935   0.89811326  -0.76608022   0.12017066    11626.399     1000 
  204000   0.60791518   -1.7087938    0.9109609  -0.79783292   0.13348656    11509.324     1000 
  206000   0.58824004   -1.7202736   0.88147771  -0.83879586   0.12482287    11574.968     1000 
  208000   0.57263695   -1.6880451   0.85809647  -0.82994867   0.12472593     11418.98     1000 
  210000   0.61357587   -1.6553713   0.91944345   -0.7359279   0.13200277    11457.473     1000 
  212000   0.60132094   -1.6989236   0.90107943  -0.79784417   0.12776472     11455.19     1000 
  214000   0.61869737   -1.7257307   0.92711801   -0.7986127    0.1438385    11483.855     1000 
  216000   0.57235005   -1.6634733   0.85766655  -0.80580677   0.12609145    11462.312     1000 
  218000   0.58273932    -1.674081   0.87323487  -0.80084614   0.13313317    11485.338     1000 
  220000   0.59399539   -1.6715485   0.89010209  -0.78144641   0.11889926    11495.056     1000 
  222000    0.5839057   -1.7650312   0.87498269  -0.89004854   0.13756433     11586.75     1000 
  224000   0.58760499   -1.6994289   0.88052608  -0.81890285   0.13101033    11485.466     1000 
  226000   0.55619752   -1.6712273   0.83346198  -0.83776534   0.12248984    11696.087     1000 
  228000   0.58963769   -1.6279748   0.88357208  -0.74440273   0.12854667    11472.433     1000 
  230000   0.58007974   -1.6860253    0.8692495  -0.81677581   0.13439315    11516.786     1000 
  232000   0.60328696   -1.7294753    0.9040255  -0.82544976   0.12759189    11468.792     1000 
  234000   0.58513811   -1.7129438   0.87682946  -0.83611436   0.12198364    11609.765     1000 
  236000   0.60302911   -1.7012729   0.90363912  -0.79763382   0.13372646    11440.683     1000 
  238000   0.58444508   -1.7426261   0.87579096  -0.86683511   0.13081665    11420.514     1000 
  240000   0.58269345    -1.711307   0.87316613  -0.83814083   0.11756574     11510.07     1000 
  242000   0.58893018   -1.6710482   0.88251188  -0.78853632   0.13659112    11434.699     1000 
  244000   0.61012143   -1.6378353   0.91426697  -0.72356831   0.12207979    11578.031     1000 
  246000   0.61171679   -1.6595943   0.91665761  -0.74293668   0.14514818    11383.102     1000 
  248000   0.59956831   -1.6532431   0.89845311  -0.75479001   0.13545568    11487.765     1000 
  250000   0.58884239   -1.6292338   0.88238032  -0.74685346    0.1242582    11561.301     1000 
  252000   0.56217726   -1.7099441   0.84242263  -0.86752148   0.14313293    11416.338     1000 
  254000   0.57557339   -1.6643473   0.86249673  -0.80185059   0.12724527    11535.172     1000 
  256000   0.58851152   -1.7082409   0.88188452  -0.82635638    0.1210136    11616.493     1000 
  258000   0.59497496    -1.707093   0.89156997  -0.81552306   0.13194317    11620.719     1000 
  260000   0.61697536   -1.6659346   0.92453757    -0.741397   0.13654224    11306.773     1000 
  262000   0.58383993   -1.7135369   0.87488414  -0.83865272   0.13363268     11578.23     1000 
  264000   0.57875113   -1.7303918   0.86725856  -0.86313328   0.11921389    11646.802     1000 
  266000   0.60487548   -1.6660899    0.9064059    -0.759684    0.1308786     11426.89     1000 
  268000   0.55544408   -1.6913971   0.83233296  -0.85906414   0.13689111    11506.115     1000 
  270000    0.5967207   -1.6476335   0.89418597  -0.75344754   0.13353572    11296.344     1000 
  272000   0.57114841   -1.6580795    0.8558659   -0.8022136   0.12979056    11550.789     1000 
  274000    0.5687822   -1.7053943   0.85232012  -0.85307416   0.13338538    11427.994     1000 
  276000   0.59308809   -1.6900537    0.8887425  -0.80131124   0.13471881    11391.383     1000 
  278000   0.60861358   -1.6972262   0.91200745  -0.78521876   0.13919225    11361.626     1000 
  280000   0.56489056   -1.6701135   0.84648851  -0.82362495   0.12426007    11486.954     1000 
  282000   0.57895418   -1.7436227   0.86756284  -0.87605986   0.13273722    11446.893     1000 
  284000   0.57906593   -1.6795804   0.86773029  -0.81185015    0.1368309    11344.683     1000 
  286000   0.60849923   -1.6882699    0.9118361  -0.77643385   0.12824841     11493.05     1000 
  288000   0.59331204   -1.7068659   0.88907809  -0.81778784   0.12847165    11652.388     1000 
  290000   0.59174127   -1.7145752    0.8867243  -0.82785095   0.13015641     11505.66     1000 
  292000   0.59690284   -1.7211736    0.8944589  -0.82671472   0.13040162    11440.368     1000 
  294000   0.61261838     -1.65281   0.91800865  -0.73480134   0.12491672    11439.656     1000 
  296000   0.57941872   -1.6947394   0.86825895  -0.82648044   0.13136914     11509.84     1000 
  298000   0.59057105   -1.6479321   0.88497071  -0.76296134   0.13506384    11339.869     1000 
  300000   0.60198019   -1.7226511   0.90206732  -0.82058383   0.12578813     11583.64     1000 
  302000   0.58359114   -1.6714021   0.87451132  -0.79689078   0.12968468    11460.729     1000 
  304000   0.59182176   -1.6876877   0.88684491  -0.80084282   0.13370402    11440.373     1000 
  306000   0.58999216   -1.6855957   0.88410325  -0.80149243   0.14297922    11356.194     1000 
  308000   0.58885286   -1.6963069   0.88239602  -0.81391084   0.11713031    11644.741     1000 
  310000   0.61724108   -1.6666418   0.92493576  -0.74170608   0.12525378    11527.946     1000 
  312000   0.60405729   -1.6819502   0.90517985  -0.77677038   0.13884609    11438.178     1000 
  314000   0.58527853   -1.7138277   0.87703987  -0.83678781   0.12415278    11478.661     1000 
  316000    0.5848148   -1.7151354   0.87634498  -0.83879044   0.13594675     11423.32     1000 
  318000   0.59367101   -1.7149606   0.88961601  -0.82534461   0.11829359    11693.814     1000 
  320000   0.59620748   -1.6882581    0.8934169  -0.79484115    0.1243563     11499.92     1000 
  322000   0.57742405   -1.7053847   0.86526994  -0.84011477   0.12143283    11679.318     1000 
  324000   0.58458974   -1.7060846   0.87600772  -0.83007685   0.12169326    11626.001     1000 
  326000   0.57959105   -1.6818215   0.86851719   -0.8133043   0.12090312    11607.738     1000 
  328000    0.5827998   -1.6647342    0.8733255  -0.79140866   0.11762294    11667.767     1000 
  330000   0.58409478   -1.6948562   0.87526603  -0.81959013   0.12489742    11432.595     1000 
  332000   0.57871531   -1.6823855    0.8672049  -0.81518056   0.12669667    11607.409     1000 
  334000    0.5793573   -1.7338225   0.86816691   -0.8656556     0.123955    11546.434     1000 
  336000   0.58786102   -1.7270591   0.88090973  -0.84614938   0.13255491    11448.959     1000 
  338000   0.61445098    -1.734341   0.92075479  -0.81358616   0.11832345    11700.154     1000 
  340000   0.58468775   -1.7028261   0.87615459  -0.82667149    0.1265662    11560.547     1000 
  342000   0.59317121   -1.7208049   0.88886705  -0.83193789   0.11842081    11666.408     1000 
  344000   0.58407485   -1.7154615   0.87523617  -0.84022529    0.1338696    11643.952     1000 
  346000   0.58386547   -1.6865149    0.8749224  -0.81159249   0.12881982    11483.638     1000 
  348000   0.59619608   -1.6865243   0.89339983  -0.79312451   0.13701272    11412.514     1000 
  350000   0.59303808   -1.7241511   0.88866756  -0.83548354   0.13746143    11500.627     1000 
  352000   0.57987406   -1.6644719   0.86894127  -0.79553063   0.12736708    11429.974     1000 
  354000   0.58588575   -1.6693827    0.8779498  -0.79143292   0.13944958    11310.365     1000 
  356000   0.60638361   -1.6998423   0.90866584  -0.79117644   0.13828034    11324.045     1000 
  358000   0.59621654   -1.7121664   0.89343049  -0.81873592   0.13094246    11612.495     1000 
  360000    0.5729787   -1.6966608   0.85860858   -0.8380522   0.12176687    11679.801     1000 
  362000   0.60742343   -1.6758312   0.91022401  -0.76560717   0.13280798    11407.065     1000 
  364000   0.58175395   -1.6902475    0.8717583  -0.81848921   0.13208064    11469.263     1000 
  366000   0.58258439   -1.7110692    0.8730027   -0.8380665   0.14112388    11486.209     1000 
  368000   0.59719311   -1.6688643   0.89489388  -0.77397042   0.14220261    11455.004     1000 
  370000   0.60436492   -1.6744485   0.90564084  -0.76880767   0.14739856    11298.495     1000 
  372000   0.61299729   -1.6672748   0.91857644  -0.74869834   0.12617861    11479.231     1000 
  374000   0.56948371   -1.6962902   0.85337133  -0.84291884    0.1255573    11408.597     1000 
  376000   0.60859322   -1.6515193   0.91197694  -0.73954237   0.14926561    11389.592     1000 
  378000   0.57974717   -1.7226035   0.86875113  -0.85385234   0.12098726    11633.727     1000 
  380000   0.56966182   -1.6691001   0.85363823   -0.8154619    0.1309031    11321.914     1000 
  382000   0.59462254   -1.7159691   0.89104188  -0.82492722   0.12636977    11502.275     1000 
  384000   0.59221335   -1.7379876    0.8874317  -0.85055588   0.10854368    11790.686     1000 
  386000    0.5957567   -1.7069788   0.89274141  -0.81423737   0.12700617    11485.404     1000 
  388000   0.58672954   -1.6886162   0.87921421  -0.80940201   0.12730369    11416.759     1000 
  390000   0.61396377    -1.671141   0.92002471  -0.75111631   0.13525293    11585.851     1000 
  392000   0.61367113   -1.6979157   0.91958619  -0.77832952   0.13789897    11404.148     1000 
  394000   0.59670677   -1.7344364    0.8941651  -0.84027129   0.12552567    11767.595     1000 
  396000   0.57158161   -1.6890898   0.85651504  -0.83257479   0.13749395     11362.89     1000 
  398000   0.60885978   -1.6699991   0.91237638  -0.75762276   0.12858754    11461.885     1000 
  400000   0.57240419   -1.6474719   0.85774767  -0.78972421   0.13390165    11410.634     1000 
  402000    0.5858048   -1.6579418    0.8778285   -0.7801133   0.12635486    11590.094     1000 
  404000   0.58356318   -1.7072614   0.87446942  -0.83279199   0.12832615     11483.16     1000 
  406000   0.58944147   -1.6723168   0.88327805  -0.78903874   0.13043283    11499.735     1000 
  408000   0.56664943   -1.6911401   0.84912418  -0.84201591    0.1264324    11402.324     1000 
  410000   0.58692917   -1.6633371   0.87951336  -0.78382372    0.1325776    11391.614     1000 
  412000   0.60255675   -1.6372322   0.90293129  -0.73430092   0.14158287    11443.287     1000 
  414000   0.59186365   -1.6766104   0.88690769  -0.78970269   0.13031145     11498.54     1000 
  416000   0.59664814   -1.6765704   0.89407724  -0.78249321   0.13207605    11474.968     1000 
  418000    0.5844555   -1.7169968   0.87580657  -0.84119025   0.13126668    11418.017     1000 
  420000   0.58816246   -1.7020342   0.88136144  -0.82067279   0.12452653    11546.646     1000 
  422000   0.60094297   -1.7164774   0.90051304  -0.81596437    0.1297975    11609.302     1000 
  424000   0.58998222   -1.6858203   0.88408836  -0.80173196    0.1299427     11459.85     1000 
  426000   0.59157619    -1.690025   0.88647693  -0.80354811   0.12731947    11417.539     1000 
  428000   0.60887079   -1.7293793   0.91239288   -0.8169864   0.12945416    11566.177     1000 
  430000   0.60118501   -1.7229023   0.90087574  -0.82202657   0.12718248    11580.969     1000 
  432000    0.5620655   -1.7139062   0.84225515  -0.87165107   0.13982949    11502.537     1000 
  434000    0.5843766   -1.7476512   0.87568833  -0.87196284   0.12620136    11642.361     1000 
  436000   0.60916101   -1.7442701   0.91282777  -0.83144236   0.11815596    11588.878     1000 
  438000   0.60154621   -1.7099232     0.901417  -0.80850623   0.11133266    11674.985     1000 
  440000   0.58873688   -1.6706954   0.88222222  -0.78847314   0.12550047    11510.594     1000 
  442000   0.58052002   -1.7045414   0.86990925  -0.83463212   0.13016295    11526.777     1000 
  444000   0.55688328   -1.7146486   0.83448959  -0.88015904   0.11796226    11547.764     1000 
  446000    0.5838896    -1.660898   0.87495857  -0.78593945   0.12656486    11393.077     1000 
  448000   0.57654854   -1.7121029   0.86395799  -0.84814495   0.13072446    11605.031     1000 
  450000   0.59649126    -1.729188   0.89384216  -0.83534586   0.13771094    11440.179     1000 
  452000   0.56981136   -1.7009465   0.85386233  -0.84708416   0.13344875     11283.27     1000 
  454000   0.57089237    -1.698413   0.85548222  -0.84293076   0.12565071    11516.869     1000 
  456000   0.58187241   -1.6856849   0.87193581  -0.81374906   0.14176153    11372.508     1000 
  458000   0.61891748    -1.689372   0.92744784  -0.76192417   0.12289147    11486.291     1000 
  460000   0.58821825   -1.6401306   0.88144505  -0.75868558   0.12851313    11418.763     1000 
  462000   0.60845533   -1.7156007   0.91177031  -0.80383034   0.12434817    11431.249     1000 
  464000   0.59711647   -1.6661791   0.89477903  -0.77140009   0.13370034    11461.436     1000 
  466000   0.56567005   -1.6773126   0.84765657  -0.82965604   0.11250437    11567.576     1000 
  468000   0.57308305   -1.7365075   0.85876496  -0.87774258   0.11495231    11697.622     1000 
  470000   0.61770621   -1.6426471   0.92563276  -0.71701438   0.13605828    11519.323     1000 
  472000   0.59187266   -1.6817192   0.88692119    -0.794798   0.13322487    11453.088     1000 
  474000   0.57488183   -1.6360028   0.86146042  -0.77454243   0.12291993     11393.86     1000 
  476000   0.58927346   -1.6403424   0.88302628  -0.75731612   0.12007421    11407.661     1000 
  478000   0.56493513   -1.6912628   0.84655529  -0.84470747   0.11529263    11542.235     1000 
  480000   0.57112587   -1.6995251   0.85583211  -0.84369303    0.1291796    11547.068     1000 
  482000   0.59104836   -1.6972607   0.88568597  -0.81157473    0.1313205    11574.339     1000 
  484000   0.59283136   -1.6816366    0.8883578  -0.79327884   0.11451553    11437.501     1000 
  486000     0.573555   -1.6939721   0.85947217   -0.8344999    0.1328728    11335.099     1000 
  488000   0.57950298   -1.7162584   0.86838522  -0.84787322   0.12315975    11637.784     1000 
  490000   0.56285435   -1.7263368   0.84343724  -0.88289955   0.13326495    11453.238     1000 
  492000    0.6166625   -1.6717944   0.92406875   -0.7477256   0.12437303    11740.864     1000 
  494000   0.61307769   -1.6748029   0.91869692    -0.756106    0.1321888    11444.432     1000 
  496000   0.60293811   -1.6351625   0.90350276  -0.73165975   0.13804138    11422.768     1000 
  498000   0.61496126    -1.730931   0.92151945  -0.80941158   0.12169516     11619.06     1000 
  500000   0.58642954   -1.6869788   0.87876466  -0.80821414   0.13586655    11400.295     1000 
  502000    0.6004764   -1.7256502   0.89981389  -0.82583631   0.13659764    11473.045     1000 
  504000   0.57777617   -1.6237967   0.86579759  -0.75799908   0.13146639    11263.852     1000 
  506000   0.58292457   -1.6687183   0.87351247  -0.79520578   0.13448673    11267.378     1000 
  508000   0.59885449    -1.707626   0.89738345  -0.81024256   0.14157921    11390.996     1000 
  510000   0.59851004   -1.6326304   0.89686729  -0.73576309   0.13889071    11397.472     1000 
  512000   0.60013646   -1.6741578   0.89930448  -0.77485336   0.13134589    11387.572     1000 
  514000   0.59276542   -1.7086328   0.88825898   -0.8203738   0.13737128    11369.549     1000 
  516000   0.60946858   -1.6808162   0.91328867   -0.7675275   0.12240948     11531.13     1000 
  518000   0.57686892    -1.689969   0.86443807  -0.82553095   0.11673227    11636.973     1000 
  520000   0.57575963   -1.7211375   0.86277581  -0.85836165   0.13510522    11375.142     1000 
  522000   0.60106733   -1.6995154    0.9006994  -0.79881597   0.11770373    11635.257     1000 
  524000   0.57471079   -1.6901123   0.86120411   -0.8289082   0.12664202    11380.768     1000 
  526000   0.59554829   -1.6748356   0.89242911  -0.78240653    0.1332761    11593.029     1000 
  528000    0.5742348   -1.6522204   0.86049085  -0.79172952   0.13782041    11336.958     1000 
  530000   0.59270163   -1.7275085   0.88816339  -0.83934511   0.13104555    11360.544     1000 
  532000   0.61290782   -1.7087645   0.91844236  -0.79032216   0.13166022    11470.652     1000 
  534000    0.5859064      -1.6985   0.87798074  -0.82051926   0.12120701    11592.172     1000 
  536000   0.55952606    -1.672664   0.83844981  -0.83421415   0.12995332    11516.123     1000 
  538000   0.59714517   -1.6624172   0.89482203  -0.76759512    0.1362306    11535.766     1000 
  540000   0.59333646   -1.6313029   0.88911469  -0.74218819    0.1389574    11220.686     1000 
  542000    0.5720207   -1.7038124   0.85717302  -0.84663941   0.12404178    11523.494     1000 
  544000   0.58981454   -1.6900122   0.88383708  -0.80617512   0.13920555    11414.934     1000 
  546000   0.61619945   -1.7318806   0.92337488  -0.80850575   0.13581345    11431.398     1000 
  548000   0.59008745   -1.7119528   0.88424605   -0.8277068   0.11564397    11631.398     1000 
  550000   0.56918938   -1.6659708   0.85293028  -0.81304056   0.13031286    11349.933     1000 
  552000    0.5955301   -1.6465439   0.89240185  -0.75414209   0.12420732    11428.242     1000 
  554000   0.60531179   -1.7544728   0.90705972  -0.84741306   0.12672504    11594.749     1000 
  556000    0.5818205    -1.692792   0.87185802  -0.82093394    0.1236174    11597.479     1000 
  558000   0.59907121   -1.6742556   0.89770821  -0.77654743   0.12946629    11455.939     1000 
  560000   0.57958319   -1.6696242    0.8685054  -0.80111878   0.12363682    11421.121     1000 
  562000   0.59632467   -1.7215703   0.89359252  -0.82797774   0.13164086    11391.082     1000 
  564000   0.59120104   -1.6701655   0.88591476  -0.78425077   0.13443519    11286.294     1000 
  566000   0.56700452   -1.6487755   0.84965628  -0.79911918   0.13893161    11332.215     1000 
  568000   0.58096269   -1.6664519    0.8705726  -0.79587931   0.13318009    11586.831     1000 
  570000   0.59383183   -1.6498019   0.88985699  -0.75994489   0.13800432    11458.901     1000 
  572000    0.5746709   -1.6318491   0.86114435  -0.77070473   0.13585069    11412.923     1000 
  574000   0.59208747   -1.7038865   0.88724308  -0.81664343   0.12281512    11439.232     1000 
  576000   0.57078233   -1.6420923   0.85531732  -0.78677498   0.13368931    11427.113     1000 
  578000   0.58107411   -1.6382559   0.87073955   -0.7675164   0.13667112    11337.681     1000 
  580000   0.61171967   -1.6730938   0.91666193  -0.75643184   0.13486894     11402.73     1000 
  582000   0.58792168   -1.7077031   0.88100064  -0.82670246   0.13454641    11424.387     1000 
  584000   0.57686446   -1.7332676   0.86443139  -0.86883624   0.11350292    11653.811     1000 
  586000    0.5761982   -1.6665267     0.863433  -0.80309371    0.1272182    11503.498     1000 
  588000   0.58778169   -1.7489046   0.88079086  -0.86811373    0.1253596    11551.312     1000 
  590000   0.58050629   -1.6357806   0.86988867  -0.76589189   0.13375397    11396.356     1000 
  592000   0.59625662   -1.6863066   0.89349054  -0.79281604   0.12641658    11391.435     1000 
  594000   0.56732699   -1.6843737   0.85013949   -0.8342342   0.13729871    11302.539     1000 
  596000   0.59152829   -1.6840807   0.88640514  -0.79767551   0.13725283    11475.508     1000 
  598000   0.58792237   -1.7045134   0.88100168  -0.82351173   0.13834107    11378.125     1000 
  600000   0.59619041   -1.7516755   0.89339132  -0.85828413   0.11875192    11671.422     1000 
  602000   0.57353614   -1.6848688    0.8594439  -0.82542489   0.12691259    11534.894     1000 
  604000   0.60181397   -1.7066065   0.90181823  -0.80478829   0.11686111    11795.516     1000 
  606000   0.59421402   -1.6689055   0.89042971  -0.77847581   0.13695154    11349.527     1000 
  608000   0.58368884    -1.721977   0.87465772  -0.84731926   0.12272273    11593.648     1000 
  610000   0.59493692   -1.6995409   0.89151298  -0.80802789   0.13647653    11517.505     1000 
  612000   0.60092403   -1.6544934   0.90048466  -0.75400869   0.12960625    11409.102     1000 
  614000   0.55893214   -1.6595541   0.83755982  -0.82199423   0.13210196    11391.141     1000 
  616000   0.58990694    -1.716547   0.88397554   -0.8325715    0.1327259    11380.012     1000 
  618000   0.59932806   -1.6077078    0.8980931  -0.70961475   0.13837802    11275.633     1000 
  620000   0.59616429   -1.6972789   0.89335219   -0.8039267   0.12135741    11597.402     1000 
  622000   0.58749597   -1.7291798   0.88036271  -0.84881706   0.14715123    11349.936     1000 
  624000   0.55760776   -1.6733194   0.83557522  -0.83774419    0.1268607    11459.384     1000 
  626000   0.60158695   -1.6856865   0.90147804  -0.78420842    0.1189966    11620.251     1000 
  628000   0.59766338   -1.7154499   0.89559858  -0.81985136   0.12391097    11627.354     1000 
  630000   0.59685711   -1.6655187   0.89439038  -0.77112833   0.12723046    11340.655     1000 
  632000   0.59563464    -1.712211    0.8925585  -0.81965253   0.11120799    11633.362     1000 
  634000   0.59109513   -1.6736085   0.88575605  -0.78785242   0.13228284    11492.706     1000 
  636000   0.57749677   -1.7045059   0.86537891    -0.839127   0.12151535    11581.468     1000 
  638000   0.59389418   -1.6717081   0.88995044  -0.78175766    0.1289994    11308.583     1000 
  640000   0.58423039    -1.645824   0.87546924  -0.77035472   0.12795543    11402.755     1000 
  642000   0.57400666   -1.6678613   0.86014898  -0.80771233     0.128195    11458.325     1000 
  644000   0.59084154   -1.6905955   0.88537605  -0.80521947   0.13201514    11596.589     1000 
  646000    0.5787847   -1.6320544   0.86730887  -0.76474557   0.14299357    11237.062     1000 
  648000   0.61433556   -1.6811192   0.92058183  -0.76053738   0.12978524    11589.199     1000 
  650000   0.57618611    -1.636576   0.86341488  -0.77316111   0.12183331     11475.17     1000 
  652000   0.58515256   -1.7503121    0.8768511  -0.87346097    0.1274965    11554.783     1000 
  654000   0.61135142   -1.7548237    0.9161101  -0.83871359   0.13455869    11541.394     1000 
  656000   0.60483089   -1.6937786   0.90633909  -0.78743955    0.1442508    11342.525     1000 
  658000   0.58708088   -1.6904968    0.8797407  -0.81075614   0.12320117    11536.878     1000 
  660000   0.59235656   -1.6404787    0.8876463  -0.75283244   0.14454145    11166.563     1000 
  662000   0.57898429   -1.6845929   0.86760795  -0.81698494   0.12306043    11537.292     1000 
  664000   0.57652315   -1.7276927   0.86391995  -0.86377273   0.12747647    11568.454     1000 
  666000   0.59703795   -1.6108473   0.89466138  -0.71618591   0.12423098    11374.758     1000 
  668000   0.59689897   -1.7379686    0.8944531  -0.84351545   0.13124149    11489.723     1000 
  670000   0.61121571   -1.6863553   0.91590674  -0.77044854   0.13561035    11290.281     1000 
  672000   0.60885989    -1.661646   0.91237654  -0.74926949   0.13255688    11458.314     1000 
  674000   0.59186501   -1.7260003   0.88690971  -0.83909055   0.12823696    11655.625     1000 
  676000   0.58871114   -1.6755142   0.88218365   -0.7933305   0.11174551    11640.059     1000 
  678000   0.59407241   -1.7188899   0.89021751  -0.82867242   0.13485125    11441.642     1000 
  680000   0.58977896   -1.7065176   0.88378377  -0.82273379   0.11854961     11629.76     1000 
  682000   0.56776859    -1.651932   0.85080123  -0.80113078   0.12373711    11355.671     1000 
  684000   0.60306901   -1.6819548    0.9036989  -0.77825587   0.13831421    11411.399     1000 
  686000   0.58451869   -1.7081604   0.87590126  -0.83225918   0.12369454    11651.549     1000 
  688000   0.58070846   -1.6106188   0.87019163  -0.74042721    0.1232593    11582.723     1000 
  690000   0.57982851   -1.7185976   0.86887302  -0.84972459   0.12743185    11520.881     1000 
  692000   0.61790401   -1.6277218   0.92592916  -0.70179267   0.13314992    11450.037     1000 
  694000   0.59030282   -1.7520673   0.88456877  -0.86749857    0.1276651    11660.243     1000 
  696000   0.58677875   -1.6537642   0.87928795  -0.77447623   0.12935736    11281.012     1000 
  698000    0.6065065   -1.7286552   0.90884998  -0.81980522   0.12259126    11465.509     1000 
  700000    0.6241307   -1.7481434   0.93525986  -0.81288351   0.12365254     11615.13     1000 
  702000   0.60152377   -1.7079861   0.90138337   -0.8066027    0.1204771    11613.491     1000 
  704000   0.56479508   -1.6874724   0.84634543  -0.84112693   0.12901283    11536.511     1000 
  706000   0.57697087   -1.6768154   0.86459084  -0.81222451   0.11946594    11537.963     1000 
  708000   0.56366045     -1.65977   0.84464519  -0.81512486   0.11854212    11502.654     1000 
  710000   0.59669928   -1.7033551   0.89415387  -0.80920119    0.1140674    11584.398     1000 
  712000   0.58327919    -1.692882   0.87404386  -0.81883809   0.13266551    11443.534     1000 
  714000   0.56837306   -1.7648396   0.85170704  -0.91313254   0.12885749    11522.475     1000 
  716000   0.57673599    -1.671027   0.86423888  -0.80678815   0.13254795    11535.854     1000 
  718000   0.58101421   -1.6672984   0.87064979   -0.7966486   0.12297062    11519.457     1000 
  720000   0.58441829   -1.7153165   0.87575081  -0.83956565   0.12501834    11507.071     1000 
  722000   0.57653358   -1.7232136   0.86393556  -0.85927801   0.12348485     11499.65     1000 
  724000   0.58286907   -1.6781642    0.8734293  -0.80473487   0.13669581    11387.108     1000 
  726000   0.59941727   -1.7199282   0.89822678  -0.82170145   0.12724282    11482.912     1000 
  728000   0.56840248   -1.7188688   0.85175112  -0.86711766   0.12476118    11545.363     1000 
  730000   0.59625541   -1.6717564   0.89348873  -0.77826769   0.14851201    11235.167     1000 
  732000   0.57911903   -1.6803249   0.86780986    -0.812515   0.13564661    11461.513     1000 
  734000   0.59995744   -1.7316607   0.89903623  -0.83262444   0.13186636    11611.296     1000 
  736000    0.5863847   -1.7100501   0.87869748  -0.83135263   0.13400942    11550.188     1000 
  738000   0.58208504   -1.7061091   0.87225443  -0.83385471   0.12873594    11462.394     1000 
  740000   0.58702977   -1.6347264   0.87966411  -0.75506224   0.13508495    11361.678     1000 
  742000   0.57681825   -1.6913483   0.86436215  -0.82698619   0.13558521    11546.623     1000 
  744000   0.57082703   -1.7441049    0.8553843  -0.88872064   0.12775967    11618.662     1000 
  746000   0.57821296   -1.6776324   0.86645212   -0.8111803    0.1356526    11368.971     1000 
  748000   0.60215153   -1.7438492   0.90232407  -0.84152515   0.12035472    11861.207     1000 
  750000   0.59300491   -1.6984833   0.88861786  -0.80986541   0.13331327    11511.284     1000 
  752000   0.59815668   -1.7154239   0.89633779  -0.81908607   0.14325548     11568.98     1000 
  754000   0.59545979   -1.7338829    0.8922965  -0.84158644   0.12261962    11611.593     1000 
  756000   0.58629859   -1.6555233   0.87856843  -0.77695485   0.12006448    11645.082     1000 
  758000   0.57732758   -1.6350347   0.86512538   -0.7699093   0.12555315    11413.837     1000 
  760000   0.59323861   -1.6279636   0.88896806  -0.73899553   0.12714631    11537.939     1000 
  762000   0.60333461    -1.678641   0.90409691  -0.77454412   0.13345642    11341.213     1000 
  764000   0.58704646   -1.6306143   0.87968912  -0.75092514   0.14351729     11351.58     1000 
  766000   0.58993829    -1.677153   0.88402253  -0.79313043    0.1321412    11522.831     1000 
  768000   0.59856803   -1.7331794    0.8969542  -0.83622523   0.12854834    11413.297     1000 
  770000   0.59878649   -1.6666346   0.89728156  -0.76935306   0.15665789    11223.065     1000 
  772000   0.59080278   -1.7332257   0.88531796  -0.84790772   0.12856897    11533.981     1000 
  774000    0.6097322   -1.6488826    0.9136837  -0.73519886   0.13847054    11425.567     1000 
  776000   0.59410175   -1.7057737   0.89026147  -0.81551227   0.12045117    11754.155     1000 
  778000   0.61598382   -1.6859087   0.92305176  -0.76285692   0.13878098    11443.229     1000 
  780000    0.5759472   -1.6909395   0.86305688  -0.82788258   0.13396666    11380.718     1000 
  782000   0.62128499   -1.6707867   0.93099556  -0.73979114   0.13343444    11393.598     1000 
  784000   0.59742937   -1.6901059   0.89524791  -0.79485794   0.13700303     11374.94     1000 
  786000   0.56450677   -1.6750902   0.84591339  -0.82917681   0.12048433    11560.769     1000 
  788000   0.62338745   -1.6948047   0.93414609  -0.76065861   0.12643722    11624.788     1000 
  790000   0.56670647   -1.6931401   0.84920964  -0.84393045   0.13677744    11517.141     1000 
  792000   0.58366847   -1.6976716    0.8746272  -0.82304438   0.14096728    11496.456     1000 
  794000   0.60223712   -1.7019091   0.90245233  -0.79945674   0.12457227    11453.349     1000 
  796000   0.62277267   -1.7067924   0.93322484  -0.77356751   0.13192251    11438.727     1000 
  798000   0.58513583   -1.6914539   0.87682605   -0.8146279   0.12835035    11410.541     1000 
  800000   0.62707661   -1.7065341    0.9396743  -0.76685975   0.12646169     11406.57     1000 
  802000   0.56626192   -1.7130646   0.84854349  -0.86452111   0.12687782     11625.07     1000 
  804000   0.58784378    -1.670825   0.88088391  -0.78994108   0.12905686    11637.895     1000 
  806000   0.57090671    -1.656546    0.8555037  -0.80104229   0.13616039    11381.139     1000 
  808000   0.57888354   -1.6433366   0.86745699  -0.77587956   0.14051654    11347.717     1000 
  810000    0.5854054   -1.6849362      0.87723  -0.80770616   0.14180903     11354.61     1000 
  812000   0.58358391   -1.6636168   0.87450048   -0.7891163   0.13070838    11277.963     1000 
  814000   0.59440638   -1.6814947   0.89071796  -0.79077674   0.14599936    11304.391     1000 
  816000   0.59244132   -1.6824159   0.88777332  -0.79464255   0.13099647    11470.407     1000 
  818000   0.58909134   -1.7166077   0.88275337  -0.83385438   0.12560461     11600.63     1000 
  820000   0.57653964   -1.7193358   0.86394464  -0.85539112   0.13226959    11430.058     1000 
  822000   0.60028198   -1.6614136   0.89952254  -0.76189104   0.11981705    11580.175     1000 
  824000   0.58621104    -1.665579   0.87843724  -0.78714175    0.1404849    11462.174     1000 
  826000   0.59344562   -1.7177103   0.88927826  -0.82843207   0.13501062    11475.168     1000 
  828000   0.61768095   -1.6625599    0.9255949  -0.73696497   0.13314863    11422.299     1000 
  830000   0.57627638    -1.718967   0.86355016  -0.85541681   0.12947691    11397.481     1000 
  832000   0.55943048    -1.724672   0.83830658  -0.88636541   0.12378536    11530.577     1000 
  834000   0.58164324   -1.6236368    0.8715924  -0.75204442   0.15675801    11146.637     1000 
  836000   0.57663029   -1.7137952   0.86408049  -0.84971469   0.12848464    11610.294     1000 
  838000   0.57631186   -1.7016665   0.86360332  -0.83806319   0.12822978    11538.897     1000 
  840000   0.58863973   -1.6898243   0.88207663  -0.80774769    0.1278827    11529.881     1000 
  842000   0.59326331   -1.6909912   0.88900507  -0.80198609   0.13965402    11384.257     1000 
  844000    0.6007106   -1.7392475   0.90016484  -0.83908266   0.12898348    11635.974     1000 
  846000   0.60605209   -1.7239668   0.90816906  -0.81579773   0.13841479    11395.053     1000 
  848000   0.61461991   -1.7105602   0.92100794  -0.78955228    0.1303321    11613.804     1000 
  850000   0.58159967   -1.6842877   0.87152711  -0.81276063   0.12051085     11712.05     1000 
  852000   0.60268805   -1.7367016   0.90312804  -0.83357359   0.13439242    11380.959     1000 
  854000   0.57772624   -1.6926755   0.86572277  -0.82695277   0.12680479    11404.774     1000 
  856000   0.59497213   -1.7184735   0.89156574  -0.82690777   0.12741781    11471.994     1000 
  858000   0.56564292   -1.7256253   0.84761592  -0.87800943   0.12217289    11648.478     1000 
  860000   0.59279015   -1.6977077   0.88829604  -0.80941164   0.14063806    11527.899     1000 
  862000   0.58286889   -1.6760867   0.87342903  -0.80265764   0.12813675    11527.685     1000 
  864000   0.56107904   -1.6544902   0.84077694  -0.81371326   0.12185145    11651.385     1000 
  866000   0.59572197   -1.6691201   0.89268938  -0.77643068   0.14005634    11424.454     1000 
  868000   0.59302481   -1.7379808   0.88864767  -0.84933314   0.12831137    11625.773     1000 
  870000   0.57650898   -1.6704388   0.86389871  -0.80654013   0.13027213    11379.204     1000 
  872000   0.61784204   -1.6686899    0.9258363  -0.74285361   0.13926889    11372.793     1000 
  874000   0.57486895   -1.6747196   0.86144112  -0.81327849   0.12085967    11548.396     1000 
  876000   0.58865841   -1.7020276   0.88210462  -0.81992297   0.12839135     11485.71     1000 
  878000   0.58706332   -1.6955089   0.87971438  -0.81579447   0.14219621    11337.647     1000 
  880000   0.60137743    -1.656123   0.90116408  -0.75495897    0.1189205    11602.739     1000 
  882000   0.58917957   -1.7202164   0.88288559  -0.83733077   0.12276887    11647.214     1000 
  884000   0.59109044   -1.7549665   0.88574902  -0.86921747   0.12981924    11600.485     1000 
  886000   0.59526266   -1.6742188   0.89200109  -0.78221768   0.13686342     11208.27     1000 
  888000   0.57943516   -1.7258125   0.86828359  -0.85752895   0.13244707    11447.552     1000 
  890000   0.61105993    -1.681379    0.9156733  -0.76570573   0.12313179    11567.601     1000 
  892000    0.5765844   -1.6985792   0.86401173  -0.83456748   0.13128092    11574.986     1000 
  894000   0.58389292    -1.686491   0.87496354  -0.81152746   0.12209203    11466.621     1000 
  896000   0.57808965   -1.6804506   0.86626734  -0.81418322   0.12805225    11423.387     1000 
  898000   0.59092995   -1.6810097   0.88550853  -0.79550121   0.13273973    11434.549     1000 
  900000   0.57579751   -1.7047424   0.86283257  -0.84190979   0.13051591     11305.92     1000 
  902000   0.62433127   -1.6943354    0.9355604  -0.75877503   0.13236879    11434.058     1000 
  904000   0.59896968   -1.6888548   0.89755606  -0.79129874   0.12407267    11566.813     1000 
  906000   0.59204155   -1.7099105   0.88717427  -0.82273627   0.13670618    11402.911     1000 
  908000   0.57092133   -1.6650416   0.85552562  -0.80951594   0.11880101    11698.741     1000 
  910000   0.60000408     -1.67387   0.89910612  -0.77476391   0.13961314    11471.264     1000 
  912000   0.57183087   -1.6822731   0.85688856  -0.82538458   0.12228392    11462.515     1000 
  914000   0.58279565    -1.684379   0.87331929  -0.81105976   0.12969243    11558.623     1000 
  916000   0.61679054   -1.7043389   0.92426063  -0.78007831   0.13168951      11571.5     1000 
  918000   0.57387088   -1.7335983   0.85994552   -0.8736528   0.12509494    11592.395     1000 
  920000   0.58349135   -1.7254311   0.87436179  -0.85106928   0.13498039    11363.716     1000 
  922000   0.58542649   -1.7107332    0.8772616  -0.83347158   0.13715699    11397.924     1000 
  924000   0.60708953   -1.7154802   0.90972366  -0.80575654   0.12968003    11566.338     1000 
  926000   0.55706888   -1.7319129   0.83476771  -0.89714514   0.12278112    11645.117     1000 
  928000   0.58602771   -1.7019402   0.87816252  -0.82377772   0.13298759    11370.049     1000 
  930000    0.5945919   -1.6515616   0.89099596  -0.76056561   0.13028323    11547.852     1000 
  932000   0.58499207    -1.640334   0.87661061  -0.76372343   0.14308447    11222.348     1000 
  934000   0.59342862   -1.7179716   0.88925279  -0.82871882    0.1318259     11577.78     1000 
  936000   0.54232101   -1.6885011   0.81266803  -0.87583302   0.12289819    11497.926     1000 
  938000   0.58873092   -1.6889319   0.88221329  -0.80671857    0.1367083    11462.519     1000 
  940000   0.58340652   -1.7143185   0.87423467  -0.84008385   0.14741372    11392.392     1000 
  942000   0.61659571   -1.7120758   0.92396867  -0.78810711   0.13755814    11417.122     1000 
  944000   0.58950482   -1.7263131   0.88337298  -0.84294013   0.14260253    11304.561     1000 
  946000   0.57984214   -1.6488512   0.86889344  -0.77995771   0.13426809    11327.842     1000 
  948000   0.59036715   -1.6891225   0.88466517   -0.8044573   0.13378955    11466.064     1000 
  950000   0.62690315    -1.692242   0.93941437   -0.7528276   0.14332182     11517.05     1000 
  952000   0.59321497   -1.6672357   0.88893264  -0.77830304   0.11948152    11668.727     1000 
  954000   0.60936937   -1.7087757   0.91314001  -0.79563573   0.13241549    11378.802     1000 
  956000    0.6245221   -1.6758468   0.93584637  -0.74000047   0.13697634    11506.894     1000 
  958000   0.57835008   -1.7360467   0.86665759  -0.86938914    0.1378654    11518.323     1000 
  960000   0.58900006   -1.7339806   0.88261659    -0.851364     0.130672    11399.335     1000 
  962000   0.62034993   -1.6894286   0.92959436   -0.7598342   0.12619747    11672.837     1000 
  964000   0.57346842   -1.6928647   0.85934243  -0.83352223   0.12171426    11496.772     1000 
  966000   0.58547213   -1.7152053   0.87732999  -0.83787529   0.12631984    11520.725     1000 
  968000   0.59707218   -1.6760971   0.89471266  -0.78138447   0.13450744    11450.046     1000 
  970000   0.60108094   -1.6727544   0.90071978  -0.77203462   0.12956369    11657.413     1000 
  972000   0.59824999   -1.7703982    0.8964776  -0.87392063   0.13226569    11465.676     1000 
  974000   0.59523428   -1.7501659   0.89195857  -0.85820729   0.13190083    11581.562     1000 
  976000   0.59929015   -1.7356485    0.8980363  -0.83761221   0.13396137    11354.297     1000 
  978000   0.61343642   -1.7029904   0.91923447  -0.78375595   0.14633714    11443.927     1000 
  980000   0.58778311   -1.6700832     0.880793  -0.78929016   0.13551002    11511.819     1000 
  982000   0.57526183   -1.7405424   0.86202985  -0.87851257   0.13111169    11396.593     1000 
  984000   0.59655765    -1.737955   0.89394164  -0.84401334    0.1301458    11587.194     1000 
  986000   0.59320303   -1.6698676   0.88891474  -0.78095286   0.13499267    11435.167     1000 
  988000    0.5709632   -1.6618675   0.85558835  -0.80627911   0.13424112    11420.392     1000 
  990000   0.59617141   -1.6579367   0.89336286  -0.76457387   0.13512317    11270.776     1000 
  992000   0.58737331   -1.7157184   0.88017891  -0.83553953   0.13064175    11441.816     1000 
  994000   0.57429587   -1.6367969   0.86058236  -0.77621456   0.14441292    11414.956     1000 
  996000   0.58674828   -1.6732169    0.8792423  -0.79397458   0.13319226    11580.446     1000 
  998000   0.57511487   -1.6685003   0.86180963  -0.80669064   0.13341379    11530.272     1000 
 1000000   0.59212042   -1.6936256   0.88729246  -0.80633318   0.12822999    11481.888     1000 
 1002000   0.58350655   -1.6705148   0.87438456  -0.79613027   0.12608153    11473.583     1000 
 1004000   0.56676396   -1.6745733   0.84929579  -0.82527752   0.13623292    11492.123     1000 
 1006000   0.59423242   -1.6802543   0.89045728  -0.78979705   0.11886998    11805.938     1000 
 1008000   0.57330469   -1.6585352   0.85909707  -0.79943816   0.12135797    11557.205     1000 
 1010000   0.57391551    -1.676027    0.8600124   -0.8160146   0.13413236    11419.135     1000 
 1012000     0.601164   -1.7187871   0.90084426  -0.81794287   0.12485034    11495.478     1000 
 1014000       0.5808   -1.7449673    0.8703288  -0.87463853    0.1306501    11607.146     1000 
 1016000   0.58489393   -1.6748795   0.87646356  -0.79841594   0.12465322    11613.288     1000 
 1018000   0.58115735   -1.7093933   0.87086429  -0.83852899   0.13365223    11590.609     1000 
 1020000     0.603095   -1.7162151   0.90373786  -0.81247725   0.13253692    11377.866     1000 
 1022000   0.57716953   -1.6676336   0.86488854  -0.80274509    0.1317417    11577.992     1000 
 1024000   0.60335496   -1.6650003   0.90412741  -0.76087285   0.13842795    11282.183     1000 
 1026000   0.57901232   -1.6862993   0.86764996  -0.81864938   0.12868547    11437.674     1000 
 1028000   0.58804111   -1.6825685    0.8811796  -0.80138888   0.13428594    11465.657     1000 
 1030000   0.57033225   -1.7597404   0.85464287  -0.90509753    0.1329147    11381.012     1000 
 1032000   0.59216363   -1.6752833    0.8873572  -0.78792612   0.14365476    11470.147     1000 
 1034000   0.60468888   -1.7230631   0.90612628  -0.81693683   0.11477314    11634.967     1000 
 1036000   0.61540136   -1.6805933   0.92217893   -0.7584144    0.1348675    11460.034     1000 
 1038000   0.55885042   -1.6970069   0.83743735  -0.85956959   0.12989875    11480.263     1000 
 1040000   0.59051449   -1.7455105   0.88488597  -0.86062449   0.12943168    11534.468     1000 
 1042000    0.6141258   -1.7145855   0.92026751  -0.79431802   0.13290497    11517.309     1000 
 1044000   0.57544267   -1.6799109   0.86230083  -0.81761005   0.12932853    11616.443     1000 
 1046000   0.58031328   -1.7030334   0.86959945  -0.83343398   0.12797012    11480.943     1000 
 1048000   0.61483433   -1.6818888   0.92132924  -0.76055956   0.12609229    11614.829     1000 
 1050000   0.58241318   -1.6808287   0.87274616  -0.80808253   0.12067522    11498.467     1000 
 1052000   0.58732101   -1.7048581   0.88010053  -0.82475754   0.14158126     11484.08     1000 
 1054000   0.58279602   -1.6465668   0.87331984  -0.77324698   0.12389912    11402.074     1000 
 1056000   0.58527536   -1.6960696   0.87703513  -0.81903443   0.12496613    11601.282     1000 
 1058000    0.6209695    -1.663745   0.93052279  -0.73322219   0.12934342     11555.62     1000 
 1060000   0.60641592   -1.6931499   0.90871425  -0.78443567   0.13031992    11534.786     1000 
 1062000   0.61136828    -1.656619   0.91613537  -0.74048361     0.133726    11439.473     1000 
 1064000   0.59107282   -1.7350518   0.88572262  -0.84932921   0.13151051    11380.519     1000 
 1066000   0.59434139   -1.7143356   0.89062058    -0.823715   0.12605796    11489.837     1000 
 1068000   0.60551961   -1.6664326   0.90737113  -0.75906151   0.13881719    11462.074     1000 
 1070000    0.5929156   -1.6740036   0.88848402  -0.78551961   0.14072905    11437.213     1000 
 1072000    0.5883567   -1.6980661   0.88165252  -0.81641358   0.13745004    11401.936     1000 
 1074000   0.60188444   -1.6638883   0.90192383  -0.76196448   0.12523283    11482.094     1000 
 1076000   0.59206523   -1.7152948   0.88720975  -0.82808507    0.1380716    11300.654     1000 
 1078000   0.57013455   -1.7280689   0.85434663  -0.87372229    0.1251965    11605.163     1000 
 1080000   0.58884024   -1.6532357    0.8823771   -0.7708586   0.12209418    11451.632     1000 
 1082000   0.59690989    -1.678802   0.89446947  -0.78433254    0.1360994    11319.009     1000 
 1084000   0.57822503    -1.685035    0.8664702  -0.81856479   0.11684562     11582.17     1000 
 1086000    0.5930926    -1.690633   0.88874926  -0.80188373   0.13363149    11531.784     1000 
 1088000   0.59566086   -1.6714515    0.8925978  -0.77885368   0.14800437    11257.427     1000 
 1090000   0.61072847   -1.6883354   0.91517661   -0.7731588   0.13869006    11486.363     1000 
 1092000   0.57388064   -1.6919855   0.85996014  -0.83202532   0.12572999    11443.562     1000 
 1094000   0.61252401   -1.7268707   0.91786722  -0.80900348   0.13086279    11526.575     1000 
 1096000   0.60159677   -1.6313712   0.90149275  -0.72987847   0.11944584    11538.625     1000 
 1098000   0.56788962   -1.6860815    0.8509826  -0.83509886   0.14120468    11459.725     1000 
 1100000   0.59251223   -1.6903905   0.88787957  -0.80251098   0.12603756    11573.278     1000 
 1102000   0.58352916   -1.6659926   0.87441845  -0.79157418   0.12873877    11525.449     1000 
 1104000   0.58248816   -1.7133645   0.87285851  -0.84050602   0.12128158    11607.276     1000 
 1106000    0.5923478   -1.7081833   0.88763318  -0.82055009   0.12199699    11570.539     1000 
 1108000   0.59707336   -1.6526116   0.89471443  -0.75789721   0.14100095    11369.913     1000 
 1110000   0.60483178   -1.7078715   0.90634042  -0.80153107   0.12712531     11678.88     1000 
 1112000   0.56084983   -1.6716511   0.84043348  -0.83121762   0.13195296    11517.153     1000 
 1114000   0.58344105   -1.6690751   0.87428641  -0.79478865   0.12648946    11639.671     1000 
 1116000   0.58712836      -1.7689   0.87981185  -0.88908812   0.11978499    11665.503     1000 
 1118000   0.56861888    -1.636456   0.85207539  -0.78438056   0.13734782     11330.62     1000 
 1120000   0.62426826    -1.663585   0.93546599  -0.72811904   0.13974509    11352.127     1000 
 1122000   0.57499455   -1.6852893   0.86162934  -0.82365994   0.13589809    11473.724     1000 
 1124000   0.57587773   -1.6472351   0.86295278  -0.78428231   0.14066478    11222.178     1000 
 1126000   0.57909451   -1.6501205   0.86777312  -0.78234738   0.12545993     11512.15     1000 
 1128000   0.58761777   -1.6908523   0.88054523  -0.81030708   0.14100572    11266.843     1000 
 1130000   0.57811794   -1.6629134   0.86630974  -0.79660363   0.13720105    11367.122     1000 
 1132000   0.56597766   -1.7026643   0.84811752  -0.85454677   0.12202526    11618.577     1000 
 1134000   0.56481907   -1.7073293   0.84638137  -0.86094795   0.11862861    11787.759     1000 
 1136000   0.56653973    -1.653053   0.84895979  -0.80409316   0.13168318    11449.694     1000 
 1138000   0.60259701   -1.6465207   0.90299162  -0.74352907   0.12702768    11560.899     1000 
 1140000   0.58000416   -1.7066336   0.86913624  -0.83749737   0.10911719    11611.109     1000 
 1142000   0.59571569   -1.6799676   0.89267997  -0.78728765   0.14411342    11223.783     1000 
 1144000     0.596383   -1.6642181   0.89367993  -0.77053816   0.13843743    11385.894     1000 
 1146000   0.60573036   -1.7059474   0.90768694   -0.7982605   0.12867681    11578.469     1000 
 1148000   0.60328977   -1.7047851   0.90402973  -0.80075534   0.13811364     11352.71     1000 
 1150000   0.60160484   -1.7214336   0.90150486  -0.81992879   0.13362591    11427.945     1000 
 1152000   0.61255028   -1.7251114    0.9179066  -0.80720476   0.12652748    11719.249     1000 
 1154000   0.58789969   -1.6956459   0.88096769  -0.81467823   0.13634334    11452.642     1000 
 1156000   0.58292169   -1.6560565   0.87350815  -0.78254834   0.11875413     11569.93     1000 
 1158000   0.59525933   -1.6805748   0.89199611  -0.78857872   0.11312687      11655.4     1000 
 1160000   0.60927223   -1.6509052   0.91299443  -0.73791074   0.13420683    11323.038     1000 
 1162000   0.59796594   -1.6873896   0.89605196  -0.79133769   0.13057106    11546.878     1000 
 1164000   0.58822272   -1.6443172   0.88145175  -0.76286541    0.1338566    11569.151     1000 
 1166000   0.54692563   -1.7465443   0.81956805   -0.9269763   0.12058466    11536.645     1000 
 1168000   0.58983666   -1.7173907   0.88387023  -0.83352046   0.13058504    11455.953     1000 
 1170000   0.57876178   -1.7213896   0.86727452  -0.85411504   0.13230456    11512.047     1000 
 1172000   0.58605288   -1.6734895   0.87820024  -0.79528923   0.11726945    11583.293     1000 
 1174000   0.56981121    -1.711416    0.8538621  -0.85755391   0.13813327    11412.019     1000 
 1176000   0.57699569   -1.6721085   0.86462804  -0.80748043   0.12899721    11443.797     1000 
 1178000   0.59563049   -1.7318893   0.89255229  -0.83933704   0.11939555    11705.025     1000 
 1180000   0.59838414   -1.7142387   0.89667864  -0.81756008   0.11414598    11760.196     1000 
 1182000   0.57423249   -1.7153262   0.86048738  -0.85483883   0.13090475    11521.166     1000 
 1184000   0.62984652   -1.6394534   0.94382501  -0.69562841   0.14399539    11307.989     1000 
 1186000    0.5808947   -1.6586864   0.87047071  -0.78821574   0.11612046    11500.844     1000 
 1188000   0.56059618   -1.6605051   0.84005338  -0.82045173   0.13193311    11468.806     1000 
 1190000   0.58183626   -1.6913809   0.87188163  -0.81949922   0.12410192    11530.669     1000 
 1192000   0.58905665   -1.6960261   0.88270139  -0.81332473   0.13493094    11392.857     1000 
 1194000    0.6096406   -1.7294483   0.91354643  -0.81590182   0.14269133    11501.179     1000 
 1196000   0.59863614   -1.6690088   0.89705625  -0.77195258   0.13655415    11414.762     1000 
 1198000   0.62104655   -1.7412908   0.93063825  -0.81065256   0.12424302    11592.264     1000 
 1200000   0.60328211   -1.6974522   0.90401824  -0.79343399   0.12624069    11666.982     1000 
 1202000   0.60839934   -1.7127377   0.91168642  -0.80105126   0.12912957    11587.651     1000 
 1204000   0.58892943   -1.6631069   0.88251075   -0.7805961   0.14087751    11479.626     1000 
 1206000   0.59660307   -1.6703036   0.89400969  -0.77629394   0.13813388    11407.466     1000 
 1208000   0.57824605   -1.7003849    0.8665017  -0.83388316   0.12297003        11529     1000 
 1210000   0.58735281   -1.6814055   0.88014818  -0.80125736   0.12534582    11608.788     1000 
 1212000   0.60016246   -1.7366093   0.89934345  -0.83726583   0.14197233    11263.522     1000 
 1214000   0.59363556   -1.6417613   0.88956289  -0.75219845   0.12747685     11454.35     1000 
 1216000   0.58651175   -1.7595212   0.87888785   -0.8806333   0.12972524    11517.613     1000 
 1218000   0.57527804   -1.6896688   0.86205415  -0.82761461   0.12847397    11480.364     1000 
 1220000    0.5963087   -1.6873631   0.89356859  -0.79379453   0.12909926    11575.925     1000 
 1222000   0.56180561   -1.6592982    0.8418657  -0.81743247   0.12777057    11366.151     1000 
 1224000    0.5656016   -1.6857378     0.847554  -0.83818383   0.13705844    11401.126     1000 
 1226000   0.58869876   -1.6727072   0.88216509  -0.79054212   0.13033617    11520.695     1000 
 1228000   0.59700884   -1.6984585   0.89461775  -0.80384074   0.13201326    11400.625     1000 
 1230000   0.58426792   -1.7218003   0.87552547  -0.84627486   0.12539971    11568.986     1000 
 1232000   0.59485606   -1.6845133    0.8913918   -0.7931215   0.12462323    11568.915     1000 
 1234000    0.5947699   -1.6653817    0.8912627    -0.774119    0.1256945    11544.968     1000 
 1236000    0.5768311   -1.6629038    0.8643814  -0.79852238   0.13409689    11308.515     1000 
 1238000   0.61886313   -1.6789297    0.9273664  -0.75156331    0.1258404    11577.738     1000 
 1240000   0.58923894   -1.6502206   0.88297456  -0.76724603   0.13067279     11430.24     1000 
 1242000   0.57451084   -1.7093299   0.86090449  -0.84842537   0.12553109    11449.334     1000 
 1244000   0.60156362   -1.7489981   0.90144308  -0.84755502   0.13198206    11511.301     1000 
 1246000   0.56926051   -1.7001693   0.85303687  -0.84713238   0.14725374    11329.324     1000 
 1248000   0.61037437   -1.7137793     0.914646  -0.79913335   0.13424271    11367.394     1000 
 1250000   0.58421429   -1.7401424   0.87544511  -0.86469732   0.12460842    11679.887     1000 
 1252000   0.59872161   -1.6733231   0.89718433  -0.77613882   0.12964839    11544.087     1000 
 1254000   0.57016738    -1.730311   0.85439581  -0.87591517   0.12482918    11600.398     1000 
 1256000   0.63896256   -1.6637127   0.95748539   -0.7062273   0.13321244    11393.653     1000 
 1258000   0.59430233   -1.6999728   0.89056204  -0.80941078   0.12466123    11392.009     1000 
 1260000   0.61537359   -1.7160276   0.92213733  -0.79389024    0.1318593     11487.25     1000 
 1262000   0.57225656   -1.7194562   0.85752645  -0.86192977   0.13210947    11468.712     1000 
 1264000    0.5884499   -1.6968277   0.88179217   -0.8150355   0.12768045    11523.062     1000 
 1266000   0.58011189   -1.6730417   0.86929766  -0.80374402   0.12372974    11770.058     1000 
 1268000   0.56428522   -1.7035055    0.8455814  -0.85792409   0.13306075    11425.978     1000 
 1270000   0.61885014   -1.6682852   0.92734694   -0.7409383   0.13176394    11490.601     1000 
 1272000   0.58361172   -1.6930686   0.87454217  -0.81852644   0.12093799    11413.438     1000 
 1274000    0.5971609   -1.7245667    0.8948456  -0.82972107    0.1301315    11485.822     1000 
 1276000   0.58843771   -1.6705287   0.88177391  -0.78875478   0.14628191    11264.233     1000 
 1278000   0.57662535   -1.6814452   0.86407308  -0.81737207   0.12215534    11421.385     1000 
 1280000   0.60028212    -1.675033   0.89952276  -0.77551023   0.12580418    11460.671     1000 
 1282000   0.57572214   -1.6607301   0.86271963  -0.79801052   0.11212715    11772.265     1000 
 1284000    0.6096511   -1.6985779   0.91356218  -0.78501569   0.12861005    11701.455     1000 
 1286000   0.57938292   -1.7220429   0.86820531  -0.85383763   0.12955942     11655.73     1000 
 1288000   0.58460643   -1.6580838   0.87603274   -0.7820511   0.12468246    11539.273     1000 
 1290000   0.62706455   -1.6648448   0.93965623  -0.72518858   0.13341021    11280.678     1000 
 1292000   0.58597483   -1.6541071   0.87808328  -0.77602381    0.1238587     11534.31     1000 
 1294000    0.5731696   -1.7305096   0.85889464  -0.87161491    0.1290709    11432.139     1000 
 1296000   0.59389524   -1.6568432   0.88995202  -0.76689121   0.13112976    11352.441     1000 
 1298000   0.58640594   -1.7260476   0.87872931  -0.84731825    0.1170836    11660.827     1000 
 1300000   0.60085506   -1.6788812    0.9003813  -0.77849987   0.13156801    11438.074     1000 
 1302000   0.59062207   -1.6624158   0.88504717  -0.77736863   0.13045456    11260.392     1000 
 1304000   0.59209857   -1.7128512    0.8872597  -0.82559149   0.13976459    11418.972     1000 
 1306000   0.58038256   -1.6751633   0.86970327  -0.80546006    0.1329876    11443.907     1000 
 1308000    0.6044328   -1.6583577   0.90574255  -0.75261518   0.13930656     11403.31     1000 
 1310000   0.59622963   -1.6938931   0.89345011  -0.80044301   0.12618867    11646.745     1000 
 1312000   0.56875504    -1.657258   0.85227942  -0.80497854   0.12801834    11365.002     1000 
 1314000   0.56285243   -1.6841684   0.84343437  -0.84073399   0.12775354    11632.479     1000 
 1316000   0.58667824   -1.7351233   0.87913735  -0.85598592   0.13011019    11439.526     1000 
 1318000    0.5899199   -1.6949098   0.88399497  -0.81091481   0.11661871    11471.642     1000 
 1320000   0.61050785   -1.7062248   0.91484602  -0.79137877   0.12942284    11397.994     1000 
 1322000   0.57944885    -1.714306    0.8683041  -0.84600187   0.12367085    11630.539     1000 
 1324000   0.60207426   -1.7120059   0.90220829  -0.80979761   0.12929876    11389.315     1000 
 1326000   0.57456458   -1.6848084   0.86098502  -0.82382337   0.12121561    11622.307     1000 
 1328000   0.59163534   -1.6840402   0.88656556  -0.79747468   0.12310931    11465.703     1000 
 1330000   0.61569313   -1.7108599   0.92261616  -0.78824374   0.13454718    11502.591     1000 
 1332000   0.59651093   -1.6826867   0.89387162   -0.7888151   0.13510318    11525.978     1000 
 1334000   0.58151506   -1.7107981   0.87140032  -0.83939781   0.13867437    11396.833     1000 
 1336000   0.58377048   -1.6912419   0.87478007  -0.81646188   0.12571109    11546.531     1000 
 1338000   0.59599957   -1.6456431   0.89310535  -0.75253776   0.12569224     11437.68     1000 
 1340000   0.57887229   -1.7162915   0.86744013  -0.84885133   0.12277133    11630.246     1000 
 1342000   0.57693689   -1.7310874   0.86453993  -0.86654747   0.11873366    11578.292     1000 
 1344000   0.61253812   -1.7109593   0.91788837  -0.79307097   0.12090152    11636.019     1000 
 1346000   0.58448324   -1.7372456   0.87584813  -0.86139742   0.13114682    11454.845     1000 
 1348000   0.58955515   -1.7202052   0.88344839   -0.8367568   0.11361373    11592.653     1000 
 1350000   0.60208603   -1.7359803   0.90222592  -0.83375438   0.12968564    11610.712     1000 
 1352000   0.60233042    -1.615908   0.90259214  -0.71331586   0.13603574      11267.9     1000 
 1354000   0.58680647   -1.6642134    0.8793295   -0.7848839    0.1322743    11475.231     1000 
 1356000   0.58365869   -1.7154581   0.87461254  -0.84084557   0.12468199    11531.678     1000 
 1358000   0.59041859   -1.7593276   0.88474226  -0.87458532   0.12262912    11706.004     1000 
 1360000   0.59963941   -1.6801489   0.89855965  -0.78158924   0.13665131        11462     1000 
 1362000   0.57107433   -1.7467618   0.85575488  -0.89100694   0.12948445    11525.557     1000 
 1364000   0.60901839   -1.7610471   0.91261405    -0.848433   0.13968253    11413.017     1000 
 1366000   0.58452177   -1.6621584   0.87590587  -0.78625249   0.12692497    11472.104     1000 
 1368000   0.58708687   -1.7021262   0.87974967  -0.82237657   0.12774435    11418.208     1000 
 1370000   0.58282809   -1.6960417   0.87336789  -0.82267385   0.13848907    11562.676     1000 
 1372000    0.5852456   -1.6613542   0.87699053  -0.78436368   0.12834699    11453.846     1000 
 1374000   0.57543863   -1.7191187   0.86229478  -0.85682394   0.11111158    11718.255     1000 
 1376000   0.60218964   -1.7242637   0.90238118  -0.82188249   0.14075943    11484.326     1000 
 1378000   0.60888021   -1.6672522   0.91240699  -0.75484521   0.13464877    11529.401     1000 
 1380000   0.57587281   -1.7028209    0.8629454  -0.83987551   0.11985829    11575.911     1000 
 1382000   0.59953179   -1.6887316   0.89839839  -0.79033325   0.13760501    11639.791     1000 
 1384000    0.6040554   -1.7104794   0.90517701  -0.80530235   0.14085664    11226.571     1000 
 1386000   0.62432729   -1.7688957   0.93555444  -0.83334122   0.13622574    11616.817     1000 
 1388000     0.554648   -1.6858854   0.83114003  -0.85474537   0.12632301    11475.749     1000 
 1390000   0.56989268   -1.7154996   0.85398418  -0.86151546   0.11338681    11695.877     1000 
 1392000   0.57037214   -1.7391093   0.85470265  -0.88440661   0.13270825    11470.251     1000 
 1394000   0.59882146   -1.7148332   0.89733396  -0.81749922   0.12676784    11447.288     1000 
 1396000   0.59210381   -1.7172869   0.88726756  -0.83001932   0.13093856     11582.45     1000 
 1398000   0.59970341   -1.6700119   0.89865556  -0.77135637   0.12741674    11450.489     1000 
 1400000   0.60121707   -1.6555006   0.90092378   -0.7545768   0.12681012    11471.817     1000 
 1402000   0.58103175   -1.7059096   0.87067608  -0.83523351   0.13507585    11438.059     1000 
 1404000   0.58042183   -1.6476643   0.86976211  -0.77790217   0.12732284    11390.405     1000 
 1406000   0.63297435   -1.7129666   0.94851207   -0.7644545    0.1374609    11375.439     1000 
 1408000   0.60189367   -1.6745109   0.90193767   -0.7725732    0.1380826    11371.541     1000 
 1410000   0.61845244   -1.6987126   0.92675098  -0.77196163   0.13973711    11325.496     1000 
 1412000   0.60512433    -1.702132    0.9067788  -0.79535321   0.13799536     11407.57     1000 
 1414000   0.58755009   -1.7182514   0.88044381  -0.83780763   0.12992198    11535.002     1000 
 1416000   0.60205926    -1.694198    0.9021858  -0.79201217   0.13780761    11476.381     1000 
 1418000   0.61596471   -1.6992174   0.92302312  -0.77619424   0.14224241    11301.607     1000 
 1420000   0.56710918   -1.7192596    0.8498131  -0.86944654    0.1229006    11596.838     1000 
 1422000    0.6095177    -1.687453   0.91336228  -0.77409073   0.12436353    11682.234     1000 
 1424000    0.6103472   -1.6784572   0.91460529  -0.76385188   0.13431382    11426.108     1000 
 1426000   0.60638223   -1.6607894   0.90866378  -0.75212559   0.13593315    11421.173     1000 
 1428000   0.59075574   -1.6848596   0.88524748  -0.79961215   0.12951386    11413.719     1000 
 1430000   0.59779573   -1.6658128    0.8957969  -0.77001587   0.13589659     11407.28     1000 
 1432000   0.59008749   -1.6921208    0.8842461  -0.80787471   0.13037561    11254.651     1000 
 1434000   0.57362152   -1.6490494   0.85957185  -0.78947753   0.14467271    11275.451     1000 
 1436000   0.59213301   -1.6057129   0.88731132  -0.71840156   0.13829347    11446.916     1000 
 1438000    0.5652606   -1.6948999   0.84704301   -0.8478569   0.13169498    11553.408     1000 
 1440000   0.59560971   -1.7337219   0.89252116  -0.84120077    0.1362539    11330.886     1000 
 1442000   0.60639134    -1.662801   0.90867742  -0.75412354   0.12603804    11518.519     1000 
 1444000   0.58693918   -1.6770282   0.87952836  -0.79749982     0.128883    11465.386     1000 
 1446000   0.58013024    -1.685449   0.86932517  -0.81612384   0.11412431      11718.1     1000 
 1448000   0.58385693   -1.7232093   0.87490961  -0.84829971   0.13551482    11411.078     1000 
 1450000   0.57982499   -1.7402692   0.86886774  -0.87140148    0.1418479    11305.557     1000 
 1452000   0.61171269   -1.7356194   0.91665146  -0.81896796   0.13631059     11503.45     1000 
 1454000   0.57763433   -1.6904949   0.86558504  -0.82490985    0.1271436    11593.836     1000 
 1456000   0.59832603   -1.6718296   0.89659155  -0.77523803   0.13374051    11393.954     1000 
 1458000   0.60278201   -1.6693802   0.90326884  -0.76611133   0.13760885    11375.018     1000 
 1460000   0.61360379   -1.6896613   0.91948528  -0.77017598    0.1331918    11399.333     1000 
 1462000   0.58507004   -1.7032672   0.87672745  -0.82653974   0.12969659    11373.823     1000 
 1464000   0.55794363   -1.7258159   0.83607853  -0.88973737   0.11187261    11635.842     1000 
 1466000   0.58307536    -1.691935   0.87373842  -0.81819658   0.12858401    11358.008     1000 
 1468000   0.56926733   -1.6691186   0.85304709  -0.81607147   0.12967965    11425.843     1000 
 1470000   0.58274356   -1.7094388   0.87324123  -0.83619754   0.12747425    11554.432     1000 
 1472000   0.58082982    -1.691798   0.87037349  -0.82142447   0.12741139    11473.129     1000 
 1474000   0.59705843   -1.7447032   0.89469206  -0.85001118   0.12221735    11702.323     1000 
 1476000   0.60802058    -1.690522   0.91111884  -0.77940312   0.12023681    11631.893     1000 
 1478000   0.58262684   -1.7012584   0.87306631  -0.82819207   0.12622219    11382.198     1000 
 1480000   0.59169288   -1.6956054   0.88665178  -0.80895365   0.12625126    11609.081     1000 
 1482000   0.58413708   -1.6493017   0.87532942  -0.77397228   0.14176044    11405.851     1000 
 1484000   0.60912142   -1.6899547   0.91276845  -0.77718626   0.14357531     11361.57     1000 
 1486000   0.59276219   -1.6530204   0.88825414  -0.76476624   0.13012866    11357.662     1000 
 1488000   0.59923927   -1.6683251   0.89796005  -0.77036503   0.12852179    11568.753     1000 
 1490000   0.60734895   -1.6391479    0.9101124  -0.72903552   0.12976805    11390.797     1000 
 1492000   0.58621489   -1.6874252   0.87844302  -0.80898218   0.14678113    11356.505     1000 
 1494000   0.55350889   -1.6813154   0.82943308  -0.85188231   0.12953288    11359.658     1000 
 1496000   0.56138402   -1.7112298   0.84123396  -0.86999589   0.11559216    11745.749     1000 
 1498000   0.60024594   -1.6760533   0.89946854  -0.77658477   0.13478378    11532.709     1000 
 1500000   0.58092394   -1.7135318   0.87051452  -0.84301733   0.13155257    11601.343     1000 
 1502000   0.58885451   -1.6837399   0.88239849  -0.80134141   0.13902703    11317.549     1000 
 1504000   0.58344774   -1.7008691   0.87429644  -0.82657268   0.13908311    11335.669     1000 
 1506000   0.61273649   -1.6833207   0.91818564  -0.76513508   0.13783812    11395.593     1000 
 1508000   0.57438581   -1.6842706   0.86071714  -0.82355349   0.13781648    11461.892     1000 
 1510000   0.57925908   -1.7101659   0.86801973  -0.84214621   0.13322948      11524.4     1000 
 1512000   0.59280003   -1.7338197   0.88831084  -0.84550889   0.12170109    11542.658     1000 
 1514000    0.5971582   -1.7290876   0.89484156  -0.83424606   0.12597389    11344.272     1000 
 1516000   0.57824146   -1.6810539   0.86649482  -0.81455912    0.1288511    11503.972     1000 
 1518000   0.59348634   -1.6697785   0.88933928  -0.78043918   0.12955247    11469.377     1000 
 1520000   0.59721318   -1.6719396   0.89492396  -0.77701563   0.13761055    11423.133     1000 
 1522000   0.58790575   -1.7035999   0.88097676  -0.82262313    0.1362116    11434.489     1000 
 1524000   0.60461612   -1.6795912   0.90601725  -0.77357398    0.1294951    11457.212     1000 
 1526000   0.57495236   -1.6852703   0.86156611  -0.82370419   0.12722821    11483.322     1000 
 1528000   0.59993739   -1.6951158   0.89900618  -0.79610961    0.1256596    11531.622     1000 
 1530000   0.60920188    -1.643183   0.91288902  -0.73029402   0.14704809      11313.5     1000 
 1532000   0.58737389   -1.6680954   0.88017977  -0.78791568    0.1280781    11344.253     1000 
 1534000   0.57585643   -1.6923246   0.86292086  -0.82940369   0.13027803    11546.761     1000 
 1536000   0.56902685   -1.6523649   0.85268673  -0.79967816   0.11718774    11588.103     1000 
 1538000   0.60976128    -1.713267   0.91372728   -0.7995397   0.13637531    11396.663     1000 
 1540000   0.58431343   -1.7129064   0.87559368  -0.83731269   0.12001879    11581.669     1000 
 1542000   0.57122072   -1.6169779   0.85597425  -0.76100365   0.12637103    11598.594     1000 
 1544000   0.59639243   -1.6547537   0.89369406  -0.76105968   0.13024935    11513.235     1000 
 1546000   0.60549793   -1.6493068   0.90733865  -0.74196817   0.14098056     11304.09     1000 
 1548000   0.58022336   -1.6827538    0.8694647  -0.81328912   0.13324118    11538.574     1000 
 1550000   0.59139387   -1.6664566   0.88620372  -0.78025288   0.11575988    11620.171     1000 
 1552000   0.58387687   -1.6918959   0.87493949  -0.81695639   0.12113132    11522.015     1000 
 1554000   0.57799457   -1.7006817   0.86612487  -0.83455686   0.12597005    11509.055     1000 
 1556000    0.6188635   -1.7351617   0.92736695  -0.80779479   0.12572771    11527.812     1000 
 1558000   0.60131739   -1.7075201   0.90107411  -0.80644597    0.1272223    11446.746     1000 
 1560000   0.59329068   -1.6234308   0.88904608  -0.73438469   0.13515877    11466.378     1000 
 1562000   0.60727355   -1.6906912   0.90999942  -0.78069182   0.13919757    11349.268     1000 
 1564000   0.59549705   -1.7264045   0.89235233  -0.83405217   0.11252247    11782.187     1000 
 1566000   0.59330379   -1.7245137   0.88906573  -0.83544801    0.1382511    11434.337     1000 
 1568000   0.58664789   -1.6556367   0.87909187  -0.77654487   0.13025076    11541.462     1000 
 1570000   0.60241931   -1.6966413   0.90272533  -0.79391596   0.11998797    11658.155     1000 
 1572000   0.60738732   -1.6999118    0.9101699  -0.78974191   0.12725403    11464.683     1000 
 1574000   0.57600093    -1.698329    0.8631374  -0.83519162    0.1295043    11493.744     1000 
 1576000   0.56817268   -1.7061645   0.85140676  -0.85475779   0.13255755    11411.062     1000 
 1578000   0.58332259   -1.7064211    0.8741089  -0.83231216   0.12694165    11406.091     1000 
 1580000   0.57266901   -1.7007109   0.85814451  -0.84256639   0.12368719    11639.157     1000 
 1582000   0.58207418   -1.6786056   0.87223816  -0.80636745   0.12940357    11453.068     1000 
 1584000    0.5963449   -1.7044443   0.89362284  -0.81082149   0.13852843    11471.469     1000 
 1586000    0.5675342   -1.6738952      0.85045  -0.82344523    0.1172084    11619.584     1000 
 1588000   0.59481966   -1.6957171   0.89133726  -0.80437982   0.12297227    11710.652     1000 
 1590000   0.59489955   -1.6956456   0.89145697  -0.80418858   0.13205122    11537.709     1000 
 1592000   0.58073303   -1.6931309   0.87022845  -0.82290247   0.14271542    11456.096     1000 
 1594000   0.61443066   -1.6965813   0.92072435  -0.77585694   0.11961797    11564.996     1000 
 1596000   0.59135236   -1.6756191   0.88614151  -0.78947763   0.12419564    11568.942     1000 
[...]
 2612000   0.58272463   -1.6792035   0.87321286  -0.80599069   0.12329964    11442.661     1000 
 2614000   0.60108474   -1.6583106   0.90072549  -0.75758514   0.12675137    11538.628     1000 
 2616000   0.60903499   -1.6891025   0.91263893  -0.77646359   0.13011641    11476.062     1000 
 2618000   0.61563277   -1.6915026   0.92252571  -0.76897689   0.13834732    11424.221     1000 
 2620000   0.60331106   -1.6436829   0.90406163  -0.73962124   0.13742296    11199.122     1000 
 2622000   0.60825378   -1.6335484   0.91146829  -0.72208006   0.13654539    11322.618     1000 
 2624000   0.60673987   -1.6536139   0.90919969  -0.74441417   0.12883472    11345.872     1000 
 2626000   0.60691607    -1.671307   0.90946373  -0.76184331   0.13179301     11578.79     1000 
 2628000   0.59233347   -1.7051177   0.88761171  -0.81750597   0.12347615     11523.89     1000 
 2630000   0.58861939   -1.7046412   0.88204616  -0.82259501   0.13536779    11448.503     1000 
 2632000   0.58635298    -1.695436   0.87864994  -0.81678603   0.13002868    11563.495     1000 
 2634000   0.61111797   -1.6884807   0.91576028  -0.77272043   0.12870674    11603.711     1000 
 2636000   0.58656179   -1.7113644   0.87896284  -0.83240153   0.13407991     11428.58     1000 
 2638000   0.60603679   -1.6490077   0.90814613  -0.74086156    0.1232582    11435.222     1000 
 2640000   0.60516325   -1.7047554   0.90683713  -0.79791829   0.13377717    11540.812     1000 
 2642000   0.56883659   -1.6953471   0.85240163  -0.84294544   0.11503842    11667.332     1000 
 2644000   0.59035488   -1.7200484   0.88464679  -0.83540161   0.12815259    11419.363     1000 
 2646000   0.58656403   -1.7835773   0.87896619  -0.90461114   0.12771683     11555.39     1000 
 2648000   0.57950924   -1.6896057    0.8683946  -0.82121108   0.13894303    11376.297     1000 
 2650000   0.58880856   -1.7196171   0.88232963  -0.83728743   0.12564655    11561.684     1000 
 2652000   0.61184409   -1.7178489   0.91684837  -0.80100056   0.12373569    11459.757     1000 
 2654000   0.58105115   -1.6700221   0.87070514  -0.79931694   0.12602947    11323.157     1000 
 2656000   0.59664622   -1.7435459   0.89407436  -0.84947149   0.13073703    11580.451     1000 
 2658000   0.61904001   -1.6411223   0.92763145  -0.71349084   0.12945458    11594.496     1000 
 2660000   0.65267483   -1.7422318   0.97803324  -0.76419854   0.12553292    11627.418     1000 
 2662000   0.60977828   -1.7591451   0.91375275  -0.84539239   0.13727931    11540.839     1000 
 2664000   0.56044832   -1.7691991   0.83983181  -0.92936732   0.12331427    11583.507     1000 
 2666000   0.59108448   -1.6582742   0.88574009  -0.77253413   0.13556296    11274.672     1000 
 2668000   0.58362773   -1.6419318   0.87456615  -0.76736561   0.13532791    11403.774     1000 
 2670000   0.57325388   -1.7059996   0.85902093  -0.84697864   0.12023535     11604.49     1000 
 2672000   0.56739498   -1.7011914   0.85024137     -0.85095   0.12999239    11563.369     1000 
 2674000   0.55804866   -1.7297399   0.83623591  -0.89350394    0.1247087    11593.411     1000 
 2676000   0.59484428   -1.6758314   0.89137415  -0.78445729   0.11484821    11609.727     1000 
 2678000   0.58909499   -1.7452008   0.88275884  -0.86244201   0.13019172    11608.418     1000 
 2680000   0.57674492   -1.6619813   0.86425226  -0.79772905   0.13072189    11606.538     1000 
 2682000   0.60629737    -1.684834   0.90853661  -0.77629737   0.13188477    11493.549     1000 
 2684000   0.61336243   -1.7199879    0.9191236  -0.80086426   0.14301649    11413.087     1000 
 2686000   0.56872587   -1.7217775   0.85223571  -0.86954183   0.13134098    11493.252     1000 
 2688000   0.60748889   -1.7180879    0.9103221  -0.80776581   0.14566257    11368.087     1000 
 2690000   0.61358948   -1.7220628   0.91946384  -0.80259893   0.12211761    11728.647     1000 
 2692000   0.58482645    -1.708515   0.87636243  -0.83215255   0.13364897    11345.484     1000 
 2694000   0.59738343   -1.6982394   0.89517906  -0.80306037    0.1333721     11453.13     1000 
 2696000   0.56533387    -1.740575   0.84715281  -0.89342218   0.12591844    11599.763     1000 
 2698000   0.60936634   -1.6871811   0.91313545  -0.77404568   0.13357209    11362.829     1000 
 2700000   0.58113684   -1.6521776   0.87083356    -0.781344   0.13476854     11538.05     1000 
 2702000   0.60344658   -1.6708189    0.9042647  -0.76655417   0.13911868    11436.349     1000 
 2704000   0.59760362   -1.6957219   0.89550902  -0.80021288   0.13008777    11481.816     1000 
 2706000   0.58449702   -1.7231563   0.87586879  -0.84728756   0.12306409    11526.685     1000 
 2708000   0.59321889   -1.7379713   0.88893851   -0.8490328   0.13195415    11463.422     1000 
 2710000   0.57859401   -1.7325948   0.86702312  -0.86557166   0.13891041    11346.924     1000 
 2712000   0.58658416   -1.7516197   0.87899637   -0.8726233   0.12576783    11567.762     1000 
 2714000   0.58868928   -1.7221049   0.88215089  -0.83995401   0.13192934    11720.859     1000 
 2716000   0.60329224   -1.6958296   0.90403342  -0.79179621   0.13328587    11644.509     1000 
 2718000   0.59848874    -1.695338   0.89683538  -0.79850262   0.14215109    11266.367     1000 
 2720000   0.58998594   -1.7097424   0.88409393  -0.82564851   0.12139607    11479.925     1000 
 2722000   0.58956999   -1.6653146   0.88347063  -0.78184392   0.13972744    11384.503     1000 
 2724000   0.56599597   -1.6594052   0.84814496  -0.81126022   0.13852173    11303.628     1000 
 2726000   0.60213858   -1.6546054   0.90230466  -0.75230074   0.12807311    11482.692     1000 
 2728000   0.56818991   -1.6994239   0.85143259  -0.84799131   0.12948431    11478.847     1000 
 2730000     0.593202   -1.6697292   0.88891319  -0.78081602   0.11893991    11560.999     1000 
 2732000   0.61181395   -1.6665595   0.91680321  -0.74975624   0.13563166    11566.368     1000 
 2734000   0.58380293   -1.7618027   0.87482868  -0.88697403   0.13972184    11469.665     1000 
 2736000   0.60399456   -1.6718622   0.90508585  -0.76677636   0.13626271    11474.673     1000 
 2738000    0.5973916   -1.6760103   0.89519132    -0.780819   0.12638448    11484.579     1000 
 2740000   0.58509494   -1.6457834   0.87676477   -0.7690186   0.13331717    11533.209     1000 
 2742000   0.58789541   -1.6946283   0.88096128  -0.81366703   0.12471365    11588.989     1000 
 2744000   0.60799087   -1.6594853   0.91107432  -0.74841095   0.12715957    11482.174     1000 
 2746000   0.59512132   -1.6587813    0.8917893  -0.76699204   0.12547282    11525.899     1000 
 2748000   0.60572808   -1.6794264   0.90768353  -0.77174287   0.12524187    11527.727     1000 
 2750000    0.5867252   -1.6374715   0.87920771  -0.75826382   0.12974958    11420.816     1000 
 2752000   0.59065349   -1.8061356   0.88509426  -0.92104134   0.13172134    11519.154     1000 
 2754000   0.58124888   -1.6929485   0.87100145  -0.82194701     0.127653    11529.708     1000 
 2756000   0.58079286   -1.7153293    0.8703181  -0.84501116   0.11943504    11781.393     1000 
 2758000   0.57009283   -1.7265294   0.85428411  -0.87224526   0.12106219    11702.861     1000 
 2760000   0.59921575   -1.6424106   0.89792479  -0.74448577   0.14428911    11281.038     1000 
 2762000   0.59105416   -1.6843857   0.88569466  -0.79869104   0.13322941    11512.871     1000 
 2764000    0.5859171   -1.6858288   0.87799678  -0.80783207   0.12583641    11538.397     1000 
 2766000   0.58941836   -1.7061591   0.88324341  -0.82291569   0.12430546    11671.763     1000 
 2768000   0.58691817   -1.6583439   0.87949687  -0.77884705   0.13030225     11340.34     1000 
 2770000   0.59445917   -1.7029493   0.89079706  -0.81215227    0.1269442    11577.451     1000 
 2772000   0.58057833     -1.68482   0.86999663  -0.81482338   0.13840818    11347.696     1000 
 2774000   0.58992209    -1.668463   0.88399825  -0.78446475   0.13882357    11515.665     1000 
 2776000   0.59357361   -1.6715378   0.88947005  -0.78206771    0.1266844    11542.048     1000 
 2778000   0.57788788   -1.6605002   0.86596499  -0.79453519   0.11864158     11505.15     1000 
 2780000   0.59390705   -1.7033571   0.88996971  -0.81338735   0.11961392    11720.808     1000 
 2782000   0.57703597   -1.6557755    0.8646884   -0.7910871   0.12259024    11452.807     1000 
 2784000   0.60247535   -1.6465017   0.90280932   -0.7436924   0.12805777    11319.237     1000 
 2786000    0.5731412   -1.7112314   0.85885209  -0.85237934   0.12585334    11617.916     1000 
 2788000   0.59986746   -1.6726841   0.89890139  -0.77378266   0.12763243    11596.639     1000 
 2790000   0.57430452   -1.7014884   0.86059532  -0.84089312   0.13651469    11497.967     1000 
 2792000   0.59080342   -1.6347446   0.88531893  -0.74942567   0.13352526     11348.02     1000 
 2794000   0.57214142   -1.6726888   0.85735391  -0.81533485   0.13232273    11523.723     1000 
 2796000   0.59016651   -1.6980183   0.88436452  -0.81365382   0.12856939    11492.755     1000 
 2798000   0.55789377   -1.6696439   0.83600382  -0.83364013   0.12424763    11532.359     1000 
 2800000   0.60825621   -1.7532186   0.91147193  -0.84174662   0.13133575     11461.83     1000 
 2802000    0.5965686   -1.7199402   0.89395805  -0.82598217   0.12559561    11574.146     1000 
 2804000   0.60149482   -1.6588528   0.90133998  -0.75751286   0.11762416    11713.071     1000 
 2806000   0.58852331     -1.73569   0.88190217   -0.8537878   0.13054595    11495.531     1000 
 2808000   0.57958551   -1.6466719   0.86850889  -0.77816302   0.12158156    11500.942     1000 
 2810000   0.57550028    -1.676665   0.86238717  -0.81427783    0.1303484    11498.385     1000 
 2812000   0.60467296   -1.6788696   0.90610243  -0.77276719   0.12401319    11483.554     1000 
 2814000   0.56929639   -1.7134669   0.85309064  -0.86037627   0.13365259    11357.077     1000 
 2816000   0.61644276   -1.7284975   0.92373948  -0.80475805   0.12713571    11648.562     1000 
 2818000   0.61845483    -1.662444   0.92675456  -0.73568946   0.14500405    11276.373     1000 
 2820000   0.59349754   -1.6831145   0.88935607  -0.79375846   0.13549711    11342.492     1000 
 2822000   0.58780857    -1.688938   0.88083115  -0.80810688   0.13688257    11497.312     1000 
 2824000   0.59981201   -1.7132106    0.8988183  -0.81439225   0.13044621    11576.043     1000 
 2826000   0.59668674   -1.6936006   0.89413508  -0.79946549   0.11406763    11603.857     1000 
 2828000   0.60896805   -1.6602986   0.91253862  -0.74775999   0.14206841    11278.152     1000 
 2830000   0.54672313   -1.6897669   0.81926461  -0.87050226   0.12935557    11387.232     1000 
 2832000    0.5853215   -1.6843495   0.87710427  -0.80724527   0.12801026    11548.021     1000 
 2834000   0.58048581   -1.6734903   0.86985798  -0.80363229   0.12024335    11543.025     1000 
 2836000   0.58456894   -1.6699084   0.87597656   -0.7939318   0.14076965    11335.572     1000 
 2838000   0.58676098   -1.6531505   0.87926134  -0.77388913   0.12674617    11396.479     1000 
 2840000   0.57372018   -1.6929801    0.8597197   -0.8332604   0.12695989    11414.171     1000 
 2842000   0.55977043   -1.7082678   0.83881599  -0.86945182   0.12722401    11482.364     1000 
 2844000   0.60178676   -1.6807489   0.90177747  -0.77897145   0.13584905    11151.625     1000 
 2846000    0.5888132   -1.6872484   0.88233657  -0.80491181   0.12586729    11578.338     1000 
 2848000    0.5754877   -1.7054926   0.86236832  -0.84312432   0.12560545    11580.296     1000 
 2850000    0.5816696   -1.6835707    0.8716319  -0.81193875   0.12975786    11534.658     1000 
 2852000   0.56161246   -1.6515253   0.84157627  -0.80994901   0.13063797    11467.997     1000 
 2854000   0.55673275   -1.7009592   0.83426402  -0.86669514    0.1268907    11489.551     1000 
 2856000   0.61234393   -1.7511718   0.91759738  -0.83357446   0.12624455    11603.724     1000 
 2858000   0.55741043   -1.7240881   0.83527953  -0.88880854   0.12505021    11544.225     1000 
 2860000   0.57023738   -1.7067059   0.85450071  -0.85220523   0.14385608    11307.463     1000 
 2862000   0.56510276   -1.6744713   0.84680648  -0.82766486   0.13067512    11410.179     1000 
 2864000   0.59592948   -1.7032888   0.89300033   -0.8102885   0.12787374     11547.02     1000 
 2866000   0.60200082   -1.6873172   0.90209823    -0.785219   0.12018757    11578.721     1000 
 2868000   0.60068127   -1.7036313   0.90012088  -0.80351042   0.12331347    11524.542     1000 
 2870000   0.60441009   -1.6911743   0.90570852  -0.78546579   0.13082112    11668.934     1000 
 2872000   0.57439282   -1.6715464   0.86072764   -0.8108188   0.13387316    11476.659     1000 
 2874000   0.61285671    -1.711931   0.91836578  -0.79356526   0.13054999    11497.615     1000 
 2876000   0.58140865   -1.6917853   0.87124087  -0.82054445   0.12291229    11518.717     1000 
 2878000   0.61932088   -1.7018716   0.92805235  -0.77381927   0.13772565     11385.37     1000 
 2880000   0.60298374   -1.6658587   0.90357114  -0.76228754    0.1264197    11435.799     1000 
 2882000   0.58750608   -1.7026777   0.88037786  -0.82229983   0.14269954    11406.195     1000 
 2884000   0.59587224   -1.7216047   0.89291456   -0.8286901   0.11620007    11733.816     1000 
 2886000   0.59219344   -1.6712801   0.88740187  -0.78387826   0.12666042    11710.139     1000 
 2888000   0.56976643   -1.7548845   0.85379499  -0.90108948   0.11466531    11626.175     1000 
 2890000   0.57636199    -1.690318   0.86367844  -0.82663955   0.12596424    11432.363     1000 
 2892000   0.59054444   -1.6735691   0.88493085   -0.7886383   0.12846923    11449.364     1000 
 2894000    0.5980339   -1.6626531    0.8961538  -0.76649929   0.12823154    11436.962     1000 
 2896000   0.57815261   -1.6645971   0.86636169  -0.79823539   0.13761245    11548.894     1000 
 2898000   0.61586708   -1.7130919   0.92287682  -0.79021509   0.12064668    11500.936     1000 
 2900000   0.59798909   -1.7180587   0.89608665   -0.8219721   0.13656296    11435.493     1000 
 2902000   0.59926257   -1.7202386   0.89799497  -0.82224367   0.13146711    11496.216     1000 
 2904000   0.60232946   -1.6933995    0.9025907  -0.79080882   0.13336338    11409.978     1000 
 2906000   0.61078601   -1.7475403   0.91526283  -0.83227744   0.13077064    11497.634     1000 
 2908000   0.58154612    -1.691918   0.87144687  -0.82047116    0.1253324    11385.429     1000 
 2910000   0.59596788   -1.6664629   0.89305788  -0.77340505   0.14607193    11218.838     1000 
 2912000   0.58459896   -1.7091867   0.87602154   -0.8331652   0.11381522    11557.673     1000 
 2914000   0.57975637   -1.6905445   0.86876492  -0.82177962   0.12274259    11673.377     1000 
 2916000   0.57697024   -1.7177541   0.86458991  -0.85316418   0.12222782    11500.424     1000 
 2918000   0.56531799   -1.6904544     0.847129  -0.84332535   0.12476575     11613.48     1000 
 2920000   0.58590876   -1.6362379   0.87798428  -0.75825364   0.12986981    11413.609     1000 
 2922000   0.60341141   -1.6977983   0.90421199  -0.79358626   0.13339774    11512.291     1000 
 2924000   0.60101848   -1.7349531   0.90062619   -0.8343269   0.12410413    11553.728     1000 
 2926000   0.59704373   -1.7153762   0.89467004  -0.82070612   0.12942591      11549.5     1000 
 2928000   0.59540723    -1.709984   0.89221773  -0.81776628   0.14305482    11292.681     1000 
 2930000    0.5956993   -1.7112364    0.8926554  -0.81858099   0.13011344     11332.85     1000 
 2932000   0.59920918   -1.6459212   0.89791495   -0.7480062   0.14096917    11313.988     1000 
 2934000   0.60356676   -1.6415206   0.90444479  -0.73707586   0.12451711    11742.837     1000 
 2936000   0.59338705   -1.7125912   0.88919049  -0.82340067   0.12258131    11587.487     1000 
 2938000   0.63674855   -1.6736744    0.9541677  -0.71950668    0.1352811     11382.76     1000 
 2940000   0.59739576   -1.6954561   0.89519755  -0.80025859   0.13839995    11438.282     1000 
 2942000   0.57179252    -1.719217    0.8568311  -0.86238591   0.12949708    11580.628     1000 
 2944000   0.61286174   -1.6722755   0.91837332  -0.75390218   0.12813925    11503.727     1000 
 2946000   0.56871183   -1.6507577   0.85221467  -0.79854307   0.13053498     11547.93     1000 
 2948000   0.56124326   -1.6365777   0.84102302   -0.7955547   0.12201377    11541.559     1000 
 2950000   0.61499403    -1.716007   0.92156856  -0.79443844    0.1361745    11426.812     1000 
 2952000   0.59828703    -1.680518   0.89653312  -0.78398493   0.13704457    11321.574     1000 
 2954000   0.58655632   -1.7124669   0.87895465  -0.83351226        0.138     11429.61     1000 
 2956000   0.59661962   -1.6511704   0.89403451  -0.75713589   0.12774995    11609.307     1000 
 2958000   0.58337191   -1.7202691   0.87418281  -0.84608625   0.12362612    11421.758     1000 
 2960000   0.55224138   -1.6773967   0.82753371  -0.84986296   0.14192706    11186.851     1000 
 2962000   0.60026032   -1.6644721   0.89949009  -0.76498197   0.12424869    11531.197     1000 
 2964000   0.56923278   -1.6661234   0.85299532  -0.81312808   0.13395594    11477.154     1000 
 2966000   0.58987275   -1.6922108   0.88392432  -0.80828645   0.10966376    11762.314     1000 
 2968000   0.59578561   -1.6980082   0.89278473  -0.80522347   0.11817465    11572.762     1000 
 2970000   0.59907506   -1.6859446   0.89771398  -0.78823057   0.13906096    11449.856     1000 
 2972000   0.60222904   -1.7206984   0.90244021  -0.81825822   0.12705082    11530.468     1000 
 2974000   0.60523707   -1.7145757   0.90694775  -0.80762794   0.12424541    11468.415     1000 
 2976000   0.57530963   -1.6775703   0.86210149  -0.81546878   0.12235533    11432.037     1000 
 2978000   0.60245298   -1.7030894   0.90277579  -0.80031356   0.12895227    11637.344     1000 
 2980000   0.60146586   -1.7402501   0.90129659  -0.83895347   0.13888442    11481.596     1000 
 2982000   0.58451275   -1.6730254   0.87589235  -0.79713309   0.12735485    11350.076     1000 
 2984000   0.57421826   -1.6789699   0.86046606  -0.81850384   0.11724416    11556.822     1000 
 2986000    0.5972704   -1.6530473   0.89500969   -0.7580376   0.12824093    11492.814     1000 
 2988000   0.60428403   -1.6892381   0.90551963   -0.7837185   0.12996539    11573.529     1000 
 2990000   0.57589285   -1.6955521   0.86297544  -0.83257667   0.13370891    11447.864     1000 
 2992000   0.58041134   -1.6912493    0.8697464  -0.82150294   0.12343764    11627.165     1000 
 2994000   0.58199064   -1.6394912   0.87211298   -0.7673782      0.14009    11270.994     1000 
 2996000   0.59032485    -1.692583   0.88460178  -0.80798125   0.13301103    11487.607     1000 
 2998000   0.61295097   -1.7011593   0.91850703  -0.78265225   0.13064656    11491.368     1000 
 3000000   0.58340397   -1.7201184   0.87423085  -0.84588751   0.13480217     11371.22     1000 
Loop time of 1102.87 on 4 procs for 3000000 steps with 1000 atoms

Performance: 1175113.060 tau/day, 2720.169 timesteps/s
95.3% CPU use with 4 MPI tasks x no OpenMP threads

MPI task timing breakdown:
Section |  min time  |  avg time  |  max time  |%varavg| %total
---------------------------------------------------------------
Pair    | 809.31     | 810.99     | 813.57     |   5.6 | 73.53
Neigh   | 76.8       | 77.243     | 78.018     |   5.3 |  7.00
Comm    | 160.22     | 162.37     | 164.16     |  11.0 | 14.72
Output  | 0.023457   | 0.026146   | 0.03403    |   2.8 |  0.00
Modify  | 45.333     | 45.403     | 45.511     |   1.0 |  4.12
Other   |            | 6.841      |            |       |  0.62

Nlocal:    250 ave 260 max 244 min
Histogram: 2 0 0 0 0 1 0 0 0 1
Nghost:    1709.75 ave 1714 max 1701 min
Histogram: 1 0 0 0 0 0 1 0 0 2
Neighs:    14446.5 ave 15401 max 13560 min
Histogram: 1 0 1 0 0 0 1 0 0 1

Total # of neighbors = 57786
Ave neighs/atom = 57.786
Neighbor list builds = 150000
Dangerous builds not checked

Total wall time: 0:18:22
