LAMMPS (3 Mar 2020)
# ----------------------- Inicialização -----------------------

units			lj
atom_style 		atomic
dimension 		3
boundary 		p p p

# -------------------- Criação dos Átomos ---------------------

read_data 		topologia.txt
  orthogonal box = (0 0 0) to (21.54 21.54 21.54)
  1 by 2 by 2 MPI processor grid
  reading atoms ...
  1000 atoms
  read_data CPU = 0.00153521 secs

velocity 		all create ${temp} 87287 rot yes dist gaussian
velocity 		all create 0.50 87287 rot yes dist gaussian

# ------------------ Interação Interatômica -------------------

pair_style		table linear 1300
pair_coeff		1 1 force.table AA 6.5
WARNING: 2 of 1300 force values in table are inconsistent with -dE/dr.
  Should only be flagged at inflection points (src/pair_table.cpp:483)
pair_coeff		1 2 force.table AB 6.5
WARNING: 1 of 1300 force values in table are inconsistent with -dE/dr.
  Should only be flagged at inflection points (src/pair_table.cpp:483)
pair_coeff		2 2 force.table BB 6.5
pair_write		1 1 1600 r 0.008 6.5 table.check AA
Neighbor list info ...
  update every 1 steps, delay 10 steps, check yes
  max neighbors/atom: 2000, page size: 100000
  master list distance cutoff = 6.8
  ghost atom cutoff = 6.8
  binsize = 3.4, bins = 7 7 7
  1 neighbor lists, perpetual/occasional/extra = 1 0 0
  (1) pair table, perpetual
      attributes: half, newton on
      pair build: half/bin/atomonly/newton
      stencil: half/bin/3d/newton
      bin: standard
pair_write		1 2 1600 r 0.008 6.5 table.check AB
pair_write		2 2 1600 r 0.008 6.5 table.check BB

neighbor 		0.3 bin
neigh_modify	every 20 delay 0 check no

# ------------------------- Ensemble --------------------------------------

fix 1			all npt temp ${temp} ${temp} 0.5 iso ${press} ${press} 5
fix 1			all npt temp 0.50 ${temp} 0.5 iso ${press} ${press} 5
fix 1			all npt temp 0.50 0.50 0.5 iso ${press} ${press} 5
fix 1			all npt temp 0.50 0.50 0.5 iso 0.13 ${press} 5
fix 1			all npt temp 0.50 0.50 0.5 iso 0.13 0.13 5

# ---------------------- Função de Distribuição Radial -----------------------

#compute RDF 	all rdf 2000 1 1 1 2 2 2
#fix 2 			all ave/time 1 2000 2000 c_RDF[*] file rdf.data mode vector

# ------------------------- Execução ---------------------------

timestep 		0.005
thermo_style	custom step temp pe ke etotal press vol atoms
thermo			2000
run				3000000
Per MPI rank memory allocation (min/avg/max) = 2.675 | 2.675 | 2.675 Mbytes
Step Temp PotEng KinEng TotEng Press Volume Atoms 
       0          0.5   -0.9940566      0.74925   -0.2448066   0.11837927    9993.9483     1000 
    2000   0.49539812   -1.8963742   0.74235409   -1.1540201   0.13574672    11324.894     1000 
    4000   0.50999835   -1.8722413   0.76423253   -1.1080088   0.12123979    11391.713     1000 
    6000   0.50435676   -1.9263001    0.7557786   -1.1705215   0.12614325    11433.927     1000 
    8000   0.48686245   -1.8832712   0.72956338   -1.1537079    0.1335403    11424.208     1000 
   10000   0.49017005   -1.9144046   0.73451982   -1.1798848   0.13345293    11297.202     1000 
   12000   0.47774829   -1.9371968   0.71590581    -1.221291   0.11645888    11501.334     1000 
   14000   0.51577817   -1.9490915   0.77289359   -1.1761979   0.13823441    11369.887     1000 
   16000   0.49533328   -1.9037145   0.74225692   -1.1614576   0.13924558    11261.594     1000 
   18000   0.48876811   -1.9256176   0.73241902   -1.1931986   0.11922657    11447.957     1000 
   20000   0.47909099   -1.9125883   0.71791785   -1.1946705   0.13042221    11382.652     1000 
   22000   0.49284309   -1.8961417   0.73852537   -1.1576163   0.12701505    11325.501     1000 
   24000   0.48974068   -1.9245503    0.7338764   -1.1906739   0.12299936    11486.372     1000 
   26000   0.52125405   -1.9036864   0.78109919   -1.1225872   0.13793998    11321.936     1000 
   28000   0.48911552    -1.869672   0.73293961   -1.1367324   0.12784632    11370.114     1000 
   30000   0.48564212   -1.8928532   0.72773471   -1.1651185   0.13438407    11278.611     1000 
   32000   0.51515309   -1.9011086   0.77195691   -1.1291517   0.14120856    11322.524     1000 
   34000   0.50310542      -1.8997   0.75390348   -1.1457965    0.1278357      11347.5     1000 
   36000   0.49604235   -1.9290734   0.74331946   -1.1857539   0.11581051    11562.126     1000 
   38000   0.51386399    -1.970032   0.77002518   -1.2000068   0.11538491    11579.616     1000 
   40000   0.49821653   -1.9345249   0.74657747   -1.1879475   0.12843671    11411.911     1000 
   42000   0.49361472   -1.9161396   0.73968166   -1.1764579   0.12005995    11458.433     1000 
   44000   0.51955726    -1.900994   0.77855656   -1.1224374   0.14255028    11195.697     1000 
   46000   0.51721739   -1.9127216   0.77505026   -1.1376714   0.14060653    11356.794     1000 
   48000   0.51564209   -1.8935725   0.77268967   -1.1208828   0.12537814    11430.275     1000 
   50000   0.48494072   -1.9408353   0.72668367   -1.2141517   0.11354685     11611.15     1000 
   52000    0.4842068   -1.9429535   0.72558388   -1.2173696   0.12689087    11343.559     1000 
   54000   0.48486845   -1.9556955   0.72657538   -1.2291202   0.12025762    11438.679     1000 
   56000   0.50780062   -1.8526102   0.76093923    -1.091671   0.13345664     11316.43     1000 
   58000   0.51758711   -1.9485358   0.77560428   -1.1729316   0.12762937      11467.6     1000 
   60000   0.47021528   -1.9405001    0.7046176   -1.2358825   0.11335728    11626.501     1000 
   62000   0.49609169   -1.8693275    0.7433934   -1.1259341   0.12847922    11280.201     1000 
   64000   0.48674514   -1.9469635   0.72938759   -1.2175759   0.14319328    11354.223     1000 
   66000   0.48628725   -1.9277885   0.72870144   -1.1990871   0.11805775    11500.669     1000 
   68000   0.51666769   -1.8862781   0.77422653   -1.1120516   0.11306451    11560.742     1000 
   70000   0.47806382   -1.9268368   0.71637864   -1.2104582   0.13117823    11389.165     1000 
   72000   0.50165078   -1.8907002   0.75172369   -1.1389765   0.13683033     11413.64     1000 
   74000   0.50126318   -1.9416497   0.75114287   -1.1905068    0.1308022    11466.483     1000 
   76000   0.49203506    -1.898688   0.73731454   -1.1613735   0.14351435    11210.399     1000 
   78000   0.50362613   -1.8960544   0.75468375   -1.1413707   0.13720716    11243.879     1000 
   80000   0.50176252   -1.9106179   0.75189113   -1.1587268   0.14244637    11266.491     1000 
   82000   0.48666763   -1.9061032   0.72927144   -1.1768318   0.12270456     11485.78     1000 
   84000   0.49121099   -1.9210234   0.73607967   -1.1849437   0.13807922    11372.866     1000 
   86000   0.48632341   -1.8494861   0.72875563   -1.1207305   0.14281847    11080.325     1000 
   88000   0.50284872   -1.9508232   0.75351881   -1.1973044   0.13223081    11464.526     1000 
   90000   0.51305292   -1.8785426    0.7688098   -1.1097328   0.14749804    11224.175     1000 
   92000   0.49427848    -1.946545   0.74067631   -1.2058687   0.11919614    11517.476     1000 
   94000   0.50127326   -1.9081801   0.75115798   -1.1570222   0.13323606    11377.626     1000 
   96000   0.51005567   -1.9349355   0.76431842    -1.170617   0.12688801    11524.355     1000 
   98000   0.48810353   -1.8848907   0.73142314   -1.1534676   0.13384556    11424.073     1000 
  100000   0.49368925   -1.8972624   0.73979334   -1.1574691   0.13220048    11340.159     1000 
  102000   0.47628127    -1.859825   0.71370749   -1.1461175   0.12048619    11463.269     1000 
  104000   0.48975883   -1.9316563   0.73390361   -1.1977527   0.12310801    11435.495     1000 
  106000    0.5124176   -1.9586512   0.76785777   -1.1907934   0.12263543    11524.119     1000 
  108000   0.48958757   -1.9181486   0.73364697   -1.1845017   0.12839428    11476.701     1000 
  110000   0.50596831   -1.8728379   0.75819351   -1.1146444   0.13317977    11341.729     1000 
  112000   0.48936837   -1.9782036    0.7333185   -1.2448851   0.12397192    11504.238     1000 
  114000   0.48747997   -1.9026008   0.73048873   -1.1721121   0.13967931    11220.659     1000 
  116000   0.50436287   -1.9150212   0.75578776   -1.1592335   0.12820079    11354.614     1000 
  118000   0.50123532   -1.9069308   0.75110112   -1.1558297   0.12606234    11378.073     1000 
  120000   0.49656913   -1.8675658   0.74410884   -1.1234569   0.13691957    11315.273     1000 
  122000   0.49873073    -1.868773     0.747348    -1.121425   0.13632397    11258.075     1000 
  124000   0.49687552   -1.9183933   0.74456796   -1.1738254   0.11944814     11544.99     1000 
  126000   0.50714377   -1.9220425   0.75995493   -1.1620876   0.12746556    11450.232     1000 
  128000   0.49847797   -1.9179293   0.74696924     -1.17096   0.12605084    11347.633     1000 
  130000   0.50606221    -1.933561   0.75833423   -1.1752268   0.12238902    11591.976     1000 
  132000     0.501918   -1.8430509   0.75212412   -1.0909268    0.1293547    11380.995     1000 
  134000   0.51465469   -1.9211136   0.77121005   -1.1499036   0.14124007    11294.332     1000 
  136000   0.49862112    -1.922382   0.74718375   -1.1751983   0.14913889    11273.741     1000 
  138000   0.50438731   -2.0088981   0.75582438   -1.2530737   0.11950294    11607.314     1000 
  140000   0.49184108   -1.9093896   0.73702386   -1.1723657     0.139264    11354.918     1000 
  142000   0.50641971   -1.9193399   0.75886993   -1.1604699   0.14553556    11171.237     1000 
  144000   0.52294693   -1.9534398   0.78363598   -1.1698038   0.14907355    11280.381     1000 
  146000   0.50586542   -1.9261126   0.75803934   -1.1680733   0.12394717    11447.717     1000 
  148000   0.50216633   -1.8821033   0.75249625    -1.129607    0.1233422      11333.7     1000 
  150000   0.48308716   -1.9365092   0.72390611   -1.2126031   0.13331887    11467.605     1000 
  152000    0.5104045   -1.8759714   0.76484114   -1.1111303   0.12853327    11345.956     1000 
  154000   0.50670022   -1.9727897   0.75929028   -1.2134995    0.1158062    11582.932     1000 
  156000   0.49024982   -1.9281927   0.73463935   -1.1935533   0.12253462    11490.035     1000 
  158000   0.48585078   -1.9348139   0.72804739   -1.2067665   0.12919895    11387.591     1000 
  160000   0.49362424   -1.8871272   0.73969593   -1.1474313   0.12901196    11379.688     1000 
  162000   0.51502349   -1.8788017    0.7717627    -1.107039   0.14302845    11194.013     1000 
  164000   0.50253683   -1.9065933   0.75305144   -1.1535419   0.12073687    11530.856     1000 
  166000   0.48337818   -1.9081337    0.7243422   -1.1837915   0.14216248    11146.985     1000 
  168000   0.50130413   -1.9459615   0.75120424   -1.1947573   0.12687541    11385.467     1000 
  170000   0.49015201   -1.9463072   0.73449279   -1.2118144   0.12747128    11362.536     1000 
  172000   0.51936429   -1.9406604   0.77826738   -1.1623931    0.1287702    11430.974     1000 
  174000   0.50920555   -1.9238029   0.76304451   -1.1607584   0.12604821    11411.715     1000 
  176000   0.49394318   -1.9382754   0.74017386   -1.1981015   0.12190477    11510.881     1000 
  178000   0.51609756   -1.8944128    0.7733722   -1.1210406    0.1264715     11412.82     1000 
  180000   0.49485484   -1.9631329   0.74153998   -1.2215929   0.12918367    11387.713     1000 
  182000   0.49686818   -1.8859209   0.74455697   -1.1413639   0.14671841    11271.602     1000 
  184000   0.51162874   -1.9083606   0.76667567   -1.1416849   0.13219978    11347.507     1000 
  186000   0.50397384   -1.9926661    0.7552048   -1.2374613   0.11989509    11530.087     1000 
  188000   0.49709615   -1.9182091   0.74489858   -1.1733106   0.12634409    11413.502     1000 
  190000   0.50043865   -1.8946095   0.74990732   -1.1447022   0.11924377    11563.943     1000 
  192000    0.4901744   -1.9540626   0.73452634   -1.2195363   0.11766292    11523.263     1000 
  194000   0.49837339    -1.900078   0.74681253   -1.1532654   0.13727122      11402.2     1000 
  196000   0.50661859   -1.8609774   0.75916796   -1.1018095   0.13659461    11245.533     1000 
  198000   0.52372291   -1.9838844   0.78479879   -1.1990857    0.1291636    11366.142     1000 
  200000    0.5191884   -1.9132729   0.77800382   -1.1352691   0.12847834    11415.001     1000 
  202000   0.53070905   -1.9149295   0.79526751    -1.119662   0.13024723     11465.58     1000 
  204000   0.50858541   -1.9098037   0.76211523   -1.1476885   0.13566361    11297.796     1000 
  206000   0.49832771   -1.8702603   0.74674407   -1.1235163   0.13095509     11303.99     1000 
  208000   0.49665265   -1.9804231   0.74423399   -1.2361891   0.12631893    11474.443     1000 
  210000   0.50860107   -1.9932111   0.76213871   -1.2310724   0.14767585    11329.484     1000 
  212000   0.48955678   -1.9614634   0.73360084   -1.2278625   0.12751317     11466.56     1000 
  214000    0.4857224   -1.9247218   0.72785502   -1.1968668   0.12418234    11473.207     1000 
  216000   0.50043557   -1.9125971    0.7499027   -1.1626944   0.13652409    11320.861     1000 
  218000   0.48732068   -1.9206721   0.73025004    -1.190422   0.14033506    11275.434     1000 
  220000   0.51456912   -1.8929125   0.77108182   -1.1218307   0.13197422    11432.882     1000 
  222000   0.49576069   -1.9402045    0.7428974   -1.1973071   0.12813054    11384.417     1000 
  224000   0.51288374   -1.9704435   0.76855628   -1.2018873   0.12454179    11402.254     1000 
  226000   0.49191537   -1.9345704   0.73713518   -1.1974352   0.12957214    11326.691     1000 
  228000   0.48643827   -1.9093502   0.72892774   -1.1804225   0.14512201    11294.631     1000 
  230000   0.50416669   -1.9011641   0.75549378   -1.1456703   0.12476663     11393.85     1000 
  232000   0.49871538   -1.9052185     0.747325   -1.1578935   0.13273337    11377.238     1000 
  234000   0.50556131   -1.9251016   0.75758362    -1.167518   0.13111823    11351.429     1000 
  236000   0.48784219    -1.936494   0.73103152   -1.2054625   0.14130412    11206.071     1000 
  238000   0.50130055   -1.9014167   0.75119888   -1.1502178   0.14258099    11331.752     1000 
  240000   0.46718378   -1.9493341   0.70007489   -1.2492592   0.11810617    11586.835     1000 
  242000   0.52607403   -1.8816859   0.78832194    -1.093364   0.14445352    11245.002     1000 
  244000   0.50140597   -1.8631298   0.75135685   -1.1117729   0.12831951     11493.52     1000 
  246000   0.49041007   -1.9417021   0.73487949   -1.2068226   0.12497725    11582.501     1000 
  248000   0.48134009   -1.9257533   0.72128812   -1.2044651   0.14479922     11297.79     1000 
  250000   0.50852079   -1.9677825   0.76201841   -1.2057641   0.12326058    11385.502     1000 
  252000   0.50257067   -1.9290408   0.75310215   -1.1759386    0.1235794    11350.833     1000 
  254000   0.49461071   -1.9726112   0.74117415   -1.2314371   0.13691299    11487.131     1000 
  256000   0.48676161   -1.8923034   0.72941227   -1.1628911   0.11928246    11505.395     1000 
  258000   0.49414594   -1.9269255   0.74047769   -1.1864478   0.12771681    11428.674     1000 
  260000   0.50401417   -1.9315482   0.75526523    -1.176283   0.12576207    11413.215     1000 
  262000    0.4760334   -1.9392762   0.71333604   -1.2259402    0.1362272     11316.34     1000 
  264000   0.49656989   -1.9248976   0.74410998   -1.1807877   0.11262568    11485.576     1000 
  266000   0.48893896   -1.9478494   0.73267503   -1.2151743   0.13849268    11275.202     1000 
  268000   0.50678194   -1.8971251   0.75941274   -1.1377124   0.12535321    11439.749     1000 
  270000   0.50615115   -1.9341008    0.7584675   -1.1756333   0.12215845    11422.148     1000 
  272000   0.49994601   -1.9481422   0.74916909   -1.1989731   0.12860188    11436.823     1000 
  274000   0.51001089   -1.9214928   0.76425132   -1.1572415   0.13943197    11317.167     1000 
  276000   0.50606217   -1.9273944   0.75833417   -1.1690602   0.13428528    11422.769     1000 
  278000   0.49740233    -1.912987    0.7453574   -1.1676296   0.12717262    11400.288     1000 
  280000   0.49705468   -1.9160974   0.74483644   -1.1712609   0.14216823    11360.337     1000 
  282000   0.49748474   -1.9578277   0.74548089   -1.2123468   0.13568512    11480.851     1000 
  284000   0.50496915   -1.9026497   0.75669627   -1.1459534   0.13197308    11257.409     1000 
  286000   0.51725835   -1.9413737   0.77511164    -1.166262   0.14170655    11198.011     1000 
  288000   0.47656347   -1.8963942   0.71413035   -1.1822638   0.12508016    11389.593     1000 
  290000    0.4952922   -1.9072534   0.74219537    -1.165058   0.12324392    11493.639     1000 
  292000   0.49646586   -1.9065603   0.74395409   -1.1626062    0.1483927      11336.4     1000 
  294000   0.51331053   -1.8600529   0.76919583   -1.0908571   0.14029813    11291.033     1000 
  296000   0.49340224   -1.9545935   0.73936326   -1.2152302   0.12947642    11412.238     1000 
  298000   0.48468644   -1.9297859   0.72630263   -1.2034833   0.14612224    11120.037     1000 
  300000   0.50239239   -1.9274185   0.75283499   -1.1745835   0.12547039    11351.768     1000 
  302000   0.48650025   -1.9265975   0.72902063   -1.1975769    0.1279064    11425.429     1000 
  304000   0.48051221   -1.9597194   0.72004755   -1.2396718   0.10907671    11696.609     1000 
  306000   0.50019843   -1.8813969   0.74954735   -1.1318496   0.12736009    11473.292     1000 
  308000   0.53050207    -1.882332   0.79495735   -1.0873747   0.13253987    11410.156     1000 
  310000   0.49645931   -1.9074948   0.74394428   -1.1635505    0.1147296    11491.835     1000 
  312000   0.48430209   -1.9131556   0.72572668   -1.1874289   0.11697863    11525.616     1000 
  314000   0.51544137   -1.9327111    0.7723889   -1.1603222   0.13165107    11472.069     1000 
  316000   0.49087566   -1.8879165   0.73557718   -1.1523393   0.13417515    11214.298     1000 
  318000   0.51024497   -1.8952842   0.76460209   -1.1306821   0.12007896    11585.367     1000 
  320000   0.52211794   -1.9241056   0.78239373   -1.1417119   0.13594685    11299.113     1000 
  322000    0.4932916   -1.8888271   0.73919746   -1.1496297   0.12221817     11413.74     1000 
  324000   0.50665604   -1.8929062   0.75922408   -1.1336821   0.13765688     11299.63     1000 
  326000   0.50180021   -1.9493007   0.75194761   -1.1973531   0.13287361    11418.403     1000 
  328000   0.51967028   -1.8990105   0.77872592   -1.1202846   0.13550025    11441.829     1000 
  330000   0.49567003   -1.9263579   0.74276154   -1.1835963   0.12681773    11486.955     1000 
  332000    0.4981572   -1.9097616   0.74648857    -1.163273   0.13003306    11266.033     1000 
  334000   0.53179398   -1.9933369   0.79689327   -1.1964436   0.12372195    11695.901     1000 
  336000   0.48708741   -1.9407086   0.72990048   -1.2108081   0.12791305    11465.014     1000 
  338000   0.50654821   -1.9001497   0.75906249   -1.1410872   0.15267398    11282.497     1000 
  340000   0.51557948   -1.8993029   0.77259585   -1.1267071   0.12745101    11365.635     1000 
  342000   0.50094406   -1.8971178   0.75066468   -1.1464531   0.13879956    11336.156     1000 
  344000   0.49164484   -1.9284166   0.73672979   -1.1916868   0.13324585    11316.979     1000 
  346000   0.50847195   -1.8751811   0.76194522   -1.1132359   0.11297406     11619.05     1000 
  348000    0.4914834    -1.843812   0.73648788   -1.1073242    0.1449921    11120.735     1000 
  350000   0.49833493   -1.9242117   0.74675489   -1.1774568   0.13056951     11327.61     1000 
  352000   0.48974054   -1.9116344   0.73387619   -1.1777582   0.13461358    11212.759     1000 
  354000   0.48935382   -1.9595048    0.7332967   -1.2262081   0.12998683    11380.553     1000 
  356000   0.48960987   -1.9112719   0.73368039   -1.1775915   0.13414217    11382.624     1000 
  358000    0.4978073   -1.9288084   0.74596424   -1.1828441   0.12048041    11503.516     1000 
  360000   0.51074702    -1.915947   0.76535442   -1.1505926   0.13102333    11322.416     1000 
  362000   0.48973207   -1.9560329   0.73386351   -1.2221694    0.1204516    11536.485     1000 
  364000   0.50384439   -1.8997047   0.75501081   -1.1446939   0.12592667    11357.804     1000 
  366000   0.50452513   -1.9291226    0.7560309   -1.1730917   0.12775248    11431.665     1000 
  368000   0.47111906   -1.9016252   0.70597191   -1.1956532   0.13437646    11220.693     1000 
  370000   0.50681034   -1.9179988    0.7594553   -1.1585435    0.1355817     11351.49     1000 
  372000     0.499228   -1.9910779   0.74809316   -1.2429847   0.13613067     11430.62     1000 
  374000   0.51510101    -1.923822   0.77187886   -1.1519432   0.12902128    11473.522     1000 
  376000   0.48226927   -1.9174402    0.7226805   -1.1947597   0.12369852    11358.711     1000 
  378000   0.48532833   -1.8965837   0.72726451   -1.1693192   0.13144643    11292.647     1000 
  380000   0.49444682   -1.8686163   0.74092856   -1.1276877   0.13543631    11387.122     1000 
  382000   0.49840348   -1.9414632   0.74685762   -1.1946056   0.12402054    11513.867     1000 
  384000   0.48197826   -1.9381135   0.72224443   -1.2158691   0.11924471    11515.269     1000 
  386000   0.50096141   -1.8800149   0.75069067   -1.1293242   0.14133735    11215.666     1000 
  388000   0.52250253    -1.949492   0.78297004    -1.166522   0.12242726    11456.097     1000 
  390000   0.48827365   -1.9239982   0.73167806   -1.1923202     0.117435    11554.662     1000 
  392000   0.49604706   -1.9084554   0.74332652   -1.1651289   0.13388394    11370.581     1000 
  394000   0.50332141    -1.864405   0.75422714   -1.1101779    0.1339943    11408.555     1000 
  396000   0.48135085   -1.8698159   0.72130425   -1.1485117   0.13842747    11188.217     1000 
  398000   0.52044161   -1.9100582   0.77988176   -1.1301765   0.12945689    11370.708     1000 
  400000   0.48209874   -1.9353211   0.72242496   -1.2128961   0.13586465    11491.807     1000 
  402000   0.47840813   -1.8884489   0.71689458   -1.1715543   0.13179347    11397.311     1000 
  404000   0.48347051   -1.9040337   0.72448056   -1.1795531   0.11669517    11610.119     1000 
  406000   0.50062811   -1.9095667   0.75019123   -1.1593755   0.12593603    11449.924     1000 
  408000   0.50472589   -1.9322348   0.75633174    -1.175903    0.1210509    11406.826     1000 
  410000   0.50220923   -1.8747629   0.75256053   -1.1222023   0.14901892     11259.54     1000 
  412000   0.49923545   -1.9206894   0.74810432   -1.1725851   0.13482846    11299.276     1000 
  414000   0.51274684   -1.9093051   0.76835114   -1.1409539   0.12786879    11298.818     1000 
  416000   0.52860827   -1.8533561   0.79211949   -1.0612366   0.13605065    11291.546     1000 
  418000   0.50567643   -1.9210368   0.75775614   -1.1632807   0.12293245    11602.991     1000 
  420000   0.49621503   -1.9285246   0.74357822   -1.1849464   0.12236483    11527.477     1000 
  422000   0.47599294   -1.8983568   0.71327542   -1.1850814   0.13049479     11364.93     1000 
  424000   0.50857546   -1.8917677   0.76210033   -1.1296674   0.13370703    11456.016     1000 
  426000   0.49043612   -1.8719727   0.73491853   -1.1370541   0.12969825    11305.751     1000 
  428000   0.50552705    -1.924518   0.75753229   -1.1669857   0.12739815    11349.825     1000 
  430000    0.4884228   -1.9062793   0.73190157   -1.1743778   0.13404386    11422.133     1000 
  432000   0.49498807   -1.9317301   0.74173962   -1.1899905   0.13016202    11442.475     1000 
  434000   0.48339987   -1.9404475    0.7243747   -1.2160728   0.12277841    11396.637     1000 
  436000   0.49703675    -1.973136   0.74480957   -1.2283264   0.13079751    11424.298     1000 
  438000    0.4860066   -1.9314527   0.72828088   -1.2031718   0.13524266    11383.254     1000 
  440000    0.5031955   -1.9518355   0.75403846   -1.1977971   0.12692282    11460.149     1000 
  442000   0.49509932   -1.8884989   0.74190634   -1.1465925   0.13057091    11333.141     1000 
  444000   0.52048438   -1.9434599   0.77994584   -1.1635141   0.12617033    11556.283     1000 
  446000   0.49848123    -1.927624   0.74697413   -1.1806499   0.12253166    11449.417     1000 
  448000   0.50899048    -1.925033   0.76272224   -1.1623108    0.1291001    11486.251     1000 
  450000    0.4996026   -1.9281179   0.74865449   -1.1794634   0.14073826     11228.46     1000 
  452000   0.49370342   -1.9078504   0.73981457   -1.1680358   0.11535512    11360.879     1000 
  454000   0.49814156   -1.9316205   0.74646512   -1.1851553   0.13771727    11406.129     1000 
  456000   0.52976525   -1.9053982   0.79385323   -1.1115449   0.12444852    11508.863     1000 
  458000   0.48509109   -1.8610225     0.726909   -1.1341135   0.12798137    11337.258     1000 
  460000   0.48026725   -1.9083336   0.71968048   -1.1886531   0.12457662    11318.992     1000 
  462000   0.50372354   -1.9381606   0.75482973   -1.1833309   0.13990462    11344.206     1000 
  464000   0.49870758   -1.8849834   0.74731331   -1.1376701    0.1297013    11343.465     1000 
  466000   0.49494896   -1.9418141   0.74168101   -1.2001331   0.12793063    11462.368     1000 
  468000   0.49116954   -1.9113513   0.73601755   -1.1753337   0.13172201    11325.478     1000 
  470000   0.51507559   -1.9184459   0.77184077   -1.1466051   0.13538973    11379.788     1000 
  472000   0.52430001   -1.9111739   0.78566356   -1.1255103   0.13643986     11325.26     1000 
  474000   0.49480646   -1.9484921   0.74146748   -1.2070246   0.13245115    11270.954     1000 
  476000   0.50322327   -1.8842611   0.75408006    -1.130181   0.14014113    11226.038     1000 
  478000   0.51662067   -1.9234945   0.77415608   -1.1493384   0.13909648    11369.337     1000 
  480000   0.50419045   -1.9002539   0.75552939   -1.1447246   0.13113626    11499.932     1000 
  482000   0.52878813   -1.9703933   0.79238901   -1.1780042   0.12651938     11450.04     1000 
  484000   0.50006285   -1.9273403   0.74934417   -1.1779962   0.12026927    11334.315     1000 
  486000   0.49385042   -1.9361531   0.74003486   -1.1961183   0.11623104    11546.596     1000 
  488000     0.496041   -1.9159008   0.74331743   -1.1725834   0.12466446    11444.674     1000 
  490000   0.47882555   -1.8800875   0.71752008   -1.1625675   0.13116629    11355.847     1000 
  492000   0.51635994     -1.90933   0.77376537   -1.1355646   0.13032538    11336.818     1000 
  494000   0.51700612   -1.9660444   0.77473366   -1.1913107   0.12854517    11444.324     1000 
  496000   0.50482275   -1.9450929   0.75647689    -1.188616    0.1289947    11505.892     1000 
  498000   0.51241951   -1.8696107   0.76786063   -1.1017501   0.13086028    11430.904     1000 
  500000   0.49188317   -1.9687577   0.73708693   -1.2316708   0.12385542    11505.506     1000 
  502000   0.53929016   -1.9890469   0.80812631   -1.1809206   0.13084571      11568.5     1000 
  504000   0.49243708   -1.9087189   0.73791697   -1.1708019    0.1290363    11423.264     1000 
  506000   0.49589199   -1.9416939   0.74309415   -1.1985998   0.14197559    11314.975     1000 
  508000   0.50074779   -1.8531324   0.75037056   -1.1027619    0.1348429    11313.336     1000 
  510000   0.50033779   -1.9149787   0.74975617   -1.1652225   0.12484672    11378.629     1000 
  512000   0.49787073   -1.8738189   0.74605929   -1.1277596   0.13970253    11256.194     1000 
  514000   0.49367279   -1.9101263   0.73976867   -1.1703577   0.13362297    11325.555     1000 
  516000   0.48087966   -1.9245739   0.72059818   -1.2039757   0.12179003    11474.838     1000 
  518000   0.49890861   -1.8817483   0.74761455   -1.1341338   0.11901943    11439.161     1000 
  520000   0.51448931   -1.8877395   0.77096223   -1.1167773   0.12548325    11488.349     1000 
  522000   0.49904934   -1.8946026   0.74782543   -1.1467772     0.117989     11606.65     1000 
  524000   0.52488677   -1.9238873   0.78654283   -1.1373445   0.12603436    11347.569     1000 
  526000   0.49672799   -1.9231942   0.74434689   -1.1788474   0.13409494    11400.247     1000 
  528000   0.48545252   -1.8767733    0.7274506   -1.1493227   0.13586351    11443.385     1000 
  530000   0.48347515   -1.9094631   0.72448752   -1.1849755   0.12400475    11345.045     1000 
  532000   0.49690007   -1.9472438   0.74460476    -1.202639   0.12967563    11410.102     1000 
  534000   0.50011369   -1.8944535   0.74942037   -1.1450331   0.12898212    11339.489     1000 
  536000   0.53720175   -1.9126538   0.80499683    -1.107657   0.14476015    11315.643     1000 
  538000   0.48679239    -1.965233   0.72945839   -1.2357746   0.12579265    11449.343     1000 
  540000   0.46863748   -1.9250757   0.70225327   -1.2228225   0.13235146    11342.126     1000 
  542000   0.51851645   -1.9849524   0.77699691   -1.2079555   0.13128956    11458.903     1000 
  544000   0.48265128   -1.9018371   0.72325294   -1.1785842   0.13571698    11230.081     1000 
  546000   0.48555485   -1.9734321   0.72760394   -1.2458282   0.11563641    11527.554     1000 
  548000   0.51290268   -1.9098882   0.76858466   -1.1413036   0.13794948    11365.743     1000 
  550000    0.5194442   -1.8718774   0.77838714   -1.0934902   0.13095125    11361.388     1000 
  552000   0.53254251   -1.8853713   0.79801495   -1.0873563   0.13569238    11229.099     1000 
  554000   0.51702406   -1.9315832   0.77476055   -1.1568227   0.13028906    11359.141     1000 
  556000   0.51526191   -1.9170105   0.77211997   -1.1448905   0.13241375     11286.42     1000 
  558000   0.51623492   -1.9565804   0.77357802   -1.1830024   0.12393235    11438.982     1000 
  560000    0.4935434   -1.8385812   0.73957479   -1.0990064   0.13947931    11204.752     1000 
  562000   0.50313394   -1.9296872   0.75394621    -1.175741   0.12175012    11449.423     1000 
  564000   0.48456632   -1.9696495   0.72612263   -1.2435269   0.12401913    11516.581     1000 
  566000   0.49749494   -1.9417659   0.74549617   -1.1962698   0.12769482    11416.915     1000 
  568000   0.49905877   -1.8917881   0.74783957   -1.1439485   0.12152309    11509.001     1000 
  570000   0.49246334   -1.9627792   0.73795631   -1.2248229   0.13464144    11441.692     1000 
  572000   0.52792463   -1.9006321   0.79109506   -1.1095371    0.1317907    11318.611     1000 
  574000   0.50504538   -1.9395509    0.7568105   -1.1827404   0.14127911    11298.992     1000 
  576000   0.48830436   -1.9409019   0.73172408   -1.2091779   0.13323126    11396.625     1000 
  578000   0.49744819   -1.8918199   0.74542612   -1.1463938   0.13061111     11343.96     1000 
  580000    0.5016984   -1.8996583   0.75179505   -1.1478633   0.12763059     11409.19     1000 
  582000   0.50490558   -1.8762866   0.75660101   -1.1196856   0.13632977    11228.613     1000 
  584000   0.47167614   -1.9065158    0.7068067   -1.1997091   0.12945498    11311.001     1000 
  586000   0.48888409   -1.9363133   0.73259281   -1.2037205      0.12205    11360.884     1000 
  588000   0.48283325   -1.9228585   0.72352562   -1.1993329   0.11562774    11483.768     1000 
  590000   0.48227764   -1.9023356   0.72269304   -1.1796426   0.14893398     11160.35     1000 
  592000   0.50891941   -1.9371439   0.76261574   -1.1745281   0.12805109    11433.892     1000 
  594000   0.50020411   -1.9598775   0.74955586   -1.2103216   0.13168018    11487.774     1000 
  596000   0.50106002    -1.863369   0.75083844   -1.1125305   0.13284186    11379.457     1000 
  598000   0.49708911   -1.8762047   0.74488803   -1.1313167   0.13331954    11278.454     1000 
  600000   0.49917904   -1.8637424   0.74801979   -1.1157226   0.14109174    11260.385     1000 
  602000   0.48507747   -1.9354699   0.72688859   -1.2085813   0.12138187    11458.112     1000 
  604000   0.49408224   -1.9592597   0.74038223   -1.2188775   0.12927855    11371.107     1000 
  606000   0.48879555   -1.9504451   0.73246013    -1.217985   0.12760451    11453.545     1000 
  608000   0.48981374   -1.8539002    0.7339859   -1.1199143   0.13240691    11342.901     1000 
  610000   0.50923067   -1.9176306   0.76308216   -1.1545484   0.13664773    11256.475     1000 
  612000   0.49661565   -1.9111302   0.74417855   -1.1669516   0.12727795    11435.923     1000 
  614000   0.49930923   -1.9694023   0.74821489   -1.2211874   0.12675927    11405.332     1000 
  616000   0.52130712   -1.9083114   0.78117872   -1.1271327   0.12708792    11486.075     1000 
  618000   0.53809894     -1.91367   0.80634126   -1.1073287   0.13522777    11396.097     1000 
  620000   0.49759213   -1.9024374   0.74564181   -1.1567956   0.13079373    11382.854     1000 
  622000   0.47998551   -1.9179066   0.71925829   -1.1986483    0.1209116    11377.119     1000 
  624000   0.51129758   -1.9193855   0.76617942    -1.153206    0.1352306    11304.895     1000 
  626000   0.48208216   -1.9723034   0.72240012   -1.2499032   0.11783357    11570.611     1000 
  628000   0.48865739   -1.9737599    0.7322531   -1.2415068   0.13606482    11409.217     1000 
  630000   0.49492109   -1.8967519   0.74163926   -1.1551126   0.11879449    11458.023     1000 
  632000   0.51167785   -1.9141161   0.76674925   -1.1473668   0.13460217    11482.577     1000 
  634000   0.49894321   -1.9394538    0.7476664   -1.1917874   0.14860427    11246.122     1000 
  636000   0.49981434   -1.9435706   0.74897179   -1.1945988   0.12807134    11575.799     1000 
  638000   0.51935751    -1.910122   0.77825723   -1.1318648   0.12599178    11534.052     1000 
  640000   0.51342245   -1.9541056   0.76936354    -1.184742   0.12288832    11486.465     1000 
  642000   0.51050372   -1.8600887   0.76498982   -1.0950988   0.14033972    11305.432     1000 
  644000   0.50839436   -1.9435312   0.76182895   -1.1817022   0.13216627    11477.614     1000 
  646000   0.48973247    -1.962925    0.7338641   -1.2290609    0.1271185    11480.833     1000 
  648000   0.50920671   -1.9139654   0.76304626   -1.1509192   0.13518168    11295.095     1000 
  650000   0.49815736   -1.8660169    0.7464888   -1.1195281   0.14358662    11244.767     1000 
  652000   0.48455019    -1.924541   0.72609846   -1.1984425   0.12646621    11446.967     1000 
  654000   0.49113759    -1.934709   0.73596968   -1.1987394   0.12235234    11532.333     1000 
  656000   0.51668992   -1.9042325   0.77425985   -1.1299727    0.1300993    11411.815     1000 
  658000   0.49482268   -1.9497883   0.74149179   -1.2082965   0.12635185    11398.102     1000 
  660000     0.512561   -1.8991486   0.76807265   -1.1310759   0.13851718    11331.294     1000 
  662000   0.48121563   -1.9095966   0.72110162    -1.188495   0.13977933    11203.882     1000 
  664000   0.49856522   -1.9187779   0.74709999   -1.1716779   0.12435169    11506.118     1000 
  666000   0.51535272   -1.8356724   0.77225605   -1.0634163    0.1279025    11346.656     1000 
  668000   0.50960279   -1.8560125   0.76363978   -1.0923727   0.13253024    11313.025     1000 
  670000   0.49443596   -1.9369868   0.74091229   -1.1960745   0.12306224    11407.706     1000 
  672000   0.48889792   -1.9042635   0.73261354   -1.1716499   0.11725537    11554.483     1000 
  674000   0.48302345   -1.8975662   0.72381064   -1.1737555   0.14019517    11233.736     1000 
  676000   0.52242809   -1.9261973   0.78285849   -1.1433388    0.1341363    11448.685     1000 
  678000   0.50003739   -1.9295591   0.74930603    -1.180253   0.13505426    11219.512     1000 
  680000   0.51856507   -1.9110786   0.77706976   -1.1340089   0.13803498    11374.946     1000 
  682000   0.50144619   -1.9144234   0.75141712   -1.1630063   0.14315307    11163.604     1000 
  684000   0.49305135   -1.9395905   0.73883745    -1.200753   0.12765381    11301.321     1000 
  686000   0.50094035   -1.8879375   0.75065911   -1.1372784   0.12541223    11361.983     1000 
  688000   0.48994736   -1.8319404   0.73418611   -1.0977542   0.13795484    11230.267     1000 
  690000   0.50992619   -1.9748428    0.7641244   -1.2107184   0.12987514    11365.324     1000 
  692000   0.51268853   -1.9149053   0.76826376   -1.1466415   0.13224142    11454.921     1000 
  694000   0.49996206   -1.9245912   0.74919315    -1.175398   0.13347455    11515.267     1000 
  696000    0.5080916   -1.9366936   0.76137527   -1.1753184   0.12273176    11355.699     1000 
  698000   0.50499058   -1.9597146   0.75672839   -1.2029863   0.12843977    11470.734     1000 
  700000   0.49336064   -1.9271959   0.73930092    -1.187895     0.132121    11328.214     1000 
  702000   0.49604278   -1.8989853   0.74332011   -1.1556652   0.12832709    11349.146     1000 
  704000   0.52469723   -1.8792682   0.78625879   -1.0930094   0.11679263    11431.836     1000 
  706000   0.51379725    -1.880179   0.76992518   -1.1102538   0.14264878    11325.838     1000 
  708000   0.51620533   -1.9391292   0.77353368   -1.1655956   0.12495409    11481.177     1000 
  710000   0.49628404   -1.9161074   0.74368163   -1.1724258   0.14075369    11335.329     1000 
  712000   0.52728464   -1.9084748   0.79013603   -1.1183388   0.13151481    11522.379     1000 
  714000   0.49387017   -1.8712705   0.74006445    -1.131206   0.14754995    11220.477     1000 
  716000   0.49663188   -1.9009077   0.74420287   -1.1567048   0.13999543    11271.156     1000 
  718000   0.51715377   -1.8956964   0.77495493   -1.1207415   0.12507093     11376.34     1000 
  720000   0.51665437   -1.9036593   0.77420657   -1.1294527   0.13054686    11437.764     1000 
  722000   0.49014557   -1.8918043   0.73448314   -1.1573212    0.1331619    11272.018     1000 
  724000   0.52512086   -1.9151507   0.78689361    -1.128257   0.12716999    11377.266     1000 
  726000   0.48775948   -1.9138785   0.73090758   -1.1829709   0.13065028    11448.654     1000 
  728000   0.51358572   -1.9325221   0.76960819   -1.1629139   0.12932384    11407.933     1000 
  730000   0.49568296   -1.9281669   0.74278092    -1.185386   0.13118505    11421.107     1000 
  732000   0.48962387   -1.9086206   0.73370136   -1.1749192   0.12782811    11443.351     1000 
  734000   0.48633148   -1.9322643   0.72876772   -1.2034966   0.13140902    11349.245     1000 
  736000   0.48498604   -1.9192496   0.72675158    -1.192498   0.13152535    11359.644     1000 
  738000   0.48368663   -1.9671681   0.72480441   -1.2423637   0.12299963    11485.001     1000 
  740000   0.50658713   -2.0018973   0.75912082   -1.2427764   0.11489184    11658.944     1000 
  742000   0.50358306   -1.9072238   0.75461922   -1.1526046    0.1187553    11500.424     1000 
  744000    0.5052744   -1.9076413   0.75715369   -1.1504876   0.12626239    11356.623     1000 
  746000   0.50605256   -1.9367281   0.75831976   -1.1784083   0.11156172    11702.716     1000 
  748000   0.48574191   -1.9830237   0.72788425   -1.2551395   0.11755516    11558.007     1000 
  750000    0.4771688   -1.8982368   0.71503745   -1.1831994   0.13426873    11299.043     1000 
  752000   0.49496303   -1.9539783    0.7417021   -1.2122762   0.12954452    11470.466     1000 
  754000   0.49070391   -1.9195491   0.73531981   -1.1842292   0.13007814    11303.313     1000 
  756000   0.51711709   -1.8568348   0.77489996   -1.0819348   0.14128098    11197.546     1000 
  758000   0.50309533   -1.9483801   0.75388835   -1.1944917   0.12099766    11592.744     1000 
  760000   0.50555208   -1.8805856   0.75756979   -1.1230158   0.14109331    11079.681     1000 
  762000   0.50515987   -1.9526531   0.75698207    -1.195671   0.12604058    11504.672     1000 
  764000   0.50751914     -1.88438   0.76051743   -1.1238626    0.1321454    11309.539     1000 
  766000   0.49910074   -1.9195243   0.74790246   -1.1716219   0.13553425    11324.421     1000 
  768000   0.49747972   -1.8703206   0.74547337   -1.1248472     0.147804     11165.65     1000 
  770000   0.50647403    -1.950125   0.75895133   -1.1911737    0.1356734    11504.763     1000 
  772000   0.49784534   -1.9051664   0.74602124   -1.1591451   0.13959322    11361.166     1000 
  774000   0.51391757   -1.9307626   0.77010548   -1.1606572   0.12204019    11467.511     1000 
  776000   0.46989462       -1.951    0.7041371   -1.2468629   0.13874361    11186.432     1000 
  778000   0.49823263   -1.9330447    0.7466016   -1.1864431   0.10580065    11611.041     1000 
  780000   0.51219316   -1.9220901   0.76752145   -1.1545686   0.12623867    11447.325     1000 
  782000   0.48110263   -1.9077056    0.7209323   -1.1867733    0.1341282    11497.093     1000 
  784000     0.509092   -1.9035336   0.76287436   -1.1406592   0.12442805    11489.909     1000 
  786000   0.51351905   -1.8860249   0.76950829   -1.1165166   0.12231694     11473.42     1000 
  788000    0.5050763   -1.9429019   0.75685684    -1.186045   0.14384213    11448.457     1000 
  790000   0.49975778   -1.8976329   0.74888704   -1.1487459   0.10859572    11531.016     1000 
  792000   0.48975127   -1.9325101   0.73389228   -1.1986179   0.13125758    11344.385     1000 
  794000    0.4912095   -1.8909242   0.73607743   -1.1548468   0.13127114    11408.564     1000 
  796000   0.48313638   -1.9015213   0.72397986   -1.1775414   0.12679217    11389.767     1000 
  798000   0.50534743   -1.9097869   0.75726313   -1.1525238   0.13711248    11319.644     1000 
  800000   0.50472574   -1.9421866   0.75633153   -1.1858551   0.14078781    11462.472     1000 
  802000   0.49629196   -1.9370826    0.7436935   -1.1933891   0.13123771    11468.754     1000 
  804000   0.48798177   -1.8989355   0.73124068   -1.1676948   0.11989373    11498.017     1000 
  806000   0.49736525   -1.8894666   0.74530183   -1.1441647   0.13290606    11366.013     1000 
  808000   0.50268708   -1.8993032   0.75327659   -1.1460266   0.14071277    11262.922     1000 
  810000   0.48843165    -1.949537   0.73191482   -1.2176222   0.12647982    11416.076     1000 
  812000   0.49781017   -1.8707548   0.74596854   -1.1247862   0.12769109    11375.605     1000 
  814000   0.50868983   -1.9414982   0.76227171   -1.1792264   0.13426329    11402.044     1000 
  816000    0.5049462   -1.8801813   0.75666188   -1.1235194    0.1300757    11345.796     1000 
  818000   0.48834704   -1.8795939   0.73178803   -1.1478059   0.12798827     11378.74     1000 
  820000   0.50577679   -1.8804558   0.75790652   -1.1225493   0.13459987    11370.262     1000 
  822000   0.50379169   -1.9181908   0.75493185   -1.1632589   0.12831531    11358.403     1000 
  824000   0.49421545   -1.9622691   0.74058185   -1.2216873   0.11073166    11473.495     1000 
  826000   0.51414513   -1.9267474   0.77044648   -1.1563009   0.11834249    11435.081     1000 
  828000   0.50900573    -1.900708   0.76274509   -1.1379629   0.13092782    11324.349     1000 
  830000   0.51093373   -1.9309961   0.76563419   -1.1653619   0.12823257    11462.631     1000 
  832000   0.51543595   -1.8766956   0.77238076   -1.1043149   0.13879964     11311.85     1000 
  834000   0.49099919   -1.8944393   0.73576229    -1.158677   0.14084128    11233.668     1000 
  836000   0.50136732   -1.8927153   0.75129892   -1.1414164   0.13327355    11365.403     1000 
  838000   0.50546088   -1.8882816   0.75743313   -1.1308485   0.14061992    11337.657     1000 
  840000    0.5139321    -1.927399   0.77012725   -1.1572718   0.12268076    11363.416     1000 
  842000   0.51217888   -1.9335085   0.76750005   -1.1660084    0.1271651    11464.956     1000 
  844000    0.4855581   -1.8682939   0.72760881   -1.1406851   0.13254295    11277.425     1000 
  846000   0.50170455   -1.8844602   0.75180427   -1.1326559   0.13893823    11365.302     1000 
  848000   0.50526115   -1.9388447   0.75713384   -1.1817109   0.13173467    11445.454     1000 
  850000   0.49714902   -1.8936235   0.74497781   -1.1486457   0.14641152    11269.453     1000 
  852000   0.50604389   -1.9290811   0.75830678   -1.1707743   0.12764289    11409.688     1000 
  854000    0.5261308   -1.9153191   0.78840701   -1.1269121   0.13426993    11317.433     1000 
  856000    0.5040286   -1.9038814   0.75528686   -1.1485946    0.1383164    11330.981     1000 
  858000   0.50431681   -1.8930802   0.75571874   -1.1373615   0.15918199    11058.258     1000 
  860000   0.48074562     -1.86546   0.72039731   -1.1450627   0.13006848    11355.268     1000 
  862000   0.49107901   -1.9589168    0.7358819   -1.2230349   0.12697271    11465.859     1000 
  864000    0.5099189   -1.9446414   0.76411348   -1.1805279   0.12392811    11425.589     1000 
  866000   0.48513696   -1.9522049   0.72697773   -1.2252272    0.1469765    11245.564     1000 
  868000   0.50243056   -1.9016001   0.75289219   -1.1487079   0.13464145     11324.41     1000 
  870000   0.50780294   -1.8964242   0.76094271   -1.1354815   0.12421515    11483.578     1000 
  872000   0.47027406   -1.9078974   0.70470568   -1.2031917   0.12921219     11375.45     1000 
  874000   0.48913308   -1.9516921   0.73296592   -1.2187262   0.13024857    11389.335     1000 
  876000    0.4886823   -1.9151055   0.73229042    -1.182815   0.12012916    11386.419     1000 
  878000   0.48797151   -1.9442156   0.73122531   -1.2129903    0.1340114    11337.306     1000 
  880000   0.49478299   -1.8717209   0.74143232   -1.1302886   0.13924771    11234.492     1000 
  882000   0.49532492   -1.8431938   0.74224439   -1.1009494   0.11991843    11334.441     1000 
  884000   0.47815771   -1.9304388   0.71651933   -1.2139195   0.12772722    11285.942     1000 
  886000   0.49888828   -1.8648421   0.74758408    -1.117258   0.12865996    11287.357     1000 
  888000   0.49651975   -1.8964026   0.74403485   -1.1523677   0.11435159     11520.01     1000 
  890000   0.50865055    -1.875198   0.76221285   -1.1129851   0.12664683    11304.698     1000 
  892000   0.47936552   -1.9363949   0.71832924   -1.2180656   0.11977288    11485.154     1000 
  894000   0.49305121   -1.9091809   0.73883724   -1.1703437   0.12894488    11438.003     1000 
  896000   0.50321328   -1.9205233   0.75406511   -1.1664582   0.12517879    11338.685     1000 
  898000   0.49895417   -1.9226586   0.74768283   -1.1749758   0.12885161    11436.198     1000 
  900000   0.49874402   -1.9438396   0.74736792   -1.1964717   0.13312257    11341.013     1000 
  902000   0.51618317   -1.9401902   0.77350047   -1.1666897   0.14170046    11271.531     1000 
  904000   0.49274544   -1.9558928   0.73837904   -1.2175137   0.13194985    11461.918     1000 
  906000   0.50649914   -1.9480132   0.75898896   -1.1890243   0.13183779    11558.219     1000 
  908000     0.495974   -1.9210971   0.74321704     -1.17788   0.12570744    11438.266     1000 
  910000   0.50206871   -1.9115757   0.75234996   -1.1592257    0.1370867    11261.771     1000 
  912000   0.49415245   -1.9194192   0.74048745   -1.1789318   0.12907743     11343.17     1000 
  914000   0.49848654   -1.9708684   0.74698208   -1.2238863   0.12073755    11460.499     1000 
  916000   0.51488693   -1.8908479   0.77155806   -1.1192899   0.14192534    11100.509     1000 
  918000    0.4852694   -1.9307406    0.7271762   -1.2035644   0.12441009    11488.871     1000 
  920000    0.5091443   -1.8909827   0.76295274     -1.12803   0.11596842      11507.1     1000 
  922000   0.50339956   -1.8706716   0.75434424   -1.1163274   0.12646636    11430.663     1000 
  924000   0.51442601   -1.9174234   0.77086738    -1.146556   0.12739001    11476.852     1000 
  926000   0.50190808   -1.9155788   0.75210926   -1.1634695   0.13502987    11467.759     1000 
  928000   0.51246394   -1.8231699   0.76792721   -1.0552427   0.13805936    11279.525     1000 
  930000    0.5181112   -1.9046439   0.77638963   -1.1282543   0.13881958    11307.468     1000 
  932000    0.5010858   -1.9317281   0.75087707   -1.1808511   0.13458096     11306.48     1000 
  934000   0.48596586   -1.8828753   0.72821984   -1.1546554   0.14073599     11400.94     1000 
  936000   0.49706411   -1.8619612   0.74485057   -1.1171107   0.13453442    11219.762     1000 
  938000   0.48599498   -1.9103401   0.72826348   -1.1820766   0.13234011    11364.397     1000 
  940000   0.47815815   -1.9234679   0.71651999   -1.2069479   0.11460773     11603.55     1000 
  942000   0.51306612   -1.9031186   0.76882958    -1.134289   0.12863369    11373.483     1000 
  944000   0.52302212   -1.8754456   0.78374864    -1.091697   0.12329285    11439.065     1000 
  946000   0.48664165    -1.942775   0.72923252   -1.2135425   0.12647044    11364.855     1000 
  948000   0.50395276      -1.9398   0.75517322   -1.1846267   0.12984292    11416.681     1000 
  950000   0.48891785   -1.9535366   0.73264339   -1.2208932   0.13529046    11289.139     1000 
  952000   0.51120011   -1.9448044   0.76603336   -1.1787711   0.13532408    11339.721     1000 
  954000   0.49874956   -1.8676655   0.74737622   -1.1202893   0.12802165    11402.753     1000 
  956000    0.5294929   -1.9423886   0.79344511   -1.1489435   0.14212412    11346.186     1000 
  958000   0.50620965   -1.9330023   0.75855517   -1.1744471    0.1331278    11357.251     1000 
  960000   0.49167496    -1.945323   0.73677492   -1.2085481    0.1185114    11419.549     1000 
  962000   0.51028684   -1.9409193   0.76466482   -1.1762544     0.134658    11358.987     1000 
  964000   0.50296612     -1.94598   0.75369473   -1.1922852   0.13447048     11356.67     1000 
  966000   0.49997497   -1.9332435   0.74921249    -1.184031   0.13627418    11322.074     1000 
  968000   0.48804361   -1.8950789   0.73133335   -1.1637456   0.12700266    11358.407     1000 
  970000    0.4957441    -1.935928   0.74287253   -1.1930554   0.12095425    11394.387     1000 
  972000   0.51150094   -1.9256561   0.76648417   -1.1591719   0.11980306    11622.979     1000 
  974000   0.49653519   -1.9277338   0.74405799   -1.1836758   0.12871015    11410.585     1000 
  976000   0.51327453    -1.894205   0.76914188   -1.1250631   0.13943515    11426.612     1000 
  978000   0.48475207   -1.9348341   0.72640098   -1.2084331    0.1260766    11496.032     1000 
  980000   0.46581973   -1.9346226   0.69803087   -1.2365918    0.1280687    11356.776     1000 
  982000   0.51751017   -1.9510117   0.77548899   -1.1755228    0.1441347    11383.853     1000 
  984000   0.52662242   -1.8806001   0.78914369   -1.0914564   0.14685045    11280.659     1000 
  986000   0.48697531   -1.9270301   0.72973251   -1.1972976     0.119169    11595.784     1000 
  988000   0.49033331   -1.9559913   0.73476447   -1.2212269   0.12815537    11514.894     1000 
  990000   0.51701732   -1.9416209   0.77475045   -1.1668704   0.12664904    11378.959     1000 
  992000   0.50951565   -1.8883817    0.7635092   -1.1248725   0.14900717    11129.106     1000 
  994000   0.49677843   -1.9250768   0.74442247   -1.1806543   0.12750475    11526.355     1000 
  996000   0.49278592   -1.9460556    0.7384397   -1.2076159   0.12080679    11403.357     1000 
  998000   0.50692224   -1.8796021   0.75962298   -1.1199792   0.11756118    11443.988     1000 
 1000000   0.50461578   -1.9492916   0.75616674   -1.1931248   0.13670274    11431.021     1000 
 1002000   0.51492766   -1.8650097   0.77161909   -1.0933906   0.13725112    11230.068     1000 
 1004000   0.51079321   -1.9015727   0.76542362   -1.1361491   0.12464562    11420.534     1000 
 1006000    0.5198868   -1.9231986   0.77905037   -1.1441482   0.12968992    11502.504     1000 
 1008000   0.49277017   -1.9125908   0.73841609   -1.1741747   0.13129731    11257.364     1000 
 1010000   0.49875903   -1.8955325   0.74739041   -1.1481421   0.12962275    11328.919     1000 
 1012000   0.49615354   -1.9514366   0.74348608   -1.2079505   0.13125681    11350.302     1000 
 1014000   0.51173317   -1.9204293   0.76683215   -1.1535972   0.13379986    11481.854     1000 
 1016000   0.48902978   -1.8996214   0.73281113   -1.1668103   0.14125474    11245.223     1000 
 1018000   0.48054678   -1.9209555   0.72009934   -1.2008562   0.12913092    11359.088     1000 
 1020000   0.49947084   -1.9510382   0.74845706   -1.2025812   0.13208076     11433.06     1000 
 1022000   0.53176458   -1.8805096   0.79684922   -1.0836603   0.14328619    11280.144     1000 
 1024000   0.48478813   -1.9605536   0.72645501   -1.2340986   0.12528272    11340.546     1000 
 1026000   0.50038413   -1.9459096   0.74982562   -1.1960839   0.11259092    11639.875     1000 
 1028000   0.49500521   -1.9272145   0.74176531   -1.1854492   0.12354073    11354.493     1000 
 1030000   0.47654518   -1.9327528   0.71410295   -1.2186498   0.12805129    11295.185     1000 
 1032000   0.50721001   -1.9489464    0.7600542   -1.1888922   0.12048987    11527.662     1000 
 1034000   0.50066661   -1.8975186   0.75024891   -1.1472697   0.12218374    11502.739     1000 
 1036000   0.49055228   -1.9818818   0.73509259   -1.2467892    0.1292958    11573.578     1000 
 1038000   0.50477569   -1.8798677   0.75640638   -1.1234613   0.13160737    11352.399     1000 
 1040000   0.48927644   -1.8874087   0.73318075    -1.154228   0.13737399    11312.282     1000 
 1042000   0.49227956   -1.8915431   0.73768092   -1.1538622   0.12848158    11341.258     1000 
 1044000   0.49965609   -1.9275639   0.74873466   -1.1788292   0.13275224    11382.691     1000 
 1046000   0.50460729    -1.922352   0.75615402    -1.166198   0.12383725    11476.719     1000 
 1048000   0.50309008    -1.907493   0.75388048   -1.1536125   0.12748968    11389.782     1000 
 1050000   0.51249223   -1.8952346   0.76796961    -1.127265    0.1162116    11494.795     1000 
 1052000   0.50962453   -1.9481166   0.76367236   -1.1844442   0.13401676    11363.264     1000 
 1054000   0.51351944   -1.8950561   0.76950889   -1.1255472   0.12785104    11293.035     1000 
 1056000   0.49484741   -1.9025458   0.74152885    -1.161017   0.13692467     11391.69     1000 
 1058000   0.51480761   -1.9236319   0.77143921   -1.1521927   0.12802821    11466.064     1000 
 1060000   0.48651711    -1.884125   0.72904588   -1.1550791   0.12632937    11394.039     1000 
 1062000   0.51175961   -1.9449222   0.76687177   -1.1780504   0.14255828    11321.431     1000 
 1064000   0.50279004   -1.8921524   0.75343088   -1.1387215   0.14056308    11326.257     1000 
 1066000   0.49685345    -1.961391   0.74453489   -1.2168561   0.12996482    11423.198     1000 
 1068000    0.5132319   -1.9091494   0.76907801   -1.1400714   0.13757497    11400.302     1000 
 1070000   0.52873261   -1.9143702   0.79230582   -1.1220644   0.12762255    11381.718     1000 
 1072000   0.51693626   -1.8817418   0.77462899   -1.1071128   0.13296668    11269.629     1000 
 1074000   0.48538549   -1.9034533   0.72735016   -1.1761031   0.13788642    11225.805     1000 
 1076000   0.52625749   -1.9194441   0.78859685   -1.1308473   0.12876266    11396.621     1000 
 1078000   0.49342615   -1.9507087   0.73939908   -1.2113096   0.13718363    11392.323     1000 
 1080000   0.51001149   -1.9126098   0.76425221   -1.1483576   0.13609445    11298.527     1000 
 1082000   0.49816581   -1.9337124   0.74650146   -1.1872109   0.13214897    11345.207     1000 
 1084000   0.50762226   -1.8776472   0.76067196   -1.1169752   0.12928125    11390.425     1000 
 1086000   0.49944434   -1.9432719   0.74841734   -1.1948546   0.15101315    11199.328     1000 
 1088000   0.49226316   -1.9055569   0.73765634   -1.1679005    0.1138731    11559.716     1000 
 1090000   0.48947853   -1.8951303   0.73348358   -1.1616467   0.14711222    11325.747     1000 
 1092000   0.49135508   -1.8814277   0.73629558   -1.1451322   0.13062453    11421.713     1000 
 1094000   0.49970291   -1.8987393   0.74880481   -1.1499345   0.13306051    11300.962     1000 
 1096000   0.51889738   -1.8785485   0.77756772   -1.1009808   0.12168243    11491.187     1000 
 1098000   0.49858804   -1.9264793   0.74713417   -1.1793451    0.1347634    11445.246     1000 
 1100000   0.48616116   -1.9082763   0.72851249   -1.1797638   0.11986397    11480.751     1000 
 1102000   0.47813769   -1.9337542   0.71648933   -1.2172649   0.12888789    11393.269     1000 
 1104000   0.49652527   -1.9235117   0.74404312   -1.1794685   0.13698986    11247.179     1000 
 1106000   0.48814072   -1.9217481   0.73147886   -1.1902693   0.12016651    11544.458     1000 
 1108000   0.50922848   -1.8843442   0.76307887   -1.1212653   0.12629297    11292.902     1000 
 1110000    0.5098004   -1.8839236   0.76393589   -1.1199878   0.12920362    11335.318     1000 
 1112000   0.49767297     -1.91696   0.74576294   -1.1711971     0.136441    11393.912     1000 
 1114000   0.48674669   -1.9241881   0.72938992   -1.1947982    0.1413566    11331.233     1000 
 1116000   0.48017327   -1.8996503   0.71953965   -1.1801107   0.13018065    11379.655     1000 
 1118000   0.50218459    -1.957044   0.75252361   -1.2045204   0.12630409    11476.819     1000 
 1120000   0.52746583   -1.8800996   0.79040755   -1.0896921   0.13399085    11489.851     1000 
 1122000   0.48768776   -1.9059547    0.7308001   -1.1751546   0.13490641    11409.187     1000 
 1124000   0.48230634   -1.9141463   0.72273605   -1.1914102    0.1191077    11372.328     1000 
 1126000   0.47571709   -1.9254957   0.71286205   -1.2126337   0.12016181    11381.368     1000 
 1128000   0.50742383   -1.9375458   0.76037461   -1.1771712   0.13448913    11441.437     1000 
 1130000   0.50676619   -1.8957981   0.75938913    -1.136409   0.12680983    11397.328     1000 
 1132000   0.49889941   -1.9112074   0.74760077   -1.1636067   0.12417237    11483.556     1000 
 1134000   0.49857988   -1.8961204   0.74712194   -1.1489984   0.13894746    11273.278     1000 
 1136000   0.49010779   -1.9248988   0.73442653   -1.1904722   0.12312139    11482.204     1000 
 1138000   0.48284741   -1.9036356   0.72354684   -1.1800888   0.11854902    11514.419     1000 
 1140000   0.48148221   -1.9292288   0.72150109   -1.2077277   0.13622621    11294.329     1000 
 1142000   0.49692936   -1.9536228   0.74464865   -1.2089742   0.11968464    11528.009     1000 
 1144000   0.49454531   -1.9170335   0.74107614   -1.1759574   0.13057438    11432.313     1000 
 1146000   0.49670135   -1.9127733   0.74430697   -1.1684663   0.12938623    11398.758     1000 
 1148000   0.49862344   -1.9306082   0.74718722   -1.1834209   0.13484092    11475.723     1000 
 1150000   0.48452499    -1.984788   0.72606069   -1.2587273   0.12513448    11525.662     1000 
 1152000   0.49958392   -1.8950348   0.74862651   -1.1464082   0.14679636    11136.116     1000 
 1154000   0.47823226   -1.9014816   0.71663104   -1.1848506    0.1199046    11442.201     1000 
 1156000   0.49189864   -1.9023237   0.73711011   -1.1652136   0.12847171    11358.803     1000 
 1158000   0.53206499    -1.961453   0.79729939   -1.1641536    0.1378666    11391.432     1000 
 1160000   0.49555045   -1.8979742   0.74258235   -1.1553918   0.13748786    11278.734     1000 
 1162000   0.50039915   -1.8913959   0.74984813   -1.1415478   0.13303203    11297.109     1000 
 1164000   0.50940741   -1.8848939     0.763347   -1.1215469   0.13486838    11383.304     1000 
 1166000   0.50274996   -1.9070303   0.75337081   -1.1536595   0.14514466    11165.252     1000 
 1168000   0.51745619   -1.9171351    0.7754081    -1.141727   0.13488349    11429.685     1000 
 1170000   0.48424711   -1.8971751    0.7256443   -1.1715308    0.1450551    11338.968     1000 
 1172000   0.50635345   -1.8380737   0.75877064   -1.0793031   0.13751216     11147.05     1000 
 1174000   0.52063789   -1.9344149   0.78017588    -1.154239   0.13096311    11401.589     1000 
 1176000   0.48884418   -1.9307669     0.732533   -1.1982339   0.13902075    11373.114     1000 
 1178000   0.49880533   -1.9107485   0.74745979   -1.1632887   0.13761757     11345.37     1000 
 1180000   0.51132336   -1.8866042   0.76621805   -1.1203861   0.12262949    11468.105     1000 
 1182000   0.49269982   -1.9330614   0.73831067   -1.1947507   0.14429552    11313.447     1000 
 1184000   0.52530698   -1.9045041   0.78717251   -1.1173316   0.13187381    11403.627     1000 
 1186000   0.50498967   -1.9462055   0.75672702   -1.1894784   0.13543036    11390.954     1000 
 1188000   0.49995318    -1.913459   0.74917984   -1.1642792   0.13410893    11391.577     1000 
 1190000   0.49259864    -1.906173   0.73815906   -1.1680139   0.12198454    11564.949     1000 
 1192000   0.51274031   -1.8946825   0.76834136   -1.1263411   0.12690645    11502.926     1000 
 1194000   0.47660775   -1.9173801   0.71419671   -1.2031834   0.11092342    11546.162     1000 
 1196000   0.52608381   -1.9433836   0.78833659    -1.155047   0.11970178     11624.24     1000 
 1198000   0.52793713   -1.8800079    0.7911138   -1.0888941   0.13329163    11443.158     1000 
 1200000   0.51008796   -1.9632878   0.76436681    -1.198921   0.11475819    11527.864     1000 
 1202000   0.49880924   -1.9033049   0.74746565   -1.1558393   0.13438468    11350.032     1000 
 1204000   0.51196485   -1.9217483   0.76717932    -1.154569    0.1388771    11289.769     1000 
 1206000   0.52446573   -1.9492795   0.78591189   -1.1633676   0.11804076    11619.998     1000 
 1208000   0.49866203   -1.8994447   0.74724506   -1.1521997   0.13264401    11407.579     1000 
 1210000   0.49560404   -1.9033336   0.74266266   -1.1606709   0.12949374    11384.662     1000 
 1212000   0.50582253    -1.966732   0.75797507    -1.208757   0.12917302    11524.046     1000 
 1214000   0.48498622   -1.9174837   0.72675185   -1.1907318   0.12209418    11478.826     1000 
 1216000   0.50057017    -1.879054    0.7501044   -1.1289496   0.12950047    11466.654     1000 
 1218000    0.5301229   -1.8906739   0.79438916   -1.0962848   0.14410759    11175.022     1000 
 1220000   0.49057068   -1.9330123   0.73512017   -1.1978921   0.12890233    11425.795     1000 
 1222000    0.5191703     -1.91583    0.7779767   -1.1378533   0.13673867     11349.25     1000 
 1224000   0.52084636   -1.9181301   0.78048828   -1.1376418   0.13248026    11412.587     1000 
 1226000   0.50298237   -1.9052304   0.75371908   -1.1515114   0.13785075    11229.025     1000 
 1228000   0.50527697   -1.8240679   0.75715754   -1.0669104    0.1383602    11209.739     1000 
 1230000   0.48428092   -1.9263168   0.72569495   -1.2006218   0.11950867    11525.238     1000 
 1232000   0.48916748   -1.9672825   0.73301747   -1.2342651   0.13184813    11397.461     1000 
 1234000   0.52708792   -1.9597356   0.78984125   -1.1698944   0.12434219    11611.158     1000 
 1236000   0.49953506   -1.9264999   0.74855328   -1.1779466   0.13530008    11373.278     1000 
 1238000    0.5139576   -1.8863441   0.77016546   -1.1161787   0.11456428    11534.171     1000 
 1240000   0.48487799   -1.9112554   0.72658967   -1.1846657   0.13591247    11153.673     1000 
 1242000    0.5111434   -1.9335577   0.76594838   -1.1676094   0.12463185     11543.82     1000 
 1244000   0.50831817    -1.883597   0.76171477   -1.1218822    0.1178276    11435.717     1000 
 1246000   0.52025109   -1.9127869   0.77959626   -1.1331907   0.12910732    11441.915     1000 
 1248000   0.48101255   -1.9312328   0.72079731   -1.2104355   0.14196036    11354.198     1000 
 1250000   0.51717093   -1.9088224   0.77498063   -1.1338417   0.13772872    11319.138     1000 
 1252000   0.46364795   -1.9683552   0.69477645   -1.2735788   0.13175969    11368.957     1000 
 1254000   0.52269898   -1.8917712   0.78326442   -1.1085067   0.14165129    11300.816     1000 
 1256000   0.49742253   -1.9422925   0.74538766   -1.1969048   0.12304378    11446.166     1000 
 1258000   0.48476933   -1.9313847   0.72642684   -1.2049578   0.13170624    11319.349     1000 
 1260000   0.50203259   -1.9004982   0.75229584   -1.1482024   0.12617382    11211.747     1000 
 1262000   0.49240243   -1.9406007   0.73786505   -1.2027357   0.13041157    11523.163     1000 
 1264000    0.5003861   -1.9744317   0.74982856   -1.2246032    0.1270331    11412.045     1000 
 1266000    0.4978789   -1.9468121   0.74607153   -1.2007406    0.1223457     11473.89     1000 
 1268000   0.50893834   -1.9482862    0.7626441   -1.1856421    0.1373886    11492.961     1000 
 1270000   0.49560591   -1.9491975   0.74266546    -1.206532   0.13395379    11392.345     1000 
 1272000    0.4908585   -1.9528856   0.73555146   -1.2173341    0.1280317    11392.111     1000 
 1274000   0.50419101   -1.8959874   0.75553022   -1.1404572   0.13889945    11275.063     1000 
 1276000   0.48781393   -1.8901203   0.73098917   -1.1591311   0.11881686    11420.939     1000 
 1278000   0.50629449   -1.9062461   0.75868229   -1.1475638   0.12850003    11254.229     1000 
 1280000   0.49462847    -1.929298   0.74120076   -1.1880973   0.13989635    11347.815     1000 
 1282000   0.49560434   -1.9165376    0.7426631   -1.1738745   0.13104301    11311.131     1000 
 1284000   0.49110674   -1.8565503   0.73592345   -1.1206269    0.1394691    11282.777     1000 
 1286000   0.53282748   -1.9454387   0.79844198   -1.1469967   0.13165255    11521.834     1000 
 1288000   0.49508611   -1.9373274   0.74188653   -1.1954409   0.12020305    11425.707     1000 
 1290000   0.48912575   -1.9041824   0.73295494   -1.1712274   0.13147907    11325.938     1000 
 1292000   0.51432847   -1.9084708   0.77072121   -1.1377496   0.12965459    11183.117     1000 
 1294000   0.48384342   -1.9238163   0.72503936    -1.198777   0.11918037    11446.166     1000 
 1296000    0.4789292   -1.9299444   0.71767541    -1.212269   0.13220229    11397.713     1000 
 1298000   0.46253296   -1.9216149   0.69310563   -1.2285093   0.13181541    11371.878     1000 
 1300000   0.50316425   -1.8887859   0.75399163   -1.1347943   0.13531441    11260.444     1000 
 1302000   0.50402117    -1.872237   0.75527573   -1.1169613   0.12928383    11452.918     1000 
 1304000   0.51309964   -1.9250999   0.76887982   -1.1562201   0.12946121    11358.187     1000 
 1306000   0.48696573   -1.8698788   0.72971814   -1.1401606   0.13412244    11338.704     1000 
 1308000   0.51596755   -1.9277959   0.77317738   -1.1546185   0.13680459    11439.421     1000 
 1310000    0.4891264   -1.9223466   0.73295591   -1.1893907   0.13975375    11344.984     1000 
 1312000   0.48414796   -1.8981477   0.72549572    -1.172652   0.12865329    11461.784     1000 
 1314000   0.49996807    -1.944172   0.74920215   -1.1949699   0.12845391    11360.405     1000 
 1316000   0.49208605   -1.9710137   0.73739095   -1.2336228   0.12969147    11598.954     1000 
 1318000   0.51955248   -1.9674382   0.77854939   -1.1888888   0.13402216    11409.403     1000 
 1320000   0.50799273   -1.8610043   0.76122711   -1.0997772   0.13920801     11323.98     1000 
 1322000    0.4934541    -1.923749   0.73944097    -1.184308   0.12853081    11327.988     1000 
 1324000   0.49416367   -1.9534656   0.74050426   -1.2129613   0.13417534    11311.738     1000 
 1326000   0.49094918   -1.9330226   0.73568735   -1.1973353   0.11963925    11329.799     1000 
 1328000   0.50751233   -1.9113583   0.76050723   -1.1508511   0.12767533    11339.504     1000 
 1330000   0.51416063    -1.907057   0.77046971   -1.1365873   0.12352352    11353.938     1000 
 1332000    0.4863265   -1.9353127   0.72876026   -1.2065524   0.13149741    11355.143     1000 
 1334000    0.5056154   -1.9584237   0.75766468    -1.200759   0.13486737    11352.601     1000 
 1336000   0.49473113   -1.9168912   0.74135459   -1.1755366   0.11784223    11431.509     1000 
 1338000   0.48002028   -1.9104234   0.71931039    -1.191113   0.12568544    11476.099     1000 
 1340000   0.51639457   -1.8781578   0.77381726   -1.1043405   0.14195245    11307.939     1000 
 1342000   0.51449702   -1.9263606   0.77097378   -1.1553868   0.12088376    11468.284     1000 
 1344000   0.49822969    -1.927395   0.74659719   -1.1807978   0.12937219    11363.175     1000 
 1346000   0.49659191   -1.8962477   0.74414298   -1.1521047   0.12316536    11345.464     1000 
 1348000   0.50492386   -1.9722853    0.7566284   -1.2156569    0.1281597    11492.787     1000 
 1350000   0.49128553    -1.865528   0.73619137   -1.1293367   0.14653716    11136.376     1000 
 1352000   0.48097796   -1.9254657   0.72074547   -1.2047203   0.12647494    11400.109     1000 
 1354000   0.49991895   -1.9185061   0.74912855   -1.1693776    0.1250262    11552.714     1000 
 1356000   0.50147065   -1.9024705   0.75145378   -1.1510168   0.12155617    11556.316     1000 
 1358000   0.48528306   -1.9333517   0.72719667    -1.206155   0.12391493    11411.283     1000 
 1360000   0.48573257   -1.8820486   0.72787025   -1.1541783   0.12821324    11353.702     1000 
 1362000   0.52673406   -1.9586661   0.78931099   -1.1693551   0.13220404    11482.208     1000 
 1364000   0.51041211   -1.9589097   0.76485254   -1.1940572   0.11804362    11622.189     1000 
 1366000   0.50524315   -1.9419041   0.75710686   -1.1847972   0.13637458    11427.924     1000 
 1368000    0.5221818   -1.9023859   0.78248943   -1.1198965   0.13606647    11469.338     1000 
 1370000   0.49684861   -1.9394322   0.74452764   -1.1949045   0.12136472    11449.629     1000 
 1372000    0.4922704   -1.9504766    0.7376672   -1.2128094   0.13005523    11504.465     1000 
 1374000   0.51063687   -1.9427431   0.76518935   -1.1775538    0.1232915    11585.383     1000 
 1376000   0.47587441   -1.9612539    0.7130978   -1.2481561   0.11746775    11411.512     1000 
 1378000   0.51813117     -1.91941   0.77641955   -1.1429905   0.12177425    11496.818     1000 
 1380000   0.50495552   -1.9205273   0.75667585   -1.1638514   0.12751365    11356.961     1000 
 1382000   0.48781286    -1.906682   0.73098757   -1.1756944   0.12574452    11287.954     1000 
 1384000   0.48783377    -1.895716    0.7310189   -1.1646971   0.12864051    11337.662     1000 
 1386000   0.50866766   -1.9714448   0.76223848   -1.2092063   0.13447008    11379.843     1000 
 1388000   0.50563068     -1.95828   0.75768758   -1.2005924   0.14221915    11319.053     1000 
 1390000    0.4865991   -1.9491481   0.72916875   -1.2199793    0.1336652    11322.375     1000 
 1392000   0.52176364   -1.8897857   0.78186282   -1.1079228   0.12685956    11363.783     1000 
 1394000   0.50444359   -1.9388057   0.75590871    -1.182897   0.13030083    11412.642     1000 
 1396000   0.49917459   -1.8559686   0.74801312   -1.1079554   0.12934134    11243.521     1000 
 1398000   0.49361479   -1.9311656   0.73968176   -1.1914839   0.13373605    11385.214     1000 
 1400000   0.51197555   -1.9015276   0.76719537   -1.1343322   0.13516805    11449.814     1000 
 1402000   0.48653716   -1.8749275   0.72907593   -1.1458516   0.11982047    11471.482     1000 
 1404000   0.48437045   -1.8828686   0.72582912   -1.1570394   0.13218502    11301.371     1000 
 1406000   0.50285325   -1.8832126   0.75352559    -1.129687   0.13608135    11314.638     1000 
 1408000   0.49955273   -1.9057041   0.74857977   -1.1571243   0.12753222      11453.3     1000 
 1410000   0.51588289   -1.9383033   0.77305052   -1.1652528   0.12939626    11475.988     1000 
 1412000    0.5033179   -1.9459571   0.75422188   -1.1917353   0.13240122    11380.389     1000 
 1414000   0.50868662    -1.915516    0.7622669   -1.1532491   0.11565712    11508.837     1000 
 1416000   0.49820663   -1.8989424   0.74656263   -1.1523798   0.11825828    11473.563     1000 
 1418000   0.49730593   -1.8732811   0.74521294   -1.1280682   0.13607769    11342.471     1000 
 1420000   0.51758865   -1.9487532   0.77560659   -1.1731466   0.12683146    11426.301     1000 
 1422000   0.51134231   -1.8781121   0.76624645   -1.1118656   0.13775897    11394.799     1000 
 1424000   0.49998222   -1.9012598   0.74922336   -1.1520365   0.12912173    11333.144     1000 
 1426000   0.49639432   -1.8760665   0.74384688   -1.1322196   0.13726409    11250.151     1000 
 1428000     0.492057    -1.922718   0.73734741   -1.1853706   0.13449556     11458.01     1000 
 1430000   0.53013983   -1.9292831   0.79441454   -1.1348686   0.13871684    11279.715     1000 
 1432000   0.48698083   -1.8610024   0.72974077   -1.1312616    0.1338062      11281.4     1000 
 1434000   0.52141986   -1.9211379   0.78134766   -1.1397902   0.13235709    11490.237     1000 
 1436000   0.49412553    -1.862215   0.74044711   -1.1217679   0.13856246    11262.188     1000 
 1438000   0.50498035   -1.9063378   0.75671306   -1.1496247   0.12754497    11354.806     1000 
 1440000   0.50120836   -1.9506558   0.75106073    -1.199595   0.12641788    11501.013     1000 
 1442000    0.4893726   -1.9306078   0.73332484    -1.197283   0.12747717    11411.437     1000 
 1444000   0.51941343   -1.9054347   0.77834103   -1.1270937   0.15056199    11220.092     1000 
 1446000   0.49958145   -1.9435983    0.7486228   -1.1949755   0.13374902    11482.889     1000 
 1448000   0.50106767   -1.8834098    0.7508499   -1.1325599   0.13602052    11385.386     1000 
 1450000   0.50129793   -1.9434222   0.75119494   -1.1922272   0.13458201     11424.12     1000 
 1452000   0.48349237    -1.887504   0.72451331   -1.1629907   0.13522202    11324.785     1000 
 1454000   0.48500133   -1.9480433   0.72677449   -1.2212688   0.12297371    11485.808     1000 
 1456000   0.49365139   -1.9269748   0.73973661   -1.1872382    0.1318483    11332.039     1000 
 1458000   0.51748744   -1.9101742   0.77545492   -1.1347192   0.13681514     11348.23     1000 
 1460000   0.52675284   -1.8713901   0.78933913   -1.0820509   0.14910472    11188.219     1000 
 1462000   0.48749215   -1.8938591   0.73050699   -1.1633521   0.14804194    11182.232     1000 
 1464000   0.49606398   -1.9558269   0.74335187    -1.212475   0.12934978    11381.765     1000 
 1466000   0.49093602   -1.9026711   0.73566763   -1.1670034   0.12595613    11355.991     1000 
 1468000   0.50739893   -1.9208124   0.76033729   -1.1604751   0.13945447    11400.538     1000 
 1470000   0.50217334   -1.9187156   0.75250675   -1.1662089   0.12947195     11366.88     1000 
 1472000   0.51520587   -1.9418718   0.77203599   -1.1698358   0.13018865     11293.75     1000 
 1474000   0.48523626   -1.9160239   0.72712653   -1.1888974   0.12876978    11429.239     1000 
 1476000   0.51458556   -1.9225277   0.77110646   -1.1514212   0.13067983    11482.793     1000 
 1478000   0.48631961   -1.9404244   0.72874994   -1.2116744   0.12007218    11311.868     1000 
 1480000   0.51603989   -1.9090731   0.77328577   -1.1357874   0.13157431    11424.243     1000 
 1482000   0.49719064   -1.9106467   0.74504018   -1.1656065   0.13187379    11315.611     1000 
 1484000   0.49918598   -1.9203803   0.74803018   -1.1723501   0.12768633    11393.484     1000 
 1486000   0.50608481   -1.9340907   0.75836808   -1.1757226   0.12484643    11370.398     1000 
 1488000   0.48862735   -1.9071916   0.73220809   -1.1749835    0.1286627    11318.064     1000 
 1490000   0.49387283   -1.9018867   0.74006843   -1.1618183   0.11654153    11419.268     1000 
 1492000   0.48910156   -1.9654291   0.73291869   -1.2325105   0.13552495    11292.549     1000 
 1494000   0.50198016   -1.8920985   0.75221727   -1.1398813   0.13490922    11346.445     1000 
 1496000   0.49508405   -1.8977078   0.74188345   -1.1558244   0.13611798    11208.151     1000 
 1498000   0.48419532   -1.9249498   0.72556669   -1.1993831   0.11777117    11623.974     1000 
 1500000   0.47109098   -1.9235948   0.70592984    -1.217665   0.13325623    11224.537     1000 
 1502000   0.51084136   -1.8981516   0.76549578   -1.1326558   0.13591186    11195.045     1000 
 1504000   0.51287321   -1.9177922   0.76854051   -1.1492517   0.13935644    11273.227     1000 
 1506000   0.50340372   -1.9277182   0.75435048   -1.1733677   0.12709268    11434.817     1000 
 1508000   0.50156411   -1.9062327   0.75159381   -1.1546389   0.12674338    11375.638     1000 
 1510000   0.49841874   -1.9370268   0.74688048   -1.1901463   0.12430168    11383.965     1000 
 1512000   0.49980118   -1.9132296   0.74895207   -1.1642775    0.1443904      11233.9     1000 
 1514000   0.48534182    -1.923347   0.72728472   -1.1960622   0.12899964    11504.098     1000 
 1516000   0.48054244   -1.9019961   0.72009284   -1.1819032   0.13476603    11385.869     1000 
 1518000   0.50362057   -1.9166901   0.75467543   -1.1620147   0.12805143    11471.517     1000 
 1520000   0.50767954    -1.892356    0.7607578   -1.1315982   0.14033615    11354.528     1000 
 1522000   0.51179659   -1.9298956   0.76692718   -1.1629685   0.12420561    11470.908     1000 
 1524000   0.49255573   -1.8855833   0.73809476   -1.1474885   0.12777911    11332.199     1000 
 1526000    0.4667436   -1.9025397   0.69941529   -1.2031244   0.13236223    11284.256     1000 
 1528000   0.48213193   -1.9497973    0.7224747   -1.2273226   0.11440561    11484.995     1000 
 1530000    0.4976455    -1.925442   0.74572179   -1.1797202   0.13548885    11284.053     1000 
 1532000   0.51532989   -1.8931194   0.77222183   -1.1208976   0.12452068    11409.551     1000 
 1534000   0.47731217   -1.9293355   0.71525229   -1.2140832   0.13623628    11337.514     1000 
 1536000   0.48015859   -1.9137023   0.71951765   -1.1941847    0.1312084    11399.977     1000 
 1538000   0.50339214   -1.8867964   0.75433312   -1.1324633    0.1408479    11316.009     1000 
 1540000   0.48077292   -1.9149279   0.72043822   -1.1944897     0.117291    11459.956     1000 
 1542000   0.50818392   -1.9538367    0.7615136   -1.1923231   0.12257794    11600.675     1000 
 1544000   0.49053487   -1.9566289    0.7350665   -1.2215624    0.1394818     11371.18     1000 
 1546000    0.5022311   -1.8926072    0.7525933   -1.1400139   0.14540473    11326.829     1000 
 1548000   0.52634257   -1.9501427   0.78872434   -1.1614184   0.14087879    11363.972     1000 
 1550000   0.50741657   -1.8759491   0.76036372   -1.1155853   0.13517663    11323.655     1000 
 1552000   0.50840367   -1.9183636    0.7618429   -1.1565207   0.13698311    11406.721     1000 
 1554000   0.50378584    -1.937507   0.75492309   -1.1825839   0.12000434    11655.705     1000 
 1556000   0.50537411   -1.9387104   0.75730311   -1.1814073   0.11807744    11652.535     1000 
 1558000   0.50732165   -1.9252465   0.76022149    -1.165025   0.12352039    11424.824     1000 
 1560000    0.4950148   -1.9284845   0.74177967   -1.1867049   0.12611058     11405.92     1000 
 1562000   0.50280409   -1.9169261   0.75345193   -1.1634741    0.1257758    11504.143     1000 
 1564000   0.49837053   -1.9424489   0.74680825   -1.1956407   0.12928209    11466.399     1000 
 1566000   0.50700146   -1.9480075   0.75974169   -1.1882659   0.13128533    11430.684     1000 
 1568000   0.50895506    -1.959537   0.76266916   -1.1968679   0.13752606    11321.941     1000 
 1570000   0.50966909    -1.948769   0.76373913   -1.1850298   0.14271905    11310.854     1000 
 1572000   0.49049754   -1.9298544   0.73501056   -1.1948439    0.1407705    11286.227     1000 
 1574000   0.51895681   -1.8789867   0.77765678     -1.10133   0.13131767    11511.489     1000 
 1576000   0.51483357   -1.9243572   0.77147811   -1.1528791   0.13650606    11408.311     1000 
 1578000   0.50235854   -1.9150939   0.75278428   -1.1623096   0.13452292    11372.331     1000 
 1580000   0.50285273   -1.9624316   0.75352482   -1.2089067   0.12456754     11528.25     1000 
 1582000   0.47344374   -1.9177572   0.70945545   -1.2083017   0.13733301    11337.135     1000 
 1584000   0.49997441   -1.9099712   0.74921166   -1.1607596   0.12968278    11374.082     1000 
 1586000   0.48121759   -1.8876855   0.72110456    -1.166581   0.12063021    11474.618     1000 
 1588000   0.49373885   -1.8772293   0.73986766   -1.1373617   0.11685895    11452.646     1000 
 1590000    0.4961272   -1.9469605   0.74344661   -1.2035139   0.13267478      11348.4     1000 
 1592000   0.51476128   -1.8959406   0.77136978   -1.1245708   0.13359749    11353.728     1000 
 1594000   0.49051628   -1.9203696   0.73503865   -1.1853309   0.12641125      11473.4     1000 
 1596000   0.50640432   -1.9143583   0.75884688   -1.1555114    0.1463932    11438.162     1000 
[...]
 2612000   0.52086818   -1.8857924   0.78052096   -1.1052715   0.14546423     11283.89     1000 
 2614000   0.48517769   -1.9384847   0.72703876   -1.2114459   0.10927133    11583.154     1000 
 2616000   0.50348976   -1.9297263   0.75447941   -1.1752469   0.13255265    11281.273     1000 
 2618000   0.48693128   -1.8767057   0.72966652   -1.1470392   0.13207598    11220.443     1000 
 2620000   0.49208104   -1.9069201   0.73738343   -1.1695366   0.12386647    11527.949     1000 
 2622000   0.48808753   -1.9036853   0.73139916   -1.1722861   0.12164758     11425.66     1000 
 2624000   0.49262862   -1.8995704   0.73820399   -1.1613664   0.12852853    11345.192     1000 
 2626000   0.52182568   -1.9068097   0.78195578    -1.124854   0.12264105    11447.189     1000 
 2628000    0.5153738   -1.9131266   0.77228764   -1.1408389    0.1255765    11413.389     1000 
 2630000   0.51261521   -1.8892729   0.76815389    -1.121119   0.12617625    11349.139     1000 
 2632000   0.48902784   -1.8996628   0.73280821   -1.1668546   0.12604565    11323.713     1000 
 2634000   0.49683332   -1.9085986   0.74450473   -1.1640939   0.13278886    11239.487     1000 
 2636000   0.51801587   -1.9069941   0.77624678   -1.1307473   0.13356142    11388.872     1000 
 2638000     0.479414   -1.9442958   0.71840188    -1.225894   0.12690371    11338.426     1000 
 2640000   0.47510838   -1.9007803    0.7119499   -1.1888304   0.12626865    11310.141     1000 
 2642000   0.49194198   -1.9126172   0.73717505   -1.1754421   0.12879452    11320.037     1000 
 2644000   0.49433097   -1.9213601   0.74075496   -1.1806052   0.12130873    11551.828     1000 
 2646000   0.50568867   -1.9385177   0.75777448   -1.1807432   0.12422225    11519.467     1000 
 2648000   0.49469584   -1.9372603   0.74130172   -1.1959586   0.13326497    11335.868     1000 
 2650000   0.51341984   -1.9331691   0.76935964   -1.1638094   0.13216114    11426.083     1000 
 2652000    0.5236528   -1.8996608   0.78469372   -1.1149671   0.12686809    11305.989     1000 
 2654000   0.50045322   -1.9238728   0.74992915   -1.1739437   0.14105051    11295.181     1000 
 2656000   0.50467732   -1.8500031   0.75625897   -1.0937441   0.13962492    11364.007     1000 
 2658000   0.48739835   -1.9173584   0.73036642    -1.186992   0.12296637    11488.139     1000 
 2660000   0.50561765   -1.9017401   0.75766805    -1.144072    0.1272251    11426.371     1000 
 2662000   0.51483261   -1.9109954   0.77147667   -1.1395188   0.13484149     11338.63     1000 
 2664000   0.48005999    -1.866734    0.7193699   -1.1473641   0.13272092    11187.782     1000 
 2666000   0.50419626   -1.9169156    0.7555381   -1.1613775   0.13824793    11303.941     1000 
 2668000   0.51376571   -1.9342838   0.76987791   -1.1644059   0.12814405     11380.65     1000 
 2670000   0.51653903   -1.9201781   0.77403373   -1.1461443   0.12946447    11469.917     1000 
 2672000   0.50604672   -1.9263258   0.75831101   -1.1680148   0.12920081     11476.56     1000 
 2674000   0.50503144   -1.9341118   0.75678962   -1.1773222   0.12789564    11482.739     1000 
 2676000   0.49382952   -1.9086316   0.74000354   -1.1686281   0.13716031    11286.707     1000 
 2678000    0.4977452    -1.954058   0.74587118   -1.2081868   0.13534987    11407.339     1000 
 2680000   0.49066068   -1.9016798   0.73525503   -1.1664248   0.12802005    11370.039     1000 
 2682000   0.50762904   -1.9147144   0.76068212   -1.1540323    0.1371952    11327.984     1000 
 2684000   0.49558134   -1.9011764   0.74262864   -1.1585477   0.13731069     11262.95     1000 
 2686000   0.48984497     -1.92957   0.73403269   -1.1955373    0.1213264    11388.466     1000 
 2688000   0.49910152   -1.8588455   0.74790363   -1.1109419   0.12427011    11389.682     1000 
 2690000   0.50879837   -1.9021645   0.76243435   -1.1397302   0.12801468    11533.447     1000 
 2692000   0.49696109   -1.9340652   0.74469619   -1.1893691   0.13505871    11353.418     1000 
 2694000   0.51460272   -1.9149309   0.77113217   -1.1437987   0.12386805    11493.353     1000 
 2696000    0.5000679   -1.9196904   0.74935174   -1.1703387    0.1247567    11533.017     1000 
 2698000   0.51351052    -1.889927   0.76949551   -1.1204315   0.12603272    11360.168     1000 
 2700000   0.50064204    -1.927923    0.7502121   -1.1777109   0.12663804    11465.939     1000 
 2702000   0.50064395   -1.9151504   0.75021496   -1.1649354   0.13083276    11491.995     1000 
 2704000   0.49955604   -1.9675275   0.74858473   -1.2189428    0.1295268     11510.77     1000 
 2706000   0.50080216   -1.8781406   0.75045204   -1.1276886   0.12325957    11433.372     1000 
 2708000   0.47597222    -1.944129   0.71324438   -1.2308846   0.12017219    11453.668     1000 
 2710000   0.48802479   -1.9161228   0.73130515   -1.1848176   0.13340077    11159.778     1000 
 2712000   0.49332595    -1.926779   0.73924894     -1.18753   0.12637423    11480.029     1000 
 2714000   0.50912089   -1.9065448   0.76291766   -1.1436271    0.1422275    11171.331     1000 
 2716000   0.48619428   -1.9094074   0.72856213   -1.1808453   0.13011497    11441.621     1000 
 2718000   0.52118834   -1.9478976   0.78100073   -1.1668969   0.12125623    11457.264     1000 
 2720000   0.50833745   -1.9393628   0.76174366   -1.1776191   0.13499086    11328.208     1000 
 2722000   0.48614877   -1.9165451   0.72849394   -1.1880512   0.12281319    11455.454     1000 
 2724000   0.49573079   -1.9017879   0.74285258   -1.1589353   0.13812159    11390.463     1000 
 2726000   0.49651838   -1.8662931   0.74403279   -1.1222604   0.13387861    11300.788     1000 
 2728000   0.48219375   -1.9185692   0.72256733   -1.1960018   0.12259424    11440.142     1000 
 2730000   0.50616891   -1.9371701   0.75849411    -1.178676   0.12776483    11441.189     1000 
 2732000   0.46844748   -1.9060263   0.70196855   -1.2040578   0.12250822    11379.701     1000 
 2734000    0.5048378   -1.9305474   0.75649944   -1.1740479   0.12101589    11492.144     1000 
 2736000   0.49683193    -1.895111   0.74450265   -1.1506083   0.13170989    11406.062     1000 
 2738000   0.49494824   -1.9343048   0.74167993   -1.1926248    0.1300361    11311.667     1000 
 2740000   0.49319483   -1.8667352   0.73905245   -1.1276827   0.13327061    11316.756     1000 
 2742000   0.51738049   -1.9336212   0.77529466   -1.1583265   0.12837821    11389.511     1000 
 2744000   0.49049459   -1.9261088   0.73500615   -1.1911027   0.12095083    11499.478     1000 
 2746000   0.50634311   -1.9020296   0.75875516   -1.1432744   0.13569952    11323.305     1000 
 2748000   0.49107436   -1.9198403   0.73587493   -1.1839654   0.12986896     11391.57     1000 
 2750000   0.49167851    -1.924411   0.73678025   -1.1876308   0.13475748    11274.078     1000 
 2752000   0.48214109   -1.9286267   0.72248842   -1.2061383   0.12138234    11443.922     1000 
 2754000   0.50901007   -1.9041197    0.7627516   -1.1413681   0.13245832    11331.902     1000 
 2756000   0.50329576   -1.8768428    0.7541887   -1.1226541   0.12269934     11410.17     1000 
 2758000    0.5076029   -1.9044101   0.76064295   -1.1437672   0.13444438    11342.162     1000 
 2760000   0.48261473    -1.927222   0.72319817   -1.2040238   0.12612694    11453.922     1000 
 2762000   0.49606405   -1.9362508   0.74335198   -1.1928989   0.12839881    11434.864     1000 
 2764000    0.4917133   -1.9044427   0.73683238   -1.1676103   0.12903884     11338.18     1000 
 2766000    0.5165518   -1.9362595   0.77405287   -1.1622066   0.12595213    11489.969     1000 
 2768000   0.52061866   -1.9087943   0.78014707   -1.1286473   0.13992088    11353.327     1000 
 2770000   0.49779531   -1.8761718   0.74594628   -1.1302255   0.13757364    11193.424     1000 
 2772000   0.48429633   -1.9018836   0.72571806   -1.1761655   0.13584528    11360.329     1000 
 2774000   0.49227009   -1.9791747   0.73766673    -1.241508   0.13504273    11245.342     1000 
 2776000   0.50311344   -1.8959634   0.75391549   -1.1420479   0.12829519    11343.557     1000 
 2778000   0.48038775   -1.9110042   0.71986104   -1.1911432   0.12491926     11439.93     1000 
 2780000   0.49882231    -1.913093   0.74748523   -1.1656078   0.13056898     11194.31     1000 
 2782000   0.48963435   -1.9256886   0.73371708   -1.1919715    0.1311339    11414.378     1000 
 2784000   0.49094709   -1.8770105   0.73568422   -1.1413263   0.13574815    11437.674     1000 
 2786000   0.50371421   -1.8684962   0.75481574   -1.1136804   0.14181255    11413.162     1000 
 2788000    0.5001587    -1.938425   0.74948781   -1.1889372   0.13416329    11308.711     1000 
 2790000   0.50449842   -1.9301144   0.75599089   -1.1741235   0.11944277    11348.573     1000 
 2792000   0.51798485   -1.8672341    0.7762003   -1.0910338   0.13069128     11462.42     1000 
 2794000   0.50715424   -2.0061846   0.75997062    -1.246214   0.13188301    11394.095     1000 
 2796000   0.49714384    -1.936416   0.74497005   -1.1914459   0.12869031    11450.003     1000 
 2798000   0.49642493   -1.9489458   0.74389276    -1.205053   0.12752844    11363.911     1000 
 2800000    0.5028695   -1.8652726   0.75354995   -1.1117227   0.12310755    11369.298     1000 
 2802000   0.50296717   -1.8827062    0.7536963   -1.1290099   0.12648283    11448.107     1000 
 2804000   0.50859525   -1.9508729   0.76212998   -1.1887429   0.13299856    11346.388     1000 
 2806000   0.50642602   -1.8924999   0.75887939   -1.1336205   0.12368892    11343.257     1000 
 2808000   0.50009026   -1.9079589   0.74938526   -1.1585736   0.13909489    11259.818     1000 
 2810000    0.4856857   -1.8995711   0.72780002   -1.1717711   0.12067321    11372.263     1000 
 2812000   0.50678691     -1.88079   0.75942018   -1.1213699   0.13314267    11296.034     1000 
 2814000   0.51825378   -1.9333562   0.77660329   -1.1567529   0.12543528    11398.177     1000 
 2816000   0.50690765   -1.8951173   0.75960111   -1.1355162   0.13139389    11343.555     1000 
 2818000   0.49526936   -1.9132403   0.74216113   -1.1710792   0.13401475    11367.341     1000 
 2820000   0.49635706   -1.8773636   0.74379105   -1.1335726   0.13810021    11244.822     1000 
 2822000   0.51644836    -1.894851   0.77389787   -1.1209531   0.11948425    11481.078     1000 
 2824000    0.5009272   -1.9677294   0.75063941     -1.21709   0.12444089    11507.384     1000 
 2826000   0.52249638   -1.9116695   0.78296082   -1.1287087   0.12950527     11499.49     1000 
 2828000   0.49423164   -1.8995517   0.74060611   -1.1589456    0.1201107    11484.799     1000 
 2830000   0.49291351   -1.8857651   0.73863089   -1.1471342   0.12338258     11379.41     1000 
 2832000   0.49756474   -1.8943021   0.74560076   -1.1487013   0.13186088    11316.241     1000 
 2834000   0.52312922   -1.9232151   0.78390913    -1.139306   0.13250114    11394.313     1000 
 2836000   0.52149961   -1.9170021   0.78146717   -1.1355349   0.13090369    11391.906     1000 
 2838000   0.51088096    -1.921489   0.76555512   -1.1559339    0.1310687    11423.454     1000 
 2840000   0.48369472   -1.9558555   0.72481655    -1.231039   0.13238026     11434.42     1000 
 2842000   0.51800738   -1.9383211   0.77623407    -1.162087   0.14134468    11273.081     1000 
 2844000   0.49452514   -1.9271046   0.74104592   -1.1860586   0.14401608    11334.656     1000 
 2846000    0.5056403   -1.9052304   0.75770198   -1.1475285   0.13577597    11333.489     1000 
 2848000   0.48497363    -1.933506   0.72673299   -1.2067731   0.13361036    11342.638     1000 
 2850000   0.49744148   -1.8698098   0.74541605   -1.1243938   0.12246375    11332.368     1000 
 2852000   0.51685548   -1.8543008   0.77450793   -1.0797929   0.12954043    11220.647     1000 
 2854000   0.49556741   -1.9602453   0.74260777   -1.2176375   0.12704989    11405.995     1000 
 2856000   0.50869101    -1.950336   0.76227348   -1.1880625   0.11715484     11577.41     1000 
 2858000   0.50168752   -1.8913765   0.75177875   -1.1395977   0.12103591    11424.531     1000 
 2860000   0.45377545   -1.8946369   0.67998251   -1.2146543   0.12319712    11327.323     1000 
 2862000   0.53815448   -1.8981995   0.80642449    -1.091775   0.13149052    11491.039     1000 
 2864000   0.49556327   -1.9599789   0.74260156   -1.2173773    0.1274929    11425.839     1000 
 2866000   0.50745207   -1.9400266   0.76041692   -1.1796097   0.12799844    11475.334     1000 
 2868000   0.50252342    -1.925094   0.75303135   -1.1720627   0.12710947    11427.472     1000 
 2870000   0.50569581   -1.9082251   0.75778518   -1.1504399   0.13265059    11337.781     1000 
 2872000   0.51828909   -1.9551239   0.77665621   -1.1784676   0.12675347    11454.377     1000 
 2874000   0.48904369    -1.948142   0.73283197   -1.2153101   0.12702712    11505.629     1000 
 2876000   0.49619295   -1.9566706   0.74354513   -1.2131255   0.12366375    11550.921     1000 
 2878000   0.49716873   -1.8754532   0.74500734   -1.1304459   0.12578017    11336.305     1000 
 2880000    0.4868764   -1.9341237   0.72958428   -1.2045394   0.12373252     11466.49     1000 
 2882000   0.50994849   -1.8080066   0.76415781   -1.0438488   0.13579827     11224.42     1000 
 2884000   0.50845103   -1.9395545   0.76191388   -1.1776406    0.1297647    11366.894     1000 
 2886000   0.47707874   -1.9510403   0.71490249   -1.2361379   0.12814782    11466.213     1000 
 2888000   0.50397208   -1.9090569   0.75520215   -1.1538548    0.1360469    11468.023     1000 
 2890000   0.52759095   -1.9254765   0.79059505   -1.1348814   0.12943872    11410.638     1000 
 2892000   0.46792508   -1.9816056   0.70118573   -1.2804199   0.11521476    11571.014     1000 
 2894000   0.51064856   -1.9483831   0.76520687   -1.1831763   0.12653604    11447.272     1000 
 2896000   0.50643421   -1.9515081   0.75889166   -1.1926164   0.12276547    11376.035     1000 
 2898000   0.49952699   -1.9626803   0.74854119   -1.2141391    0.1294839    11394.807     1000 
 2900000   0.49316871    -1.873134   0.73901331   -1.1341206   0.12537884     11435.82     1000 
 2902000   0.49474922    -1.963572   0.74138171   -1.2221903   0.13437554    11317.156     1000 
 2904000   0.50640049   -1.9117667   0.75884113   -1.1529255   0.12585292     11507.73     1000 
 2906000   0.50690056   -1.9156501    0.7595905   -1.1560596   0.14338957    11352.768     1000 
 2908000   0.49665479   -1.8919954    0.7442372   -1.1477582   0.13888162    11280.257     1000 
 2910000   0.49157516   -1.8816722   0.73662538   -1.1450468   0.13333893    11271.412     1000 
 2912000   0.50698469    -1.906122   0.75971656   -1.1464054    0.1181225    11428.011     1000 
 2914000   0.50110789   -1.9370871   0.75091018   -1.1861769   0.13367407     11372.75     1000 
 2916000   0.51525132   -1.9274997    0.7721041   -1.1553956   0.14670111    11274.208     1000 
 2918000   0.49466497   -1.8939445   0.74125546    -1.152689   0.12245459    11354.413     1000 
 2920000   0.50259687   -1.9699958   0.75314142   -1.2168544   0.11608546    11655.648     1000 
 2922000   0.49437728    -1.950846   0.74082435   -1.2100216   0.11129422    11556.259     1000 
 2924000   0.49490889   -1.9482113   0.74162098   -1.2065904   0.12443681    11493.967     1000 
 2926000   0.47742201   -1.9286729   0.71541689    -1.213256   0.13076194    11342.306     1000 
 2928000   0.49722236   -1.9129081    0.7450877   -1.1678204   0.12524343    11381.822     1000 
 2930000   0.49958841   -1.9246343   0.74863324   -1.1760011   0.12727927    11453.687     1000 
 2932000   0.50725746   -1.9654831    0.7601253   -1.2053578   0.12008833    11439.234     1000 
 2934000   0.49047895   -1.9887469    0.7349827   -1.2537642   0.11666852    11619.069     1000 
 2936000   0.51621187   -1.8754661   0.77354348   -1.1019226   0.12552416    11378.824     1000 
 2938000   0.48509307    -1.925765   0.72691196   -1.1988531   0.15120156    11272.839     1000 
 2940000   0.51016818   -1.8941069   0.76448701   -1.1296199   0.11903688     11414.16     1000 
 2942000   0.48945828    -1.896557   0.73345323   -1.1631038   0.13321687    11396.526     1000 
 2944000   0.49788848   -1.9206342   0.74608588   -1.1745483   0.12709779    11383.133     1000 
 2946000   0.49562687   -1.9124977   0.74269687   -1.1698008    0.1391353    11307.035     1000 
 2948000   0.50024734   -1.9280128   0.74962064   -1.1783922   0.15071012    11234.804     1000 
 2950000    0.5033401   -1.9294929   0.75425514   -1.1752377   0.13411679    11319.426     1000 
 2952000   0.49070348   -1.8978188   0.73531916   -1.1624996   0.13356472    11349.743     1000 
 2954000   0.51841373   -1.9564491   0.77684297   -1.1796062   0.12167942    11552.861     1000 
 2956000   0.48577783   -1.9345513   0.72793808   -1.2066132   0.12500909    11542.972     1000 
 2958000   0.49566483   -1.8902833   0.74275375   -1.1475295   0.13034906    11541.914     1000 
 2960000   0.48972223   -1.9267338   0.73384877    -1.192885   0.12665534    11467.876     1000 
 2962000   0.50791601   -1.8775637   0.76111214   -1.1164516   0.13827085    11358.061     1000 
 2964000   0.50733653   -1.9065323    0.7602438   -1.1462885   0.14754926    11348.341     1000 
 2966000   0.52327855   -1.9284455    0.7841329   -1.1443126   0.12479416    11362.716     1000 
 2968000   0.49770746   -1.9288822   0.74581462   -1.1830676   0.13077733    11475.556     1000 
 2970000   0.50621203   -1.8668533   0.75855873   -1.1082946   0.14051965    11269.401     1000 
 2972000   0.51114161   -1.9472416    0.7659457   -1.1812959   0.13323758     11307.94     1000 
 2974000    0.5089495   -1.9159688   0.76266083    -1.153308   0.12869362     11404.21     1000 
 2976000   0.49110482   -1.8924117   0.73592058   -1.1564911    0.1374345    11337.942     1000 
 2978000   0.46874405   -1.9365191   0.70241296   -1.2341061   0.12372445    11379.636     1000 
 2980000   0.50323881   -1.9546293   0.75410336   -1.2005259   0.12506572    11361.983     1000 
 2982000   0.50396642   -1.9167295   0.75519369   -1.1615358   0.13438517    11236.038     1000 
 2984000   0.50097505   -1.9342897   0.75071111   -1.1835786   0.14223275    11251.972     1000 
 2986000   0.47933552   -1.8732191   0.71828427   -1.1549348   0.13620783    11324.089     1000 
 2988000   0.49964731   -1.9129081   0.74872149   -1.1641866   0.13252491    11385.337     1000 
 2990000   0.49281325   -1.9038867   0.73848065    -1.165406   0.12388736    11382.166     1000 
 2992000   0.52685059   -1.8860004   0.78948561   -1.0965148   0.13456999    11230.976     1000 
 2994000    0.5224798   -1.9634307   0.78293598   -1.1804947   0.12561716    11530.022     1000 
 2996000   0.51413021   -1.8975363   0.77042411   -1.1271121   0.13852062    11192.851     1000 
 2998000    0.4951987   -1.8850195   0.74205525   -1.1429642   0.12846187     11336.55     1000 
 3000000   0.50124512   -1.9447981   0.75111581   -1.1936823    0.1122644    11561.133     1000 
Loop time of 1115.64 on 4 procs for 3000000 steps with 1000 atoms

Performance: 1161661.541 tau/day, 2689.031 timesteps/s
95.2% CPU use with 4 MPI tasks x no OpenMP threads

MPI task timing breakdown:
Section |  min time  |  avg time  |  max time  |%varavg| %total
---------------------------------------------------------------
Pair    | 821.95     | 823.75     | 825.35     |   4.5 | 73.84
Neigh   | 77.56      | 77.781     | 78.061     |   2.1 |  6.97
Comm    | 159.24     | 161.53     | 163.87     |  13.0 | 14.48
Output  | 0.024053   | 0.026976   | 0.035444   |   3.0 |  0.00
Modify  | 45.21      | 45.647     | 46.086     |   5.3 |  4.09
Other   |            | 6.911      |            |       |  0.62

Nlocal:    250 ave 252 max 248 min
Histogram: 1 0 1 0 0 0 0 1 0 1
Nghost:    1688.5 ave 1698 max 1679 min
Histogram: 1 0 1 0 0 0 0 1 0 1
Neighs:    14191 ave 14387 max 13903 min
Histogram: 1 0 0 0 1 0 0 0 0 2

Total # of neighbors = 56764
Ave neighs/atom = 56.764
Neighbor list builds = 150000
Dangerous builds not checked

Total wall time: 0:18:35
