LAMMPS (3 Mar 2020)
# ----------------------- Inicialização -----------------------

units			lj
atom_style 		atomic
dimension 		3
boundary 		p p p

# -------------------- Criação dos Átomos ---------------------

read_data 		topologia.txt
  orthogonal box = (0 0 0) to (21.54 21.54 21.54)
  1 by 2 by 2 MPI processor grid
  reading atoms ...
  1000 atoms
  read_data CPU = 0.00150648 secs

velocity 		all create ${temp} 87287 rot yes dist gaussian
velocity 		all create 0.52 87287 rot yes dist gaussian

# ------------------ Interação Interatômica -------------------

pair_style		table linear 1300
pair_coeff		1 1 force.table AA 6.5
WARNING: 2 of 1300 force values in table are inconsistent with -dE/dr.
  Should only be flagged at inflection points (src/pair_table.cpp:483)
pair_coeff		1 2 force.table AB 6.5
WARNING: 1 of 1300 force values in table are inconsistent with -dE/dr.
  Should only be flagged at inflection points (src/pair_table.cpp:483)
pair_coeff		2 2 force.table BB 6.5
pair_write		1 1 1600 r 0.008 6.5 table.check AA
Neighbor list info ...
  update every 1 steps, delay 10 steps, check yes
  max neighbors/atom: 2000, page size: 100000
  master list distance cutoff = 6.8
  ghost atom cutoff = 6.8
  binsize = 3.4, bins = 7 7 7
  1 neighbor lists, perpetual/occasional/extra = 1 0 0
  (1) pair table, perpetual
      attributes: half, newton on
      pair build: half/bin/atomonly/newton
      stencil: half/bin/3d/newton
      bin: standard
pair_write		1 2 1600 r 0.008 6.5 table.check AB
pair_write		2 2 1600 r 0.008 6.5 table.check BB

neighbor 		0.3 bin
neigh_modify	every 20 delay 0 check no

# ------------------------- Ensemble --------------------------------------

fix 1			all npt temp ${temp} ${temp} 0.5 iso ${press} ${press} 5
fix 1			all npt temp 0.52 ${temp} 0.5 iso ${press} ${press} 5
fix 1			all npt temp 0.52 0.52 0.5 iso ${press} ${press} 5
fix 1			all npt temp 0.52 0.52 0.5 iso 0.13 ${press} 5
fix 1			all npt temp 0.52 0.52 0.5 iso 0.13 0.13 5

# ---------------------- Função de Distribuição Radial -----------------------

#compute RDF 	all rdf 2000 1 1 1 2 2 2
#fix 2 			all ave/time 1 2000 2000 c_RDF[*] file rdf.data mode vector

# ------------------------- Execução ---------------------------

timestep 		0.005
thermo_style	custom step temp pe ke etotal press vol atoms
thermo			2000
run				3000000
Per MPI rank memory allocation (min/avg/max) = 2.675 | 2.675 | 2.675 Mbytes
Step Temp PotEng KinEng TotEng Press Volume Atoms 
       0         0.52   -0.9940566      0.77922   -0.2148366   0.12037848    9993.9483     1000 
    2000   0.55369493   -1.8455675   0.82971185   -1.0158556   0.12872424    11510.777     1000 
    4000   0.55005431   -1.8782441   0.82425639   -1.0539877   0.13552424    11383.247     1000 
    6000   0.52359501   -1.9160952   0.78460713   -1.1314881   0.13390389    11426.945     1000 
    8000   0.49585899   -1.8811963    0.7430447   -1.1381516   0.13070092    11449.054     1000 
   10000   0.50159331   -1.8884684   0.75163758   -1.1368308   0.13070367    11472.065     1000 
   12000   0.51914884   -1.8724952   0.77794454   -1.0945506   0.14391383    11318.781     1000 
   14000   0.51396534   -1.8685779   0.77017707   -1.0984008   0.13110753    11301.095     1000 
   16000   0.50551003   -1.8981189   0.75750678   -1.1406121   0.13140514    11539.725     1000 
   18000   0.48969304   -1.8210687   0.73380502   -1.0872636   0.13226272    11270.282     1000 
   20000    0.5308217   -1.8889648   0.79543631   -1.0935285   0.12995643    11352.312     1000 
   22000   0.53956166   -1.8506881   0.80853315    -1.042155   0.13479716    11294.737     1000 
   24000   0.51054017   -1.8800703   0.76504445   -1.1150258    0.1351359    11387.996     1000 
   26000   0.53102286   -1.8356331   0.79573775   -1.0398954   0.13356394    11335.204     1000 
   28000   0.51228719   -1.8074046   0.76766236   -1.0397422   0.13565042    11319.658     1000 
   30000   0.53321214    -1.842305   0.79901839   -1.0432867   0.13175392    11331.326     1000 
   32000   0.49628637   -1.8749306   0.74368513   -1.1312454   0.12549063    11523.283     1000 
   34000   0.54504194   -1.8429805   0.81674535   -1.0262352   0.13712852    11330.183     1000 
   36000   0.50728925    -1.846638   0.76017294    -1.086465   0.13357914    11348.598     1000 
   38000   0.52384831   -1.8378744    0.7849867   -1.0528877   0.11594723    11575.117     1000 
   40000   0.52003023   -1.8218552    0.7792653   -1.0425899   0.13075814    11429.848     1000 
   42000   0.51747789   -1.8811083   0.77544062   -1.1056676   0.12921885     11539.46     1000 
   44000   0.52109423    -1.864694   0.78085971   -1.0838343   0.13575949    11343.831     1000 
   46000     0.549685    -1.903821   0.82370298    -1.080118   0.11911021    11437.401     1000 
   48000    0.5004423   -1.8322198   0.74991278   -1.0823071   0.13251172    11421.345     1000 
   50000   0.53595959   -1.8578813   0.80313544   -1.0547459   0.14085404    11350.896     1000 
   52000   0.50354251   -1.8777054   0.75455845    -1.123147   0.12714493    11497.487     1000 
   54000   0.53697016   -1.8716502   0.80464978   -1.0670004    0.1347993    11510.343     1000 
   56000   0.48915994   -1.8635576   0.73300617   -1.1305514   0.12744126    11480.709     1000 
   58000   0.52899157   -1.8712819   0.79269387    -1.078588   0.14216363    11395.621     1000 
   60000   0.49961868   -1.8706248    0.7486786   -1.1219462   0.12598154    11437.974     1000 
   62000   0.51165707   -1.8364986   0.76671812   -1.0697804   0.12825067    11358.422     1000 
   64000    0.5205334   -1.8819069    0.7800193   -1.1018876   0.14465406    11194.078     1000 
   66000   0.52582287   -1.8912393   0.78794558   -1.1032937   0.12211632     11447.03     1000 
   68000    0.5054271   -1.9011575   0.75738251   -1.1437749    0.1232686    11527.118     1000 
   70000   0.54123136   -1.8666193   0.81103519   -1.0555841   0.14172091    11401.161     1000 
   72000   0.53550062   -1.7912516   0.80244768  -0.98880391   0.13626872    11323.881     1000 
   74000   0.53183613   -1.8582607   0.79695644   -1.0613043   0.12861817    11333.696     1000 
   76000   0.52323031   -1.8336779   0.78406061   -1.0496173   0.13612134    11404.792     1000 
   78000   0.54554347   -1.8478306    0.8174969   -1.0303337   0.12733764    11391.948     1000 
   80000   0.51177238   -1.8526758   0.76689092   -1.0857849   0.13418577    11273.584     1000 
   82000   0.51775896   -1.8780125    0.7758618   -1.1021507   0.12864269    11527.984     1000 
   84000   0.52101064   -1.8784776   0.78073445   -1.0977432   0.13346215    11411.839     1000 
   86000    0.5147215   -1.8710802   0.77131016   -1.0997701   0.13003975    11477.369     1000 
   88000   0.54219942    -1.858248   0.81248583   -1.0457622   0.12665482    11663.514     1000 
   90000   0.51847976   -1.8376135   0.77694192   -1.0606716   0.12755408    11317.958     1000 
   92000   0.53624018   -1.8788994   0.80355591   -1.0753435   0.13053817    11553.657     1000 
   94000   0.52409197   -1.9135546   0.78535182   -1.1282028   0.12899712    11404.299     1000 
   96000   0.53313171   -1.8592914   0.79889787   -1.0603935   0.12909421    11586.562     1000 
   98000   0.51084553   -1.8711385   0.76550203   -1.1056365   0.13496862    11376.793     1000 
  100000   0.51365709   -1.8349453   0.76971515   -1.0652302    0.1451406    11098.607     1000 
  102000   0.50759676   -1.9188033   0.76063374   -1.1581695   0.13315297    11506.029     1000 
  104000   0.51389322   -1.8818355   0.77006899   -1.1117666   0.13278226    11389.547     1000 
  106000    0.5177818   -1.8666914   0.77589602   -1.0907953   0.11719052    11490.972     1000 
  108000   0.51880985   -1.8214799   0.77743655   -1.0440434   0.13846346    11215.069     1000 
  110000   0.53389896   -1.8150478    0.8000476   -1.0150002    0.1345465     11465.75     1000 
  112000   0.50473128   -1.8452185   0.75633982   -1.0888787   0.12083784    11423.786     1000 
  114000   0.51826923   -1.9136613   0.77662643   -1.1370349   0.13530186    11398.567     1000 
  116000   0.51893053    -1.843413   0.77761739   -1.0657956   0.13426228    11327.293     1000 
  118000   0.49179696   -1.8838005   0.73695774   -1.1468428   0.12755391    11491.248     1000 
  120000   0.50649834   -1.8685257   0.75898776   -1.1095379   0.12047017    11424.969     1000 
  122000    0.5144085   -1.8668334   0.77084114   -1.0959923   0.12503066    11491.845     1000 
  124000    0.5147511    -1.820411   0.77135452   -1.0490565   0.12895872    11346.264     1000 
  126000   0.53408476   -1.8803902   0.80032602   -1.0800642   0.13484854    11330.171     1000 
  128000   0.50573496   -1.8799818   0.75784384    -1.122138   0.12483762    11514.935     1000 
  130000   0.51675744    -1.862671   0.77436102     -1.08831   0.13323227    11387.992     1000 
  132000   0.49142392   -1.8408385   0.73639875   -1.1044397   0.13957273    11244.148     1000 
  134000   0.52171741   -1.8671293   0.78179354   -1.0853358   0.12427377    11445.518     1000 
  136000   0.52131564   -1.8661706   0.78119148   -1.0849792   0.13941008    11284.055     1000 
  138000   0.53108996    -1.903518    0.7958383   -1.1076797   0.13985281    11393.255     1000 
  140000   0.52101813   -1.8114695   0.78074566   -1.0307239   0.13465647    11454.805     1000 
  142000   0.50694414   -1.8517807    0.7596558   -1.0921249   0.14578736    11242.008     1000 
  144000   0.51827395   -1.8674365   0.77663351    -1.090803   0.12306187     11446.53     1000 
  146000   0.53984187   -1.8001141   0.80895305  -0.99116103   0.13251053    11350.724     1000 
  148000   0.51972051   -1.8858389   0.77880118   -1.1070377   0.13410713    11271.786     1000 
  150000    0.5261828   -1.9273234   0.78848493   -1.1388385   0.12596506    11409.313     1000 
  152000   0.52341367    -1.864573   0.78433538   -1.0802376   0.13035999    11549.473     1000 
  154000   0.52347646   -1.8627658   0.78442947   -1.0783363   0.13110747    11390.564     1000 
  156000   0.52652347   -1.8440457   0.78899542   -1.0550503   0.14321022     11204.32     1000 
  158000    0.5191934   -1.8830319   0.77801131   -1.1050206   0.13609497    11302.245     1000 
  160000   0.52801829   -1.8634726   0.79123541   -1.0722372   0.12855741    11449.288     1000 
  162000    0.5133513   -1.8748417   0.76925693   -1.1055848   0.12988612    11419.047     1000 
  164000   0.51810069   -1.8385016   0.77637389   -1.0621277   0.12495989    11458.806     1000 
  166000    0.5097096    -1.851198   0.76379984   -1.0873981   0.12313201    11541.561     1000 
  168000   0.52374187   -1.8726709    0.7848272   -1.0878437   0.14382915    11302.804     1000 
  170000   0.53681766   -1.9019224   0.80442126   -1.0975012   0.11877932    11544.659     1000 
  172000   0.51975836   -1.8741651   0.77885791   -1.0953072   0.12198048    11603.346     1000 
  174000     0.500748   -1.8240525   0.75037088   -1.0736817   0.12795823    11473.799     1000 
  176000   0.50254307   -1.9099577   0.75306079   -1.1568969   0.12832841    11372.575     1000 
  178000   0.51398764   -1.8824668   0.77021048   -1.1122564   0.13885989     11384.46     1000 
  180000   0.53222954   -1.8539503   0.79754596   -1.0564044   0.13447317    11297.371     1000 
  182000   0.54565677   -1.8495286   0.81766667    -1.031862   0.13781083    11317.073     1000 
  184000   0.51470064   -1.8228884   0.77127891   -1.0516095   0.12733115    11370.607     1000 
  186000   0.50020825   -1.9328974   0.74956206   -1.1833353   0.13377157    11407.648     1000 
  188000   0.50232103   -1.8671864   0.75272807   -1.1144583   0.12468098      11377.3     1000 
  190000   0.50147331   -1.8831303   0.75145776   -1.1316725   0.12589998    11467.069     1000 
  192000   0.49690406   -1.8740517   0.74461073    -1.129441   0.13380446    11366.398     1000 
  194000   0.49412716   -1.9017192   0.74044955   -1.1612696   0.12363132    11501.154     1000 
  196000   0.51319391   -1.8759224   0.76902108   -1.1069013   0.12220756    11408.849     1000 
  198000   0.54111359   -1.8555836   0.81085871   -1.0447249   0.13482409    11420.843     1000 
  200000   0.54908404   -1.8339843   0.82280243   -1.0111819   0.13549909    11422.381     1000 
  202000   0.50027667   -1.8687299    0.7496646   -1.1190653   0.14367456     11307.96     1000 
  204000   0.51457105   -1.8415891   0.77108472   -1.0705043   0.13843867    11367.642     1000 
  206000   0.53400402   -1.8693223   0.80020503   -1.0691173    0.1408176    11363.049     1000 
  208000   0.54322749   -1.8661268   0.81402639   -1.0521004   0.14264382    11420.326     1000 
  210000   0.53344199   -1.8571304   0.79936283   -1.0577676   0.12430146    11475.648     1000 
  212000   0.53068929   -1.8622879    0.7952379     -1.06705   0.11735033    11427.653     1000 
  214000    0.5206387   -1.8816599   0.78017709   -1.1014828   0.11405336    11546.589     1000 
  216000    0.5438759   -1.8651003   0.81499803   -1.0501023   0.13278457    11505.369     1000 
  218000    0.5048605   -1.8782448   0.75653345   -1.1217113   0.11740334    11610.593     1000 
  220000   0.49717971   -1.8551803    0.7450238   -1.1101565   0.12328579    11412.796     1000 
  222000   0.53171398   -1.8696574    0.7967734    -1.072884   0.13390692     11380.26     1000 
  224000    0.5326296   -1.8600241   0.79814546   -1.0618786   0.13376694     11238.66     1000 
  226000   0.52164135   -1.8485735   0.78167957    -1.066894   0.15105928    11112.884     1000 
  228000   0.52379453   -1.8645591    0.7849061    -1.079653   0.13561791    11408.772     1000 
  230000    0.5118407    -1.879817   0.76699329   -1.1128237    0.1345331    11438.692     1000 
  232000   0.50603378   -1.8763819   0.75829162   -1.1180903   0.13152752     11344.09     1000 
  234000   0.52371284   -1.8221225    0.7847837   -1.0373388   0.13214849    11363.139     1000 
  236000   0.51392143   -1.8709117   0.77011126   -1.1008005   0.13636022    11257.152     1000 
  238000    0.5171467   -1.8748825   0.77494433   -1.0999382   0.12150123    11530.423     1000 
  240000   0.50125879   -1.8235119    0.7511363   -1.0723756   0.13655905    11257.079     1000 
  242000   0.53380587   -1.8511052   0.79990809   -1.0511971   0.13312292    11353.975     1000 
  244000   0.49060999    -1.908099   0.73517907     -1.17292   0.12962802    11564.557     1000 
  246000    0.5239521    -1.853048   0.78514223   -1.0679058   0.13232179    11329.834     1000 
  248000   0.54488535   -1.8418323    0.8165107   -1.0253216   0.13051484    11377.234     1000 
  250000   0.52014866   -1.8740361   0.77944276   -1.0945933   0.12840665    11543.458     1000 
  252000   0.50733204   -1.8540689   0.76023706   -1.0938318   0.12433806    11448.954     1000 
  254000   0.53942506   -1.8607802   0.80832845   -1.0524518   0.13114918    11376.559     1000 
  256000   0.52161261    -1.907156    0.7816365   -1.1255195    0.1274556    11522.729     1000 
  258000   0.53438512   -1.8546674   0.80077611   -1.0538913   0.13437795    11326.182     1000 
  260000   0.51619487   -1.8807094   0.77351801   -1.1071914   0.12232797    11559.947     1000 
  262000   0.50795486     -1.89244   0.76117036   -1.1312696   0.12894722    11425.908     1000 
  264000   0.52204749   -1.8211033   0.78228816   -1.0388151   0.12878483    11350.184     1000 
  266000   0.51283492   -1.8260279   0.76848313   -1.0575448   0.13566338    11375.828     1000 
  268000   0.51261936    -1.844352   0.76816011   -1.0761918   0.12817779    11414.753     1000 
  270000   0.54282178   -1.8541462   0.81341844   -1.0407278   0.13064178    11414.425     1000 
  272000   0.52201653   -1.8832777   0.78224178    -1.101036   0.12946196    11325.615     1000 
  274000   0.51058143   -1.9040628   0.76510627   -1.1389565   0.12750482    11390.659     1000 
  276000   0.52698671   -1.8776429   0.78968959   -1.0879533   0.13269516    11487.624     1000 
  278000   0.50812252   -1.8787145    0.7614216   -1.1172929   0.12999803    11368.591     1000 
  280000   0.51222194   -1.8721359   0.76756458   -1.1045713   0.13460269    11352.707     1000 
  282000   0.52110342   -1.8884694   0.78087348    -1.107596   0.14048692    11334.739     1000 
  284000    0.5062069   -1.8317288   0.75855104   -1.0731777   0.13213242    11282.762     1000 
  286000   0.51563456   -1.8535108   0.77267838   -1.0808324   0.13660337    11333.548     1000 
  288000   0.51787759   -1.8519118   0.77603957   -1.0758723   0.13472688    11436.863     1000 
  290000   0.52407903   -1.8667911   0.78533242   -1.0814586   0.14421827    11185.552     1000 
  292000   0.54018718   -1.8211038   0.80947048   -1.0116333   0.12708137    11419.809     1000 
  294000   0.52849918   -1.8613717   0.79195602   -1.0694157   0.13067129    11387.432     1000 
  296000   0.52149059   -1.8348205   0.78145365   -1.0533669   0.12251488    11529.666     1000 
  298000   0.51849061   -1.8456999   0.77695818   -1.0687418   0.13401696    11369.783     1000 
  300000   0.50936452    -1.828021   0.76328273   -1.0647383   0.13416366     11246.91     1000 
  302000   0.49309391   -1.8148526   0.73890122   -1.0759514   0.13094265    11237.579     1000 
  304000   0.51111512   -1.8212417   0.76590601   -1.0553356   0.12854449    11312.543     1000 
  306000   0.54284396    -1.813211   0.81345167  -0.99975935   0.12191724    11481.124     1000 
  308000   0.49960249   -1.8920072   0.74865434   -1.1433529   0.12684587    11415.059     1000 
  310000   0.53264732   -1.8457937   0.79817201   -1.0476217   0.13943919    11289.745     1000 
  312000   0.51174779   -1.8739479   0.76685406   -1.1070938   0.13063716    11453.451     1000 
  314000   0.50466122    -1.846802   0.75623483   -1.0905672   0.12777139    11373.582     1000 
  316000   0.51682554   -1.8711731   0.77446308     -1.09671   0.12678876    11482.393     1000 
  318000   0.52628776   -1.8287357   0.78864221   -1.0400935   0.13434175     11369.26     1000 
  320000     0.511235   -1.8919914   0.76608565   -1.1259058   0.11851929    11543.335     1000 
  322000    0.5180268   -1.8508732   0.77626316     -1.07461   0.14720419    11226.371     1000 
  324000   0.52351057   -1.8862361   0.78448059   -1.1017555     0.134597    11394.843     1000 
  326000    0.5167895   -1.8310219   0.77440906   -1.0566128   0.14163301    11397.334     1000 
  328000   0.51264539   -1.8790058   0.76819911   -1.1108067    0.1357928    11343.481     1000 
  330000   0.51211849   -1.7968942   0.76740955   -1.0294846   0.11913978    11440.406     1000 
  332000    0.5462055   -1.8712949   0.81848894   -1.0528059   0.12998981    11463.931     1000 
  334000   0.52505475   -1.8437095   0.78679455    -1.056915   0.12802788    11378.219     1000 
  336000   0.52097972   -1.8171978   0.78068811   -1.0365097    0.1438506    11305.736     1000 
  338000   0.54331623   -1.8336795   0.81415937   -1.0195202   0.12262861    11529.871     1000 
  340000   0.53193791   -1.9118318   0.79710896   -1.1147229   0.11951175    11564.502     1000 
  342000   0.51833686   -1.8458738   0.77672779    -1.069146   0.12516424    11391.045     1000 
  344000   0.53466197    -1.843997   0.80119096   -1.0428061   0.13326361    11372.027     1000 
  346000   0.52957548   -1.8296482   0.79356885   -1.0360794    0.1339765    11450.663     1000 
  348000   0.50908973   -1.8980678   0.76287096   -1.1351969   0.14096241    11322.262     1000 
  350000   0.51589185   -1.8152205   0.77306393   -1.0421566    0.1334026    11521.743     1000 
  352000   0.51736065   -1.8632584   0.77526493   -1.0879935   0.12718148    11396.067     1000 
  354000   0.54491158   -1.8812002      0.81655   -1.0646502    0.1257469    11556.299     1000 
  356000    0.5170309   -1.8224686    0.7747708   -1.0476978   0.12890735    11416.269     1000 
  358000    0.5389248   -1.9011262   0.80757881   -1.0935474   0.13564602    11427.072     1000 
  360000   0.51689854   -1.8799974   0.77457247   -1.1054249   0.12963248    11564.306     1000 
  362000   0.53400896   -1.8809165   0.80021243    -1.080704   0.13238892    11469.537     1000 
  364000   0.53858242    -1.815745   0.80706575   -1.0086792   0.15040146    11196.089     1000 
  366000   0.51775024   -1.8957825   0.77584874   -1.1199338   0.11393594    11637.907     1000 
  368000   0.52388188   -1.8739762   0.78503699   -1.0889392   0.12928431     11259.23     1000 
  370000   0.52426237   -1.8720949   0.78560716   -1.0864878   0.13677722    11292.332     1000 
  372000   0.51088386   -1.9480124   0.76555947    -1.182453   0.12737619    11494.235     1000 
  374000   0.51802641   -1.8534015   0.77626258   -1.0771389    0.1351524    11221.515     1000 
  376000   0.50945688    -1.838335   0.76342113   -1.0749139   0.11849838    11516.613     1000 
  378000   0.53634815   -1.8811461   0.80371771   -1.0774284   0.12659038      11577.2     1000 
  380000   0.49928103   -1.8358778   0.74817263   -1.0877052   0.13219703    11413.728     1000 
  382000   0.53517484   -1.7954002    0.8019595  -0.99344067   0.13821888    11338.799     1000 
  384000    0.5215017    -1.842185   0.78147029   -1.0607147   0.13961163    11295.925     1000 
  386000   0.52060965   -1.8973288   0.78013357   -1.1171952   0.12025572    11575.292     1000 
  388000   0.52155178   -1.8690765   0.78154535   -1.0875311   0.13810429    11295.218     1000 
  390000   0.51014469   -1.8086287   0.76445181   -1.0441769   0.14397465    11264.644     1000 
  392000   0.53090796   -1.7986772   0.79556558   -1.0031116   0.13450977    11366.109     1000 
  394000    0.5302196   -1.8789352   0.79453408   -1.0844012   0.13462731    11458.976     1000 
  396000    0.5399438   -1.8771407   0.80910579   -1.0680349   0.13517369    11325.393     1000 
  398000   0.51839347   -1.8903024   0.77681262   -1.1134898   0.13724505    11402.041     1000 
  400000   0.51164324   -1.8389757   0.76669739   -1.0722783   0.13271501    11312.448     1000 
  402000   0.53014403   -1.8347446   0.79442082   -1.0403237   0.12657944    11455.114     1000 
  404000   0.48892576    -1.854758   0.73265525   -1.1221028   0.13769493    11301.134     1000 
  406000   0.52930988   -1.8695741   0.79317086   -1.0764032   0.13941139     11337.09     1000 
  408000   0.52566013   -1.9252854    0.7877017   -1.1375837   0.12193982    11507.012     1000 
  410000   0.53684743    -1.886369   0.80446587   -1.0819031   0.12501069    11450.778     1000 
  412000   0.50407329   -1.8823699   0.75535383   -1.1270161    0.1198607     11468.62     1000 
  414000   0.53332065    -1.900296     0.799181    -1.101115   0.13907798    11348.241     1000 
  416000   0.53502993    -1.828104   0.80174235   -1.0263617   0.12381435    11532.657     1000 
  418000   0.53143328   -1.8500548   0.79635277   -1.0537021   0.13283595    11382.995     1000 
  420000   0.53414279   -1.8464074   0.80041298   -1.0459944   0.12684748    11450.337     1000 
  422000   0.52557799   -1.9089707   0.78757862   -1.1213921   0.13042976    11483.779     1000 
  424000   0.51522535   -1.8633691   0.77206519   -1.0913039   0.13206564    11368.441     1000 
  426000   0.51743938    -1.828202   0.77538292   -1.0528191    0.1219968    11311.569     1000 
  428000   0.51941833   -1.8943714   0.77834837   -1.1160231   0.12073297    11544.627     1000 
  430000   0.52449662   -1.8380779   0.78595819   -1.0521197   0.13324453    11334.098     1000 
  432000   0.49671288   -1.8866666   0.74432425   -1.1423423    0.1132285    11656.773     1000 
  434000    0.5308332   -1.8732506   0.79545355   -1.0777971   0.13051826    11421.384     1000 
  436000   0.52742094   -1.8488617   0.79034028   -1.0585215   0.13670238    11411.135     1000 
  438000   0.50982164    -1.903558   0.76396773   -1.1395902   0.12692962     11334.96     1000 
  440000   0.53276266   -1.8621281   0.79834485   -1.0637832   0.13570778    11334.228     1000 
  442000   0.52944567   -1.8038955   0.79337434   -1.0105212     0.139721     11336.46     1000 
  444000   0.51477276   -1.7806434   0.77138699   -1.0092564   0.13713916    11188.814     1000 
  446000   0.50467211   -1.8510247   0.75625116   -1.0947735   0.13527151    11322.861     1000 
  448000   0.51203424   -1.8564149    0.7672833   -1.0891316   0.13710848    11343.861     1000 
  450000   0.52974333   -1.8316894   0.79382037    -1.037869   0.13046336     11384.98     1000 
  452000   0.52580193   -1.8629288   0.78791419   -1.0750146   0.13379749    11434.621     1000 
  454000    0.5168721   -1.8534987   0.77453284   -1.0789659   0.12060803    11429.159     1000 
  456000    0.5113455   -1.8780146   0.76625123   -1.1117634   0.13095962    11459.064     1000 
  458000   0.50453373   -1.8430412    0.7560438   -1.0869974   0.12676395    11445.099     1000 
  460000   0.55245821   -1.8752265   0.82785863   -1.0473679    0.1279546    11477.804     1000 
  462000   0.52339323   -1.8770218   0.78430476   -1.0927171    0.1043957    11684.872     1000 
  464000   0.49718978    -1.822543   0.74503888   -1.0775041   0.13089055    11491.393     1000 
  466000   0.51141145   -1.8516824   0.76635006   -1.0853323    0.1386864    11300.813     1000 
  468000   0.51009225   -1.8757153   0.76437324    -1.111342   0.12586776    11428.105     1000 
  470000    0.5156876   -1.8577567   0.77275786   -1.0849988   0.13770155    11422.078     1000 
  472000   0.50471726   -1.8908713   0.75631882   -1.1345525   0.13479356    11536.316     1000 
  474000   0.51643036   -1.8765629   0.77387089    -1.102692   0.14139747    11165.758     1000 
  476000   0.53126308   -1.8137979   0.79609773   -1.0177002   0.12652889    11425.124     1000 
  478000   0.51917233   -1.8575782   0.77797974   -1.0795985   0.13633552    11396.685     1000 
  480000   0.52774142   -1.8510348   0.79082052   -1.0602143   0.13884494    11391.145     1000 
  482000   0.50610235   -1.8550796   0.75839438   -1.0966852   0.12806365    11354.647     1000 
  484000   0.52388038   -1.8622872   0.78503475   -1.0772525   0.12005085    11567.195     1000 
  486000   0.50484608   -1.8335152   0.75651184   -1.0770033   0.12838822    11331.279     1000 
  488000   0.51791897   -1.8957438   0.77610157   -1.1196422   0.12671006    11397.037     1000 
  490000   0.52961308    -1.887361    0.7936252   -1.0937358    0.1205674    11480.606     1000 
  492000   0.52803751   -1.8302165   0.79126421   -1.0389523   0.12853817     11471.72     1000 
  494000   0.52262683   -1.8685264    0.7831563   -1.0853701   0.12420004    11425.582     1000 
  496000   0.52307773   -1.8194065   0.78383198   -1.0355745   0.13675629    11272.321     1000 
  498000   0.54654271   -1.8525183   0.81899425    -1.033524   0.13378076    11375.989     1000 
  500000   0.48982016   -1.8291243   0.73399551   -1.0951288   0.12406309    11296.711     1000 
  502000   0.51972914   -1.9135543   0.77881411   -1.1347402   0.12101457    11443.386     1000 
  504000   0.50689464   -1.8822184   0.75958162   -1.1226368   0.12230208    11436.297     1000 
  506000   0.50691075   -1.8353659   0.75960576   -1.0757601   0.13161429    11389.316     1000 
  508000   0.51183774   -1.8888687   0.76698885   -1.1218799   0.13380431    11505.488     1000 
  510000   0.50928082   -1.8337901    0.7631573   -1.0706328   0.12231467    11380.994     1000 
  512000   0.51730224   -1.8432318    0.7751774   -1.0680544   0.13123308     11377.31     1000 
  514000   0.52745759   -1.8598684    0.7903952   -1.0694732   0.11932738    11493.501     1000 
  516000   0.51568334     -1.88231   0.77275148   -1.1095585   0.13520489    11284.143     1000 
  518000   0.53654265   -1.8525602   0.80400916   -1.0485511   0.13824573    11354.821     1000 
  520000   0.50500027   -1.8883544   0.75674291   -1.1316115   0.13815436    11314.566     1000 
  522000   0.52604252   -1.8794577   0.78827471    -1.091183   0.13490785    11309.648     1000 
  524000    0.5293265   -1.8686119   0.79319576   -1.0754161   0.13436433    11288.452     1000 
  526000   0.50829276    -1.889592    0.7616767   -1.1279153   0.11612132    11553.382     1000 
  528000   0.52048502   -1.8391041    0.7799468   -1.0591573   0.12329943     11503.26     1000 
  530000    0.5087089   -1.8611704   0.76230028   -1.0988701   0.13398082    11529.464     1000 
  532000   0.52560847   -1.8624983   0.78762429    -1.074874   0.13418964    11457.121     1000 
  534000   0.51432533    -1.887897   0.77071651   -1.1171805   0.12644232    11585.546     1000 
  536000   0.51368131   -1.8910654   0.76975144    -1.121314   0.12908394    11546.304     1000 
  538000   0.51639334   -1.8516809   0.77381542   -1.0778655   0.13364162    11384.542     1000 
  540000   0.52263491   -1.8928791   0.78316841   -1.1097107   0.12787314    11320.128     1000 
  542000   0.53427886    -1.869833   0.80061688   -1.0692161   0.12239556    11545.776     1000 
  544000   0.54588397   -1.8664106   0.81800713   -1.0484034   0.12075968    11570.471     1000 
  546000    0.4991119   -1.8849633   0.74791918   -1.1370441   0.12649961    11414.065     1000 
  548000   0.51670836   -1.8449359   0.77428748   -1.0706484   0.13708137    11408.143     1000 
  550000   0.50149197   -1.8573791   0.75148572   -1.1058934   0.13559314    11351.844     1000 
  552000   0.50248231   -1.8710127   0.75296974    -1.118043   0.12670944    11504.308     1000 
  554000   0.50680779    -1.842163   0.75945147   -1.0827115   0.12894622    11410.512     1000 
  556000   0.50869822   -1.8540848   0.76228428   -1.0918006   0.12593934     11507.04     1000 
  558000   0.53293016   -1.8947116   0.79859584   -1.0961157   0.12474316    11543.518     1000 
  560000   0.51937463   -1.8257501   0.77828289   -1.0474672   0.12231594    11478.638     1000 
  562000   0.54692905   -1.7975861   0.81957317   -0.9780129   0.13088925    11243.788     1000 
  564000    0.5550371   -1.8531421    0.8317231    -1.021419   0.13439584    11273.471     1000 
  566000   0.51668643    -1.879356   0.77425462   -1.1051014   0.12998655    11431.513     1000 
  568000   0.49778857   -1.8643414   0.74593618   -1.1184052    0.1062631    11692.389     1000 
  570000   0.51283738   -1.8787969   0.76848681   -1.1103101    0.1135174    11486.936     1000 
  572000   0.53470682   -1.9140315   0.80125816   -1.1127734   0.13427184    11394.512     1000 
  574000   0.52869089   -1.8145063    0.7922433    -1.022263   0.13896178    11310.355     1000 
  576000   0.53795476   -1.8828457   0.80612521   -1.0767205   0.13103289    11435.959     1000 
  578000   0.48619057   -1.8774166   0.72855657     -1.14886   0.13347865    11268.915     1000 
  580000   0.52423082   -1.8297068   0.78555988   -1.0441469    0.1321147    11284.535     1000 
  582000   0.52632234   -1.8840023   0.78869403   -1.0953082   0.12289151    11458.349     1000 
  584000   0.53523656     -1.82092   0.80205199    -1.018868   0.13175831    11392.672     1000 
  586000   0.52752269   -1.8728245   0.79049275   -1.0823317   0.14743204    11255.986     1000 
  588000   0.51006972   -1.8383409   0.76433948   -1.0740014   0.13660476    11424.149     1000 
  590000   0.51137677   -1.8842854   0.76629809   -1.1179873   0.13413698    11422.566     1000 
  592000   0.53194533    -1.847229   0.79712008   -1.0501089    0.1280312    11463.683     1000 
  594000   0.51387462   -1.8199795   0.77004112   -1.0499384   0.12858701    11469.292     1000 
  596000   0.51939353   -1.8665214   0.77831121   -1.0882102   0.13787094    11433.116     1000 
  598000    0.5174364   -1.8930521   0.77537844   -1.1176737   0.12277037    11534.053     1000 
  600000   0.50157054   -1.8676105   0.75160345   -1.1160071   0.13407587    11420.321     1000 
  602000   0.53579602   -1.8450093   0.80289033    -1.042119   0.12182466    11544.651     1000 
  604000   0.50014311   -1.8527489   0.74946445   -1.1032845    0.1242854    11414.967     1000 
  606000   0.53432822   -1.8643542   0.80069083   -1.0636634   0.13652427    11310.471     1000 
  608000   0.53718243   -1.8491023   0.80496788   -1.0441344     0.145741     11293.11     1000 
  610000   0.56111285    -1.903074   0.84082761   -1.0622464   0.11022349    11693.636     1000 
  612000   0.50259564   -1.8694022   0.75313957   -1.1162626   0.13022888    11396.942     1000 
  614000   0.53014392   -1.8948829   0.79442066   -1.1004622   0.12506696    11508.822     1000 
  616000   0.53164114   -1.8807432   0.79666424    -1.084079   0.13071713      11394.5     1000 
  618000    0.5081851   -1.8475771   0.76151537   -1.0860617   0.11928054    11462.752     1000 
  620000   0.51740636   -1.8583843   0.77533343   -1.0830509   0.12405589     11364.66     1000 
  622000   0.52873848   -1.9127473   0.79231461   -1.1204327   0.13397431    11282.021     1000 
  624000   0.51808298   -1.8641546   0.77634734   -1.0878073   0.11840472    11474.153     1000 
  626000   0.51491947   -1.8461109   0.77160682    -1.074504   0.13834625    11405.305     1000 
  628000   0.50975541   -1.9118205   0.76386848    -1.147952   0.13104669    11402.657     1000 
  630000    0.5250374   -1.8782106   0.78676855   -1.0914421   0.14019391    11345.589     1000 
  632000   0.53854297   -1.8477302   0.80700664   -1.0407236   0.12781213    11506.791     1000 
  634000   0.53111224   -1.8933608   0.79587169   -1.0974892   0.13018159    11573.794     1000 
  636000   0.50806269   -1.9170838   0.76133194   -1.1557519   0.12767466    11416.589     1000 
  638000    0.5227694   -1.8331082   0.78336995   -1.0497382   0.12602578    11281.478     1000 
  640000    0.5098949   -1.8642712   0.76407751   -1.1001937    0.1328538    11443.148     1000 
  642000   0.52038365   -1.8715433    0.7797949   -1.0917484   0.12428496    11489.434     1000 
  644000   0.51906187   -1.8227323   0.77781422   -1.0449181   0.13530038    11383.757     1000 
  646000   0.51078298   -1.8794792   0.76540829   -1.1140709   0.12867178    11386.432     1000 
  648000   0.50783002   -1.8508413   0.76098328   -1.0898581    0.1165899    11539.123     1000 
  650000   0.51878313   -1.8746327   0.77739652   -1.0972362   0.13383983    11377.381     1000 
  652000   0.53477031     -1.84693   0.80135332   -1.0455767   0.14114512    11248.581     1000 
  654000    0.5248473   -1.9338148   0.78648367   -1.1473311   0.12809429    11369.054     1000 
  656000    0.5233509   -1.8393067   0.78424133   -1.0550654   0.13882042    11242.657     1000 
  658000   0.50370852   -1.8766629   0.75480722   -1.1218557   0.12049208    11508.403     1000 
  660000   0.53340045   -1.8500115   0.79930058   -1.0507109   0.13036951    11452.901     1000 
  662000   0.51610349   -1.8772464   0.77338108   -1.1038654   0.12263738    11389.014     1000 
  664000   0.50597239   -1.8648408   0.75819962   -1.1066412   0.12292483    11492.832     1000 
  666000    0.5099233   -1.8832097   0.76412006   -1.1190896   0.12345092    11480.061     1000 
  668000   0.52092217   -1.8334728   0.78060187   -1.0528709   0.11825348    11437.399     1000 
  670000   0.52470885   -1.9113114   0.78627621   -1.1250352   0.12345918    11440.191     1000 
  672000   0.52259504   -1.8111863   0.78310867   -1.0280776   0.13610674    11347.574     1000 
  674000   0.51366632   -1.9095498   0.76972898   -1.1398208   0.12641908    11363.728     1000 
  676000   0.49956288   -1.8159102   0.74859497   -1.0673152   0.13705106    11273.115     1000 
  678000   0.52502747   -1.8304653   0.78675366   -1.0437116   0.13610955    11350.764     1000 
  680000   0.50240124   -1.8724595   0.75284825   -1.1196112   0.12608527    11432.189     1000 
  682000   0.53392879   -1.9146917   0.80009229   -1.1145994   0.12158365    11512.328     1000 
  684000   0.51082832   -1.8697117   0.76547624   -1.1042355   0.13472383    11360.711     1000 
  686000   0.52709677   -1.8810906   0.78985451   -1.0912361   0.14048564    11386.664     1000 
  688000   0.51964795   -1.8364897   0.77869246   -1.0577973    0.1375565    11341.888     1000 
  690000   0.52628457   -1.8485924   0.78863743    -1.059955   0.12886592    11444.215     1000 
  692000   0.53224536   -1.8509447   0.79756967   -1.0533751   0.12903353    11376.684     1000 
  694000   0.50519922   -1.8460762   0.75704103   -1.0890352   0.13737059     11314.97     1000 
  696000    0.4932751   -1.8305402   0.73917273   -1.0913675    0.1275502    11454.444     1000 
  698000   0.52929797   -1.9441948     0.793153   -1.1510418   0.12214309    11525.108     1000 
  700000   0.51497431   -1.7936727   0.77168901   -1.0219837   0.14004216    11299.706     1000 
  702000   0.52220654   -1.8473771    0.7825265   -1.0648506    0.1190162    11499.277     1000 
  704000   0.52547106   -1.8191779   0.78741839   -1.0317595   0.13780465    11279.952     1000 
  706000   0.51467152   -1.8798805   0.77123528   -1.1086452   0.12977087    11383.363     1000 
  708000   0.49916068    -1.906827   0.74799227   -1.1588348   0.12824398    11400.575     1000 
  710000   0.51563849   -1.8471676   0.77268428   -1.0744834   0.13863596     11353.23     1000 
  712000   0.51996371   -1.8225965   0.77916562   -1.0434309   0.12693158    11324.573     1000 
  714000    0.5404229   -1.8662477   0.80982372    -1.056424     0.118688    11538.725     1000 
  716000   0.53836747   -1.8929536   0.80674366   -1.0862099   0.12376517    11467.271     1000 
  718000    0.4888467   -1.8660024   0.73253678   -1.1334657   0.12958766    11445.025     1000 
  720000   0.53408791   -1.8782834   0.80033073   -1.0779526   0.12206681     11504.78     1000 
  722000   0.53106594   -1.9015003   0.79580231    -1.105698     0.125704     11482.73     1000 
  724000   0.53613085   -1.8584859   0.80339207   -1.0550938   0.11969395    11604.542     1000 
  726000   0.52103163   -1.9388752   0.78076589   -1.1581094   0.12324127      11557.8     1000 
  728000   0.51963797   -1.8719042    0.7786775   -1.0932267   0.14179598    11444.532     1000 
  730000   0.52461303   -1.8518405   0.78613262   -1.0657079   0.13407515    11395.975     1000 
  732000   0.49626199   -1.8376621   0.74364859   -1.0940136   0.12833942    11393.909     1000 
  734000   0.51495575   -1.8441312   0.77166119     -1.07247   0.12750009    11407.717     1000 
  736000   0.50495066   -1.8421245   0.75666856    -1.085456   0.12096611    11500.916     1000 
  738000   0.52387828   -1.8776149    0.7850316   -1.0925833   0.13137124    11373.374     1000 
  740000    0.5438193   -1.8445172   0.81491322    -1.029604   0.14818446    11318.952     1000 
  742000   0.51716461   -1.8450007   0.77497117   -1.0700295   0.13262618    11424.655     1000 
  744000    0.5308568   -1.8216939   0.79548891    -1.026205   0.12787878    11349.566     1000 
  746000   0.50935642   -1.8372068   0.76327059   -1.0739362   0.12981602    11511.369     1000 
  748000   0.51028253   -1.8944989   0.76465836   -1.1298405    0.1300856    11427.655     1000 
  750000   0.51548058   -1.8638162   0.77244765   -1.0913685   0.12877768    11411.786     1000 
  752000   0.52811311   -1.8337665   0.79137749    -1.042389    0.1259351    11393.343     1000 
  754000   0.51646634    -1.854115   0.77392482   -1.0801902   0.13597796     11344.91     1000 
  756000   0.48444952   -1.8562402    0.7259476   -1.1302926   0.12891127    11575.634     1000 
  758000   0.51100203   -1.8686267   0.76573654   -1.1028902   0.13247031    11399.288     1000 
  760000   0.52109189   -1.8106995    0.7808562   -1.0298432   0.11497743    11426.669     1000 
  762000   0.50832907   -1.8476495   0.76173111   -1.0859184   0.12481001    11186.265     1000 
  764000    0.5168492   -1.8766743   0.77449853   -1.1021758   0.11799483    11504.849     1000 
  766000   0.51098294   -1.8996666   0.76570794   -1.1339586   0.12577773    11365.067     1000 
  768000   0.52646469   -1.8589903   0.78890733   -1.0700829   0.13172386    11342.273     1000 
  770000   0.51034326   -1.8435495   0.76474937   -1.0788001   0.13386671    11284.674     1000 
  772000   0.50772871   -1.8563326   0.76083148   -1.0955011     0.124044    11433.846     1000 
  774000   0.52806132   -1.8730822   0.79129989   -1.0817823   0.11916845    11464.942     1000 
  776000   0.52997766   -1.8260929   0.79417153   -1.0319214   0.13797951    11274.822     1000 
  778000   0.49093244    -1.840456   0.73566226   -1.1047938   0.13418381    11356.332     1000 
  780000   0.52374039   -1.8543187   0.78482498   -1.0694937   0.14629422    11230.004     1000 
  782000   0.52091831    -1.804672   0.78059609   -1.0240759   0.13060353     11302.76     1000 
  784000   0.49741523   -1.8451272   0.74537673   -1.0997505   0.13267727    11338.225     1000 
  786000   0.49960056   -1.8603474   0.74865144    -1.111696    0.1307347    11449.989     1000 
  788000   0.53490007   -1.8496039   0.80154775   -1.0480562   0.12640076    11510.214     1000 
  790000   0.52657734   -1.9013982   0.78907614   -1.1123221   0.13270306    11501.088     1000 
  792000    0.5250869   -1.8182214   0.78684272   -1.0313786   0.13505847    11303.251     1000 
  794000    0.5008682   -1.8871071     0.750551   -1.1365561   0.12730433    11302.131     1000 
  796000   0.51803423   -1.9017376    0.7762743   -1.1254633   0.12916317     11335.66     1000 
  798000   0.50064711   -1.8696664   0.75021969   -1.1194467   0.11656812    11451.314     1000 
  800000   0.51107033   -1.8803882   0.76583889   -1.1145493   0.11695165     11507.34     1000 
  802000   0.49531405   -1.8347425   0.74222811   -1.0925144   0.12389317    11439.484     1000 
  804000    0.5200717   -1.8607017   0.77932744   -1.0813743   0.12731482    11411.018     1000 
  806000   0.52844529    -1.903944   0.79187527   -1.1120688   0.11413301    11706.728     1000 
  808000   0.50868129   -1.8564075   0.76225892   -1.0941486   0.12688968    11395.002     1000 
  810000   0.52635202   -1.8545876    0.7887385   -1.0658491   0.11872995    11471.868     1000 
  812000   0.51046317   -1.8823686   0.76492907   -1.1174396   0.13026302    11374.633     1000 
  814000   0.51473515   -1.9297714   0.77133063   -1.1584407   0.13405448    11376.871     1000 
  816000   0.49164273   -1.8826891   0.73672663   -1.1459625   0.11830267    11551.218     1000 
  818000   0.50437495   -1.8855836   0.75580586   -1.1297778   0.13257566    11419.612     1000 
  820000   0.51699277    -1.842512   0.77471366   -1.0677984   0.12828873    11514.818     1000 
  822000   0.52838455   -1.8851886   0.79178425   -1.0934044   0.12173007    11575.442     1000 
  824000   0.50295399   -1.8411595   0.75367656    -1.087483   0.14650239    11345.932     1000 
  826000   0.51149276   -1.8973265    0.7664719   -1.1308546   0.13204824    11425.779     1000 
  828000   0.50531905   -1.8965597    0.7572206   -1.1393391   0.13928416    11282.551     1000 
  830000   0.51364416    -1.902291   0.76969577   -1.1325953   0.12199596    11562.491     1000 
  832000   0.51060351   -1.9125704   0.76513936   -1.1474311   0.11970639    11646.265     1000 
  834000   0.51898973   -1.8139729   0.77770612   -1.0362668   0.12818752    11591.612     1000 
  836000   0.51976844   -1.8350805     0.778873   -1.0562075   0.14571415     11260.29     1000 
  838000   0.54591349    -1.866011   0.81805137   -1.0479596   0.13361905    11464.154     1000 
  840000   0.50746827   -1.8970073    0.7604412   -1.1365661   0.14407377    11431.948     1000 
  842000   0.51047029   -1.8519382   0.76493974   -1.0869985   0.12429531    11380.597     1000 
  844000   0.51535747   -1.8696264   0.77226317   -1.0973632   0.14616285    11233.336     1000 
  846000   0.52093491   -1.8644958   0.78062097   -1.0838748   0.13722848    11341.528     1000 
  848000    0.5143778   -1.8474137   0.77079513   -1.0766186   0.12803461    11469.546     1000 
  850000   0.53789701   -1.7917965   0.80603867  -0.98575783    0.1244279    11365.293     1000 
  852000   0.52715399   -1.8610541   0.78994026   -1.0711138   0.13723502    11424.163     1000 
  854000   0.51985372   -1.9058266    0.7790008   -1.1268258   0.12643079    11444.752     1000 
  856000   0.50790915   -1.8703755   0.76110186   -1.1092736   0.12510924    11461.364     1000 
  858000   0.52416052   -1.8527049   0.78545454   -1.0672504    0.1329681    11318.453     1000 
  860000   0.51417085   -1.9099244   0.77048502   -1.1394394     0.123013    11501.764     1000 
  862000   0.52175748   -1.8555952   0.78185358   -1.0737417   0.13086728    11363.563     1000 
  864000   0.53766333   -1.8710667    0.8056885   -1.0653782   0.13550312    11331.034     1000 
  866000   0.51793952   -1.8612833   0.77613237    -1.085151    0.1286706    11348.782     1000 
  868000   0.52959512   -1.8752969   0.79359828   -1.0816986   0.13191939    11416.369     1000 
  870000   0.53060162   -1.8831301   0.79510652   -1.0880235   0.12043947     11574.89     1000 
  872000   0.54737285   -1.8891283   0.82023821   -1.0688901   0.12527074    11574.811     1000 
  874000   0.52413706   -1.8112198   0.78541938   -1.0258004   0.14026862    11215.532     1000 
  876000   0.53010429   -1.8261596   0.79436128   -1.0317983   0.13651316    11408.387     1000 
  878000   0.50607529   -1.8688574   0.75835383   -1.1105035   0.13089674    11373.968     1000 
  880000   0.50850609   -1.8506996   0.76199638   -1.0887032   0.12461704    11479.447     1000 
  882000   0.53614485   -1.8361618   0.80341305   -1.0327488   0.13384258    11231.218     1000 
  884000   0.51449677   -1.8457746   0.77097341   -1.0748012    0.1362292    11212.589     1000 
  886000   0.53949336   -1.8601379    0.8084308   -1.0517071   0.13902202    11292.351     1000 
  888000   0.51848776    -1.899342    0.7769539   -1.1223881   0.12867617    11353.929     1000 
  890000    0.5135825   -1.8878053   0.76960338   -1.1182019   0.12089587    11562.334     1000 
  892000   0.51329745   -1.8201262   0.76917622     -1.05095   0.12946026    11570.455     1000 
  894000   0.51168355   -1.8936004    0.7667578   -1.1268426    0.1416841    11424.088     1000 
  896000    0.5337694   -1.8482462   0.79985344   -1.0483927   0.13462674    11293.509     1000 
  898000    0.5305923    -1.847439   0.79509257   -1.0523464   0.13476175    11353.732     1000 
  900000   0.54038413   -1.7969874   0.80976561  -0.98722179   0.12867585    11401.511     1000 
  902000   0.51327758   -1.8582265   0.76914646     -1.08908   0.12522421    11538.825     1000 
  904000   0.52257967   -1.8498812   0.78308564   -1.0667955   0.13144053    11400.446     1000 
  906000   0.53263183    -1.821401    0.7981488   -1.0232522   0.12394656    11392.221     1000 
  908000   0.52217397   -1.8440966    0.7824777   -1.0616189   0.13124582    11406.488     1000 
  910000   0.50762827   -1.8405913   0.76068097   -1.0799103   0.12760763    11332.138     1000 
  912000    0.5112662   -1.8058296    0.7661324   -1.0396972   0.14022846    11230.703     1000 
  914000   0.52773296   -1.8618374   0.79080784   -1.0710296   0.13505798    11302.833     1000 
  916000   0.51625159   -1.8991109   0.77360301   -1.1255079   0.12299586    11527.777     1000 
  918000       0.5195   -1.8147396   0.77847075   -1.0362688   0.13371685    11403.758     1000 
  920000   0.50850883   -1.8580343   0.76200048   -1.0960338   0.12837305    11388.029     1000 
  922000   0.50871713   -1.8908449   0.76231261   -1.1285323   0.12563042    11381.911     1000 
  924000   0.52510315   -1.8509543   0.78686708   -1.0640872   0.13481653    11307.546     1000 
  926000   0.49926935   -1.8922543   0.74815512   -1.1440992   0.14053597    11257.268     1000 
  928000   0.50757939   -1.8543478   0.76060772   -1.0937401   0.13305262    11322.914     1000 
  930000     0.501345   -1.8640696   0.75126548   -1.1128041   0.13348224    11291.498     1000 
  932000   0.52333483    -1.876472   0.78421724   -1.0922547   0.14238469    11311.853     1000 
  934000   0.53313245   -1.8665616   0.79889897   -1.0676626   0.11687818    11530.284     1000 
  936000   0.54099189   -1.8638242   0.81067634   -1.0531478    0.1377517    11290.707     1000 
  938000   0.51125835   -1.8821452   0.76612063   -1.1160246   0.11705151    11501.312     1000 
  940000   0.49860626   -1.8300491   0.74716147   -1.0828876   0.11838891    11403.834     1000 
  942000   0.53051668   -1.8517082   0.79497925   -1.0567289   0.12811516    11447.829     1000 
  944000   0.50654815    -1.812379   0.75906241   -1.0533166   0.14065392    11292.467     1000 
  946000   0.53340797   -1.8593506   0.79931184   -1.0600388   0.12775802    11321.704     1000 
  948000    0.5248045   -1.9072249   0.78641954   -1.1208053   0.13302111    11353.094     1000 
  950000   0.54522739   -1.8634711   0.81702325   -1.0464479   0.13219928    11633.364     1000 
  952000   0.55336254   -1.8605678   0.82921377    -1.031354   0.13743721    11349.354     1000 
  954000    0.4957371   -1.9011341   0.74286204   -1.1582721   0.12788808    11371.578     1000 
  956000   0.51698551   -1.7938478   0.77470279    -1.019145   0.13405124    11117.212     1000 
  958000    0.5275663   -1.8510181    0.7905581     -1.06046   0.12848233    11392.798     1000 
  960000   0.52206529   -1.8696106   0.78231484   -1.0872957   0.13829211    11354.626     1000 
  962000   0.50055268   -1.8539869   0.75007819   -1.1039087   0.12917531    11399.243     1000 
  964000   0.52050061   -1.8908484   0.77997016   -1.1108783   0.12815937    11339.882     1000 
  966000   0.50663537   -1.8771853    0.7591931   -1.1179922   0.13230795    11365.155     1000 
  968000   0.54059969    -1.906937   0.81008864   -1.0968483   0.13197085    11507.707     1000 
  970000   0.52991156   -1.8529324   0.79407247     -1.05886   0.13009555    11475.438     1000 
  972000   0.53999103   -1.8632232   0.80917656   -1.0540466    0.1440486    11250.301     1000 
  974000   0.51538856   -1.8290346   0.77230976   -1.0567248   0.11284037    11528.394     1000 
  976000   0.51855616   -1.8324776    0.7770564   -1.0554212   0.13438123    11344.532     1000 
  978000   0.52526923   -1.8736655   0.78711594   -1.0865495   0.13122149    11450.292     1000 
  980000   0.52839311   -1.8624227   0.79179708   -1.0706256     0.137642    11409.931     1000 
  982000   0.50580868   -1.8399224   0.75795431   -1.0819681    0.1170731    11486.566     1000 
  984000   0.51566294    -1.883557   0.77272091   -1.1108361    0.1195123    11480.205     1000 
  986000   0.51709732    -1.838818   0.77487033   -1.0639477   0.12801081    11328.915     1000 
  988000   0.49847209   -1.7995458   0.74696042   -1.0525854   0.14595951    11113.833     1000 
  990000    0.5302411   -1.8937835   0.79456629   -1.0992172   0.12024937    11424.921     1000 
  992000   0.53773756   -1.8368354   0.80579973   -1.0310356   0.13851296    11352.384     1000 
  994000    0.5139059   -1.9030246   0.77008799   -1.1329366   0.12887334     11487.18     1000 
  996000   0.53561017    -1.826854   0.80261185   -1.0242421   0.13165402    11332.257     1000 
  998000   0.51450775   -1.8621971   0.77098987   -1.0912072    0.1438314    11362.654     1000 
 1000000   0.48520769   -1.8569279   0.72708372   -1.1298442   0.11612953    11565.879     1000 
 1002000   0.51871264   -1.8504661   0.77729089   -1.0731752   0.13049277    11245.843     1000 
 1004000   0.52136266   -1.8761946   0.78126195   -1.0949327   0.12071988    11550.671     1000 
 1006000   0.51553293   -1.8825013   0.77252609   -1.1099752   0.13497655    11165.141     1000 
 1008000   0.53449629   -1.8287343    0.8009427   -1.0277916   0.13477327    11330.093     1000 
 1010000   0.51968019   -1.8280891   0.77874076   -1.0493483   0.11774018    11413.894     1000 
 1012000   0.51384268   -1.8823619   0.76999326   -1.1123687   0.12335705    11499.811     1000 
 1014000   0.51815478   -1.8837864   0.77645494   -1.1073314    0.1362455    11507.847     1000 
 1016000    0.5035076     -1.88513   0.75450613   -1.1306239   0.12729559    11395.245     1000 
 1018000   0.53095496   -1.8452675     0.795636   -1.0496315   0.12646202    11419.001     1000 
 1020000   0.53289986   -1.8525162   0.79855045   -1.0539657   0.13395622    11468.352     1000 
 1022000   0.50617432   -1.8434182   0.75850221    -1.084916   0.13063924     11360.15     1000 
 1024000   0.50313995   -1.8875315   0.75395522   -1.1335763    0.1359803    11430.604     1000 
 1026000   0.52439445   -1.8446567   0.78580509   -1.0588516   0.13668021    11260.894     1000 
 1028000   0.52276502   -1.8456279   0.78336338   -1.0622645   0.13601656    11388.685     1000 
 1030000   0.51616491   -1.9012702   0.77347312   -1.1277971   0.12401123     11394.61     1000 
 1032000   0.50794807   -1.8661716   0.76116018   -1.1050114   0.12885655    11426.959     1000 
 1034000   0.51169983   -1.8400985    0.7667822   -1.0733163   0.12709922      11318.2     1000 
 1036000   0.51541185   -1.9149285   0.77234465   -1.1425838   0.11617805    11513.789     1000 
 1038000   0.53672273    -1.902111   0.80427901    -1.097832   0.12555496    11530.226     1000 
 1040000   0.55029706   -1.8594768   0.82462014   -1.0348567    0.1286196    11392.527     1000 
 1042000   0.52195475   -1.8526694    0.7821492   -1.0705202   0.13067338    11373.567     1000 
 1044000   0.52402763    -1.859429    0.7852554   -1.0741736   0.13123144    11261.416     1000 
 1046000   0.49060019   -1.8378392   0.73516439   -1.1026748   0.12584063    11401.306     1000 
 1048000   0.50010082   -1.8867082   0.74940108   -1.1373071   0.14381072    11249.602     1000 
 1050000   0.51481405   -1.9002127   0.77144885   -1.1287638   0.12876409    11351.796     1000 
 1052000   0.51561337    -1.849126   0.77264664   -1.0764793   0.14275085    11304.232     1000 
 1054000    0.5297965   -1.8980042   0.79390006   -1.1041042   0.12887821    11521.451     1000 
 1056000   0.54095433   -1.8531508   0.81062006   -1.0425308   0.14026093    11192.467     1000 
 1058000    0.5059859   -1.8579346   0.75821987   -1.0997147   0.14087598    11306.769     1000 
 1060000   0.53149037   -1.8380677   0.79643832   -1.0416293   0.12223831    11501.507     1000 
 1062000   0.53822598   -1.7987018   0.80653163  -0.99217022   0.13103703    11382.789     1000 
 1064000   0.50775447   -1.8982228   0.76087007   -1.1373527    0.1310148    11366.657     1000 
 1066000   0.54436997   -1.8555686   0.81573839   -1.0398302   0.12604856    11357.496     1000 
 1068000   0.50348573     -1.84346   0.75447337   -1.0889866   0.13271163    11399.605     1000 
 1070000   0.52628904   -1.8064867   0.78864412   -1.0178426   0.12662782    11349.318     1000 
 1072000   0.51214174   -1.8527046   0.76744439   -1.0852602   0.13270514    11312.514     1000 
 1074000   0.51433781   -1.8561603   0.77073522   -1.0854251   0.12542573    11346.891     1000 
 1076000    0.5048154   -1.8613069   0.75646588    -1.104841   0.12995291    11439.135     1000 
 1078000    0.5362702   -1.8370185    0.8036009   -1.0334176   0.13364096    11200.286     1000 
 1080000   0.50990237   -1.8516373   0.76408871   -1.0875486   0.14199264     11218.33     1000 
 1082000   0.51858774   -1.8927756   0.77710373   -1.1156719    0.1289884    11430.621     1000 
 1084000   0.50073572   -1.8587806   0.75035248   -1.1084281    0.1264551    11425.576     1000 
 1086000   0.50328078     -1.90412   0.75416625   -1.1499538   0.13093046    11543.659     1000 
 1088000    0.5410009   -1.8427125   0.81068984   -1.0320226   0.14022416    11293.644     1000 
 1090000   0.50170142   -1.8760395   0.75179957     -1.12424   0.12487003    11476.927     1000 
 1092000   0.50597241   -1.8406282   0.75819966   -1.0824285   0.13675319     11416.15     1000 
 1094000   0.52832481   -1.8813811   0.79169473   -1.0896864   0.12301033    11508.809     1000 
 1096000   0.53639029   -1.8257945   0.80378084   -1.0220137   0.14920607    11231.755     1000 
 1098000   0.51401451   -1.8730072   0.77025074   -1.1027565   0.12554728    11568.149     1000 
 1100000   0.53928275   -1.8495562   0.80811521    -1.041441   0.12729419     11510.38     1000 
 1102000   0.52355716   -1.8537587   0.78455041   -1.0692083   0.13432088    11305.603     1000 
 1104000   0.51833394   -1.8587018   0.77672341   -1.0819784   0.12192357    11637.552     1000 
 1106000   0.53137536   -1.8734757   0.79626598   -1.0772097   0.12019603    11594.031     1000 
 1108000   0.53239462   -1.8733928   0.79779334   -1.0755994   0.13433173    11593.276     1000 
 1110000   0.48179471   -1.8615624   0.72196938    -1.139593   0.12160752     11491.01     1000 
 1112000   0.52158242   -1.8490828   0.78159126   -1.0674915   0.13170287    11386.214     1000 
 1114000   0.50690969    -1.857959   0.75960418   -1.0983548   0.13059158    11329.343     1000 
 1116000   0.52689474   -1.8694319   0.78955176   -1.0798801   0.13708156    11397.213     1000 
 1118000   0.53160488   -1.8714169   0.79660992    -1.074807   0.12667608    11454.011     1000 
 1120000   0.50928961   -1.8587305   0.76317048     -1.09556   0.12858529     11493.08     1000 
 1122000   0.52260677     -1.85813   0.78312624   -1.0750038   0.13439064     11445.83     1000 
 1124000   0.51409399    -1.809781   0.77036984   -1.0394111   0.12633151    11366.497     1000 
 1126000   0.51469771   -1.9059578   0.77127451   -1.1346833   0.12665226    11510.332     1000 
 1128000    0.5225168   -1.8685345   0.78299143    -1.085543   0.12849728     11409.28     1000 
 1130000   0.51494409   -1.9092356   0.77164372   -1.1375919   0.11875326    11466.837     1000 
 1132000   0.55435372   -1.8818358   0.83069905   -1.0511367    0.1318755    11358.606     1000 
 1134000     0.524723   -1.8733512   0.78629742   -1.0870538   0.12962356     11403.85     1000 
 1136000   0.53030584   -1.8790291    0.7946633   -1.0843658   0.13725947    11352.079     1000 
 1138000   0.50759197   -1.8676189   0.76062656   -1.1069923   0.13914602    11176.888     1000 
 1140000   0.52735171   -1.8712823   0.79023654   -1.0810457   0.14421538    11390.662     1000 
 1142000   0.51641151   -1.8852534   0.77384264   -1.1114108   0.13206711    11429.219     1000 
 1144000   0.53109842   -1.8368475   0.79585099   -1.0409965   0.11987351    11588.334     1000 
 1146000   0.53326563   -1.8632167   0.79909854   -1.0641182   0.12486501    11480.782     1000 
 1148000   0.50757345   -1.8366057   0.76059881   -1.0760069   0.13226039    11460.033     1000 
 1150000   0.51633279   -1.8133514   0.77372469   -1.0396268   0.13120361    11351.173     1000 
 1152000   0.53948266   -1.8566255   0.80841477   -1.0482107   0.12828474    11376.644     1000 
 1154000   0.50577619   -1.8983312   0.75790562   -1.1404256   0.12946865    11496.401     1000 
 1156000   0.49974577   -1.8914451   0.74886903   -1.1425761   0.11973741     11453.04     1000 
 1158000   0.52190306   -1.8807078   0.78207174    -1.098636   0.13454497    11376.267     1000 
 1160000    0.5128546   -1.8758396   0.76851262   -1.1073269   0.12245842    11448.701     1000 
 1162000    0.5088421   -1.8617204   0.76249988   -1.0992206   0.14085677     11314.35     1000 
 1164000   0.52852014    -1.902732   0.79198742   -1.1107446   0.13386254    11394.515     1000 
 1166000   0.51823853   -1.8468211   0.77658043   -1.0702406   0.13252786    11423.175     1000 
 1168000   0.54004319   -1.7916233   0.80925472  -0.98236856    0.1568185    11113.314     1000 
 1170000   0.51523237   -1.9049065   0.77207571   -1.1328308   0.12622882    11444.958     1000 
 1172000   0.53174416   -1.8506579   0.79681862   -1.0538393   0.13481264    11303.644     1000 
 1174000   0.52101424   -1.8318033   0.78073983   -1.0510634   0.13497621    11346.793     1000 
 1176000    0.5277893   -1.8380546   0.79089227   -1.0471623   0.13254336    11394.461     1000 
 1178000   0.52362705   -1.8964826   0.78465513   -1.1118275   0.11422747    11558.551     1000 
 1180000   0.51043406   -1.8777442   0.76488544   -1.1128587   0.11791429    11580.242     1000 
 1182000   0.54574475   -1.8511394   0.81779851   -1.0333409   0.12459832    11592.552     1000 
 1184000   0.51625519   -1.8964927   0.77360841   -1.1228843   0.12752631     11473.04     1000 
 1186000   0.52473181   -1.8797607   0.78631061   -1.0934501   0.12285478    11501.722     1000 
 1188000   0.53034239   -1.8654031   0.79471807    -1.070685   0.12631842    11503.162     1000 
 1190000    0.5253211    -1.825447   0.78719368   -1.0382533   0.13929883    11247.753     1000 
 1192000   0.52533845   -1.8207108   0.78721967   -1.0334911   0.12875809    11313.635     1000 
 1194000   0.52114971   -1.8504339   0.78094285    -1.069491   0.12554132    11458.868     1000 
 1196000   0.52394721   -1.8742347   0.78513489   -1.0890998   0.12281623    11420.282     1000 
 1198000    0.5005227   -1.8611593   0.75003327    -1.111126   0.11687406    11474.119     1000 
 1200000   0.52273477   -1.8325698   0.78331806   -1.0492517   0.12963208    11362.938     1000 
 1202000   0.49447933   -1.8873695   0.74097728   -1.1463922   0.12685977    11429.874     1000 
 1204000   0.50294182    -1.870162   0.75365831   -1.1165036   0.13486748    11391.251     1000 
 1206000   0.51249865   -1.8620494   0.76797923   -1.0940701   0.13509495    11386.165     1000 
 1208000   0.52842666   -1.8718408   0.79184734   -1.0799934    0.1367878    11395.301     1000 
 1210000   0.51972012   -1.8225091    0.7788006   -1.0437085   0.12079785    11457.231     1000 
 1212000    0.5253668   -1.8801428   0.78726215   -1.0928807   0.12737035    11377.224     1000 
 1214000   0.51064845   -1.8221095    0.7652067   -1.0569028   0.13657893    11168.609     1000 
 1216000   0.51482995   -1.9017578   0.77147269   -1.1302851   0.13058681    11443.643     1000 
 1218000   0.54544144   -1.8421697     0.817344   -1.0248257   0.14047202    11373.064     1000 
 1220000   0.51902818    -1.904032   0.77776373   -1.1262682   0.12232244    11420.542     1000 
 1222000   0.52470768   -1.8836314   0.78627446    -1.097357   0.12867899    11479.319     1000 
 1224000   0.52612013   -1.9136685   0.78839101   -1.1252774    0.1364285    11426.878     1000 
 1226000   0.51175568   -1.9311635   0.76686589   -1.1642976   0.13386965    11369.197     1000 
 1228000   0.50061906   -1.8245637   0.75017766    -1.074386   0.12430304    11565.901     1000 
 1230000   0.49981864   -1.8711507   0.74897824   -1.1221725   0.13447952    11242.522     1000 
 1232000   0.51302497   -1.8380153   0.76876791   -1.0692474   0.13852881    11341.718     1000 
 1234000   0.54740402   -1.8558162   0.82028493   -1.0355313   0.13487088    11447.927     1000 
 1236000   0.52105878   -1.8741563   0.78080659   -1.0933498   0.13888652    11366.461     1000 
 1238000   0.52794395   -1.8585311   0.79112401   -1.0674071   0.13845157    11351.074     1000 
 1240000   0.53260375   -1.8487593   0.79810671   -1.0506526   0.12823897    11419.702     1000 
 1242000   0.51352697   -1.8859056   0.76952017   -1.1163855   0.13241093    11479.005     1000 
 1244000    0.5057096   -1.8836306   0.75780583   -1.1258248   0.12952551    11468.288     1000 
 1246000    0.5119756   -1.8782617   0.76719543   -1.1110662   0.13448976    11371.564     1000 
 1248000   0.54074394     -1.89413   0.81030479   -1.0838253   0.13126026    11406.695     1000 
 1250000   0.52895637   -1.8550691   0.79264112    -1.062428   0.14116493    11158.534     1000 
 1252000   0.51525564   -1.8290138   0.77211058   -1.0569032   0.12168508    11427.947     1000 
 1254000   0.52852478   -1.8251243   0.79199438   -1.0331299   0.13367118    11303.914     1000 
 1256000   0.53626747   -1.8407313    0.8035968   -1.0371345   0.13844655     11323.15     1000 
 1258000     0.519147   -1.8640573   0.77794178   -1.0861156   0.14153188    11275.303     1000 
 1260000    0.5224908   -1.8651555   0.78295247    -1.082203   0.12776101    11382.454     1000 
 1262000   0.50770486   -1.8257322   0.76079573   -1.0649365   0.12355499    11459.079     1000 
 1264000   0.51855228   -1.9040653   0.77705059   -1.1270147   0.12751754    11535.781     1000 
 1266000   0.49622125   -1.9434436   0.74358754   -1.1998561    0.1358593    11289.399     1000 
 1268000   0.51626751   -1.9222186   0.77362687   -1.1485917   0.12634685    11513.174     1000 
 1270000   0.54684692   -1.8917114   0.81945011   -1.0722613   0.13036611     11580.18     1000 
 1272000   0.51468178   -1.9164201   0.77125065   -1.1451694   0.12767883    11497.803     1000 
 1274000   0.52121998   -1.8396745   0.78104814   -1.0586264   0.12527559    11256.255     1000 
 1276000   0.51379293   -1.8344996    0.7699187   -1.0645809    0.1274016    11408.688     1000 
 1278000   0.52040092   -1.8857892   0.77982078   -1.1059684   0.12203957     11595.68     1000 
 1280000   0.52519307   -1.9152993   0.78700181   -1.1282975   0.11249971    11775.908     1000 
 1282000   0.51427624   -1.8669545   0.77064295   -1.0963116   0.13338573    11362.325     1000 
 1284000   0.53433638   -1.8640702   0.80070306   -1.0633671   0.12703078    11365.415     1000 
 1286000   0.50224512   -1.8262185   0.75261431   -1.0736042   0.12301668    11541.756     1000 
 1288000   0.52041543    -1.875203   0.77984253   -1.0953604   0.13892445    11309.597     1000 
 1290000   0.49776624   -1.8408939   0.74590271   -1.0949912   0.11982726    11506.285     1000 
 1292000   0.50359153   -1.8338882   0.75463191   -1.0792563    0.1348402    11428.613     1000 
 1294000   0.50940508   -1.8794853   0.76334352   -1.1161418   0.12239671    11447.229     1000 
 1296000   0.54257347   -1.8672673   0.81304634    -1.054221   0.13291258    11370.802     1000 
 1298000   0.53802268   -1.8640881   0.80622698   -1.0578611   0.13180108    11387.625     1000 
 1300000   0.53171265   -1.8208457    0.7967714   -1.0240743   0.12969266    11431.439     1000 
 1302000   0.51309793   -1.8765443   0.76887726    -1.107667   0.13160859    11386.703     1000 
 1304000   0.52547842   -1.8374148   0.78742941   -1.0499854   0.13468944     11243.81     1000 
 1306000     0.536102   -1.8746753   0.80334884   -1.0713265   0.12888024    11401.938     1000 
 1308000   0.51028945   -1.7947749   0.76466873   -1.0301062   0.13375998    11276.059     1000 
 1310000   0.51733522   -1.8670524   0.77522682   -1.0918256   0.13294132    11422.284     1000 
 1312000   0.55141778   -1.8427612   0.82629954   -1.0164617   0.13333872    11386.173     1000 
 1314000   0.54092686   -1.8116632    0.8105789   -1.0010843   0.12325966    11467.435     1000 
 1316000   0.49802124   -1.9062524   0.74628483   -1.1599676   0.12117503    11550.588     1000 
 1318000    0.5335047   -1.8643027    0.7994568   -1.0648459   0.13168409     11421.55     1000 
 1320000    0.5222914   -1.8380809   0.78265367   -1.0554272   0.13218635    11352.884     1000 
 1322000   0.51851482   -1.8628176   0.77699446   -1.0858232   0.12260059    11570.907     1000 
 1324000   0.53582132   -1.9043017   0.80292825   -1.1013734    0.1284645    11577.045     1000 
 1326000   0.52570513   -1.8652292   0.78776914   -1.0774601   0.13819962    11196.081     1000 
 1328000   0.50838322   -1.8384466   0.76181225   -1.0766343   0.12917714    11532.592     1000 
 1330000   0.53198065   -1.8730407     0.797173   -1.0758677   0.13077928    11324.397     1000 
 1332000   0.50129267   -1.8310162   0.75118707   -1.0798291   0.13017512    11309.864     1000 
 1334000   0.51389109   -1.8567055    0.7700658   -1.0866397   0.12409659    11433.802     1000 
 1336000   0.52684116    -1.871115   0.78947148   -1.0816435   0.13403209    11388.345     1000 
 1338000   0.51439075   -1.8667142   0.77081455   -1.0958997   0.12749931    11512.349     1000 
 1340000   0.53520101   -1.9028456   0.80199872   -1.1008469   0.13236218    11453.587     1000 
 1342000   0.50229743   -1.8565332   0.75269269   -1.1038405   0.13063657    11412.064     1000 
 1344000   0.53406921   -1.8531456   0.80030271   -1.0528429   0.13182868    11412.396     1000 
 1346000   0.51416065   -1.8599338   0.77046973   -1.0894641    0.1243905    11502.338     1000 
 1348000   0.52605695   -1.8580381   0.78829633   -1.0697418    0.1334494    11454.594     1000 
 1350000   0.52984514   -1.8323086   0.79397294   -1.0383356   0.12019002     11476.18     1000 
 1352000   0.51722023   -1.8515971   0.77505452   -1.0765425   0.13278669    11354.383     1000 
 1354000   0.52054009   -1.9117862   0.78002933   -1.1317569   0.13233217    11435.758     1000 
 1356000   0.53180239   -1.8712285   0.79690588   -1.0743226   0.13326373     11455.74     1000 
 1358000   0.51385042   -1.8596198   0.77000486   -1.0896149   0.13949777    11360.552     1000 
 1360000   0.52755236   -1.8324823   0.79053721   -1.0419451   0.13242388    11360.864     1000 
 1362000   0.51458231   -1.8790945   0.77110159   -1.1079929   0.13442372    11429.005     1000 
 1364000   0.49192673    -1.870018   0.73715221   -1.1328658   0.14004302    11273.946     1000 
 1366000   0.51442909   -1.8968387   0.77087199   -1.1259667   0.12931554    11333.556     1000 
 1368000   0.52586598   -1.8449566   0.78801016   -1.0569465   0.12611359    11332.083     1000 
 1370000   0.49981891    -1.923302   0.74897863   -1.1743234   0.12883089    11484.104     1000 
 1372000   0.50174171   -1.8934066   0.75185995   -1.1415467   0.13406628    11444.322     1000 
 1374000   0.50824599   -1.8857542   0.76160661   -1.1241476   0.12545675    11457.347     1000 
 1376000   0.51020919   -1.8844859   0.76454846   -1.1199374   0.12396873    11442.846     1000 
 1378000   0.50899739   -1.8476143   0.76273259   -1.0848817   0.13714289    11216.246     1000 
 1380000   0.52268207   -1.8177392   0.78323908   -1.0345001   0.12924224    11406.356     1000 
 1382000    0.5166741   -1.8904585   0.77423613   -1.1162224   0.12494082    11597.299     1000 
 1384000   0.53668153   -1.8954604   0.80421727   -1.0912431   0.12743705    11542.321     1000 
 1386000   0.50233751   -1.8074593   0.75275277   -1.0547065   0.14079704    11126.081     1000 
 1388000   0.50571298   -1.8720614    0.7578109   -1.1142505   0.12716102    11328.787     1000 
 1390000   0.54465061   -1.8850861   0.81615893   -1.0689272   0.13124036    11461.876     1000 
 1392000   0.51670087   -1.8593405   0.77427625   -1.0850643   0.12974148    11372.729     1000 
 1394000   0.51657477   -1.8916922    0.7740873   -1.1176049   0.11491188    11668.791     1000 
 1396000   0.51672426     -1.90907    0.7743113   -1.1347587   0.13163321    11471.394     1000 
 1398000    0.5139988   -1.8383605    0.7702272   -1.0681333   0.12235596    11426.374     1000 
 1400000   0.51688913   -1.8615833   0.77455837    -1.087025   0.13187577    11382.794     1000 
 1402000    0.4986197   -1.8514021   0.74718161   -1.1042205   0.13755466        11303     1000 
 1404000   0.51827384   -1.9183748   0.77663335   -1.1417414    0.1307223     11508.18     1000 
 1406000   0.52148886   -1.8981575   0.78145105   -1.1167065    0.1422368    11175.882     1000 
 1408000   0.52627774   -1.8066058    0.7886272   -1.0179786    0.1289543    11348.544     1000 
 1410000   0.53754923   -1.8897184   0.80551752   -1.0842009    0.1360321    11311.662     1000 
 1412000   0.52749665   -1.8397666   0.79045373   -1.0493129   0.12582026    11320.556     1000 
 1414000   0.50766362   -1.8665899   0.76073394    -1.105856   0.11982345    11452.019     1000 
 1416000   0.52283036   -1.8504249   0.78346129   -1.0669637    0.1413005    11264.459     1000 
 1418000   0.55008861   -1.9183364   0.82430778   -1.0940287   0.14060807    11392.129     1000 
 1420000    0.5161854   -1.8620974   0.77350382   -1.0885936    0.1220987    11506.485     1000 
 1422000   0.52469622   -1.8970071   0.78625728   -1.1107499   0.13271532    11547.971     1000 
 1424000   0.49938702   -1.8853401   0.74833144   -1.1370086   0.13385042     11587.65     1000 
 1426000   0.53739295   -1.8507055   0.80528333   -1.0454221   0.13556541     11362.36     1000 
 1428000   0.50836137    -1.856099   0.76177951   -1.0943195   0.13315179    11358.507     1000 
 1430000   0.52081227   -1.9147776   0.78043719   -1.1343404   0.11966172    11420.453     1000 
 1432000   0.51417257   -1.9315789   0.77048759   -1.1610913   0.13895187    11377.184     1000 
 1434000   0.54196946   -1.8627724   0.81214123   -1.0506312   0.14472014    11299.996     1000 
 1436000   0.50679194    -1.933943   0.75942773   -1.1745153   0.12873073    11481.798     1000 
 1438000   0.50364266    -1.851388   0.75470853   -1.0966795   0.13191886    11396.089     1000 
 1440000   0.53228035   -1.8579147    0.7976221   -1.0602926   0.13195161    11361.841     1000 
 1442000   0.52183083   -1.8537385   0.78196349    -1.071775   0.12052021    11321.656     1000 
 1444000   0.51326984   -1.8641701   0.76913485   -1.0950353   0.12817423    11427.545     1000 
 1446000   0.50381827   -1.8161824   0.75497168   -1.0612107   0.12974174     11450.74     1000 
 1448000   0.51997016   -1.8615315   0.77917529   -1.0823562   0.13531781    11319.132     1000 
 1450000   0.52949352   -1.8838897   0.79344605   -1.0904436   0.11716426    11447.807     1000 
 1452000   0.52416676   -1.8815391    0.7854639   -1.0960752   0.13228123    11365.886     1000 
 1454000   0.52662701   -1.8163548   0.78915057   -1.0272043   0.13304379    11327.562     1000 
 1456000    0.5598542   -1.8477727   0.83894152   -1.0088312   0.13541206    11340.558     1000 
 1458000    0.5305153    -1.905834   0.79497718   -1.1108568   0.13454291    11368.749     1000 
 1460000   0.52506626   -1.8260831   0.78681179   -1.0392713   0.13228439    11425.354     1000 
 1462000   0.52983902   -1.8865689   0.79396377   -1.0926051    0.1158473     11657.64     1000 
 1464000   0.51964807   -1.8379003   0.77869263   -1.0592077   0.13454013    11397.293     1000 
 1466000    0.5431029   -1.8148688    0.8138397   -1.0010291    0.1374977    11260.422     1000 
 1468000   0.52472229   -1.8523854   0.78629635    -1.066089   0.13846449     11343.53     1000 
 1470000   0.50809298   -1.8145226   0.76137732   -1.0531453   0.13487345    11276.952     1000 
 1472000   0.52950672   -1.8261016   0.79346582   -1.0326358   0.12706744    11403.848     1000 
 1474000   0.50687992   -1.8664035   0.75955956    -1.106844   0.12992508    11394.383     1000 
 1476000    0.5283758   -1.8733351   0.79177114   -1.0815639   0.13308033    11274.671     1000 
 1478000   0.51850252   -1.8701886   0.77697602   -1.0932126   0.12368804    11551.722     1000 
 1480000   0.53157612   -1.8805445   0.79656681   -1.0839777   0.11367141    11547.976     1000 
 1482000    0.5185843   -1.8619879   0.77709857   -1.0848893   0.11702124    11513.393     1000 
 1484000   0.53739587   -1.8393621   0.80528771   -1.0340744   0.13884383    11359.357     1000 
 1486000   0.52202423   -1.8745956    0.7822533   -1.0923423   0.12824046    11495.608     1000 
 1488000   0.53960516   -1.8648083   0.80859833   -1.0562099   0.13281081    11393.647     1000 
 1490000   0.52716948   -1.8942172   0.78996347   -1.1042538   0.13850481    11403.004     1000 
 1492000   0.52990424   -1.8410432   0.79406151   -1.0469817   0.13613574    11276.987     1000 
 1494000   0.52643625   -1.9156147   0.78886472     -1.12675   0.11488777    11560.296     1000 
 1496000   0.51850705   -1.8817785   0.77698281   -1.1047956   0.13428149    11508.009     1000 
 1498000     0.518858   -1.8327299   0.77750871   -1.0552212   0.14729185    11176.445     1000 
 1500000   0.52118538    -1.837264    0.7809963   -1.0562677   0.11229302    11477.567     1000 
 1502000   0.54616566   -1.9240326   0.81842925   -1.1056033    0.1344787    11465.174     1000 
 1504000   0.51028006   -1.8782826   0.76465467   -1.1136279   0.13462598    11434.286     1000 
 1506000   0.48964502   -1.8448752   0.73373306   -1.1111422    0.1290276    11378.567     1000 
 1508000   0.51191272   -1.8765293   0.76710121   -1.1094281   0.12233174     11598.43     1000 
 1510000   0.52945757   -1.8638438   0.79339216   -1.0704516   0.12324865    11423.415     1000 
 1512000   0.52363286   -1.8765176   0.78466385   -1.0918537   0.12748311    11482.901     1000 
 1514000   0.51400313    -1.866358   0.77023369   -1.0961243   0.12713065    11484.367     1000 
 1516000   0.50612372   -1.8580065    0.7584264   -1.0995801   0.12422671    11421.802     1000 
 1518000   0.50246577    -1.858451   0.75294495    -1.105506   0.13082238    11385.524     1000 
 1520000   0.52062811   -1.8435917   0.78016123   -1.0634304   0.12706159    11404.821     1000 
 1522000   0.51204798   -1.8877609   0.76730389    -1.120457     0.130189    11391.977     1000 
 1524000   0.52206016   -1.8277287   0.78230714   -1.0454216   0.14097708    11290.277     1000 
 1526000   0.51308746   -1.8270969   0.76886156   -1.0582354   0.13686566    11323.008     1000 
 1528000   0.54934846   -1.8301989   0.82319867   -1.0070003   0.13365083    11339.113     1000 
 1530000   0.50105379   -1.8504802    0.7508291   -1.0996511   0.13577192    11345.879     1000 
 1532000    0.5229579   -1.9183714   0.78365241    -1.134719   0.12662667    11450.212     1000 
 1534000   0.52691314   -1.8471242   0.78957934   -1.0575449   0.13041968    11500.281     1000 
 1536000   0.51815285   -1.8745348   0.77645205   -1.0980828   0.13068035    11500.833     1000 
 1538000   0.53396683   -1.8717797    0.8001493   -1.0716304   0.12542774    11459.331     1000 
 1540000   0.53040528   -1.8704422   0.79481232   -1.0756299   0.12009918    11502.277     1000 
 1542000   0.50507186   -1.8755648   0.75685018   -1.1187146   0.12169108    11527.627     1000 
 1544000   0.49361468   -1.8455758    0.7396816   -1.1058942   0.12856487    11356.378     1000 
 1546000   0.51895821   -1.8429361   0.77765888   -1.0652772   0.12581825    11440.321     1000 
 1548000    0.4966077   -1.8386571   0.74416663   -1.0944904   0.12001667    11452.179     1000 
 1550000   0.50499803   -1.8391786   0.75673955    -1.082439   0.13139222    11423.291     1000 
 1552000     0.509687   -1.8618949   0.76376596    -1.098129   0.12802282    11342.928     1000 
 1554000      0.52082    -1.853711   0.78044878   -1.0732622   0.13012354    11370.833     1000 
 1556000   0.50047409   -1.8839455   0.74996042   -1.1339851    0.1197877    11438.075     1000 
 1558000   0.53514283   -1.8381909   0.80191153   -1.0362794   0.13405256    11326.687     1000 
 1560000   0.52462694   -1.8682886   0.78615348   -1.0821352   0.14630543    11229.804     1000 
 1562000   0.54545846    -1.802424   0.81736951  -0.98505451   0.13275068    11307.257     1000 
 1564000   0.50277345   -1.8382531   0.75340602    -1.084847   0.13355476    11395.651     1000 
 1566000   0.51784271   -1.8422049   0.77598731   -1.0662176   0.12687144    11493.395     1000 
 1568000   0.51865549   -1.8611947   0.77720525   -1.0839894   0.12733868    11546.197     1000 
 1570000   0.53215721   -1.8955393   0.79743758   -1.0981017   0.13014953    11421.261     1000 
 1572000   0.50681279   -1.8712757   0.75945896   -1.1118167   0.13243618    11465.541     1000 
 1574000   0.52211788   -1.8341693   0.78239364   -1.0517757   0.13535343    11344.536     1000 
 1576000   0.52335726      -1.8754   0.78425086   -1.0911491   0.13269116     11408.37     1000 
 1578000   0.52501877    -1.848977   0.78674063   -1.0622364   0.12767954    11238.011     1000 
 1580000   0.53760195   -1.8639982   0.80559652   -1.0584017   0.13324811    11389.672     1000 
 1582000   0.52293513   -1.8682062   0.78361829   -1.0845879   0.13299296    11250.986     1000 
 1584000   0.51218394   -1.8804643   0.76750764   -1.1129566   0.12534394    11440.045     1000 
 1586000   0.53665309   -1.9174847   0.80417465     -1.11331   0.13235872    11450.688     1000 
 1588000   0.50287023   -1.8190222   0.75355104   -1.0654711   0.12560302    11519.072     1000 
 1590000   0.54214186    -1.898651   0.81239958   -1.0862515   0.13449867    11452.334     1000 
 1592000   0.52319536   -1.8361102   0.78400825    -1.052102   0.12883127     11262.77     1000 
 1594000   0.50544597   -1.8662165   0.75741079   -1.1088057   0.13442316     11375.65     1000 
 1596000   0.52585338   -1.8155981   0.78799128   -1.0276068   0.13900554    11171.217     1000 
[...]
 2612000   0.50098641   -1.8679167   0.75072813   -1.1171886    0.1311424    11415.973     1000 
 2614000   0.50845021   -1.8644019   0.76191264   -1.1024893   0.12035226    11393.144     1000 
 2616000   0.52263961   -1.8520904   0.78317546    -1.068915   0.12873752    11453.558     1000 
 2618000   0.52031445    -1.899887   0.77969121   -1.1201957   0.12136813    11455.447     1000 
 2620000   0.52122972   -1.8460377   0.78106273    -1.064975   0.12840911    11499.348     1000 
 2622000   0.52399267   -1.8722717   0.78520301   -1.0870687   0.12040366    11492.124     1000 
 2624000   0.53231538   -1.8627401    0.7976746   -1.0650655   0.12348867    11408.694     1000 
 2626000   0.52116159   -1.8521279   0.78096065   -1.0711673   0.12912339    11392.267     1000 
 2628000   0.52523157   -1.9060643   0.78705951   -1.1190047   0.11681802    11466.839     1000 
 2630000   0.51751284   -1.8076311     0.775493   -1.0321381   0.13246473    11333.281     1000 
 2632000   0.52363763   -1.8780375   0.78467098   -1.0933665   0.12894211    11380.163     1000 
 2634000   0.51471649   -1.8506691   0.77130267   -1.0793664   0.12297184    11497.268     1000 
 2636000   0.52023588   -1.8607073   0.77957347   -1.0811338   0.12779124    11415.086     1000 
 2638000   0.52356658   -1.8971425   0.78456452    -1.112578   0.13268619    11337.601     1000 
 2640000   0.53839546   -1.8902472   0.80678559   -1.0834616   0.12084508    11510.398     1000 
 2642000    0.5195179     -1.84413   0.77849757   -1.0656324   0.13258014     11364.55     1000 
 2644000   0.51503677   -1.8506766   0.77178259    -1.078894   0.12975519    11456.569     1000 
 2646000   0.51138468   -1.8308032   0.76630995   -1.0644933   0.13032688    11351.754     1000 
 2648000   0.49796036   -1.8598817    0.7461936   -1.1136881   0.11927763    11473.872     1000 
 2650000   0.52295253   -1.8486167   0.78364436   -1.0649724   0.13697689    11228.365     1000 
 2652000    0.5292027   -1.8147066   0.79301025   -1.0216963   0.13586522    11506.515     1000 
 2654000   0.54483893   -1.8288846   0.81644113   -1.0124435   0.13557286     11387.38     1000 
 2656000   0.50535255    -1.858747    0.7572708   -1.1014762   0.13771355    11394.346     1000 
 2658000   0.50272119   -1.9061588    0.7533277   -1.1528311   0.12278897    11455.687     1000 
 2660000   0.53036365   -1.8183847   0.79474994   -1.0236348   0.14257037    11257.103     1000 
 2662000   0.50205358   -1.8649854   0.75232728   -1.1126581   0.12491697    11434.317     1000 
 2664000   0.53939027   -1.8964774   0.80827631   -1.0882011   0.11768165    11546.493     1000 
 2666000   0.52754118   -1.8739524   0.79052046    -1.083432   0.12802208    11416.926     1000 
 2668000   0.52731981   -1.8703996   0.79018874   -1.0802108   0.13040184    11487.758     1000 
 2670000   0.51728967   -1.8790741   0.77515856   -1.1039155   0.12649648    11611.067     1000 
 2672000   0.52890247   -1.8441963   0.79256036   -1.0516359   0.13060725    11257.198     1000 
 2674000   0.51700689   -1.8722371   0.77473482   -1.0975022   0.13298017    11241.873     1000 
 2676000    0.5134135   -1.8636265   0.76935013   -1.0942764   0.11292669    11660.089     1000 
 2678000   0.52019197   -1.8493633   0.77950766   -1.0698556   0.11545542    11612.108     1000 
 2680000   0.51545895   -1.8154156   0.77241524   -1.0430004   0.12658741    11465.879     1000 
 2682000   0.55792223   -1.9054979   0.83604646   -1.0694514    0.1295451    11458.354     1000 
 2684000   0.51809023    -1.802925   0.77635821   -1.0265668   0.13031262     11402.49     1000 
 2686000   0.50304313   -1.8709553   0.75381013   -1.1171452   0.12566609    11463.331     1000 
 2688000   0.52443479   -1.8094489   0.78586553   -1.0235834   0.13440706    11255.891     1000 
 2690000   0.50705714   -1.8571085   0.75982512   -1.0972834   0.11811493    11503.522     1000 
 2692000   0.51313959   -1.8543868   0.76893968   -1.0854471   0.14351741    11181.422     1000 
 2694000   0.50968348   -1.8774368   0.76376069   -1.1136761   0.13340721    11424.049     1000 
 2696000   0.52020917   -1.8908435   0.77953345   -1.1113101   0.12856381    11414.181     1000 
 2698000   0.53606948   -1.9069139   0.80330012   -1.1036138   0.14703179    11278.981     1000 
 2700000   0.53028657   -1.8764729   0.79463442   -1.0818384   0.12559807    11462.406     1000 
 2702000   0.50029119   -1.8480686   0.74968635   -1.0983822   0.13422198    11425.663     1000 
 2704000   0.52546034   -1.9033242   0.78740232   -1.1159219   0.12584122    11434.935     1000 
 2706000    0.5270067   -1.8139255   0.78971954    -1.024206   0.13454174    11295.205     1000 
 2708000   0.50570201   -1.8626592   0.75779447   -1.1048647   0.12543784    11414.489     1000 
 2710000   0.52364461   -1.8648819   0.78468144   -1.0802005   0.12065785    11462.563     1000 
 2712000   0.53845322   -1.8791596   0.80687215   -1.0722875   0.13837563    11402.051     1000 
 2714000   0.52629695   -1.8340686   0.78865598   -1.0454126   0.12639012    11346.271     1000 
 2716000   0.50704823   -1.8648915   0.75981177   -1.1050797   0.12533559    11402.312     1000 
 2718000   0.51009054   -1.8647438   0.76437068   -1.1003731   0.12071017    11421.537     1000 
 2720000     0.536068   -1.8756686    0.8032979   -1.0723707   0.13602402    11445.535     1000 
 2722000   0.53668875   -1.8113801    0.8042281    -1.007152   0.13502771    11276.647     1000 
 2724000   0.50595198   -1.8701144   0.75816905   -1.1119453   0.14641836     11312.56     1000 
 2726000   0.52421656   -1.8481831   0.78553851   -1.0626446   0.13927074    11266.364     1000 
 2728000   0.51956002   -1.8589898   0.77856069   -1.0804291   0.12005749    11621.418     1000 
 2730000   0.52994441   -1.7998133    0.7941217   -1.0056916   0.14391625    11185.263     1000 
 2732000    0.5019161   -1.8751798   0.75212128   -1.1230585   0.13421009    11367.086     1000 
 2734000   0.52759522   -1.8642375   0.79060144    -1.073636   0.13878221    11320.047     1000 
 2736000   0.52610457   -1.8958829    0.7883677   -1.1075152   0.11862851    11494.197     1000 
 2738000   0.52800328   -1.8724007   0.79121292   -1.0811878   0.12535985     11404.75     1000 
 2740000   0.53392187   -1.8968114   0.80008192   -1.0967295   0.12797726    11454.072     1000 
 2742000   0.50896493   -1.9224513   0.76268395   -1.1597674   0.12141963    11488.185     1000 
 2744000   0.50227156   -1.8186497   0.75265393   -1.0659958    0.1378947    11374.295     1000 
 2746000   0.50833656   -1.9253875   0.76174234   -1.1636452   0.13506196    11587.104     1000 
 2748000   0.51341351   -1.9194629   0.76935014   -1.1501128   0.12752602    11452.788     1000 
 2750000    0.5118203   -1.8779692   0.76696272   -1.1110065   0.12147133    11454.811     1000 
 2752000   0.50485802   -1.8409982   0.75652975   -1.0844684   0.13234543    11363.247     1000 
 2754000   0.50115691   -1.8887837   0.75098362   -1.1378001   0.12283902     11498.65     1000 
 2756000   0.48736894   -1.8566758   0.73032236   -1.1263534   0.12741153    11283.426     1000 
 2758000   0.52907752   -1.8879649   0.79282267   -1.0951423   0.12505968    11456.754     1000 
 2760000   0.50151921   -1.8413964   0.75152653   -1.0898698   0.10958884    11605.337     1000 
 2762000   0.52115732   -1.8508691   0.78095425   -1.0699148   0.13544625     11394.26     1000 
 2764000   0.50480072   -1.8571428   0.75644389    -1.100699   0.13915016    11308.773     1000 
 2766000   0.49228882   -1.8148064   0.73769479   -1.0771116   0.12546552    11519.968     1000 
 2768000   0.49566205   -1.9043543   0.74274958   -1.1616047   0.12078035    11505.641     1000 
 2770000   0.50419873   -1.8410436    0.7555418   -1.0855018    0.1225879    11462.787     1000 
 2772000   0.53727691    -1.863855   0.80510945   -1.0587455   0.13233882    11274.915     1000 
 2774000   0.51443429   -1.9098217   0.77087978   -1.1389419    0.1256018    11435.491     1000 
 2776000   0.54373776   -1.8445087   0.81479103   -1.0297177   0.13883199    11259.082     1000 
 2778000   0.51881806   -1.8849909   0.77744887    -1.107542   0.13900551    11252.322     1000 
 2780000   0.52474086   -1.8431597   0.78632418   -1.0568355   0.13740818    11314.038     1000 
 2782000   0.52747494    -1.869273    0.7904212   -1.0788518   0.13642695    11307.074     1000 
 2784000   0.53333388   -1.8545595   0.79920081   -1.0553587   0.13214844    11454.717     1000 
 2786000   0.51333536   -1.8482698   0.76923304   -1.0790367     0.129949    11332.254     1000 
 2788000   0.51495379   -1.8668674   0.77165826   -1.0952091   0.14635011    11179.438     1000 
 2790000   0.51598409   -1.8187639   0.77320216   -1.0455617   0.13960818    11353.826     1000 
 2792000    0.5056205   -1.8191099   0.75767233   -1.0614376   0.13848971    11304.243     1000 
 2794000   0.52000388   -1.8330304   0.77922582   -1.0538045    0.1429696    11238.402     1000 
 2796000   0.51934067   -1.8409503     0.778232   -1.0627183   0.13267446    11427.747     1000 
 2798000   0.51421967    -1.868065   0.77055818   -1.0975069   0.11819813    11587.575     1000 
 2800000   0.52082639   -1.8682051   0.78045835   -1.0877467   0.12456079    11472.518     1000 
 2802000   0.52435335   -1.8274986   0.78574349   -1.0417551   0.14120385    11259.686     1000 
 2804000   0.52565287   -1.8548852   0.78769083   -1.0671944   0.13260242    11478.255     1000 
 2806000   0.53162185   -1.8748311   0.79663534   -1.0781958   0.12130068    11435.883     1000 
 2808000   0.52008156   -1.8877923   0.77934222     -1.10845   0.12548133    11590.454     1000 
 2810000   0.48234949   -1.8475084   0.72280071   -1.1247077   0.12909248     11431.34     1000 
 2812000   0.51419056   -1.8819503   0.77051455   -1.1114357   0.13020305     11482.42     1000 
 2814000   0.52852851   -1.8917367   0.79199997   -1.0997367   0.12669517    11417.172     1000 
 2816000   0.53783998   -1.8636289   0.80595321   -1.0576757   0.13685319    11208.526     1000 
 2818000   0.52151231   -1.8362941   0.78148619   -1.0548079   0.13741043    11318.058     1000 
 2820000   0.51615357   -1.8388235   0.77345612   -1.0653674   0.13892433    11345.389     1000 
 2822000   0.50306466   -1.8396166    0.7538424   -1.0857742   0.13027068    11453.303     1000 
 2824000   0.50955197   -1.8538731   0.76356363   -1.0903094   0.13821591    11404.835     1000 
 2826000   0.52717457   -1.8781063   0.78997109   -1.0881352    0.1397912     11340.71     1000 
 2828000   0.51407724   -1.8670969   0.77034474   -1.0967522    0.1290478    11332.366     1000 
 2830000   0.49254266    -1.868746   0.73807518   -1.1306708   0.13775718    11160.722     1000 
 2832000   0.51119663   -1.8863667   0.76602815   -1.1203385    0.1356801    11346.313     1000 
 2834000   0.50642823   -1.9031748    0.7588827   -1.1442921   0.12532803    11368.037     1000 
 2836000   0.52783582   -1.8126399   0.79096198   -1.0216779   0.12468555    11423.919     1000 
 2838000   0.50911644   -1.8089051   0.76291099   -1.0459941   0.13879968    11285.768     1000 
 2840000   0.50777395    -1.863832   0.76089926   -1.1029327   0.13346791    11486.949     1000 
 2842000   0.53167662   -1.8697704   0.79671742   -1.0730529   0.13265583    11514.316     1000 
 2844000   0.50851133   -1.8555894   0.76200423   -1.0935852   0.12302749    11374.912     1000 
 2846000   0.51588095   -1.8987725   0.77304761   -1.1257249   0.12582487    11335.915     1000 
 2848000    0.5301408   -1.8600317   0.79441598   -1.0656157   0.12794862    11429.009     1000 
 2850000   0.51950065   -1.9107389   0.77847172   -1.1322672   0.12450961    11559.371     1000 
 2852000   0.52046306   -1.8187237    0.7799139   -1.0388098   0.11914869    11369.156     1000 
 2854000   0.51256658   -1.8961934   0.76808102   -1.1281124    0.1322613    11359.222     1000 
 2856000   0.51485362   -1.8913827   0.77150815   -1.1198745   0.12793462    11425.825     1000 
 2858000   0.50265324   -1.8890575   0.75322589   -1.1358316   0.11539894    11574.852     1000 
 2860000   0.51307422   -1.8516283   0.76884171   -1.0827866   0.13234996    11438.358     1000 
 2862000    0.5238601    -1.835539   0.78500436   -1.0505346   0.13142534    11316.425     1000 
 2864000    0.4992957   -1.9319378    0.7481946   -1.1837432   0.13090318    11382.201     1000 
 2866000   0.51690992   -1.9073812   0.77458951   -1.1327917   0.12330243    11501.255     1000 
 2868000   0.51564025   -1.8181374   0.77268692   -1.0454505   0.14201825     11236.86     1000 
 2870000   0.51789207   -1.8639762   0.77606126   -1.0879149   0.12662423    11527.123     1000 
 2872000   0.50754608   -1.8189948    0.7605578    -1.058437   0.13087305    11331.924     1000 
 2874000   0.53927693   -1.8945081   0.80810648   -1.0864017   0.12698099    11382.583     1000 
 2876000   0.52297402   -1.9215538   0.78367656   -1.1378773   0.11568001    11613.145     1000 
 2878000   0.52447514   -1.8583657     0.785926   -1.0724397   0.13211497    11333.397     1000 
 2880000    0.5223935   -1.9143033   0.78280666   -1.1314967   0.12379768    11539.015     1000 
 2882000   0.53753031   -1.8668419   0.80548917   -1.0613527   0.12406518    11567.216     1000 
 2884000   0.52427937   -1.8398763   0.78563263   -1.0542436   0.12940231    11324.462     1000 
 2886000   0.54231492   -1.8300978    0.8126589   -1.0174389   0.13221926     11370.66     1000 
 2888000   0.53748466   -1.8316045   0.80542077   -1.0261838   0.13780141    11294.495     1000 
 2890000   0.52901348   -1.8898134   0.79272669   -1.0970867   0.12497643    11455.934     1000 
 2892000   0.51954469   -1.8208259   0.77853772   -1.0422881   0.14648927    11269.512     1000 
 2894000   0.55426936   -1.8363565   0.83057263   -1.0057838   0.13774517    11350.024     1000 
 2896000   0.50662609   -1.8664398   0.75917919   -1.1072607    0.1461897    11294.435     1000 
 2898000   0.53679618    -1.870451   0.80438908   -1.0660619   0.12334804    11503.124     1000 
 2900000     0.504359   -1.8344748   0.75578197   -1.0786929   0.13682999    11274.863     1000 
 2902000   0.53064858    -1.882287    0.7951769   -1.0871101   0.12445776    11592.824     1000 
 2904000   0.51724189    -1.835401   0.77508697    -1.060314   0.12927295    11383.446     1000 
 2906000   0.52471728   -1.8960427   0.78628884   -1.1097539   0.11928367    11660.431     1000 
 2908000   0.54988368   -1.8924631   0.82400069   -1.0684624   0.11997635    11498.645     1000 
 2910000    0.5527003   -1.8861555    0.8282214   -1.0579341   0.13261025    11461.588     1000 
 2912000   0.51825911   -1.8767779   0.77661127   -1.1001666    0.1279034    11512.415     1000 
 2914000   0.53179585   -1.8740093   0.79689607   -1.0771132   0.13656004    11484.229     1000 
 2916000   0.55093082   -1.8434167   0.82556984   -1.0178469   0.12963078    11423.753     1000 
 2918000    0.5341739   -1.8893916   0.80045958    -1.088932   0.13425445    11487.873     1000 
 2920000    0.5110902   -1.8232235   0.76586867   -1.0573549   0.12445032    11373.863     1000 
 2922000   0.56239545   -1.8654381   0.84274958   -1.0226885   0.12885358    11373.246     1000 
 2924000   0.51433801   -1.8819705   0.77073551   -1.1112349   0.13709446    11319.509     1000 
 2926000   0.48568373    -1.875702   0.72779707    -1.147905   0.12809331      11400.3     1000 
 2928000   0.52922064   -1.8189918   0.79303713   -1.0259546   0.12951624    11428.629     1000 
 2930000   0.53619615   -1.9204219   0.80348993    -1.116932   0.12369991    11570.449     1000 
 2932000   0.52365787   -1.8284994   0.78470132   -1.0437981   0.12473401    11454.523     1000 
 2934000   0.53704851   -1.8592499    0.8047672   -1.0544827   0.13103484    11402.673     1000 
 2936000   0.51410926   -1.8583423   0.77039273   -1.0879496    0.1213884    11476.874     1000 
 2938000    0.5159695   -1.8343311    0.7731803   -1.0611508   0.14094466    11210.041     1000 
 2940000   0.52190232   -1.8567919   0.78207063   -1.0747212   0.13528758    11413.725     1000 
 2942000   0.53065911   -1.9060544   0.79519268   -1.1108617   0.13862317    11406.861     1000 
 2944000   0.51571644   -1.8113699   0.77280108   -1.0385688   0.12313984    11422.691     1000 
 2946000   0.51302525   -1.8210998   0.76876833   -1.0523315   0.14246114    11305.805     1000 
 2948000   0.54256789   -1.8272013   0.81303798   -1.0141634   0.12377456    11467.531     1000 
 2950000   0.53020673    -1.862662   0.79451479   -1.0681473   0.13455392    11374.778     1000 
 2952000   0.54099265   -1.8573514   0.81067748   -1.0466739   0.12821037    11462.035     1000 
 2954000   0.50805136   -1.7939772   0.76131497   -1.0326622   0.12685744    11445.314     1000 
 2956000   0.50274443    -1.850915   0.75336253   -1.0975524   0.12240027     11539.95     1000 
 2958000   0.50584647   -1.8722183   0.75801093   -1.1142074   0.13363242    11372.426     1000 
 2960000     0.503994   -1.8880751   0.75523502   -1.1328401   0.12476655    11368.878     1000 
 2962000   0.53703049    -1.891888   0.80474019   -1.0871478   0.12430456    11341.343     1000 
 2964000   0.53193549   -1.7998784   0.79710533   -1.0027731   0.13094462    11327.232     1000 
 2966000   0.50118197   -1.8358197   0.75102118   -1.0847985    0.1246919    11512.506     1000 
 2968000   0.50955431   -1.8816312   0.76356713   -1.1180641   0.12531791    11600.916     1000 
 2970000   0.53128167    -1.822427   0.79612558   -1.0263015   0.12679042    11476.679     1000 
 2972000   0.52015055   -1.8374464    0.7794456   -1.0580008    0.1305292    11374.198     1000 
 2974000   0.52182222   -1.8819169   0.78195059   -1.0999664   0.12126448    11486.102     1000 
 2976000   0.51122133    -1.898786   0.76606516   -1.1327209   0.12130328    11584.605     1000 
 2978000   0.52676273   -1.8799982   0.78935396   -1.0906442   0.12234511    11424.574     1000 
 2980000   0.50752914    -1.887695   0.76053242   -1.1271626   0.12544929    11548.281     1000 
 2982000   0.52011502   -1.8726752   0.77939236   -1.0932829   0.13691977    11401.369     1000 
 2984000   0.51487506   -1.8872476   0.77154027   -1.1157074   0.12613914    11448.948     1000 
 2986000   0.50902203   -1.8697155   0.76276951    -1.106946   0.12372903    11534.731     1000 
 2988000   0.51879682   -1.9071715   0.77741703   -1.1297545   0.12082883    11594.443     1000 
 2990000   0.52377667   -1.8558067   0.78487933   -1.0709274   0.12602982    11492.753     1000 
 2992000   0.51665976   -1.8502512   0.77421464   -1.0760366   0.11173725    11718.746     1000 
 2994000   0.52913986   -1.9114835   0.79291608   -1.1185674    0.1324505    11351.365     1000 
 2996000   0.50332847   -1.8240914   0.75423772   -1.0698537   0.13711914    11254.926     1000 
 2998000   0.51890797   -1.8614564   0.77758359   -1.0838728   0.13969774    11381.446     1000 
 3000000   0.51151938   -1.8091575    0.7665118   -1.0426457    0.1307288    11314.397     1000 
Loop time of 1125.29 on 4 procs for 3000000 steps with 1000 atoms

Performance: 1151706.881 tau/day, 2665.988 timesteps/s
95.3% CPU use with 4 MPI tasks x no OpenMP threads

MPI task timing breakdown:
Section |  min time  |  avg time  |  max time  |%varavg| %total
---------------------------------------------------------------
Pair    | 823.09     | 831.18     | 845.47     |  29.6 | 73.86
Neigh   | 77.168     | 77.523     | 77.881     |   3.0 |  6.89
Comm    | 150.05     | 164.07     | 172.63     |  66.3 | 14.58
Output  | 0.024009   | 0.02682    | 0.034962   |   2.9 |  0.00
Modify  | 45.47      | 45.589     | 45.7       |   1.3 |  4.05
Other   |            | 6.893      |            |       |  0.61

Nlocal:    250 ave 259 max 241 min
Histogram: 1 1 0 0 0 0 0 0 1 1
Nghost:    1702.75 ave 1717 max 1674 min
Histogram: 1 0 0 0 0 0 0 1 0 2
Neighs:    14527.2 ave 15301 max 13975 min
Histogram: 2 0 0 0 0 0 1 0 0 1

Total # of neighbors = 58109
Ave neighs/atom = 58.109
Neighbor list builds = 150000
Dangerous builds not checked

Total wall time: 0:18:45
