LAMMPS (3 Mar 2020)
# ----------------------- Inicialização -----------------------

units			lj
atom_style 		atomic
dimension 		3
boundary 		p p p

# -------------------- Criação dos Átomos ---------------------

read_data 		topologia.txt
  orthogonal box = (0 0 0) to (21.54 21.54 21.54)
  1 by 2 by 2 MPI processor grid
  reading atoms ...
  1000 atoms
  read_data CPU = 0.00242034 secs

velocity 		all create ${temp} 87287 rot yes dist gaussian
velocity 		all create 0.41 87287 rot yes dist gaussian

# ------------------ Interação Interatômica -------------------

pair_style		table linear 1300
pair_coeff		1 1 force.table AA 6.5
WARNING: 2 of 1300 force values in table are inconsistent with -dE/dr.
  Should only be flagged at inflection points (src/pair_table.cpp:483)
pair_coeff		1 2 force.table AB 6.5
WARNING: 1 of 1300 force values in table are inconsistent with -dE/dr.
  Should only be flagged at inflection points (src/pair_table.cpp:483)
pair_coeff		2 2 force.table BB 6.5
pair_write		1 1 1600 r 0.008 6.5 table.check AA
Neighbor list info ...
  update every 1 steps, delay 10 steps, check yes
  max neighbors/atom: 2000, page size: 100000
  master list distance cutoff = 6.8
  ghost atom cutoff = 6.8
  binsize = 3.4, bins = 7 7 7
  1 neighbor lists, perpetual/occasional/extra = 1 0 0
  (1) pair table, perpetual
      attributes: half, newton on
      pair build: half/bin/atomonly/newton
      stencil: half/bin/3d/newton
      bin: standard
pair_write		1 2 1600 r 0.008 6.5 table.check AB
pair_write		2 2 1600 r 0.008 6.5 table.check BB

neighbor 		0.3 bin
neigh_modify	every 20 delay 0 check no

# ------------------------- Ensemble --------------------------------------

fix 1			all npt temp ${temp} ${temp} 0.5 iso ${press} ${press} 5
fix 1			all npt temp 0.41 ${temp} 0.5 iso ${press} ${press} 5
fix 1			all npt temp 0.41 0.41 0.5 iso ${press} ${press} 5
fix 1			all npt temp 0.41 0.41 0.5 iso 0.13 ${press} 5
fix 1			all npt temp 0.41 0.41 0.5 iso 0.13 0.13 5

# ---------------------- Função de Distribuição Radial -----------------------

#compute RDF 	all rdf 2000 1 1 1 2 2 2
#fix 2 			all ave/time 1 2000 2000 c_RDF[*] file rdf.data mode vector

# ------------------------- Execução ---------------------------

timestep 		0.005
thermo_style	custom step temp pe ke etotal press vol atoms
thermo			2000
run				3000000
Per MPI rank memory allocation (min/avg/max) = 2.675 | 2.675 | 2.675 Mbytes
Step Temp PotEng KinEng TotEng Press Volume Atoms 
       0         0.41   -0.9940566     0.614385   -0.3796716   0.10938283    9993.9483     1000 
    2000   0.39956258    -2.192811   0.59874453   -1.5940664    0.1217081    11458.923     1000 
    4000   0.42161173   -2.2405779   0.63178518   -1.6087927   0.12991693    11440.829     1000 
    6000   0.41364396   -2.1848631   0.61984548   -1.5650176   0.12755307    11417.233     1000 
    8000   0.42864765   -2.2062563   0.64232851   -1.5639278   0.13223036    11440.512     1000 
   10000   0.40462134   -2.2066969   0.60632508   -1.6003718   0.12625877    11445.594     1000 
   12000   0.40207985   -2.1876026   0.60251666   -1.5850859   0.13364407    11327.143     1000 
   14000   0.41360879   -2.2022016   0.61979277   -1.5824088   0.13551628    11282.086     1000 
   16000   0.41427325   -2.2608105   0.62078846   -1.6400221   0.13897346    11324.635     1000 
   18000   0.38427037   -2.1691586   0.57582915   -1.5933294   0.12088918    11310.554     1000 
   20000   0.40928978   -2.2252178   0.61332073   -1.6118971   0.13315054    11306.211     1000 
   22000   0.40424217   -2.2247709   0.60575689    -1.619014   0.12181479    11457.694     1000 
   24000    0.4231538   -2.2140563   0.63409597   -1.5799603   0.14304816    11282.057     1000 
   26000   0.41777671   -2.2196934    0.6260384    -1.593655   0.13603066    11313.522     1000 
   28000   0.40909903   -2.2004092    0.6130349   -1.5873743   0.13199531    11459.634     1000 
   30000   0.39897243    -2.200701   0.59786019   -1.6028408   0.12828493    11432.454     1000 
   32000   0.41041608    -2.189512    0.6150085   -1.5745035   0.12767924    11381.029     1000 
   34000   0.40703635   -2.1878679   0.60994397   -1.5779239   0.13447067    11289.955     1000 
   36000   0.40786273   -2.2282492    0.6111823   -1.6170669   0.13965703    11315.319     1000 
   38000   0.41297091   -2.1651061   0.61883691   -1.5462692   0.13806837    11296.224     1000 
   40000   0.41021127   -2.1391461   0.61470159   -1.5244445   0.12102654    11462.565     1000 
   42000   0.41866951    -2.193048   0.62737626   -1.5656718   0.12773987    11394.988     1000 
   44000   0.41107303   -2.1871987   0.61599294   -1.5712057   0.12006967    11356.581     1000 
   46000   0.41437948   -2.2353746   0.62094765    -1.614427   0.13996061    11406.167     1000 
   48000   0.40013028   -2.1877077   0.59959523   -1.5881124   0.12893896    11383.463     1000 
   50000   0.40970466   -2.2181685   0.61394244    -1.604226   0.12408141    11423.661     1000 
   52000   0.39925967   -2.1362991   0.59829062   -1.5380084   0.12765906    11340.777     1000 
   54000   0.41614009   -2.1739417   0.62358592   -1.5503558   0.13188301    11395.556     1000 
   56000   0.40346027   -2.1920411   0.60458522   -1.5874559   0.12812661    11402.588     1000 
   58000    0.4071299   -2.1098569   0.61008416   -1.4997727   0.13365571    11294.539     1000 
   60000   0.40647283   -2.2079688   0.60909953   -1.5988693   0.13652769    11269.839     1000 
   62000   0.39016579   -2.2329849   0.58466344   -1.6483215   0.12458317    11371.655     1000 
   64000   0.41407645   -2.1923334   0.62049355   -1.5718398   0.12685489    11424.722     1000 
   66000   0.41305882   -2.2125167   0.61896864   -1.5935481   0.13338812    11256.081     1000 
   68000   0.41322398   -2.2335381   0.61921614   -1.6143219   0.13555033    11371.959     1000 
   70000   0.41952109    -2.213825   0.62865236   -1.5851727   0.13084726    11385.578     1000 
   72000    0.4065918   -2.2132481   0.60927782   -1.6039703   0.12008789    11323.487     1000 
   74000    0.4156918   -2.1791665   0.62291416   -1.5562523   0.13140581    11327.386     1000 
   76000   0.41724305   -2.2217439   0.62523871   -1.5965052   0.12720246    11426.006     1000 
   78000   0.40046052   -2.2578706   0.60009008   -1.6577805   0.12915845    11475.348     1000 
   80000    0.4033605   -2.2101822   0.60443571   -1.6057465   0.12458226    11408.842     1000 
   82000   0.39033423   -2.1890849   0.58491585    -1.604169   0.12361289    11374.658     1000 
   84000   0.41550241   -2.2140059   0.62263036   -1.5913755   0.12170908    11504.909     1000 
   86000   0.42028326   -2.2268719   0.62979447   -1.5970774   0.13541809    11407.234     1000 
   88000   0.41565237   -2.1897026   0.62285507   -1.5668475    0.1313623    11377.547     1000 
   90000   0.40529121   -2.1541434   0.60732888   -1.5468145    0.1305512    11343.675     1000 
   92000   0.40802929   -2.2066453   0.61143189   -1.5952134   0.14694034    11276.668     1000 
   94000   0.41708567    -2.203528   0.62500287   -1.5785252   0.13205905     11382.95     1000 
   96000   0.41203219   -2.1423405   0.61743024   -1.5249103   0.12819889    11282.354     1000 
   98000   0.41126577   -2.1759729   0.61628176   -1.5596911   0.13538305    11342.399     1000 
  100000   0.40283899   -2.1829567   0.60365422   -1.5793025   0.13177979    11338.755     1000 
  102000   0.42587245   -2.2073929   0.63816986   -1.5692231   0.12562741    11367.639     1000 
  104000   0.40551701   -2.1986166   0.60766724   -1.5909494   0.11739607    11491.689     1000 
  106000   0.40643879   -2.2209087   0.60904852   -1.6118601   0.12870641    11381.019     1000 
  108000   0.39851769   -2.2383901   0.59717876   -1.6412113   0.14002107    11311.435     1000 
  110000   0.41403425   -2.1662266   0.62043032   -1.5457963   0.14438148    11196.953     1000 
  112000   0.40477972   -2.1513012   0.60656241   -1.5447388   0.12664851    11252.762     1000 
  114000   0.43165363   -2.1821803   0.64683297   -1.5353473   0.14013587    11343.905     1000 
  116000   0.43664681   -2.2008781   0.65431524   -1.5465629   0.13403976    11329.378     1000 
  118000   0.41487399   -2.1972509   0.62168868   -1.5755623   0.13091136    11396.697     1000 
  120000    0.4164246   -2.1906207   0.62401226   -1.5666085   0.12804932     11272.77     1000 
  122000   0.40754747   -2.1705103   0.61070989   -1.5598004   0.13660601    11285.029     1000 
  124000    0.4063082   -2.2349135   0.60885283   -1.6260607   0.12324193    11407.159     1000 
  126000   0.41081943   -2.2187393   0.61561291   -1.6031264   0.13407407    11305.819     1000 
  128000   0.39672991   -2.1763758   0.59449978    -1.581876   0.12538678    11390.728     1000 
  130000   0.40622961   -2.2262826   0.60873507   -1.6175475   0.11250751    11484.489     1000 
  132000   0.39757622   -2.1847092   0.59576797   -1.5889413   0.13177747     11356.05     1000 
  134000   0.39408547    -2.162231   0.59053708   -1.5716939   0.11858585    11505.876     1000 
  136000   0.40626403   -2.1927458   0.60878665   -1.5839592   0.12645085    11472.924     1000 
  138000   0.40551077   -2.1805378   0.60765789   -1.5728799   0.12723323    11324.678     1000 
  140000   0.40088355   -2.2124682     0.600724   -1.6117442    0.1268468    11402.497     1000 
  142000   0.41297383   -2.2188152   0.61884128   -1.5999739   0.12986228    11276.665     1000 
  144000   0.40969027    -2.175045   0.61392088   -1.5611241   0.13346583    11283.943     1000 
  146000   0.41582788   -2.1569266   0.62311808   -1.5338085   0.14006318    11304.464     1000 
  148000   0.40837287   -2.2474431   0.61194675   -1.6354964   0.13117185    11411.365     1000 
  150000   0.42259849   -2.1994615   0.63326384   -1.5661976   0.12479193    11410.587     1000 
  152000   0.41239555   -2.1902981   0.61797473   -1.5723234   0.12801432    11293.455     1000 
  154000   0.41296502   -2.2046995   0.61882809   -1.5858714   0.13188864    11279.718     1000 
  156000   0.40261295   -2.2284377   0.60331551   -1.6251222   0.13083516    11403.257     1000 
  158000   0.43232081   -2.1855988   0.64783273   -1.5377661   0.12795039    11393.972     1000 
  160000   0.41958912   -2.2188623    0.6287543    -1.590108   0.11408985    11476.891     1000 
  162000   0.40952734   -2.2213022   0.61367671   -1.6076255   0.13323597    11341.287     1000 
  164000    0.4093266   -2.2225928   0.61337592   -1.6092169   0.14353619    11297.148     1000 
  166000   0.40347329   -2.1940579   0.60460473   -1.5894532   0.11838804    11462.298     1000 
  168000   0.41454734   -2.1740559   0.62119919   -1.5528567   0.12729458    11418.358     1000 
  170000   0.40127858   -2.2072931   0.60131596   -1.6059772    0.1278823    11492.096     1000 
  172000    0.4371568   -2.2015324   0.65507946   -1.5464529   0.12653179    11422.814     1000 
  174000   0.41670797   -2.1903474   0.62443689   -1.5659105   0.13416334    11424.032     1000 
  176000   0.39564742   -2.2411742   0.59287765   -1.6482965   0.11398752    11479.746     1000 
  178000   0.40732597   -2.1823177   0.61037797   -1.5719398    0.1170101    11389.552     1000 
  180000   0.41579903   -2.1965025   0.62307485   -1.5734276   0.13236235    11346.105     1000 
  182000   0.41247944   -2.1686096   0.61810045   -1.5505091   0.13888481    11287.331     1000 
  184000   0.40611367   -2.2234586   0.60856133   -1.6148973   0.13557749    11275.342     1000 
  186000   0.41063865   -2.2028724   0.61534202   -1.5875304   0.13092663    11374.874     1000 
  188000   0.42181729   -2.1986135   0.63209321   -1.5665203   0.12476706    11391.496     1000 
  190000   0.40497222   -2.2052573   0.60685087   -1.5984064   0.12990494    11426.903     1000 
  192000   0.41518486   -2.2258628   0.62215451   -1.6037083   0.12325202    11492.976     1000 
  194000   0.40630911   -2.2339487    0.6088542   -1.6250945   0.13124528    11386.308     1000 
  196000    0.4127336   -2.2374639    0.6184813   -1.6189826   0.13286042    11290.815     1000 
  198000   0.40785042   -2.2017872   0.61116385   -1.5906234   0.13192883    11326.632     1000 
  200000   0.40273812   -2.1800842   0.60350307   -1.5765811   0.11911035    11503.815     1000 
  202000    0.4233643   -2.2212996    0.6344114   -1.5868882   0.13100705    11412.578     1000 
  204000   0.38902055   -2.2063673   0.58294729     -1.62342    0.1179861     11469.24     1000 
  206000   0.40218263   -2.1748257   0.60267068    -1.572155   0.13513813    11389.164     1000 
  208000   0.39774624   -2.2135023   0.59602274   -1.6174796   0.11989883    11442.743     1000 
  210000   0.39814968   -2.2098316    0.5966273   -1.6132043   0.12819369    11261.521     1000 
  212000   0.40130745   -2.1888118   0.60135921   -1.5874526   0.13654824    11298.189     1000 
  214000   0.42653072   -2.2085944   0.63915628   -1.5694381   0.13507992    11261.248     1000 
  216000   0.40990869   -2.2434772   0.61424817    -1.629229   0.13276158    11422.213     1000 
  218000   0.40795708   -2.1787336   0.61132369   -1.5674099   0.13061223    11340.644     1000 
  220000   0.41730793   -2.1800932   0.62533593   -1.5547573   0.12924101    11304.623     1000 
  222000   0.41322333   -2.1469551   0.61921517     -1.52774   0.13503268    11328.371     1000 
  224000   0.38470073   -2.1917969   0.57647405   -1.6153229   0.11766635    11464.677     1000 
  226000   0.41635148   -2.2202948   0.62390269   -1.5963921   0.12126285    11398.798     1000 
  228000   0.41024265   -2.2093978   0.61474861   -1.5946492   0.11809485    11454.835     1000 
  230000    0.4161955    -2.197828   0.62366895    -1.574159   0.12615597    11347.595     1000 
  232000   0.42483032   -2.2014625   0.63660823   -1.5648542   0.13574458    11223.922     1000 
  234000   0.40389735   -2.1788659   0.60524017   -1.5736257   0.13354733    11258.248     1000 
  236000   0.41137083   -2.2174116   0.61643919   -1.6009724    0.1212378    11517.272     1000 
  238000   0.41534082   -2.2157078   0.62238821   -1.5933196   0.13491889    11495.151     1000 
  240000    0.4162365   -2.1817733    0.6237304   -1.5580429   0.12486966    11368.088     1000 
  242000    0.4011261   -2.1955951   0.60108746   -1.5945076   0.11956765    11418.787     1000 
  244000   0.41547511   -2.2275749   0.62258946   -1.6049855    0.1178059    11468.073     1000 
  246000   0.40667859    -2.184474   0.60940786   -1.5750661   0.12759987    11305.175     1000 
  248000    0.4003985   -2.1472945   0.59999715   -1.5472973   0.12602687     11315.47     1000 
  250000   0.42836043   -2.2083638    0.6418981   -1.5664657   0.13467341    11358.382     1000 
  252000   0.41229819   -2.2172889   0.61782883     -1.59946   0.11958093    11556.068     1000 
  254000   0.41787065   -2.1796751   0.62617917    -1.553496   0.12753454    11310.942     1000 
  256000   0.42994541    -2.203267   0.64427319   -1.5589939   0.13275037    11429.597     1000 
  258000   0.39873749   -2.2038153   0.59750813   -1.6063072   0.11861467    11472.114     1000 
  260000   0.39205737   -2.2033233   0.58749797   -1.6158253   0.12981522     11374.67     1000 
  262000   0.41889732   -2.1712659   0.62771763   -1.5435483   0.12971814    11352.535     1000 
  264000   0.41739301   -2.1783019   0.62546343   -1.5528385   0.13266022    11298.609     1000 
  266000   0.40554831   -2.1749589   0.60771415   -1.5672448   0.13337182    11297.321     1000 
  268000   0.39689298   -2.2141592   0.59474413   -1.6194151   0.13707872    11213.675     1000 
  270000   0.39888577   -2.1993464   0.59773032   -1.6016161   0.12902428    11306.848     1000 
  272000    0.4008559   -2.1871304   0.60068257   -1.5864478   0.11680936    11516.394     1000 
  274000    0.4059056   -2.1774586   0.60824954    -1.569209   0.13830227    11260.976     1000 
  276000   0.39518418   -2.1705004   0.59218349   -1.5783169   0.12700417    11380.511     1000 
  278000   0.40282279   -2.2102492   0.60362995   -1.6066193   0.12529772    11386.507     1000 
  280000   0.40765199   -2.2561368   0.61086651   -1.6452703   0.12314729    11412.711     1000 
  282000    0.4091882   -2.2305462   0.61316851   -1.6173777   0.11297835    11569.271     1000 
  284000   0.40541188   -2.2075725    0.6075097   -1.6000628   0.12767631    11357.477     1000 
  286000   0.41087631   -2.1995671   0.61569816   -1.5838689   0.12141635    11509.642     1000 
  288000   0.42285314    -2.192925   0.63364543   -1.5592795   0.13977271    11281.724     1000 
  290000   0.41404372   -2.2019338   0.62044452   -1.5814893   0.12886347    11388.645     1000 
  292000    0.4218902    -2.188307   0.63220247   -1.5561046   0.13686859    11362.729     1000 
  294000   0.41479466   -2.2301154   0.62156979   -1.6085456   0.14516923    11324.801     1000 
  296000   0.40947926   -2.1955458   0.61360467   -1.5819411   0.12729197    11353.143     1000 
  298000   0.42016394   -2.1939832   0.62961566   -1.5643676   0.14480741    11243.168     1000 
  300000   0.39955863   -2.1946156   0.59873861    -1.595877   0.12817463    11407.445     1000 
  302000   0.41102345   -2.2198513   0.61591864   -1.6039327   0.13192331    11371.909     1000 
  304000   0.38823074   -2.2221211   0.58176377   -1.6403573   0.13752582     11281.79     1000 
  306000    0.4136345   -2.1637709    0.6198313   -1.5439396    0.1344721    11304.897     1000 
  308000   0.40391475   -2.2299152   0.60526626   -1.6246489   0.12244761    11356.645     1000 
  310000   0.41888751   -2.2013369   0.62770294    -1.573634     0.122455    11486.458     1000 
  312000   0.40814315   -2.2414011   0.61160251   -1.6297986   0.13364733    11385.027     1000 
  314000   0.40667435   -2.2445099   0.60940151   -1.6351084   0.12552616    11393.729     1000 
  316000   0.40260593   -2.2467645   0.60330499   -1.6434595   0.12985637    11463.797     1000 
  318000   0.40779262   -2.2293482   0.61107725    -1.618271   0.11990073     11472.07     1000 
  320000   0.40871373   -2.1922413   0.61245752   -1.5797838   0.12715419    11304.141     1000 
  322000   0.40804955   -2.2037319   0.61146226   -1.5922697   0.13595289    11301.221     1000 
  324000   0.41459136   -2.2358294   0.62126516   -1.6145642   0.11966081    11465.908     1000 
  326000    0.4086834   -2.1655384   0.61241208   -1.5531263   0.14027421    11233.912     1000 
  328000   0.42131733   -2.2261732   0.63134402   -1.5948291   0.13012588    11421.289     1000 
  330000   0.40679949   -2.2110391   0.60958903   -1.6014501   0.13027592    11393.711     1000 
  332000   0.42029631   -2.1948642   0.62981402   -1.5650502   0.12939652    11352.712     1000 
  334000   0.40400369   -2.2015859   0.60539954   -1.5961863   0.11879861    11429.343     1000 
  336000   0.40596264   -2.2300723   0.60833502   -1.6217373   0.14223539    11276.595     1000 
  338000   0.39884326   -2.1725611   0.59766663   -1.5748945   0.14189732     11290.48     1000 
  340000   0.41849912   -2.1532437   0.62712094   -1.5261227   0.13892623    11213.707     1000 
  342000   0.41762425   -2.2235708   0.62580993   -1.5977609   0.12533359    11458.205     1000 
  344000   0.41293719   -2.1344353   0.61878638   -1.5156489   0.13180256    11240.697     1000 
  346000   0.41864615   -2.1959682   0.62734126   -1.5686269   0.12156222     11413.12     1000 
  348000   0.41021864   -2.2140144   0.61471264   -1.5993018   0.12090421    11445.851     1000 
  350000   0.39892241   -2.1878865   0.59778522   -1.5901013   0.12705234    11494.241     1000 
  352000   0.39429429   -2.2216164   0.59084999   -1.6307665   0.12233067    11438.147     1000 
  354000     0.398171   -2.2033304   0.59665924   -1.6066712   0.13194553    11313.355     1000 
  356000   0.42565295   -2.2184126   0.63784095   -1.5805717   0.11464175    11518.319     1000 
  358000   0.41114467   -2.1681778   0.61610029   -1.5520775     0.141583    11235.623     1000 
  360000   0.40804679   -2.1626438   0.61145812   -1.5511856   0.14144217    11287.156     1000 
  362000   0.41707679   -2.1812915   0.62498957   -1.5563019   0.13711241    11262.326     1000 
  364000   0.40307487   -2.1688784    0.6040077   -1.5648707   0.12602517    11331.453     1000 
  366000   0.40737692   -2.1733174   0.61045432   -1.5628631    0.1395189    11260.783     1000 
  368000   0.40582654   -2.2378272   0.60813107   -1.6296961   0.12351961    11404.655     1000 
  370000   0.38009577     -2.22545   0.56957352   -1.6558765   0.12985642     11436.39     1000 
  372000   0.39570377   -2.2362652    0.5929621   -1.6433031   0.12995833    11431.378     1000 
  374000   0.39792288    -2.211633   0.59628744   -1.6153455   0.13351607    11299.694     1000 
  376000   0.40451471   -2.1944172    0.6061653   -1.5882519   0.12856873    11418.783     1000 
  378000   0.41351014   -2.1702115   0.61964495   -1.5505666   0.13641652    11294.185     1000 
  380000   0.39433259   -2.1445424   0.59090739    -1.553635   0.14497753    11145.948     1000 
  382000   0.41500029   -2.1909348   0.62187793   -1.5690569   0.12804331    11436.494     1000 
  384000   0.41020079   -2.1763604   0.61468589   -1.5616746   0.13866008    11252.302     1000 
  386000   0.42096024   -2.2227704   0.63080892   -1.5919615   0.13666117    11397.607     1000 
  388000   0.40743409   -2.1811287   0.61053998   -1.5705888   0.12156223    11362.759     1000 
  390000   0.41731214   -2.2228843   0.62534224   -1.5975421   0.13969345    11423.038     1000 
  392000   0.40865848   -2.1762682   0.61237474   -1.5638934   0.13027153    11351.925     1000 
  394000   0.41708894    -2.184934   0.62500777   -1.5599263   0.13288705    11395.452     1000 
  396000   0.39578897   -2.1695154   0.59308978   -1.5764256   0.13059516    11416.999     1000 
  398000   0.41721938   -2.2098395   0.62520324   -1.5846362   0.13133566     11279.06     1000 
  400000   0.41234831   -2.2077854   0.61790394   -1.5898815   0.12959645    11429.684     1000 
  402000   0.41011071   -2.1753726    0.6145509   -1.5608217   0.12821753    11367.693     1000 
  404000   0.41279841   -2.2048488   0.61857842   -1.5862704    0.1359332    11321.304     1000 
  406000   0.40114437   -2.2043165   0.60111483   -1.6032017   0.12601349    11393.726     1000 
  408000   0.39449162   -2.2362222   0.59114569   -1.6450765   0.11646986    11594.935     1000 
  410000   0.41561086   -2.2215651   0.62279288   -1.5987722   0.12646626    11442.041     1000 
  412000   0.39758481   -2.2413867   0.59578084   -1.6456059   0.12554681    11437.262     1000 
  414000    0.4323797   -2.2168686   0.64792099   -1.5689477   0.13524267     11403.99     1000 
  416000   0.40934769    -2.184362   0.61340752   -1.5709545   0.13075704    11315.059     1000 
  418000    0.4263583    -2.228568   0.63889791   -1.5896701   0.13157557    11428.071     1000 
  420000    0.4303403   -2.1844433   0.64486494   -1.5395783    0.1304155    11364.534     1000 
  422000   0.41154792   -2.1683496   0.61670455   -1.5516451   0.13998171    11246.952     1000 
  424000   0.42857563   -2.1764745   0.64222059   -1.5342539   0.14581703    11265.578     1000 
  426000   0.40892302   -2.1916086   0.61277114   -1.5788375   0.14111849    11354.043     1000 
  428000   0.40475577   -2.2333191   0.60652652   -1.6267925   0.13936078    11300.253     1000 
  430000   0.40915094   -2.1858587   0.61311269    -1.572746   0.14375937    11246.866     1000 
  432000   0.39815681   -2.2055261   0.59663798   -1.6088881   0.13056521    11452.165     1000 
  434000   0.40867866   -2.2246626   0.61240497   -1.6122576   0.12211834    11389.791     1000 
  436000   0.40064249   -2.2091421   0.60036278   -1.6087793   0.12458151    11410.684     1000 
  438000   0.40919559   -2.1759286    0.6131796    -1.562749   0.12627325    11230.922     1000 
  440000    0.4134085   -2.1500423   0.61949264   -1.5305497   0.12797733    11352.188     1000 
  442000   0.42173084   -2.1837265   0.63196366   -1.5517628   0.14130514    11382.057     1000 
  444000   0.40981795   -2.1873546   0.61411219   -1.5732424   0.13679288    11276.415     1000 
  446000   0.41992358   -2.1297516   0.62925548   -1.5004961   0.13111376    11287.218     1000 
  448000   0.39612497     -2.18344   0.59359326   -1.5898467    0.1326968    11263.974     1000 
  450000   0.40051295   -2.1860201   0.60016865   -1.5858515   0.12714319    11410.525     1000 
  452000   0.39986917   -2.1829944   0.59920396   -1.5837905   0.12306666    11277.568     1000 
  454000   0.41167871   -2.1965067   0.61690055   -1.5796061   0.12403237    11399.322     1000 
  456000   0.40443175   -2.2416806   0.60604098   -1.6356396   0.12606751    11342.606     1000 
  458000   0.41992798   -2.2134943   0.62926208   -1.5842322   0.13051056    11388.814     1000 
  460000   0.41707756   -2.2186866   0.62499072   -1.5936958   0.12485379    11355.067     1000 
  462000   0.40986967   -2.1998124   0.61418971   -1.5856227   0.12523525    11391.919     1000 
  464000   0.41519222   -2.2026865   0.62216554    -1.580521   0.13599925    11327.426     1000 
  466000   0.40630252   -2.2195507   0.60884432   -1.6107064   0.13415418    11387.563     1000 
  468000    0.3913849   -2.2079918   0.58649027   -1.6215015   0.12348757    11455.678     1000 
  470000   0.41121192   -2.2066376   0.61620105   -1.5904366   0.12188058    11459.701     1000 
  472000   0.39367434   -2.1737872   0.58992099   -1.5838662   0.13058253    11352.291     1000 
  474000   0.41432027   -2.1742153   0.62085893   -1.5533564   0.13033467    11456.869     1000 
  476000   0.41624238   -2.1793768   0.62373921   -1.5556376   0.12505048     11379.11     1000 
  478000   0.39455212     -2.21156   0.59123635   -1.6203236   0.12296587     11435.48     1000 
  480000    0.4103103   -2.1962572   0.61484999   -1.5814072   0.13971999    11289.029     1000 
  482000   0.39764648   -2.1708944   0.59587325   -1.5750212   0.13538656    11301.837     1000 
  484000   0.40040723   -2.1401326   0.60001024   -1.5401223   0.12433306    11349.748     1000 
  486000   0.41908875   -2.1963754   0.62800449   -1.5683709   0.12157089    11436.728     1000 
  488000   0.39247204   -2.2153663   0.58811934    -1.627247   0.13299143    11375.041     1000 
  490000   0.40752582   -2.2213408   0.61067744   -1.6106633   0.13104826    11377.947     1000 
  492000   0.41449555   -2.2058636   0.62112159    -1.584742   0.12599203    11428.204     1000 
  494000   0.39887853   -2.2490322   0.59771947   -1.6513128    0.1096774    11489.307     1000 
  496000   0.40138116   -2.2525792   0.60146966   -1.6511095   0.12232199    11440.381     1000 
  498000   0.41076764   -2.1833914   0.61553531   -1.5678561   0.13459967    11318.929     1000 
  500000   0.41513374   -2.1936571   0.62207791   -1.5715792   0.14756947    11172.449     1000 
  502000   0.42045585   -2.2125929   0.63005309   -1.5825398   0.11769649    11530.833     1000 
  504000   0.40476826   -2.1869243   0.60654524   -1.5803791   0.12882723     11434.73     1000 
  506000   0.43043172   -2.1804065   0.64500193   -1.5354045   0.12964434    11387.575     1000 
  508000   0.42290197   -2.2306004    0.6337186   -1.5968818   0.12045317    11542.663     1000 
  510000   0.39520392   -2.1455226   0.59221308   -1.5533096   0.12216458    11354.159     1000 
  512000   0.39125889   -2.1917976   0.58630144   -1.6054961   0.13478149     11272.89     1000 
  514000   0.40470807    -2.200011   0.60645504    -1.593556   0.13139965     11380.63     1000 
  516000   0.41343431   -2.2109121   0.61953131   -1.5913808   0.12176789    11466.646     1000 
  518000   0.39750372   -2.1840855   0.59565932   -1.5884261   0.13281947    11317.705     1000 
  520000   0.42086855   -2.1844263   0.63067153   -1.5537548   0.13263457     11354.48     1000 
  522000   0.39668013   -2.2092337   0.59442517   -1.6148085    0.1291006    11451.113     1000 
  524000   0.40216905   -2.2346656   0.60265032   -1.6320153   0.13278378    11399.754     1000 
  526000   0.40869924   -2.2280559   0.61243581   -1.6156201   0.13060784    11374.688     1000 
  528000    0.4072146   -2.1545751   0.61021107    -1.544364   0.15032723    11183.986     1000 
  530000   0.40580971   -2.2057071   0.60810585   -1.5976012   0.12962926    11377.345     1000 
  532000   0.40765135   -2.2052035   0.61086555    -1.594338   0.13715807    11369.775     1000 
  534000    0.4330815   -2.2019261   0.64897263   -1.5529535   0.13119839    11424.649     1000 
  536000   0.41020331   -2.2053233   0.61468967   -1.5906337   0.12514665    11419.112     1000 
  538000   0.42357469   -2.1800988   0.63472667   -1.5453722   0.11777139    11510.244     1000 
  540000   0.42267089   -2.1737864   0.63337234   -1.5404141   0.11648021    11437.312     1000 
  542000   0.41210257   -2.1823322    0.6175357   -1.5647965   0.12324822    11413.473     1000 
  544000   0.39914572   -2.1828991   0.59811986   -1.5847792   0.12051607    11474.263     1000 
  546000   0.41332432   -2.1805882    0.6193665   -1.5612217   0.13414942    11279.754     1000 
  548000   0.40976302   -2.1455635   0.61402988   -1.5315336   0.14241074    11233.698     1000 
  550000    0.3941685   -2.2075385   0.59066149   -1.6168771   0.13256963    11370.791     1000 
  552000   0.41796418   -2.2052626   0.62631932   -1.5789433   0.12139756     11469.52     1000 
  554000   0.40610886   -2.1954039   0.60855412   -1.5868497   0.11986449    11391.585     1000 
  556000   0.43027242   -2.2664169   0.64476323   -1.6216536   0.12868436    11392.213     1000 
  558000   0.41436183   -2.2384487    0.6209212   -1.6175275     0.122381     11433.82     1000 
  560000   0.41210911   -2.2087439    0.6175455   -1.5911984   0.13516447    11369.276     1000 
  562000   0.40586932   -2.2018895   0.60819518   -1.5936943    0.1303569    11337.802     1000 
  564000   0.42342535   -2.2316918   0.63450289    -1.597189   0.13630317    11303.136     1000 
  566000   0.40963038   -2.1965354   0.61383112   -1.5827043   0.12281932    11414.473     1000 
  568000   0.41850987   -2.1640279   0.62713704   -1.5368909   0.13100085    11289.922     1000 
  570000   0.41980124   -2.1754894   0.62907215   -1.5464172   0.11738648    11375.566     1000 
  572000   0.41493531   -2.2142516   0.62178057    -1.592471   0.13661665    11315.218     1000 
  574000   0.43399585   -2.2171644   0.65034277   -1.5668216   0.12359002    11414.989     1000 
  576000   0.41255457   -2.1946044   0.61821303   -1.5763914   0.13211068    11386.337     1000 
  578000   0.40179283   -2.1861626   0.60208656    -1.584076   0.14170283    11297.829     1000 
  580000   0.40082027    -2.200721   0.60062918   -1.6000919   0.13531287     11369.08     1000 
  582000   0.42131894   -2.1870272   0.63134643   -1.5556807   0.13585112    11270.535     1000 
  584000    0.4271106   -2.1830212   0.64002523    -1.542996   0.13016599    11345.454     1000 
  586000   0.40928598   -2.1935695   0.61331504   -1.5802545   0.13219662    11323.912     1000 
  588000   0.40428697   -2.1758456   0.60582402   -1.5700215   0.13566559    11365.867     1000 
  590000   0.40986359   -2.1754208   0.61418059   -1.5612403   0.13674836    11322.315     1000 
  592000    0.3920169   -2.1986319   0.58743733   -1.6111946   0.13041383    11324.935     1000 
  594000   0.42737093   -2.2225631   0.64041533   -1.5821478   0.13159752    11441.332     1000 
  596000   0.44480259    -2.200657   0.66653668   -1.5341203   0.14212907    11388.543     1000 
  598000   0.40917829   -2.2142762   0.61315366   -1.6011226   0.13543158    11367.979     1000 
  600000   0.40949531   -2.2036686   0.61362872   -1.5900399   0.12451018    11426.735     1000 
  602000   0.41242894   -2.2085939   0.61802477   -1.5905691   0.11621758    11486.074     1000 
  604000   0.40372274   -2.2234604   0.60497852   -1.6184819   0.12931341    11317.959     1000 
  606000   0.39181902   -2.1977041    0.5871408   -1.6105633   0.12596851    11417.926     1000 
  608000   0.40752846   -2.1848782    0.6106814   -1.5741968   0.12444169    11366.242     1000 
  610000   0.40111851   -2.2008049   0.60107609   -1.5997288   0.12542842    11384.929     1000 
  612000   0.40034683    -2.179377   0.59991973   -1.5794573   0.12552414    11463.531     1000 
  614000   0.42563598   -2.1770866   0.63781552   -1.5392711   0.12786708    11350.429     1000 
  616000   0.42267143   -2.2009065   0.63337313   -1.5675334   0.12297716    11357.406     1000 
  618000   0.41404393   -2.2077893   0.62044483   -1.5873444   0.12553547    11424.634     1000 
  620000     0.419255   -2.2312322   0.62825361   -1.6029786   0.11728092    11504.769     1000 
  622000   0.43075917   -2.2004399   0.64549261   -1.5549472   0.13219731    11416.761     1000 
  624000   0.40334202   -2.2567869   0.60440801   -1.6523789    0.1185275    11426.054     1000 
  626000   0.41091077   -2.1845661   0.61574979   -1.5688163   0.12449607    11312.665     1000 
  628000   0.40456403   -2.1929795    0.6062392   -1.5867403   0.12712052    11300.476     1000 
  630000    0.4146487   -2.2189374   0.62135108   -1.5975863   0.13569924     11364.12     1000 
  632000   0.41750058   -2.1859634   0.62562462   -1.5603388   0.12525502    11388.291     1000 
  634000    0.3961196    -2.185529   0.59358522   -1.5919438   0.12787818     11253.62     1000 
  636000   0.41497837   -2.1765898   0.62184508   -1.5547447   0.11905716     11357.66     1000 
  638000   0.40956627   -2.1683793   0.61373506   -1.5546442   0.12950599    11436.656     1000 
  640000   0.40808665   -2.2152123   0.61151785   -1.6036944   0.12848843    11400.716     1000 
  642000   0.43408341   -2.2224858   0.65047399   -1.5720118   0.11765756     11425.36     1000 
  644000   0.40220134   -2.2332113   0.60269871   -1.6305125    0.1329397    11265.607     1000 
  646000   0.40773788   -2.1596304   0.61099521   -1.5486352   0.12627407    11329.474     1000 
  648000   0.41127414   -2.1629645   0.61629429   -1.5466702   0.12579272    11359.473     1000 
  650000   0.40407182   -2.1987927   0.60550162    -1.593291   0.12465072    11360.239     1000 
  652000   0.42378227    -2.186981   0.63503773   -1.5519433   0.12706025    11343.461     1000 
  654000   0.41436741   -2.1805398   0.62092956   -1.5596103   0.12978955    11362.777     1000 
  656000   0.40362506     -2.15765   0.60483216   -1.5528178   0.12734032     11348.96     1000 
  658000   0.42178812   -2.1883237    0.6320495   -1.5562742   0.13259437    11290.467     1000 
  660000    0.4132454   -2.2190068   0.61924824   -1.5997585   0.12132976    11504.887     1000 
  662000   0.39830573   -2.2228164   0.59686114   -1.6259553    0.1237905    11479.385     1000 
  664000    0.3979417   -2.1673874   0.59631564   -1.5710718   0.13119263    11330.431     1000 
  666000    0.3977414    -2.176572   0.59601549   -1.5805565   0.12795625    11370.136     1000 
  668000   0.41246684    -2.185878   0.61808156   -1.5677965   0.13550192    11273.417     1000 
  670000   0.41253418   -2.1921695   0.61818247   -1.5739871   0.12579523    11388.356     1000 
  672000   0.40385885   -2.2137281   0.60518248   -1.6085456   0.11692836    11465.824     1000 
  674000   0.40372027   -2.2262674   0.60497483   -1.6212926   0.12528336    11401.113     1000 
  676000     0.432821   -2.1724559   0.64858228   -1.5238737   0.12719378    11296.514     1000 
  678000   0.40550178   -2.1642602   0.60764442   -1.5566158   0.14354971    11244.823     1000 
  680000   0.39457767   -2.2150796   0.59127464    -1.623805   0.12464816    11477.961     1000 
  682000   0.40471981   -2.1859783   0.60647264   -1.5795057   0.12460757    11464.993     1000 
  684000   0.41122355   -2.1654316   0.61621849   -1.5492131   0.13931635     11189.46     1000 
  686000   0.40813984   -2.2222241   0.61159755   -1.6106265   0.12338382    11387.195     1000 
  688000   0.41199412   -2.1838001   0.61737319   -1.5664269   0.13470509     11310.84     1000 
  690000   0.41196707    -2.210913   0.61733265   -1.5935804   0.13952706    11250.629     1000 
  692000   0.40204444   -2.1945372   0.60246359   -1.5920737   0.13211324    11326.818     1000 
  694000    0.4131278   -2.1929531   0.61907201   -1.5738811   0.13379463    11374.399     1000 
  696000   0.41481261   -2.2386806    0.6215967   -1.6170839   0.12739551      11510.2     1000 
  698000   0.41277168   -2.2138396   0.61853836   -1.5953012    0.1145305    11486.031     1000 
  700000   0.38979524   -2.1496308   0.58410817   -1.5655226   0.13864697    11304.585     1000 
  702000   0.40093501   -2.2151146   0.60080112   -1.6143134   0.13878382    11334.524     1000 
  704000   0.42081265     -2.23577   0.63058776   -1.6051822   0.12301384    11455.241     1000 
  706000   0.40050338   -2.1502576   0.60015432   -1.5501033   0.14063855    11188.694     1000 
  708000   0.41295618   -2.1822643   0.61881483   -1.5634494   0.13070465    11420.246     1000 
  710000   0.41558435    -2.186281   0.62275314   -1.5635278   0.13324592    11354.377     1000 
  712000   0.38884787   -2.2095163   0.58268853   -1.6268278   0.13415007    11358.913     1000 
  714000   0.40349177   -2.1809102   0.60463241   -1.5762778   0.10861719    11591.449     1000 
  716000   0.41343786   -2.2206593   0.61953664   -1.6011226   0.13066351    11394.333     1000 
  718000   0.41883696   -2.1779169   0.62762718   -1.5502898    0.1259046    11421.908     1000 
  720000    0.4184266   -2.2430149   0.62701227   -1.6160026   0.12467515    11447.072     1000 
  722000   0.41878198   -2.2162622   0.62754479   -1.5887174   0.13477217    11321.083     1000 
  724000   0.41526526   -2.1976035     0.622275   -1.5753285   0.14168734    11232.123     1000 
  726000    0.4108669   -2.1642322   0.61568405   -1.5485482   0.14198327    11283.302     1000 
  728000   0.41896897   -2.1926496     0.627825   -1.5648246   0.13294697    11312.029     1000 
  730000   0.38209102   -2.1983434   0.57256339   -1.6257801   0.12583666    11342.619     1000 
  732000   0.40110605   -2.2319764   0.60105742   -1.6309189   0.11992038    11448.566     1000 
  734000   0.40691136   -2.1683735   0.60975667   -1.5586168   0.12816674    11389.017     1000 
  736000   0.40652096   -2.2188049   0.60917166   -1.6096333   0.12316052    11408.113     1000 
  738000   0.39994748   -2.2051304    0.5993213   -1.6058091   0.13431654    11435.632     1000 
  740000   0.39735198   -2.2186899   0.59543194    -1.623258   0.13130022     11364.47     1000 
  742000   0.39798765   -2.1891486    0.5963845   -1.5927641    0.1288152    11379.387     1000 
  744000   0.41043144   -2.2331968   0.61503152   -1.6181653    0.1255867     11511.58     1000 
  746000   0.42299428   -2.1649907   0.63385693   -1.5311338   0.13529829    11348.705     1000 
  748000   0.41789886   -2.1905898   0.62622144   -1.5643684   0.13991365    11275.064     1000 
  750000   0.39790656   -2.2100887   0.59626297   -1.6138257    0.1292116    11354.555     1000 
  752000   0.40815539   -2.2072211   0.61162086   -1.5956003   0.12518851    11400.736     1000 
  754000   0.40233129   -2.2422444   0.60289344    -1.639351   0.13725549    11311.688     1000 
  756000   0.41811987   -2.1767033   0.62655263   -1.5501507   0.14443782    11244.028     1000 
  758000   0.42871247   -2.2014185   0.64242564   -1.5589928   0.13569004    11286.216     1000 
  760000   0.40337486   -2.1475636   0.60445723   -1.5431064   0.13144374    11337.875     1000 
  762000   0.41398805   -2.1684363    0.6203611   -1.5480752   0.11834919    11392.497     1000 
  764000   0.40151204   -2.2100609   0.60166579   -1.6083951    0.1239969    11455.545     1000 
  766000   0.40973474   -2.1513138   0.61398751   -1.5373263   0.14550586    11161.627     1000 
  768000   0.41722772   -2.1706804   0.62521574   -1.5454647   0.13183571    11398.273     1000 
  770000   0.40949541   -2.1708463   0.61362887   -1.5572175   0.14198973    11215.687     1000 
  772000   0.40062498   -2.2222918   0.60033653   -1.6219552   0.12620863    11441.058     1000 
  774000   0.42095389   -2.1664789    0.6307994   -1.5356795   0.12658708    11449.707     1000 
  776000   0.41826427   -2.2404808   0.62676901   -1.6137118   0.13320731    11405.328     1000 
  778000   0.40997193   -2.1422822   0.61434293   -1.5279393    0.1360636    11292.045     1000 
  780000   0.40708535   -2.2134811   0.61001739   -1.6034637   0.13177834    11385.641     1000 
  782000   0.42664629   -2.1724248   0.63932947   -1.5330953   0.15017354    11277.916     1000 
  784000   0.40685595   -2.1632886   0.60967364    -1.553615   0.13132955    11356.092     1000 
  786000   0.38614214    -2.208543     0.578634    -1.629909   0.12015399    11465.335     1000 
  788000    0.3997338   -2.1988901   0.59900109    -1.599889    0.1126661    11489.839     1000 
  790000   0.41729772    -2.142347   0.62532063   -1.5170264   0.13555928    11285.975     1000 
  792000   0.43153442    -2.191642   0.64665432   -1.5449876   0.12814992    11396.126     1000 
  794000   0.42081989   -2.2490107    0.6305986   -1.6184121   0.12675068    11411.335     1000 
  796000   0.39680025   -2.2058796   0.59460518   -1.6112744   0.12719515    11414.695     1000 
  798000   0.41254251   -2.2207206   0.61819495   -1.6025257   0.11944892    11444.497     1000 
  800000   0.40991048   -2.1373783   0.61425085   -1.5231274   0.13928439    11254.597     1000 
  802000   0.43251579   -2.2403265   0.64812491   -1.5922016   0.13020626     11315.51     1000 
  804000    0.4096643   -2.2413148   0.61388195   -1.6274329    0.1167407    11542.535     1000 
  806000   0.41663576   -2.2052501   0.62432869   -1.5809214   0.13167113    11352.248     1000 
  808000   0.40723605   -2.1859216   0.61024323   -1.5756784   0.12360302    11378.656     1000 
  810000    0.4046359   -2.1559616    0.6063469   -1.5496147   0.13325081    11361.314     1000 
  812000   0.41590077   -2.1686838   0.62322731   -1.5454565   0.13728018    11337.771     1000 
  814000   0.41335455   -2.2402519    0.6194118   -1.6208401    0.1261283    11471.586     1000 
  816000   0.40948263   -2.1662971   0.61360972   -1.5526874   0.13149788    11347.859     1000 
  818000   0.40134322   -2.1980711   0.60141282   -1.5966582   0.12765003    11331.141     1000 
  820000   0.41357402   -2.2211787   0.61974066    -1.601438   0.12086822    11462.729     1000 
  822000   0.39923881    -2.167475   0.59825936   -1.5692156   0.13023228    11345.625     1000 
  824000   0.39852566   -2.1767552    0.5971907   -1.5795645     0.134773    11286.321     1000 
  826000    0.3822891   -2.1925502   0.57286022     -1.61969   0.13041645    11226.433     1000 
  828000   0.42036859   -2.1768228   0.62992234   -1.5469004    0.1264855    11409.129     1000 
  830000    0.4142452   -2.2109921   0.62074643   -1.5902456   0.12166455    11467.308     1000 
  832000   0.40232305    -2.204917    0.6028811   -1.6020359   0.12177757    11445.114     1000 
  834000   0.41888346   -2.1915302   0.62769686   -1.5638333   0.12987889    11408.428     1000 
  836000   0.41377475   -2.2107046   0.62004146   -1.5906631   0.11969281    11488.324     1000 
  838000   0.41579564   -2.2249814   0.62306976   -1.6019117   0.12959961    11387.625     1000 
  840000   0.40810872   -2.1667157   0.61155092   -1.5551648    0.1390049    11368.095     1000 
  842000   0.43545023   -2.1707388   0.65252217   -1.5182167   0.13264425    11426.003     1000 
  844000   0.41724759   -2.2138876   0.62524552    -1.588642    0.1243305    11431.016     1000 
  846000   0.40179138   -2.2056189   0.60208439   -1.6035345   0.13294635    11362.164     1000 
  848000   0.41304028   -2.1985966   0.61894087   -1.5796557   0.13534907    11373.618     1000 
  850000   0.41161161   -2.1700993       0.6168   -1.5532993   0.14958712     11263.33     1000 
  852000   0.42189277   -2.1400687   0.63220632   -1.5078624   0.13732854    11161.262     1000 
  854000   0.40457112   -2.2014693   0.60624982   -1.5952195   0.12655416     11376.33     1000 
  856000   0.41106503   -2.1927696   0.61598095   -1.5767886   0.12771503    11420.722     1000 
  858000   0.39766274   -2.1554006   0.59589762    -1.559503    0.1326979    11279.863     1000 
  860000   0.40516564   -2.2010057   0.60714071    -1.593865   0.13261646    11304.458     1000 
  862000    0.4138151   -2.1687547   0.62010192   -1.5486528    0.1317025    11235.172     1000 
  864000   0.41250407   -2.1837543   0.61813734    -1.565617   0.13722277    11298.774     1000 
  866000    0.4039405   -2.1902891   0.60530484   -1.5849843   0.13755501    11322.273     1000 
  868000   0.40095069   -2.1841262   0.60082461   -1.5833016   0.12841393    11329.076     1000 
  870000   0.39929705   -2.2156867   0.59834663   -1.6173401   0.11341727    11500.812     1000 
  872000   0.39803332   -2.1891998   0.59645293   -1.5927468    0.1214198    11453.551     1000 
  874000   0.40796086   -2.1981632   0.61132936   -1.5868338   0.12505008     11466.75     1000 
  876000   0.40879055   -2.2196638   0.61257264   -1.6070911   0.12983403    11460.138     1000 
  878000   0.40724098   -2.2100657   0.61025061   -1.5998151   0.12507808    11345.111     1000 
  880000   0.40068667   -2.1953563   0.60042898   -1.5949273   0.13416909     11345.54     1000 
  882000   0.42442433   -2.1927742   0.63599986   -1.5567743   0.12108288    11413.094     1000 
  884000    0.4316069    -2.190775   0.64676294   -1.5440121   0.12410398    11430.466     1000 
  886000   0.41150115   -2.2279855   0.61663447    -1.611351   0.12170882    11474.402     1000 
  888000     0.408447   -2.1713755   0.61205784   -1.5593177   0.12157295    11344.124     1000 
  890000   0.41284872   -2.1666479   0.61865381    -1.547994   0.14380062    11183.996     1000 
  892000   0.39690998   -2.1929475   0.59476961   -1.5981779     0.122595    11454.655     1000 
  894000   0.40986336   -2.2065125   0.61418025   -1.5923323   0.13138357    11357.797     1000 
  896000   0.40766189   -2.2014046   0.61088135   -1.5905232   0.12620488    11439.964     1000 
  898000   0.41440745   -2.2178196   0.62098956   -1.5968301   0.12333257    11374.121     1000 
  900000   0.39925101   -2.2296592   0.59827764   -1.6313816   0.13170104    11353.904     1000 
  902000   0.41175883   -2.1341222   0.61702061   -1.5171016    0.1390951    11202.022     1000 
  904000   0.41121002   -2.2120095   0.61619821   -1.5958113   0.13390794    11447.634     1000 
  906000   0.40611308   -2.2115417   0.60856045   -1.6029812   0.12898583    11484.634     1000 
  908000   0.41867738    -2.198603   0.62738805    -1.571215   0.13429928    11367.221     1000 
  910000   0.40870622   -2.1886856   0.61244626   -1.5762394   0.13227941    11333.872     1000 
  912000   0.42230456   -2.2188524   0.63282339   -1.5860291   0.13321638    11403.767     1000 
  914000   0.40931651   -2.1979081    0.6133608   -1.5845473   0.13014802    11312.352     1000 
  916000   0.41303789   -2.1688231   0.61893728   -1.5498858   0.13539395    11284.613     1000 
  918000    0.4200064   -2.1846713   0.62937959   -1.5552917   0.13961079    11273.772     1000 
  920000   0.43152266   -2.2437322   0.64663671   -1.5970955   0.12792342    11399.566     1000 
  922000   0.40954069   -2.1975655   0.61369673   -1.5838688     0.133048    11288.393     1000 
  924000   0.39978513   -2.2183464   0.59907801   -1.6192684   0.12566569    11288.687     1000 
  926000   0.41656359    -2.181138   0.62422053   -1.5569175   0.12135213    11424.374     1000 
  928000   0.41817763   -2.2189026   0.62663917   -1.5922634   0.11750766     11413.63     1000 
  930000   0.39875796   -2.2003719   0.59753881   -1.6028331     0.129819    11374.883     1000 
  932000   0.41400186    -2.210902   0.62038179   -1.5905202   0.13024998    11395.995     1000 
  934000   0.40428078   -2.2050113   0.60581474   -1.5991966   0.13097482    11379.741     1000 
  936000    0.4156166   -2.1819379   0.62280148   -1.5591365   0.12517094    11294.112     1000 
  938000   0.39541974   -2.1969392   0.59253648   -1.6044027   0.13921647    11313.233     1000 
  940000   0.40603456     -2.24795   0.60844279   -1.6395072   0.12966653    11445.505     1000 
  942000   0.43151774   -2.1883265   0.64662933   -1.5416972   0.13936648    11232.694     1000 
  944000   0.41401427   -2.1750878   0.62040038   -1.5546874   0.14275851    11190.564     1000 
  946000   0.41369461   -2.2176283   0.61992137   -1.5977069   0.13728592    11253.172     1000 
  948000   0.40395698   -2.1895134   0.60532953   -1.5841838   0.13674831    11351.523     1000 
  950000   0.42678689    -2.200724   0.63954016   -1.5611838    0.1250559    11447.246     1000 
  952000   0.41354232   -2.1965836   0.61969317   -1.5768904   0.13072175    11275.623     1000 
  954000   0.41000146   -2.2122598   0.61438719   -1.5978726   0.12176388      11504.1     1000 
  956000   0.40181755   -2.1622317    0.6021236   -1.5601081   0.14519333    11212.811     1000 
  958000   0.39871276   -2.1936438   0.59747108   -1.5961727   0.13473246    11364.928     1000 
  960000     0.404454   -2.1653938   0.60607432   -1.5593195   0.13152735        11354     1000 
  962000   0.41662665   -2.1994481   0.62431504    -1.575133   0.13229432    11404.874     1000 
  964000   0.40911953   -2.1844202   0.61306562   -1.5713546   0.11382786    11502.974     1000 
  966000   0.42227468   -2.1605689    0.6327786   -1.5277903   0.13517927    11371.853     1000 
  968000   0.41085454   -2.2097173   0.61566553   -1.5940517    0.1311437     11344.79     1000 
  970000   0.41045789    -2.137163   0.61507114   -1.5220918   0.12577778    11261.243     1000 
  972000   0.40717242   -2.2218426   0.61014788   -1.6116947   0.10961233    11561.805     1000 
  974000   0.41177982   -2.1926726   0.61705207   -1.5756205   0.12622771    11363.563     1000 
  976000   0.40589914   -2.2061207   0.60823986   -1.5978808   0.12722389    11469.846     1000 
  978000   0.39875295   -2.2254778   0.59753129   -1.6279465   0.12489847    11381.525     1000 
  980000   0.41255615   -2.1710401   0.61821539   -1.5528247   0.12346507    11421.641     1000 
  982000   0.40134941   -2.1983397    0.6014221   -1.5969176   0.12761656    11376.563     1000 
  984000   0.41325876   -2.2259966   0.61926826   -1.6067284   0.13135368    11400.129     1000 
  986000   0.40325461   -2.1824124   0.60427704   -1.5781354   0.14193004    11339.609     1000 
  988000   0.44466755   -2.1717855   0.66633433   -1.5054512   0.13306261    11382.568     1000 
  990000   0.41105577   -2.1788587   0.61596706   -1.5628917     0.139924    11329.782     1000 
  992000   0.39040408   -2.2039215   0.58502051    -1.618901    0.1284879    11377.769     1000 
  994000   0.41462685    -2.225974   0.62131834   -1.6046557   0.11378673    11494.081     1000 
  996000   0.40926955   -2.2148473   0.61329043   -1.6015569   0.13241736    11296.812     1000 
  998000   0.41012099   -2.1791577    0.6145663   -1.5645914   0.14244267    11261.353     1000 
 1000000   0.41247055   -2.1832211   0.61808712    -1.565134   0.12853136    11471.274     1000 
 1002000   0.41796647   -2.2255183   0.62632276   -1.5991955   0.11621189    11457.151     1000 
 1004000   0.39605822   -2.2076859   0.59349324   -1.6141927   0.13107395    11375.518     1000 
 1006000   0.42635108   -2.1861995    0.6388871   -1.5473124   0.11996129    11479.562     1000 
 1008000     0.394769   -2.2392774   0.59156134   -1.6477161   0.12046822    11401.072     1000 
 1010000   0.39403734   -2.1910371   0.59046496   -1.6005722   0.13335514    11329.124     1000 
 1012000   0.40181626   -2.1873241   0.60212166   -1.5852024   0.13233232    11305.172     1000 
 1014000   0.43061578    -2.209805   0.64527775   -1.5645273   0.13309944    11334.035     1000 
 1016000    0.4068937   -2.2448543   0.60973021   -1.6351241   0.11307234    11519.569     1000 
 1018000   0.40497494   -2.1915147   0.60685495   -1.5846598     0.133781    11329.049     1000 
 1020000   0.39658042   -2.1343021   0.59427576   -1.5400263   0.13324413    11251.954     1000 
 1022000    0.4007321   -2.1976083   0.60049705   -1.5971112   0.13448423    11316.502     1000 
 1024000   0.39840277   -2.2499399   0.59700655   -1.6529334   0.13375872    11508.224     1000 
 1026000   0.40256948   -2.2161668   0.60325037   -1.6129165   0.13248296    11379.997     1000 
 1028000   0.38746503   -2.2003743   0.58061635   -1.6197579   0.13782642    11289.309     1000 
 1030000   0.42158412   -2.1846994    0.6317438   -1.5529556   0.13789749    11308.303     1000 
 1032000   0.41796718   -2.1769444   0.62632381   -1.5506206   0.13550522    11451.446     1000 
 1034000   0.40782683   -2.2342684   0.61112851   -1.6231398   0.12844588    11396.177     1000 
 1036000   0.42751735   -2.1741369   0.64063474   -1.5335021   0.12588152    11496.021     1000 
 1038000   0.41062053   -2.1720487   0.61531486   -1.5567339   0.13299808    11284.976     1000 
 1040000   0.38578146   -2.2134473   0.57809352   -1.6353538   0.12579981    11449.338     1000 
 1042000   0.40750152   -2.2377098   0.61064103   -1.6270688   0.12970341    11378.918     1000 
 1044000   0.40924865    -2.151993   0.61325911   -1.5387339   0.12843842    11340.776     1000 
 1046000   0.39196036   -2.1852251    0.5873526   -1.5978725   0.12287432    11373.566     1000 
 1048000   0.40398734   -2.2474575   0.60537503   -1.6420825   0.12332928    11439.916     1000 
 1050000   0.41379671   -2.1880085   0.62007438   -1.5679341   0.13736555    11265.858     1000 
 1052000   0.40381821   -2.1381875   0.60512159   -1.5330659   0.13924612    11324.997     1000 
 1054000   0.42050472   -2.1861557   0.63012632   -1.5560294   0.13458781    11407.634     1000 
 1056000   0.40993163   -2.2076893   0.61428254   -1.5934067   0.12312494    11461.105     1000 
 1058000   0.40663414   -2.1555562   0.60934126   -1.5462149   0.14012838    11309.926     1000 
 1060000   0.42223631   -2.1996407   0.63272111   -1.5669196   0.12796968    11402.776     1000 
 1062000   0.40740781   -2.2036435   0.61050061   -1.5931429    0.1319918    11302.503     1000 
 1064000   0.40320915   -2.1878833   0.60420892   -1.5836744   0.12735679    11394.286     1000 
 1066000   0.39716026   -2.2044462   0.59514465   -1.6093016   0.13097643    11343.009     1000 
 1068000   0.40584996   -2.2504639   0.60816617   -1.6422977    0.1257079     11525.86     1000 
 1070000   0.41147631    -2.162539   0.61659725   -1.5459417   0.13025324    11369.404     1000 
 1072000   0.39716398   -2.2255563   0.59515022   -1.6304061   0.12303928    11471.865     1000 
 1074000   0.41894409   -2.2098032   0.62778771   -1.5820154   0.13314074     11253.64     1000 
 1076000   0.39749053   -2.2258471   0.59563956   -1.6302075   0.12530042    11441.036     1000 
 1078000   0.41958477   -2.2111717   0.62874777    -1.582424   0.12878558    11360.308     1000 
 1080000   0.39436784   -2.2273821   0.59096021   -1.6364219   0.12743589    11421.301     1000 
 1082000   0.43206812   -2.2476621   0.64745408    -1.600208   0.12886822    11493.889     1000 
 1084000   0.41297212   -2.1829458   0.61883872   -1.5641071   0.13056027    11356.432     1000 
 1086000   0.41632333   -2.2007518   0.62386051   -1.5768913   0.13705792    11346.073     1000 
 1088000   0.40208627   -2.2050047   0.60252628   -1.6024784   0.12607768    11390.083     1000 
 1090000   0.42335983   -2.1340558   0.63440471   -1.4996511   0.12621808    11321.234     1000 
 1092000   0.41231489   -2.1830797   0.61785387   -1.5652258   0.13860757    11252.877     1000 
 1094000    0.4252199   -2.1876288   0.63719202   -1.5504368   0.13794286    11349.832     1000 
 1096000   0.42524088   -2.2473658   0.63722346   -1.6101423   0.14401823    11227.754     1000 
 1098000   0.42102956   -2.1489537   0.63091279   -1.5180409   0.13533648     11302.44     1000 
 1100000   0.40484379   -2.1901081   0.60665842   -1.5834496   0.12871865     11354.31     1000 
 1102000   0.41604383   -2.1863932   0.62344168   -1.5629515   0.12968754    11268.581     1000 
 1104000   0.40983642   -2.1866184   0.61413988   -1.5724785   0.13771009    11265.947     1000 
 1106000   0.40492243   -2.2616587   0.60677626   -1.6548825   0.12313305    11546.693     1000 
 1108000   0.40021895   -2.2055029    0.5997281   -1.6057748   0.13144279    11342.844     1000 
 1110000   0.41172114    -2.170444   0.61696413   -1.5534798   0.12777526    11469.895     1000 
 1112000   0.40727183    -2.213521   0.61029683   -1.6032242   0.12767817    11379.716     1000 
 1114000   0.41089766   -2.2219568   0.61573014   -1.6062267   0.13144771    11410.126     1000 
 1116000   0.39828915   -2.1785618   0.59683629   -1.5817255   0.13550986    11255.251     1000 
 1118000    0.4129364   -2.2039798   0.61878519   -1.5851946   0.13455764    11293.046     1000 
 1120000   0.40443341   -2.1594822   0.60604346   -1.5534388    0.1399697    11329.738     1000 
 1122000   0.38722633   -2.2086753   0.58025865   -1.6284167   0.14139994    11252.334     1000 
 1124000   0.40221356    -2.173461   0.60271702    -1.570744   0.11985207    11470.786     1000 
 1126000   0.42690723   -2.1890362   0.63972049   -1.5493157   0.12072624      11399.4     1000 
 1128000   0.41103357    -2.229838    0.6159338   -1.6139042   0.13691021    11260.159     1000 
 1130000   0.41182048   -2.1893718   0.61711299   -1.5722588   0.12286274    11317.022     1000 
 1132000   0.42411224    -2.193979   0.63553219   -1.5584468     0.134222    11284.937     1000 
 1134000   0.40557539   -2.1575961   0.60775472   -1.5498414   0.11804008    11441.584     1000 
 1136000   0.41948606   -2.2031903   0.62859985   -1.5745905    0.1269618    11423.815     1000 
 1138000   0.42402891   -2.1830368   0.63540733   -1.5476295   0.12289904    11354.211     1000 
 1140000   0.42003164   -2.1829885   0.62941741   -1.5535711   0.13167746    11397.809     1000 
 1142000    0.4047416   -2.2578309   0.60650529   -1.6513256   0.12280099    11441.317     1000 
 1144000   0.40456227   -2.1910558   0.60623656   -1.5848192    0.1451688    11263.414     1000 
 1146000   0.40819005   -2.2063402   0.61167279   -1.5946674   0.12941631    11331.156     1000 
 1148000   0.42470313   -2.2042054   0.63641765   -1.5677877   0.13234102    11439.836     1000 
 1150000   0.40906975   -2.2182918   0.61299102   -1.6053008   0.12932237    11353.618     1000 
 1152000   0.40610153    -2.253085   0.60854314   -1.6445419   0.12627004     11434.31     1000 
 1154000   0.40618722   -2.1708931   0.60867156   -1.5622216   0.13041344    11395.644     1000 
 1156000   0.42409438    -2.206717   0.63550544   -1.5712116   0.13157801    11407.714     1000 
 1158000   0.40703697   -2.1669194   0.60994489   -1.5569746    0.1217349    11305.433     1000 
 1160000   0.41351817   -2.1949912   0.61965697   -1.5753342   0.12731792    11354.105     1000 
 1162000   0.38926484   -2.1732975   0.58331336   -1.5899841   0.10986687    11504.739     1000 
 1164000   0.39913202   -2.2449154   0.59809934    -1.646816   0.11917916    11483.967     1000 
 1166000   0.39910346   -2.2100851   0.59805653   -1.6120286   0.12498226    11427.896     1000 
 1168000   0.41317916   -2.2115617   0.61914897   -1.5924128   0.13194903    11391.902     1000 
 1170000   0.42396047   -2.2108008   0.63530476    -1.575496   0.12548887    11433.968     1000 
 1172000   0.40708619   -2.2234898   0.61001865   -1.6134712   0.12501223    11337.561     1000 
 1174000   0.41822335   -2.1727033   0.62670769   -1.5459956   0.14447887     11187.52     1000 
 1176000   0.38819818   -2.2308432   0.58171498   -1.6491282   0.11691807     11553.96     1000 
 1178000    0.4089599   -2.2555931    0.6128264   -1.6427667   0.11612686    11514.246     1000 
 1180000   0.41433232   -2.2201886   0.62087698   -1.5993116    0.1222384    11395.747     1000 
 1182000   0.40466522   -2.2134032   0.60639083   -1.6070124   0.12988484    11322.428     1000 
 1184000   0.38694591   -2.1862153   0.57983845   -1.6063768   0.12442256     11397.25     1000 
 1186000   0.40808711   -2.1925012   0.61151853   -1.5809827   0.12352372     11312.95     1000 
 1188000   0.39910363   -2.1983832   0.59805679   -1.6003264   0.13577482    11305.525     1000 
 1190000   0.40218025   -2.1836377   0.60266711   -1.5809706   0.13438988    11441.992     1000 
 1192000     0.416867   -2.1870239    0.6246752   -1.5623487   0.12387426    11418.543     1000 
 1194000    0.4388064   -2.1850212    0.6575514   -1.5274698   0.13761285    11384.469     1000 
 1196000   0.39712766   -2.2028449   0.59509581   -1.6077491   0.12998677    11340.951     1000 
 1198000    0.4262637   -2.2091968   0.63875616   -1.5704407   0.12508283    11508.643     1000 
 1200000    0.4204869   -2.1721775   0.63009962   -1.5420779   0.14154654    11285.396     1000 
 1202000    0.4103509   -2.1875544   0.61491082   -1.5726436   0.13595769    11221.641     1000 
 1204000   0.41076937   -2.1871844    0.6155379   -1.5716465   0.12112078    11456.055     1000 
 1206000    0.3988739   -2.2193151   0.59771254   -1.6216026   0.13159397    11386.736     1000 
 1208000    0.4186272   -2.1730414   0.62731286   -1.5457285   0.12362633    11369.149     1000 
 1210000   0.40602431   -2.2014641   0.60842743   -1.5930366   0.13127295    11398.924     1000 
 1212000   0.39460238   -2.2315129   0.59131166   -1.6402012   0.12162718    11345.352     1000 
 1214000   0.39863999   -2.2107251   0.59736203   -1.6133631   0.13238524    11359.911     1000 
 1216000   0.40681465   -2.2185171   0.60961176   -1.6089053   0.11505613    11531.645     1000 
 1218000   0.40053105   -2.1518244   0.60019577   -1.5516287   0.13241551    11271.663     1000 
 1220000   0.41491473   -2.2196245   0.62174973   -1.5978748   0.12486407    11376.106     1000 
 1222000   0.43003835   -2.2063854   0.64441247   -1.5619729   0.14193215    11211.333     1000 
 1224000   0.40618662    -2.207744   0.60867066   -1.5990734   0.12917089    11311.086     1000 
 1226000   0.40469236   -2.2192336    0.6064315   -1.6128021    0.1200213    11442.303     1000 
 1228000   0.40135604    -2.217909   0.60143203    -1.616477   0.13699568    11407.467     1000 
 1230000   0.42745476   -2.2015995   0.64054095   -1.5610585   0.11860161    11490.665     1000 
 1232000   0.41423336    -2.191317    0.6207287   -1.5705883   0.13407212    11294.779     1000 
 1234000   0.40850263   -2.1595845    0.6121412   -1.5474433   0.13834909    11222.622     1000 
 1236000   0.41046013   -2.2437493    0.6150745   -1.6286748    0.1363852    11412.526     1000 
 1238000   0.40253129   -2.2308957   0.60319313   -1.6277026   0.12217995    11431.638     1000 
 1240000   0.40731305   -2.2111949   0.61035861   -1.6008363   0.13503743    11401.387     1000 
 1242000   0.41197989   -2.1981321   0.61735187   -1.5807803    0.1434759    11233.015     1000 
 1244000   0.39164839   -2.2029986   0.58688511   -1.6161135    0.1377518    11307.606     1000 
 1246000   0.39426122   -2.2199271   0.59080043   -1.6291267   0.12881759     11390.58     1000 
 1248000   0.39624038   -2.2150415   0.59376621   -1.6212753   0.13204711    11368.276     1000 
 1250000   0.40611033   -2.2346043   0.60855633    -1.626048   0.13444354     11378.04     1000 
 1252000   0.41093561   -2.2385544   0.61578701   -1.6227674   0.12297242    11380.142     1000 
 1254000     0.419345   -2.2239904   0.62838848   -1.5956019   0.13500124    11358.088     1000 
 1256000   0.42328696    -2.231992   0.63429551   -1.5976965   0.14449357    11337.032     1000 
 1258000   0.41276832   -2.1884616   0.61853333   -1.5699283   0.12929247    11369.512     1000 
 1260000   0.39644764   -2.1617534   0.59407679   -1.5676766   0.12287807    11402.613     1000 
 1262000   0.41284738    -2.175607    0.6186518   -1.5569552   0.13503157    11366.272     1000 
 1264000   0.41235862   -2.2056275    0.6179194   -1.5877081    0.1283759    11337.999     1000 
 1266000   0.41210551   -2.2075738   0.61754011   -1.5900337   0.12164661    11471.208     1000 
 1268000    0.4149281   -2.1608375   0.62176975   -1.5390677   0.13276155    11325.614     1000 
 1270000   0.41551488   -2.2056824   0.62264904   -1.5830333   0.13794005    11374.308     1000 
 1272000   0.41040153   -2.1816365    0.6149867   -1.5666498   0.12956778    11362.278     1000 
 1274000   0.39962948   -2.2349442   0.59884478   -1.6360994   0.12851126    11404.832     1000 
 1276000   0.40372687   -2.2094219   0.60498471   -1.6044372   0.12512323    11400.904     1000 
 1278000   0.39091464   -2.2008757   0.58578559   -1.6150901    0.1313126    11272.166     1000 
 1280000   0.38170871    -2.194276    0.5719905   -1.6222855   0.13203466    11359.431     1000 
 1282000   0.41102683   -2.2095779    0.6159237   -1.5936542   0.12889354     11390.12     1000 
 1284000   0.41622217   -2.2153168   0.62370892   -1.5916079   0.12667955    11456.565     1000 
 1286000     0.397887   -2.1854007   0.59623367   -1.5891671   0.12455202    11314.129     1000 
 1288000   0.39460666   -2.2092758   0.59131808   -1.6179578   0.13632276    11269.642     1000 
 1290000   0.42000318   -2.1901596   0.62937476   -1.5607848   0.13163744    11368.329     1000 
 1292000   0.40669826   -2.2166715   0.60943734   -1.6072342   0.12265685    11455.227     1000 
 1294000   0.42026911    -2.201673   0.62977326   -1.5718997   0.12931604    11409.107     1000 
 1296000   0.40230209   -2.1452276   0.60284968   -1.5423779   0.14171207    11273.097     1000 
 1298000   0.40766885   -2.2254534   0.61089176   -1.6145616   0.12460544    11451.912     1000 
 1300000   0.40411167    -2.229551   0.60556133   -1.6239897   0.12489382    11366.633     1000 
 1302000   0.40118725   -2.1955688    0.6011791   -1.5943897    0.1351613    11311.515     1000 
 1304000   0.41045927   -2.2132014   0.61507322   -1.5981281     0.126067    11460.482     1000 
 1306000   0.40142856   -2.1805679    0.6015407   -1.5790272   0.12997621    11373.997     1000 
 1308000   0.41886316   -2.1695888   0.62766644   -1.5419223     0.125193    11435.034     1000 
 1310000   0.41187347    -2.198105   0.61719239   -1.5809126   0.13960847    11285.571     1000 
 1312000      0.41565   -2.2481766   0.62285153    -1.625325   0.12832516    11446.035     1000 
 1314000   0.41451943   -2.1633393   0.62115737   -1.5421819   0.13635852     11267.92     1000 
 1316000   0.39715523   -2.1862974   0.59513712   -1.5911603   0.14044387    11316.786     1000 
 1318000    0.4262354   -2.2138284   0.63871375   -1.5751147   0.13352886    11379.779     1000 
 1320000   0.42546306   -2.1802117    0.6375564   -1.5426553   0.12934988     11306.03     1000 
 1322000    0.4107752   -2.1638379   0.61554664   -1.5482913   0.12040734    11452.733     1000 
 1324000   0.40380626   -2.1885903   0.60510368   -1.5834867   0.12229946    11446.603     1000 
 1326000   0.40802758   -2.1547925   0.61142932   -1.5433632   0.12846121    11388.198     1000 
 1328000   0.39178779   -2.2261031   0.58709401   -1.6390091   0.12260191    11448.146     1000 
 1330000   0.41804233   -2.1726057   0.62643644   -1.5461692   0.14254234    11225.986     1000 
 1332000   0.40695695   -2.2095061     0.609825   -1.5996811   0.13508989    11323.743     1000 
 1334000   0.40479027   -2.2508233   0.60657822   -1.6442451   0.12995835    11426.194     1000 
 1336000   0.39595275   -2.1869115    0.5933352   -1.5935763   0.12932296    11432.804     1000 
 1338000   0.40768942   -2.2393737   0.61092259   -1.6284511   0.12963505    11376.868     1000 
 1340000   0.40809327   -2.1981798   0.61152777    -1.586652   0.13727806    11329.754     1000 
 1342000   0.40673833   -2.1259043   0.60949738   -1.5164069   0.13061624    11218.699     1000 
 1344000   0.40978448   -2.1932318   0.61406204   -1.5791698   0.12849424    11412.381     1000 
 1346000    0.3997978    -2.181678   0.59909701    -1.582581   0.14005723    11294.776     1000 
 1348000   0.38582121   -2.1978086   0.57815309   -1.6196555   0.11466985    11388.486     1000 
 1350000   0.42258377   -2.1616849   0.63324178   -1.5284431   0.12467242    11368.041     1000 
 1352000   0.42763441   -2.2276541   0.64081016   -1.5868439   0.13519405    11298.751     1000 
 1354000   0.39343512   -2.1664034   0.58956253   -1.5768408   0.13723781    11325.582     1000 
 1356000   0.39937004   -2.2183219   0.59845601   -1.6198659   0.12423784    11424.463     1000 
 1358000   0.41269685   -2.2299963   0.61842623   -1.6115701   0.13460156    11380.734     1000 
 1360000    0.4029978   -2.2329473   0.60389221   -1.6290551    0.1239066    11403.294     1000 
 1362000   0.41905424   -2.2137817   0.62795277   -1.5858289   0.12861254    11346.325     1000 
 1364000   0.40491191   -2.2051448    0.6067605   -1.5983843   0.12876183    11277.475     1000 
 1366000   0.42264126   -2.1742456   0.63332793   -1.5409176   0.13797085    11331.182     1000 
 1368000     0.410758   -2.2384458   0.61552086   -1.6229249   0.12697187     11386.53     1000 
 1370000   0.39690201   -2.2390669   0.59475766   -1.6443092   0.12037513    11497.662     1000 
 1372000   0.39989422   -2.1901259   0.59924149   -1.5908844   0.12355827    11396.502     1000 
 1374000   0.40888699   -2.2415584   0.61271716   -1.6288413   0.12172989    11532.659     1000 
 1376000   0.40907728    -2.189319    0.6130023   -1.5763167    0.1282859    11372.024     1000 
 1378000   0.41132052   -2.1852556    0.6163638   -1.5688918   0.12009795    11429.713     1000 
 1380000   0.41061469   -2.2201798   0.61530612   -1.6048737   0.13650957    11313.581     1000 
 1382000   0.40387568   -2.2124287   0.60520771   -1.6072209   0.11905539     11475.48     1000 
 1384000   0.40565816   -2.1982158   0.60787875   -1.5903371   0.12096347    11409.238     1000 
 1386000   0.43050328    -2.235572   0.64510916   -1.5904629   0.14685925     11281.31     1000 
 1388000   0.40132184   -2.1665704   0.60138078   -1.5651896   0.13635185    11302.365     1000 
 1390000   0.41683725   -2.2274448   0.62463061   -1.6028142   0.13206745    11414.222     1000 
 1392000     0.423022   -2.1943308   0.63389847   -1.5604323   0.12863906    11371.778     1000 
 1394000   0.40279588    -2.165335   0.60358962   -1.5617453   0.12890895    11281.056     1000 
 1396000   0.39354097   -2.1937426   0.58972114   -1.6040215   0.11649546    11472.294     1000 
 1398000   0.40109789   -2.1639047   0.60104519   -1.5628595   0.11908535      11506.8     1000 
 1400000   0.39794702   -2.2016318   0.59632361   -1.6053081   0.12004269    11543.038     1000 
 1402000    0.3974599   -2.1992243   0.59559365   -1.6036306   0.13650229    11264.518     1000 
 1404000   0.41665624   -2.1931852   0.62435937   -1.5688258   0.14106852    11282.224     1000 
 1406000   0.39953115   -2.1873659   0.59869743   -1.5886685   0.12660649    11388.821     1000 
 1408000   0.39754498   -2.1802988   0.59572116   -1.5845777   0.12177141    11413.451     1000 
 1410000   0.38956537   -2.1700269   0.58376371   -1.5862632   0.14029653    11229.091     1000 
 1412000   0.41386243   -2.2112804   0.62017285   -1.5911076   0.13057562    11320.332     1000 
 1414000   0.40878532   -2.1906353   0.61256481   -1.5780705   0.12939712    11410.678     1000 
 1416000   0.41845087   -2.2053789   0.62704862   -1.5783303   0.12650254    11385.121     1000 
 1418000   0.40755051   -2.1725653   0.61071443   -1.5618509   0.13321601    11347.058     1000 
 1420000   0.39883475   -2.1549978   0.59765387   -1.5573439    0.1385213    11174.447     1000 
 1422000    0.4036271    -2.165687    0.6048352   -1.5608518   0.13172264    11338.342     1000 
 1424000   0.40408797   -2.2173058   0.60552582     -1.61178   0.12333127    11412.442     1000 
 1426000    0.4329657   -2.1555262   0.64879911   -1.5067271   0.13905566    11204.934     1000 
 1428000   0.39979156   -2.1789687   0.59908766    -1.579881   0.13603108    11302.686     1000 
 1430000   0.41867953   -2.2109325   0.62739128   -1.5835412   0.14048605    11333.568     1000 
 1432000   0.39580433   -2.1946477   0.59311278   -1.6015349   0.13771071    11306.183     1000 
 1434000   0.42845297   -2.1965889   0.64203678   -1.5545521   0.12712428    11480.304     1000 
 1436000   0.40804678   -2.2203858    0.6114581   -1.6089277   0.13276625    11387.203     1000 
 1438000   0.41002291    -2.109156   0.61441934   -1.4947367   0.12218305    11308.198     1000 
 1440000   0.41692277   -2.1725038   0.62475877    -1.547745   0.13711885    11201.751     1000 
 1442000   0.42397802   -2.2109532   0.63533106   -1.5756222   0.13128534    11382.966     1000 
 1444000   0.39991291   -2.1973939    0.5992695   -1.5981244   0.12094768    11366.307     1000 
 1446000   0.40172058     -2.16875   0.60197829   -1.5667717   0.11965961    11444.888     1000 
 1448000   0.38512991   -2.2009241   0.57711717    -1.623807    0.1318665    11269.437     1000 
 1450000   0.39452219   -2.1631159   0.59119151   -1.5719244   0.12351261    11319.413     1000 
 1452000   0.43224815   -2.1718802   0.64772385   -1.5241563   0.14203843    11189.411     1000 
 1454000   0.41686115   -2.1963518   0.62466644   -1.5716854   0.13420091    11293.573     1000 
 1456000   0.40561853   -2.1853555   0.60781937   -1.5775361   0.13460384    11346.084     1000 
 1458000   0.42095951   -2.1845465   0.63080783   -1.5537387   0.13976837    11304.816     1000 
 1460000   0.41172812   -2.2324869   0.61697459   -1.6155123    0.1324735    11412.661     1000 
 1462000   0.42230637   -2.2121108    0.6328261   -1.5792847   0.13251283    11374.404     1000 
 1464000   0.38176752   -2.2207172   0.57207862   -1.6486385   0.13095897    11278.226     1000 
 1466000   0.42078642   -2.1889857   0.63054844   -1.5584373   0.12455853      11365.6     1000 
 1468000   0.40976328   -2.1803032   0.61403028   -1.5662729    0.1342536    11310.012     1000 
 1470000   0.40674524   -2.2129907   0.60950774    -1.603483   0.11698879     11392.21     1000 
 1472000   0.42220316    -2.207694   0.63267143   -1.5750225   0.12455483    11423.983     1000 
 1474000   0.40388633   -2.1879999   0.60522367   -1.5827763   0.12567179    11488.737     1000 
 1476000   0.43153552   -2.2361267   0.64665597   -1.5894707   0.12475066    11375.397     1000 
 1478000   0.41258732   -2.2002949    0.6182621   -1.5820328   0.12527589    11411.628     1000 
 1480000    0.4258007   -2.1656593   0.63806235   -1.5275969   0.12907961    11404.243     1000 
 1482000    0.4236361   -2.1724313    0.6348187   -1.5376126   0.13048085    11481.194     1000 
 1484000   0.39365033   -2.1867141   0.58988502   -1.5968291    0.1262004    11386.386     1000 
 1486000   0.41763103   -2.2360825   0.62582009   -1.6102624   0.12827395    11342.011     1000 
 1488000   0.41258748   -2.2133303   0.61826234    -1.595068   0.12161872    11444.067     1000 
 1490000    0.3976331    -2.167266   0.59585319   -1.5714128   0.12959162    11253.011     1000 
 1492000   0.40661043   -2.2162512   0.60930573   -1.6069454   0.12129041    11498.043     1000 
 1494000   0.38787842   -2.2448125   0.58123581   -1.6635767   0.12673981    11418.871     1000 
 1496000     0.418159   -2.2185381   0.62661126   -1.5919269   0.12957904    11354.762     1000 
 1498000   0.42714608   -2.1695601    0.6400784   -1.5294817   0.12375905    11368.375     1000 
 1500000   0.40845187   -2.2265537   0.61206513   -1.6144886    0.1242095    11350.285     1000 
 1502000   0.41483297    -2.236152   0.62162721   -1.6145248   0.11383536    11438.058     1000 
 1504000   0.43418624   -2.1508279   0.65062808   -1.5001998   0.13787059    11184.071     1000 
 1506000   0.40423297   -2.2016835    0.6057431   -1.5959404   0.13959727    11282.212     1000 
 1508000   0.40114824   -2.1984188   0.60112063   -1.5972981   0.13121272    11298.131     1000 
 1510000   0.42036129   -2.1835451    0.6299114   -1.5536337   0.13829338    11275.049     1000 
 1512000   0.40678723   -2.2039024   0.60957066   -1.5943317   0.12504971    11379.607     1000 
 1514000   0.42106999   -2.1483796   0.63097339   -1.5174063   0.13190168    11263.357     1000 
 1516000   0.39953702   -2.1522002   0.59870622    -1.553494   0.14787788    11184.419     1000 
 1518000   0.41995073   -2.1598823   0.62929616   -1.5305862   0.13724601    11283.341     1000 
 1520000    0.4163742   -2.1668342   0.62393674   -1.5428975   0.12726614    11401.118     1000 
 1522000   0.39756269   -2.2172865   0.59574768   -1.6215388   0.12405417    11396.744     1000 
 1524000   0.42699557   -2.2200448   0.63985286   -1.5801919   0.13316553    11355.224     1000 
 1526000   0.42524443   -2.2154831   0.63722878   -1.5782543   0.11253191    11549.654     1000 
 1528000   0.42302916   -2.1576165    0.6339092   -1.5237073   0.11761554    11430.308     1000 
 1530000   0.40796571   -2.1968286   0.61133662    -1.585492   0.13212397    11326.079     1000 
 1532000   0.41083304    -2.218092   0.61563331   -1.6024587   0.12683181    11429.969     1000 
 1534000     0.400189   -2.2265247   0.59968321   -1.6268415   0.11652773    11548.651     1000 
 1536000   0.41417764    -2.163355   0.62064519   -1.5427098   0.12113517    11465.902     1000 
 1538000   0.42936747   -2.1931328   0.64340715   -1.5497257   0.12598139    11450.909     1000 
 1540000   0.39123509   -2.2115548   0.58626579    -1.625289    0.1323176    11404.046     1000 
 1542000    0.4129742    -2.237176   0.61884184   -1.6183342   0.12468908    11470.364     1000 
 1544000   0.41869516   -2.2036316   0.62741469   -1.5762169   0.13256974    11338.164     1000 
 1546000   0.41130074   -2.2087146   0.61633415   -1.5923804   0.13360054    11399.191     1000 
 1548000    0.4072076   -2.1634463   0.61020059   -1.5532457    0.1394862    11294.764     1000 
 1550000   0.41476613   -2.2158229   0.62152705   -1.5942959   0.12870902    11402.255     1000 
 1552000   0.41799308   -2.2114655   0.62636263   -1.5851028   0.11619381    11461.865     1000 
 1554000   0.41079529   -2.1842405   0.61557674   -1.5686638    0.1316785    11283.781     1000 
 1556000   0.42141616   -2.1578981   0.63149211    -1.526406   0.14354378    11236.234     1000 
 1558000   0.40698293   -2.1638742   0.60986392   -1.5540103    0.1203666    11371.659     1000 
 1560000   0.39566215   -2.1974055   0.59289973   -1.6045058   0.12995113    11422.792     1000 
 1562000   0.42038735   -2.2275656   0.62995044   -1.5976152   0.12158299    11419.926     1000 
 1564000   0.41920267   -2.1925223    0.6281752   -1.5643471   0.13675983    11374.991     1000 
 1566000   0.39715444   -2.1775875   0.59513593   -1.5824516   0.13411484    11363.174     1000 
 1568000   0.41950716   -2.2121598   0.62863148   -1.5835283   0.13630233    11286.901     1000 
 1570000   0.42877845   -2.1896517   0.64252451   -1.5471272   0.13808051    11363.428     1000 
 1572000   0.40252395   -2.2076268   0.60318214   -1.6044447   0.12896601     11340.99     1000 
 1574000     0.401576    -2.193982   0.60176163   -1.5922204   0.12785216    11397.382     1000 
 1576000   0.44051625   -2.2072724    0.6601136   -1.5471588    0.1277579     11419.32     1000 
 1578000   0.41358108   -2.2702115   0.61975124   -1.6504602   0.12367311    11512.144     1000 
 1580000   0.41685559    -2.198308    0.6246581   -1.5736499   0.11202925    11547.258     1000 
 1582000   0.43164958   -2.2062125    0.6468269   -1.5593856   0.13056083    11398.917     1000 
 1584000   0.41518649   -2.1983619   0.62215695   -1.5762049   0.12952104    11291.906     1000 
 1586000   0.42087741   -2.1897545    0.6306848   -1.5590697    0.1328555    11329.155     1000 
 1588000   0.40648838   -2.2326201   0.60912284   -1.6234973   0.12457593    11397.554     1000 
 1590000   0.40200918   -2.2125354   0.60241075   -1.6101246   0.12334205    11490.377     1000 
 1592000   0.42076733   -2.1837239   0.63051984   -1.5532041   0.12898299    11345.272     1000 
 1594000   0.39819668    -2.197838   0.59669773   -1.6011403   0.12519041    11393.298     1000 
 1596000   0.39655114   -2.1980175   0.59423188   -1.6037856   0.12447908    11412.851     1000 
[...]
 2612000   0.41891046   -2.1883934   0.62773732   -1.5606561   0.13054094    11369.204     1000 
 2614000   0.41785332   -2.2440017   0.62615319   -1.6178485   0.12124121    11508.576     1000 
 2616000   0.39298821   -2.1707582   0.58889284   -1.5818653   0.12737533    11399.533     1000 
 2618000   0.40629767   -2.1935202   0.60883706   -1.5846832   0.12847747    11384.333     1000 
 2620000   0.40898477   -2.1994099   0.61286368   -1.5865462   0.15366026     11261.51     1000 
 2622000   0.43235124   -2.1733081   0.64787834   -1.5254297   0.13652449    11262.795     1000 
 2624000     0.406545   -2.2115382   0.60920768   -1.6023305   0.12138565    11506.798     1000 
 2626000   0.39969213     -2.19079   0.59893866   -1.5918514   0.13000513    11254.048     1000 
 2628000   0.41628308   -2.1839519   0.62380019   -1.5601518   0.12955223    11362.188     1000 
 2630000   0.39792476   -2.1762634   0.59629025   -1.5799731   0.13276444    11307.327     1000 
 2632000   0.39492175    -2.162598   0.59179025   -1.5708078   0.13601648    11330.402     1000 
 2634000   0.41363632   -2.1911154   0.61983403   -1.5712814   0.12927452    11312.227     1000 
 2636000   0.40245064   -2.2175322   0.60307229   -1.6144599   0.12466302    11485.942     1000 
 2638000   0.42498727   -2.2008529   0.63684342   -1.5640095   0.13795723    11345.607     1000 
 2640000   0.39787604   -2.2290969   0.59621725   -1.6328796   0.12913074    11391.318     1000 
 2642000   0.40196704   -2.1993092    0.6023476   -1.5969616   0.12621326    11294.449     1000 
 2644000   0.41785769   -2.2033546   0.62615975   -1.5771948   0.12386885    11359.481     1000 
 2646000    0.3960954   -2.1935266   0.59354895   -1.5999777   0.13313588    11258.051     1000 
 2648000   0.40833752   -2.2112485   0.61189377   -1.5993547    0.1299499     11372.99     1000 
 2650000   0.41213588   -2.1944036   0.61758561    -1.576818   0.11423537    11519.292     1000 
 2652000   0.40729328   -2.2171099   0.61032897    -1.606781   0.11198904    11491.715     1000 
 2654000   0.38394936   -2.2378186   0.57534811   -1.6624705   0.12311263    11469.582     1000 
 2656000   0.41687819    -2.216403   0.62469197    -1.591711   0.12414759    11464.475     1000 
 2658000   0.40233731   -2.1838821   0.60290246   -1.5809797   0.12677004    11370.052     1000 
 2660000   0.40106346   -2.2007783    0.6009936   -1.5997847   0.11988616    11426.302     1000 
 2662000   0.39954204   -2.1780309   0.59871375   -1.5793171   0.13204348     11301.22     1000 
 2664000   0.40544352   -2.1555924   0.60755712   -1.5480353   0.14035162    11229.268     1000 
 2666000   0.40658118   -2.1970255   0.60926189   -1.5877636   0.12748775    11414.558     1000 
 2668000   0.41266133   -2.1822862     0.618373   -1.5639132   0.13380134    11295.792     1000 
 2670000   0.39284981   -2.1745681   0.58868544   -1.5858827   0.13266497    11287.209     1000 
 2672000   0.39713889   -2.1320612   0.59511262   -1.5369486    0.1287025    11396.095     1000 
 2674000   0.41837183    -2.169191   0.62693019   -1.5422608   0.13901401    11210.434     1000 
 2676000   0.41251918   -2.2909148   0.61815999   -1.6727548   0.12507067    11496.618     1000 
 2678000   0.41165248    -2.249697   0.61686125   -1.6328358   0.13181517    11393.364     1000 
 2680000   0.42374528   -2.1760985   0.63498231   -1.5411162       0.1271    11334.768     1000 
 2682000    0.4217157   -2.1966766   0.63194097   -1.5647357   0.13495265    11306.058     1000 
 2684000   0.40038126   -2.1846769   0.59997131   -1.5847056   0.13263677    11332.613     1000 
 2686000   0.41833979   -2.2179973   0.62688218   -1.5911151   0.12939859    11309.951     1000 
 2688000   0.40721317   -2.2215508   0.61020893   -1.6113419   0.12801382    11374.795     1000 
 2690000   0.41643955   -2.2106038   0.62403467   -1.5865692   0.13440804    11356.539     1000 
 2692000   0.40777586   -2.1800889   0.61105212   -1.5690368   0.14432338    11354.188     1000 
 2694000   0.41044494   -2.2032361   0.61505175   -1.5881844   0.12008971    11437.183     1000 
 2696000   0.41754868   -2.2804432    0.6256967   -1.6547465   0.12042468    11388.338     1000 
 2698000   0.40085011   -2.2318361   0.60067389   -1.6311622    0.1243546    11387.872     1000 
 2700000   0.40742453   -2.1907208   0.61052565   -1.5801951   0.13402326    11391.227     1000 
 2702000   0.40796144   -2.2028638   0.61133022   -1.5915336   0.11653886    11517.997     1000 
 2704000   0.40021353   -2.1542726   0.59971998   -1.5545526   0.13100332    11378.367     1000 
 2706000   0.40566881   -2.1971312   0.60789471   -1.5892365   0.11521071    11428.925     1000 
 2708000   0.43892766   -2.2462982    0.6577331   -1.5885651   0.14275217    11372.888     1000 
 2710000   0.39169037   -2.2293469   0.58694801   -1.6423988    0.1298397    11387.742     1000 
 2712000   0.39075717    -2.216997   0.58554961   -1.6314474   0.13408881    11288.241     1000 
 2714000   0.40889018   -2.1487727   0.61272194   -1.5360508   0.12901318    11348.901     1000 
 2716000   0.40812841    -2.232796   0.61158042   -1.6212156   0.13244801    11313.334     1000 
 2718000   0.41779849   -2.1976528   0.62607104   -1.5715818   0.14616913    11143.655     1000 
 2720000    0.3940322   -2.2097606   0.59045725   -1.6193034   0.13895493    11340.625     1000 
 2722000   0.41800853   -2.2219145   0.62638578   -1.5955288   0.13305816     11351.06     1000 
 2724000   0.41108705   -2.2333428   0.61601395   -1.6173288   0.12014374     11450.06     1000 
 2726000   0.40995072    -2.171742   0.61431115   -1.5574309   0.13477974    11400.418     1000 
 2728000   0.41631559   -2.2061605   0.62384892   -1.5823115   0.12209473    11439.149     1000 
 2730000   0.41014073   -2.2221464   0.61459589   -1.6075505   0.13535272    11333.727     1000 
 2732000   0.39797408   -2.1878737   0.59636417   -1.5915096   0.12815806    11380.134     1000 
 2734000   0.41741605    -2.204677   0.62549795    -1.579179   0.13158018    11295.182     1000 
 2736000   0.41433678   -2.1802632   0.62088366   -1.5593796   0.13332851    11323.189     1000 
 2738000   0.41060538   -2.1700576   0.61529216   -1.5547654   0.13359232    11289.413     1000 
 2740000   0.42137418    -2.186075   0.63142922   -1.5546457    0.1367552    11321.769     1000 
 2742000   0.43116994   -2.1642747   0.64610815   -1.5181666   0.13255915    11417.305     1000 
 2744000   0.42171818   -2.2064866   0.63194469   -1.5745419   0.13433263    11273.522     1000 
 2746000   0.41322309   -2.1708223    0.6192148   -1.5516075   0.13558921    11228.637     1000 
 2748000   0.40185237   -2.1712796   0.60217578   -1.5691038   0.12835051    11399.959     1000 
 2750000   0.41972369   -2.2266963   0.62895595   -1.5977404   0.13006303    11416.416     1000 
 2752000   0.41179046   -2.1657488   0.61706801   -1.5486808   0.12430129    11336.643     1000 
 2754000   0.40801046   -2.2179055   0.61140368   -1.6065018   0.12374753    11419.566     1000 
 2756000   0.41689889   -2.1868901   0.62472299   -1.5621671     0.131058    11408.311     1000 
 2758000   0.39498815   -2.2120486   0.59188975   -1.6201589   0.13686442    11302.774     1000 
 2760000   0.39228776    -2.181167   0.58784321   -1.5933237   0.13447291    11261.212     1000 
 2762000   0.41200105   -2.1679104   0.61738358   -1.5505268   0.13844509    11399.871     1000 
 2764000   0.39488902   -2.2584021    0.5917412   -1.6666609   0.12720802    11425.006     1000 
 2766000   0.40536593   -2.1931628   0.60744085   -1.5857219   0.14096778    11251.165     1000 
 2768000   0.39490359   -2.1741981   0.59176303   -1.5824351   0.13145486    11299.052     1000 
 2770000    0.4083551   -2.2007666   0.61192011   -1.5888465   0.13731821    11301.001     1000 
 2772000   0.42076906   -2.1918184   0.63052243    -1.561296   0.12756503    11431.114     1000 
 2774000   0.39605064   -2.2133053   0.59348189   -1.6198234   0.12642006    11397.422     1000 
 2776000   0.43304133   -2.1663096   0.64891243   -1.5173971   0.12640503    11399.283     1000 
 2778000   0.41865836   -2.2438311   0.62735955   -1.6164715   0.11988182    11435.863     1000 
 2780000   0.41517439   -2.1784933   0.62213882   -1.5563545   0.13007354    11316.315     1000 
 2782000   0.41470098   -2.2000548   0.62142942   -1.5786254   0.13123814    11397.662     1000 
 2784000   0.41430541   -2.2536786   0.62083666   -1.6328419   0.12272236    11359.008     1000 
 2786000   0.40759524   -2.1850685   0.61078147    -1.574287   0.13616397    11333.564     1000 
 2788000   0.42415608    -2.179255   0.63559788   -1.5436571    0.1294958    11391.631     1000 
 2790000   0.41578859   -2.2299031   0.62305921   -1.6068439   0.13127651    11312.185     1000 
 2792000   0.41211237   -2.2173576   0.61755039   -1.5998072   0.12053793    11468.335     1000 
 2794000   0.40001607   -2.1412206   0.59942408   -1.5417965    0.1225156     11305.67     1000 
 2796000   0.40970085   -2.1996722   0.61393673   -1.5857355   0.12560095    11393.687     1000 
 2798000   0.40888203    -2.194505   0.61270972   -1.5817953   0.12954105    11295.449     1000 
 2800000   0.39519878   -2.2131702   0.59220537   -1.6209648     0.134445    11336.241     1000 
 2802000   0.40362444   -2.1895272   0.60483122   -1.5846959   0.13538488    11323.653     1000 
 2804000   0.43364791   -2.1545577    0.6498214   -1.5047363   0.13229681    11331.307     1000 
 2806000   0.42252688   -2.2365497   0.63315652   -1.6033932   0.12225671    11414.462     1000 
 2808000   0.39024729   -2.1959596   0.58478556    -1.611174   0.12453031    11373.557     1000 
 2810000   0.40878226   -2.1875095   0.61256022   -1.5749493   0.12746201    11393.707     1000 
 2812000   0.41810001   -2.2018014   0.62652287   -1.5752785    0.1282537     11254.46     1000 
 2814000   0.40077288   -2.2335785   0.60055815   -1.6330204   0.12189449    11320.752     1000 
 2816000   0.39636541   -2.2264175   0.59395357    -1.632464   0.13180559    11332.655     1000 
 2818000   0.40831319   -2.2292132   0.61185731   -1.6173559   0.12248439    11436.364     1000 
 2820000   0.40260155   -2.1661975   0.60329842   -1.5628991   0.12343236    11355.618     1000 
 2822000   0.38644334   -2.2020625   0.57908534   -1.6229772   0.12359009    11486.664     1000 
 2824000   0.40944611   -2.2484502   0.61355499   -1.6348952   0.12242337    11414.822     1000 
 2826000    0.3903914   -2.1454791   0.58500151   -1.5604776   0.12253949    11467.949     1000 
 2828000   0.42906228   -2.1647328   0.64294982   -1.5217829   0.12782652    11425.688     1000 
 2830000   0.40018475   -2.1590157   0.59967685   -1.5593388   0.14188814    11261.607     1000 
 2832000   0.43889481   -2.2049276   0.65768387   -1.5472437   0.13214415    11312.433     1000 
 2834000   0.40454436   -2.1960971   0.60620973   -1.5898873   0.12909438    11410.606     1000 
 2836000   0.43252846   -2.2159524   0.64814389   -1.5678085   0.13085822    11397.293     1000 
 2838000   0.41033305   -2.2496149   0.61488407   -1.6347308   0.12772312    11397.095     1000 
 2840000   0.42811562   -2.1709432   0.64153126    -1.529412    0.1301329     11345.69     1000 
 2842000   0.41419167   -2.1719564   0.62066622   -1.5512902   0.14687657    11282.335     1000 
 2844000    0.4173384   -2.2138449   0.62538159   -1.5884633    0.1364453    11297.907     1000 
 2846000   0.41844684   -2.1804833    0.6270426   -1.5534407   0.12454604    11410.526     1000 
 2848000   0.41020205   -2.2100419   0.61468777   -1.5953542   0.12414827    11481.449     1000 
 2850000   0.40992135   -2.1846793   0.61426714   -1.5704121   0.12712264    11362.153     1000 
 2852000   0.39639077   -2.1651722   0.59399157   -1.5711806   0.12867503    11411.928     1000 
 2854000   0.40657098   -2.1729842   0.60924661   -1.5637376    0.1368016    11204.922     1000 
 2856000   0.40853146   -2.2326637   0.61218439   -1.6204793    0.1269253    11366.209     1000 
 2858000   0.41097725   -2.1567592   0.61584941   -1.5409098   0.13401274    11268.671     1000 
 2860000   0.42022145   -2.1779527   0.62970184   -1.5482509   0.13162215    11242.673     1000 
 2862000    0.4119683   -2.2002558    0.6173345   -1.5829213   0.12132937    11419.577     1000 
 2864000   0.38680277   -2.1959882   0.57962394   -1.6163642   0.12780673    11323.314     1000 
 2866000   0.41186611   -2.1781041   0.61718137   -1.5609227   0.13050227    11332.559     1000 
 2868000   0.39158501   -2.1891884   0.58679014   -1.6023983   0.13290829    11397.805     1000 
 2870000   0.41048217   -2.1855958   0.61510753   -1.5704883   0.12374699     11324.97     1000 
 2872000   0.41787688   -2.1540008    0.6261885   -1.5278123   0.13079703    11372.642     1000 
 2874000   0.38482964   -2.2154609   0.57666722   -1.6387937   0.12737834    11343.598     1000 
 2876000   0.41034425   -2.1852471   0.61490086   -1.5703462   0.13877441    11355.329     1000 
 2878000   0.40305574   -2.2024009   0.60397903   -1.5984219   0.14049689    11345.704     1000 
 2880000   0.42319145   -2.1754359   0.63415238   -1.5412836   0.14722655    11250.844     1000 
 2882000   0.39419632   -2.2259816   0.59070318   -1.6352784   0.13142837    11478.371     1000 
 2884000   0.43248789    -2.175133    0.6480831   -1.5270499   0.13597574    11264.578     1000 
 2886000   0.40335423   -2.2385312   0.60442631   -1.6341049    0.1328844    11331.469     1000 
 2888000   0.38751045   -2.2314159   0.58068442   -1.6507315   0.13223966    11364.004     1000 
 2890000   0.41618252   -2.1735786    0.6236495   -1.5499291     0.134701    11241.795     1000 
 2892000   0.42413965   -2.2123431   0.63557327   -1.5767698   0.13647035    11278.413     1000 
 2894000   0.40160483   -2.1859015   0.60180484   -1.5840967   0.13452083    11298.637     1000 
 2896000   0.42845963   -2.1652144   0.64204676   -1.5231676   0.13347053    11343.052     1000 
 2898000   0.41775023   -2.1747415   0.62599873   -1.5487427   0.14384673    11262.786     1000 
 2900000   0.42206846   -2.2438335   0.63246958   -1.6113639   0.12951126    11464.883     1000 
 2902000    0.4240308    -2.163264   0.63541015   -1.5278539   0.14216494    11275.739     1000 
 2904000   0.40878911    -2.251066   0.61257048   -1.6384955   0.13054531    11342.467     1000 
 2906000   0.40991107   -2.2086348   0.61425174   -1.5943831   0.12538444     11375.17     1000 
 2908000   0.39934024   -2.2061281   0.59841135   -1.6077167   0.11959233    11501.365     1000 
 2910000   0.42274975   -2.1845975   0.63349049    -1.551107   0.13457257    11418.859     1000 
 2912000   0.41201031   -2.1746052   0.61739744   -1.5572077   0.12013162    11398.927     1000 
 2914000   0.41128745   -2.1623092   0.61631424    -1.545995   0.12609337    11304.577     1000 
 2916000   0.41770239   -2.2078561   0.62592703   -1.5819291   0.13063831    11444.404     1000 
 2918000   0.42313202   -2.2082765   0.63406333   -1.5742131   0.13302912    11438.665     1000 
 2920000   0.39456581   -2.1748175   0.59125687   -1.5835607   0.12976888    11407.129     1000 
 2922000   0.41093908   -2.1710162   0.61579221    -1.555224    0.1189917    11389.243     1000 
 2924000    0.4071099   -2.2151118   0.61005418   -1.6050576    0.1240414    11440.227     1000 
 2926000   0.39156649   -2.1854073   0.58676239   -1.5986449   0.12694401    11430.385     1000 
 2928000   0.39616795   -2.2098553   0.59365768   -1.6161976   0.13899284    11259.778     1000 
 2930000    0.4182976    -2.200105   0.62681896    -1.573286   0.13277237     11362.52     1000 
 2932000   0.40332276   -2.2007362   0.60437915    -1.596357   0.12917536    11325.295     1000 
 2934000   0.41029553   -2.1964714   0.61482786   -1.5816435   0.13449205    11248.675     1000 
 2936000    0.4042555   -2.2201134   0.60577686   -1.6143366   0.13792253    11257.021     1000 
 2938000   0.40677334    -2.240228   0.60954984   -1.6306781   0.13139855    11419.635     1000 
 2940000   0.42744633   -2.1722214   0.64052833    -1.531693     0.131977    11454.321     1000 
 2942000   0.42103461   -2.1785079   0.63092037   -1.5475875   0.13202705    11362.298     1000 
 2944000   0.42392236   -2.1781075   0.63524766   -1.5428599   0.12774221     11382.35     1000 
 2946000   0.41715002   -2.2051382    0.6250993   -1.5800389   0.13333536    11239.462     1000 
 2948000   0.40658538   -2.1970848    0.6092682   -1.5878166   0.12812158    11410.687     1000 
 2950000   0.40638685   -2.1923936    0.6089707   -1.5834229   0.12752102    11285.837     1000 
 2952000   0.41693798   -2.1851309   0.62478156   -1.5603494   0.13661186    11297.255     1000 
 2954000   0.42523253   -2.1643824   0.63721095   -1.5271715   0.14463423    11271.766     1000 
 2956000   0.41375003   -2.1720654   0.62000442    -1.552061    0.1283354    11410.077     1000 
 2958000   0.39722636   -2.2047877   0.59524371    -1.609544   0.12691844    11373.404     1000 
 2960000   0.41726385   -2.1309636   0.62526988   -1.5056938   0.13346237    11318.213     1000 
 2962000   0.40654354   -2.2503854    0.6092055   -1.6411799   0.13445875    11384.636     1000 
 2964000   0.40880989   -2.2271032   0.61260162   -1.6145016   0.13073649    11412.511     1000 
 2966000   0.40979776   -2.2196893   0.61408195   -1.6056074   0.14116439    11321.252     1000 
 2968000   0.41107898   -2.1897531   0.61600185   -1.5737513   0.13403016    11315.681     1000 
 2970000   0.41047222   -2.1895492   0.61509262   -1.5744566   0.13051959    11372.398     1000 
 2972000   0.39164597   -2.2008565   0.58688149    -1.613975   0.13177665    11286.364     1000 
 2974000   0.40921081   -2.2165281    0.6132024   -1.6033257   0.12483472    11398.556     1000 
 2976000   0.39921178   -2.2040879   0.59821885    -1.605869   0.13332384    11316.461     1000 
 2978000   0.40853772   -2.1787043   0.61219377   -1.5665106   0.12726831    11273.576     1000 
 2980000   0.40701392   -2.1695738   0.60991036   -1.5596634   0.12769383    11358.656     1000 
 2982000   0.42173086   -2.2271982   0.63196369   -1.5952345   0.12630696    11335.441     1000 
 2984000   0.39900722   -2.2112699   0.59791232   -1.6133576   0.11756646     11530.73     1000 
 2986000   0.41049638   -2.1973729   0.61512882    -1.582244    0.1269176    11352.122     1000 
 2988000   0.41431949   -2.2187278   0.62085776   -1.5978701   0.12057467    11436.957     1000 
 2990000   0.41155277   -2.2986096   0.61671183   -1.6818977   0.11701916    11572.624     1000 
 2992000   0.39451567   -2.2265371   0.59118173   -1.6353554   0.12894543    11356.094     1000 
 2994000   0.41977509   -2.2325178   0.62903297   -1.6034848   0.13577839    11348.903     1000 
 2996000    0.4281311   -2.2144442   0.64155445   -1.5728897   0.14591662    11288.668     1000 
 2998000   0.40782438   -2.2142987   0.61112484   -1.6031738    0.1319583    11371.232     1000 
 3000000   0.41463608   -2.2419383   0.62133216   -1.6206062   0.13573125    11370.331     1000 
Loop time of 1681.9 on 4 procs for 3000000 steps with 1000 atoms

Performance: 770555.965 tau/day, 1783.694 timesteps/s
95.5% CPU use with 4 MPI tasks x no OpenMP threads

MPI task timing breakdown:
Section |  min time  |  avg time  |  max time  |%varavg| %total
---------------------------------------------------------------
Pair    | 1241.6     | 1252.4     | 1263.6     |  22.9 | 74.46
Neigh   | 105.95     | 106.64     | 107.19     |   4.7 |  6.34
Comm    | 226.46     | 238.51     | 250.22     |  56.7 | 14.18
Output  | 0.040787   | 0.11109    | 0.3219     |  36.5 |  0.01
Modify  | 75.052     | 75.284     | 75.532     |   2.0 |  4.48
Other   |            | 8.962      |            |       |  0.53

Nlocal:    250 ave 254 max 243 min
Histogram: 1 0 0 0 0 0 0 1 1 1
Nghost:    1708.5 ave 1719 max 1702 min
Histogram: 1 1 0 1 0 0 0 0 0 1
Neighs:    14543.2 ave 15005 max 13919 min
Histogram: 1 0 0 0 0 1 0 1 0 1

Total # of neighbors = 58173
Ave neighs/atom = 58.173
Neighbor list builds = 150000
Dangerous builds not checked

Total wall time: 0:28:01
