LAMMPS (3 Mar 2020)
# ----------------------- Inicialização -----------------------

units			lj
atom_style 		atomic
dimension 		3
boundary 		p p p

# -------------------- Criação dos Átomos ---------------------

read_data 		topologia.txt
  orthogonal box = (0 0 0) to (21.54 21.54 21.54)
  1 by 2 by 2 MPI processor grid
  reading atoms ...
  1000 atoms
  read_data CPU = 0.0022787 secs

velocity 		all create ${temp} 87287 rot yes dist gaussian
velocity 		all create 0.49 87287 rot yes dist gaussian

# ------------------ Interação Interatômica -------------------

pair_style		table linear 1300
pair_coeff		1 1 force.table AA 6.5
WARNING: 2 of 1300 force values in table are inconsistent with -dE/dr.
  Should only be flagged at inflection points (src/pair_table.cpp:483)
pair_coeff		1 2 force.table AB 6.5
WARNING: 1 of 1300 force values in table are inconsistent with -dE/dr.
  Should only be flagged at inflection points (src/pair_table.cpp:483)
pair_coeff		2 2 force.table BB 6.5
pair_write		1 1 1600 r 0.008 6.5 table.check AA
Neighbor list info ...
  update every 1 steps, delay 10 steps, check yes
  max neighbors/atom: 2000, page size: 100000
  master list distance cutoff = 6.8
  ghost atom cutoff = 6.8
  binsize = 3.4, bins = 7 7 7
  1 neighbor lists, perpetual/occasional/extra = 1 0 0
  (1) pair table, perpetual
      attributes: half, newton on
      pair build: half/bin/atomonly/newton
      stencil: half/bin/3d/newton
      bin: standard
pair_write		1 2 1600 r 0.008 6.5 table.check AB
pair_write		2 2 1600 r 0.008 6.5 table.check BB

neighbor 		0.3 bin
neigh_modify	every 20 delay 0 check no

# ------------------------- Ensemble --------------------------------------

fix 1			all npt temp ${temp} ${temp} 0.5 iso ${press} ${press} 5
fix 1			all npt temp 0.49 ${temp} 0.5 iso ${press} ${press} 5
fix 1			all npt temp 0.49 0.49 0.5 iso ${press} ${press} 5
fix 1			all npt temp 0.49 0.49 0.5 iso 0.13 ${press} 5
fix 1			all npt temp 0.49 0.49 0.5 iso 0.13 0.13 5

# ---------------------- Função de Distribuição Radial -----------------------

#compute RDF 	all rdf 2000 1 1 1 2 2 2
#fix 2 			all ave/time 1 2000 2000 c_RDF[*] file rdf.data mode vector

# ------------------------- Execução ---------------------------

timestep 		0.005
thermo_style	custom step temp pe ke etotal press vol atoms
thermo			2000
run				3000000
Per MPI rank memory allocation (min/avg/max) = 2.675 | 2.675 | 2.675 Mbytes
Step Temp PotEng KinEng TotEng Press Volume Atoms 
       0         0.49   -0.9940566     0.734265   -0.2597916   0.11737967    9993.9483     1000 
    2000    0.5101418   -1.9564113   0.76444749   -1.1919638   0.12674482    11404.866     1000 
    4000    0.4791426   -1.9847684   0.71799519   -1.2667732   0.13443333    11402.438     1000 
    6000   0.47423494   -1.9685818   0.71064106   -1.2579408    0.1319106    11274.995     1000 
    8000   0.48324727   -1.9557252   0.72414603   -1.2315792   0.13250459    11432.519     1000 
   10000     0.497505   -1.9913915   0.74551125   -1.2458803   0.12301666    11559.383     1000 
   12000   0.49313537   -1.9801324   0.73896335   -1.2411691   0.12750056    11522.466     1000 
   14000   0.46816721   -1.9064463   0.70154856   -1.2048978   0.13511006    11283.374     1000 
   16000   0.46427985   -1.9502041   0.69572335   -1.2544808   0.12783375     11332.85     1000 
   18000   0.48426568   -1.9235354   0.72567212   -1.1978633   0.13262559    11308.445     1000 
   20000   0.48528084   -1.9493241   0.72719334   -1.2221308    0.1168641    11526.721     1000 
   22000   0.48570486   -1.8996255   0.72782873   -1.1717968   0.12448735    11423.533     1000 
   24000   0.47070478   -1.9355431   0.70535112    -1.230192   0.13950286    11249.823     1000 
   26000   0.48538663   -1.9563728   0.72735187   -1.2290209   0.13568564    11286.187     1000 
   28000    0.4953102   -1.9239292   0.74222234   -1.1817069   0.13960356    11324.425     1000 
   30000   0.51349949   -1.9317783   0.76947898   -1.1622993   0.13574445    11337.312     1000 
   32000   0.52599601   -1.9133318   0.78820502   -1.1251268   0.13789649    11417.202     1000 
   34000    0.5011921   -1.9634276   0.75103636   -1.2123912   0.14216848    11400.964     1000 
   36000   0.47005836   -1.9484796   0.70438246   -1.2440971   0.13221026    11428.323     1000 
   38000   0.49391397   -1.9516378   0.74013009   -1.2115077   0.12266005    11493.432     1000 
   40000    0.4803814   -1.9589147   0.71985152   -1.2390631   0.13764029    11326.703     1000 
   42000    0.4948889   -1.9988182   0.74159102   -1.2572272   0.12053142    11438.892     1000 
   44000   0.50456577   -1.8883654   0.75609181   -1.1322736   0.12977635    11346.068     1000 
   46000   0.49329664   -1.9584446   0.73920502   -1.2192396   0.14542092    11238.819     1000 
   48000   0.49816963   -1.9644644   0.74650719   -1.2179572   0.13100056    11383.058     1000 
   50000   0.48458448   -1.9183301   0.72614984   -1.1921803   0.14631635    11347.563     1000 
   52000   0.49273001   -1.9658483   0.73835592   -1.2274923   0.12861661    11478.235     1000 
   54000   0.47789813   -1.9244171   0.71613035   -1.2082867   0.13570344    11354.979     1000 
   56000   0.47214393   -1.9348665   0.70750767   -1.2273588   0.13811063    11159.706     1000 
   58000   0.50851554   -1.9661362   0.76201054   -1.2041256   0.12856734     11442.48     1000 
   60000   0.47961035   -1.9419575   0.71869611   -1.2232614   0.13025771    11440.334     1000 
   62000   0.51407838   -1.9491838   0.77034645   -1.1788374    0.1433049    11320.197     1000 
   64000   0.50644738   -1.9447139    0.7589114   -1.1858025   0.13954801    11333.947     1000 
   66000   0.46881445   -1.9259514   0.70251845   -1.2234329   0.14090805    11235.558     1000 
   68000   0.50581156   -1.9299724   0.75795862   -1.1720138   0.12277907    11507.757     1000 
   70000   0.49590739   -1.9397007   0.74311722   -1.1965835   0.12486864    11532.401     1000 
   72000   0.50052374   -1.9861914   0.75003482   -1.2361566   0.13472945    11336.691     1000 
   74000   0.46980848   -1.9115294   0.70400801   -1.2075214   0.11581167    11452.393     1000 
   76000   0.49873266   -1.9585795   0.74735088   -1.2112286   0.12766855    11422.789     1000 
   78000   0.49921203   -1.8978179   0.74806922   -1.1497487   0.13705829    11242.209     1000 
   80000   0.49727173   -1.9589924   0.74516169   -1.2138307   0.13198796    11350.328     1000 
   82000   0.49794381   -1.9420452    0.7461688   -1.1958764   0.13561576    11272.638     1000 
   84000   0.48867226   -2.0025058   0.73227538   -1.2702305   0.10764945    11575.021     1000 
   86000   0.50352244   -1.9809239   0.75452838   -1.2263955   0.12193997    11544.528     1000 
   88000   0.50521307   -1.9534996   0.75706179   -1.1964378    0.1305842    11330.571     1000 
   90000   0.48445832     -1.96444    0.7259608   -1.2384792    0.1358846    11329.061     1000 
   92000   0.49268122    -1.967384   0.73828281   -1.2291011   0.13143678    11457.203     1000 
   94000   0.49209826   -1.9540691   0.73740924   -1.2166598   0.11480899    11486.447     1000 
   96000   0.47808768   -1.9992025   0.71641439   -1.2827881   0.11910038    11561.126     1000 
   98000   0.50859752   -1.9884846   0.76213338   -1.2263512   0.12424495    11454.377     1000 
  100000   0.49459841   -1.9584289   0.74115572   -1.2172732    0.1272077    11509.505     1000 
  102000   0.48375398   -1.9603836   0.72490534   -1.2354782   0.12805115    11489.652     1000 
  104000   0.47332611   -1.9066916   0.70927918   -1.1974124   0.12907918     11390.73     1000 
  106000    0.4951092   -1.9266931   0.74192113   -1.1847719     0.130371    11357.125     1000 
  108000   0.49641137   -1.9289123   0.74387244   -1.1850399   0.12464385    11304.816     1000 
  110000   0.48771912   -1.9520994    0.7308471   -1.2212523   0.11863945    11495.367     1000 
  112000   0.49662822   -1.8837123   0.74419738   -1.1395149   0.13146964    11316.739     1000 
  114000   0.50687617    -1.976952   0.75955394   -1.2173981   0.13239462     11366.03     1000 
  116000   0.48975795   -1.9309594   0.73390228   -1.1970571   0.13300603     11399.49     1000 
  118000    0.4785036   -1.9620699   0.71703764   -1.2450323   0.12791432    11336.289     1000 
  120000   0.49176792   -1.9861719   0.73691423   -1.2492576   0.13120425    11479.002     1000 
  122000   0.48724783   -1.9063262   0.73014088   -1.1761854   0.12520638     11358.02     1000 
  124000   0.49278747    -1.929914   0.73844203    -1.191472   0.11839726    11540.453     1000 
  126000    0.5006256   -1.9080084   0.75018746   -1.1578209   0.13505081    11295.976     1000 
  128000   0.50668741   -1.9671659   0.75927109   -1.2078948   0.12784106    11448.272     1000 
  130000   0.50118539   -1.9696377    0.7510263   -1.2186114   0.12942378    11389.641     1000 
  132000   0.52593358   -1.9711481   0.78811147   -1.1830366   0.11816627    11514.491     1000 
  134000   0.50271474   -1.9334165   0.75331804   -1.1800984   0.13790932     11242.28     1000 
  136000   0.49370607   -1.9575153   0.73981855   -1.2176968   0.12391065    11485.481     1000 
  138000   0.48965699   -1.9523968     0.733751   -1.2186458   0.13552322    11407.399     1000 
  140000   0.47932314   -1.9940435   0.71826572   -1.2757778    0.1176374    11539.977     1000 
  142000   0.50974307   -1.9303842   0.76384999   -1.1665342   0.12557511    11462.872     1000 
  144000    0.4827183   -1.9866707   0.72335337   -1.2633174   0.12809677    11367.031     1000 
  146000   0.47980258    -2.001684   0.71898417   -1.2826999   0.13453965    11376.885     1000 
  148000   0.49837622   -1.9293935   0.74681676   -1.1825767   0.12566739    11427.766     1000 
  150000   0.47335441   -1.9730096   0.70932159    -1.263688    0.1247481    11499.448     1000 
  152000   0.48962284   -1.9866788   0.73369983    -1.252979   0.13922806    11389.912     1000 
  154000   0.48605315   -1.9310033   0.72835064   -1.2026526   0.13387641    11419.563     1000 
  156000   0.46307471   -1.9267896   0.69391746   -1.2328722   0.11432441    11443.637     1000 
  158000   0.50329085   -1.9438457   0.75418133   -1.1896644   0.13840901    11341.108     1000 
  160000   0.47544933   -1.9911066   0.71246083   -1.2786458   0.13567813    11323.358     1000 
  162000    0.4709329   -1.9378286   0.70569294   -1.2321357   0.12700573    11431.581     1000 
  164000   0.50638886   -1.9462826   0.75882371   -1.1874589   0.12809989    11428.691     1000 
  166000   0.49205095   -1.9728671   0.73733835   -1.2355287   0.13099885    11362.152     1000 
  168000   0.50071687   -1.9613429   0.75032423   -1.2110186   0.12123926    11574.282     1000 
  170000   0.47900723   -1.9106695   0.71779234   -1.1928772   0.13658585    11285.018     1000 
  172000   0.48719703   -1.9679824   0.73006476   -1.2379176   0.13533735    11235.864     1000 
  174000    0.4794134   -1.9239044   0.71840098   -1.2055034   0.13231942    11349.703     1000 
  176000   0.48577475   -1.9733294   0.72793347   -1.2453959   0.11642628    11379.743     1000 
  178000    0.4762994   -1.9642255   0.71373465   -1.2504908   0.12502693     11324.67     1000 
  180000   0.50350889   -1.9098195   0.75450807   -1.1553114   0.14462933    11184.065     1000 
  182000   0.48561511   -1.9839503   0.72769425   -1.2562561   0.14214846        11247     1000 
  184000   0.49654242   -1.9187328   0.74406882    -1.174664   0.13317191    11300.348     1000 
  186000   0.49116055    -1.918345   0.73600409   -1.1823409   0.13342684    11340.146     1000 
  188000   0.50253068   -1.9563704   0.75304222   -1.2033282   0.13231459    11406.168     1000 
  190000   0.48924996    -1.964284   0.73314107   -1.2311429   0.12331101    11416.938     1000 
  192000   0.48760025   -1.9233507   0.73066897   -1.1926817   0.12054265    11373.848     1000 
  194000   0.48491812    -1.949164    0.7266498   -1.2225142    0.1314842    11297.089     1000 
  196000   0.49698325   -1.9613919   0.74472941   -1.2166625   0.11466201    11623.878     1000 
  198000   0.48223364   -1.9137289   0.72262711   -1.1911018   0.13878646    11273.395     1000 
  200000   0.50132633   -1.9264412   0.75123751   -1.1752037   0.11790249    11452.715     1000 
  202000   0.47920605   -1.9183091   0.71809026   -1.2002189    0.1306053    11390.555     1000 
  204000   0.49823517    -1.954473    0.7466054   -1.2078676    0.1384323    11412.405     1000 
  206000   0.50603387    -1.884335   0.75829175   -1.1260433   0.13538991    11303.457     1000 
  208000   0.50264205   -1.9611007   0.75320912   -1.2078916   0.13341117    11364.613     1000 
  210000   0.50003126   -1.9283103   0.74929684   -1.1790134   0.11458572    11510.582     1000 
  212000   0.49046473   -1.9266359   0.73496139   -1.1916745   0.13587185    11351.905     1000 
  214000   0.49502633   -1.9739933   0.74179696   -1.2321963   0.12828833     11424.91     1000 
  216000   0.50192256   -1.9222456   0.75213096   -1.1701146     0.128775    11381.855     1000 
  218000   0.47910655    -1.969902   0.71794116   -1.2519608   0.13470691     11218.22     1000 
  220000   0.49581661   -1.9060966   0.74298119   -1.1631154   0.14357547    11278.554     1000 
  222000   0.48597194   -1.9715069   0.72822895    -1.243278   0.11804177    11548.037     1000 
  224000   0.48658398    -1.966078    0.7291461   -1.2369319    0.1117852     11548.81     1000 
  226000   0.48428555    -1.926631    0.7257019   -1.2009291   0.11825875    11643.149     1000 
  228000   0.47501033   -2.0005506   0.71180298   -1.2887476   0.12126153    11530.536     1000 
  230000   0.49540076   -1.9096311   0.74235804   -1.1672731   0.13018589    11274.258     1000 
  232000   0.49879706   -2.0046846   0.74744739   -1.2572372   0.13216794     11483.41     1000 
  234000   0.49301267   -1.9171105   0.73877948    -1.178331   0.13599074    11384.164     1000 
  236000   0.48696833   -1.9565652   0.72972204   -1.2268432   0.13084664    11375.933     1000 
  238000   0.48544602   -1.8943708   0.72744087   -1.1669299   0.12473398    11407.704     1000 
  240000   0.50318689   -1.9194718   0.75402555   -1.1654463    0.1336694    11352.366     1000 
  242000   0.50666666   -1.9278679   0.75923999   -1.1686279   0.11791686    11439.594     1000 
  244000    0.4874476   -1.9682853   0.73044023   -1.2378451   0.13160239    11365.363     1000 
  246000   0.48923115   -1.8861499   0.73311287    -1.153037   0.13998372    11314.059     1000 
  248000   0.49363044   -2.0274214   0.73970522   -1.2877161   0.12209643    11486.492     1000 
  250000   0.46654853   -1.9346284   0.69912297   -1.2355055   0.13228548    11435.691     1000 
  252000   0.48432188   -1.9529859   0.72575633   -1.2272295   0.12762223    11472.585     1000 
  254000   0.49370188   -1.9155676   0.73981227   -1.1757553   0.12152699    11391.369     1000 
  256000   0.49730651   -1.9660959   0.74521381   -1.2208821   0.11727007    11600.409     1000 
  258000   0.50541804   -1.9420774   0.75736894   -1.1847084   0.14024046    11370.223     1000 
  260000   0.48020892    -1.940699   0.71959307    -1.221106    0.1252785    11423.381     1000 
  262000   0.48247785   -2.0270684   0.72299306   -1.3040753   0.12132708    11495.864     1000 
  264000   0.49825345   -1.9830916   0.74663279   -1.2364588   0.11962159    11427.978     1000 
  266000   0.45906678    -1.933089   0.68791156   -1.2451774   0.12743687     11332.69     1000 
  268000   0.47852856   -1.9407717   0.71707504   -1.2236967   0.13727466    11340.479     1000 
  270000    0.5200488   -1.9272312   0.77929313    -1.147938      0.13348     11340.18     1000 
  272000   0.50026522   -1.9741056   0.74964744   -1.2244582   0.12988121    11461.882     1000 
  274000   0.47666509   -1.8818518   0.71428264   -1.1675692   0.12808706    11394.282     1000 
  276000     0.497796   -1.9465954    0.7459473   -1.2006481   0.13598553    11494.675     1000 
  278000   0.47990134   -1.9493165   0.71913216   -1.2301843   0.13491059     11324.05     1000 
  280000   0.49471488   -1.9407067   0.74133025   -1.1993764   0.12699763    11395.248     1000 
  282000   0.48357343    -1.905507   0.72463479   -1.1808722   0.12035665    11440.909     1000 
  284000   0.49450379   -1.9670787   0.74101393   -1.2260648   0.13686648      11299.4     1000 
  286000   0.48842287   -1.8978536   0.73190167   -1.1659519   0.12531092     11393.63     1000 
  288000   0.49232278   -1.9572963   0.73774568   -1.2195506   0.12438234    11468.129     1000 
  290000   0.50289092   -1.9705456   0.75358204   -1.2169635    0.1275395    11467.353     1000 
  292000   0.51037541   -1.9294778   0.76479756   -1.1646803   0.12493857    11436.694     1000 
  294000   0.51130754   -1.9410583   0.76619434    -1.174864   0.13550681    11328.692     1000 
  296000   0.51577011   -1.9328814   0.77288152   -1.1599999   0.12707978    11378.397     1000 
  298000   0.48288336   -1.9570533   0.72360072   -1.2334526   0.12188364    11467.221     1000 
  300000   0.49902421   -1.9786355   0.74778779   -1.2308478   0.13189423    11430.705     1000 
  302000   0.49533863   -1.9524027   0.74226493   -1.2101378   0.13979885     11291.75     1000 
  304000   0.49109254   -1.9119702   0.73590217    -1.176068   0.13020928    11308.179     1000 
  306000   0.47513066   -1.9397678    0.7119833   -1.2277845    0.1187179    11336.121     1000 
  308000   0.48158054   -1.9641549   0.72164844   -1.2425065   0.12856902    11470.265     1000 
  310000   0.47091824   -1.9105842   0.70567098   -1.2049133   0.12042643    11471.675     1000 
  312000   0.46911882   -1.9100581   0.70297456   -1.2070835   0.13549338    11201.644     1000 
  314000   0.49641451    -1.944817   0.74387715   -1.2009398   0.13153752    11391.058     1000 
  316000   0.49127237   -1.9135878   0.73617165   -1.1774161   0.12967526    11359.848     1000 
  318000    0.4811606   -1.9175016   0.72101916   -1.1964824   0.14094507    11250.091     1000 
  320000   0.49867822   -1.8886674   0.74726931   -1.1413981   0.13998512    11130.829     1000 
  322000   0.47086804   -1.9354045   0.70559576   -1.2298088   0.12499804    11423.498     1000 
  324000   0.48893165   -1.9573917   0.73266408   -1.2247277   0.12005689     11532.39     1000 
  326000   0.47074092   -1.9490679   0.70540526   -1.2436627   0.11295719    11397.462     1000 
  328000   0.49943805   -1.9539026   0.74840791   -1.2054947   0.13244097    11289.494     1000 
  330000   0.50278759   -1.9055949    0.7534272   -1.1521677   0.13595238    11344.984     1000 
  332000   0.48094369   -1.9224152   0.72069412   -1.2017211   0.12223961    11466.662     1000 
  334000   0.49607642    -1.911189   0.74337051   -1.1678185   0.12969523    11391.371     1000 
  336000   0.49173212   -1.9289073   0.73686059   -1.1920467   0.14027419    11256.679     1000 
  338000   0.49751008   -1.9750558   0.74551885    -1.229537   0.12644097    11462.803     1000 
  340000   0.49055303   -1.9153852   0.73509372   -1.1802915   0.12629509    11405.464     1000 
  342000   0.49509131    -1.913994   0.74189433   -1.1720996   0.13582247    11468.204     1000 
  344000   0.50219639   -1.9700929   0.75254129   -1.2175516   0.14843117    11294.719     1000 
  346000   0.47931879   -1.9237911    0.7182592   -1.2055319   0.13279457    11296.194     1000 
  348000   0.48073313   -1.9237571    0.7203786   -1.2033785   0.14452599    11240.563     1000 
  350000   0.48797718   -1.9178704    0.7312338   -1.1866366   0.13434169    11364.876     1000 
  352000   0.48406838   -1.9870529   0.72537647   -1.2616765   0.13843063    11342.521     1000 
  354000   0.49546754   -1.9246048   0.74245811   -1.1821467   0.13352854    11297.197     1000 
  356000   0.47710712   -1.8831128   0.71494501   -1.1681677   0.12262274    11271.106     1000 
  358000   0.48703049   -1.9457788   0.72981519   -1.2159637   0.12514023    11453.261     1000 
  360000   0.47974726   -2.0126724   0.71890127   -1.2937711   0.12791401    11444.899     1000 
  362000   0.49301873   -1.9298647   0.73878856   -1.1910762   0.12375526    11446.564     1000 
  364000   0.48736361   -1.9112692   0.73031437   -1.1809549    0.1402904    11277.282     1000 
  366000   0.47461393   -1.9621866   0.71120897   -1.2509777   0.12011483    11496.631     1000 
  368000   0.49072297   -1.9091186   0.73534838   -1.1737702   0.13651844    11346.739     1000 
  370000   0.48202401   -1.9522566   0.72231299   -1.2299436   0.13577201    11263.068     1000 
  372000   0.45897821   -1.9058566   0.68777884   -1.2180777   0.12743831      11382.9     1000 
  374000   0.48193842    -1.975205   0.72218472   -1.2530203   0.12262014    11454.872     1000 
  376000   0.50105247   -1.9337182   0.75082712    -1.182891   0.12854196    11351.444     1000 
  378000   0.47513069   -1.9530534   0.71198334     -1.24107   0.12640327    11364.332     1000 
  380000   0.49782764   -1.9517085   0.74599472   -1.2057138    0.1350559    11353.141     1000 
  382000    0.4910916   -1.9577059   0.73590077   -1.2218052   0.13652497    11321.004     1000 
  384000   0.49276348   -1.9354478   0.73840608   -1.1970417   0.13995223    11266.032     1000 
  386000   0.47719216   -1.9399818   0.71507245   -1.2249094   0.13324848     11327.04     1000 
  388000   0.49276066   -1.9551252   0.73840184   -1.2167233   0.12877857    11309.434     1000 
  390000   0.47985958   -2.0088969   0.71906958   -1.2898273   0.12320192    11436.371     1000 
  392000   0.47736604   -1.9313986   0.71533301   -1.2160656   0.12743755    11388.034     1000 
  394000    0.5060817   -1.9469604   0.75836343    -1.188597   0.13606615    11302.064     1000 
  396000   0.49571439   -1.9231604   0.74282802   -1.1803324   0.13217497    11363.878     1000 
  398000   0.50456777    -1.958986    0.7560948   -1.2028912    0.1299041    11336.196     1000 
  400000   0.49556189   -1.9891852   0.74259949   -1.2465857   0.12908483    11508.166     1000 
  402000   0.48332692   -1.9733388   0.72426538   -1.2490734   0.12812747    11318.436     1000 
  404000   0.49591963    -1.946216   0.74313557   -1.2030805   0.11904408    11531.247     1000 
  406000   0.49507637   -1.9825266   0.74187195   -1.2406546   0.12354994    11460.826     1000 
  408000   0.51200313   -1.8886845   0.76723668   -1.1214478    0.1347085    11380.728     1000 
  410000   0.50804303   -1.9660147   0.76130248   -1.2047122   0.13087599    11330.945     1000 
  412000   0.47985336   -1.9038937   0.71906026   -1.1848335   0.12180318    11435.235     1000 
  414000   0.47126004    -1.936552   0.70618317   -1.2303688   0.13182024    11299.742     1000 
  416000   0.52101141   -1.9504221    0.7807356   -1.1696865   0.13215313    11421.051     1000 
  418000   0.48367063   -1.9562348   0.72478044   -1.2314544   0.13392684    11460.508     1000 
  420000   0.48995251   -1.9496615   0.73419384   -1.2154677   0.12951392    11476.375     1000 
  422000   0.49218417   -1.9083948   0.73753798   -1.1708568   0.12184328    11483.767     1000 
  424000   0.49067726   -1.9593183   0.73527987   -1.2240384   0.13068327    11417.319     1000 
  426000   0.49249358   -1.9346073   0.73800163   -1.1966057   0.12447062    11445.058     1000 
  428000   0.49901119   -1.9968709   0.74776827   -1.2491026   0.11931287    11510.282     1000 
  430000   0.49748884   -1.9245178   0.74548703   -1.1790307   0.13162803    11387.105     1000 
  432000   0.48939649   -1.9502179   0.73336064   -1.2168572   0.12640563    11342.126     1000 
  434000   0.47524471    -1.948676    0.7121542   -1.2365218   0.14265971    11273.118     1000 
  436000   0.49322965   -1.9331761   0.73910463   -1.1940715   0.15089052    11158.846     1000 
  438000   0.50115982   -1.9479685     0.750988   -1.1969805   0.12356837     11551.87     1000 
  440000   0.46502779    -1.923272   0.69684414   -1.2264279   0.13878097    11220.286     1000 
  442000   0.48231043   -2.0112341   0.72274218   -1.2884919   0.12314544    11486.201     1000 
  444000   0.49784063   -1.9571595   0.74601419   -1.2111453   0.13738358    11274.592     1000 
  446000   0.48248568   -1.9421923   0.72300478   -1.2191875   0.13515792     11345.27     1000 
  448000   0.50161088   -1.9515675    0.7516639   -1.1999036   0.11788864    11442.107     1000 
  450000   0.49706703   -1.9639476   0.74485495   -1.2190926   0.12848595    11328.669     1000 
  452000   0.47640044   -1.9285534   0.71388607   -1.2146673    0.1210948    11327.071     1000 
  454000    0.4912735   -1.9614364   0.73617334   -1.2252631    0.1213643    11542.552     1000 
  456000   0.46984905   -1.9170683    0.7040688   -1.2129995   0.13152675    11305.442     1000 
  458000   0.52314987   -1.9270982   0.78394008   -1.1431582   0.12878935    11308.206     1000 
  460000   0.49699189   -1.9597729   0.74474235   -1.2150305   0.12608058    11487.163     1000 
  462000   0.47063688   -1.9671603   0.70524936   -1.2619109   0.11815088    11522.922     1000 
  464000   0.51001239   -1.9516938   0.76425356   -1.1874403   0.12854284    11442.713     1000 
  466000   0.46948159   -1.9451433   0.70351816   -1.2416252   0.12989061    11526.689     1000 
  468000   0.49437826   -1.9364675   0.74082582   -1.1956417   0.12908451    11368.617     1000 
  470000   0.50458234   -1.9312249   0.75611664   -1.1751083   0.12731521    11450.589     1000 
  472000   0.47228327   -1.9197384   0.70771648   -1.2120219   0.12476809    11348.692     1000 
  474000   0.48803183   -1.9690483    0.7313157   -1.2377326   0.12406787    11487.899     1000 
  476000    0.5098286   -1.9049512   0.76397815   -1.1409731   0.12544091    11289.149     1000 
  478000   0.51546742   -1.9565648   0.77242793   -1.1841369   0.12598671    11457.924     1000 
  480000   0.51320443    -1.971215   0.76903684   -1.2021782   0.12124954    11494.791     1000 
  482000   0.47702459   -1.9489536   0.71482135   -1.2341323    0.1369335    11366.227     1000 
  484000   0.47640725   -1.9318118   0.71389627   -1.2179155   0.12751774    11378.377     1000 
  486000   0.48904912   -1.9142381   0.73284011    -1.181398   0.13382984    11374.333     1000 
  488000   0.47671681   -1.9449918   0.71436015   -1.2306317   0.11671499    11507.444     1000 
  490000   0.50480296   -1.8670047   0.75644724   -1.1105574   0.13704702    11253.065     1000 
  492000   0.49118238    -1.967702   0.73603679   -1.2316652    0.1344596    11380.312     1000 
  494000   0.49178795   -1.9874138   0.73694424   -1.2504696   0.12432561    11500.929     1000 
  496000   0.47429637   -1.9502751   0.71073311    -1.239542    0.1286585    11463.243     1000 
  498000   0.46934357   -1.9404526   0.70331133   -1.2371413   0.13887759    11311.604     1000 
  500000    0.5020277   -1.9443232   0.75228852   -1.1920347   0.13543259    11297.953     1000 
  502000   0.49081783   -1.9380795   0.73549052    -1.202589   0.12231709    11276.951     1000 
  504000   0.51279699   -1.9115435   0.76842629   -1.1431173   0.12985448    11319.971     1000 
  506000   0.49161282   -1.9593447   0.73668182   -1.2226629   0.14526788    11237.681     1000 
  508000   0.48556837   -1.9575205    0.7276242   -1.2298963    0.1371007    11350.671     1000 
  510000   0.48927358    -1.894219   0.73317645   -1.1610425   0.12446363    11425.478     1000 
  512000   0.50591455   -1.9773294   0.75811296   -1.2192164   0.13810979    11394.239     1000 
  514000   0.48568537   -1.9618042   0.72779953   -1.2340047    0.1310377    11477.528     1000 
  516000    0.4779926   -2.0052958   0.71627191   -1.2890239   0.11964367    11537.817     1000 
  518000   0.49770917   -1.9072449   0.74581719   -1.1614277   0.13270559    11382.085     1000 
  520000   0.49416017   -1.9098965   0.74049902   -1.1693975   0.12696805    11302.608     1000 
  522000   0.48056993   -1.9158873   0.72013404   -1.1957532   0.13297993    11307.214     1000 
  524000   0.49138451   -1.9309524   0.73633969   -1.1946127   0.13806031    11400.566     1000 
  526000   0.47523168   -1.9748153   0.71213467   -1.2626807   0.11278667    11590.452     1000 
  528000   0.50149041   -1.9393961   0.75148338   -1.1879127   0.14277499    11328.135     1000 
  530000    0.4751583   -1.9565564   0.71202471   -1.2445317   0.12316283    11442.584     1000 
  532000   0.49604609   -1.9633548   0.74332507   -1.2200297   0.13739705    11290.788     1000 
  534000   0.49923169   -1.9477149   0.74809868   -1.1996162   0.10732763    11690.364     1000 
  536000   0.50137755   -1.9487644   0.75131425   -1.1974501   0.13152928    11389.643     1000 
  538000   0.48431933   -1.9123303   0.72575252   -1.1865778   0.13080278    11369.427     1000 
  540000   0.48608108   -1.9621835    0.7283925    -1.233791   0.13549437    11327.491     1000 
  542000   0.49125987    -1.990436   0.73615291   -1.2542831   0.12903195    11433.056     1000 
  544000   0.49115544   -1.8991344   0.73599643   -1.1631379   0.13472891    11319.779     1000 
  546000    0.4956773   -1.9292566   0.74277244   -1.1864841   0.13124098    11387.281     1000 
  548000   0.48135568   -1.9119337   0.72131148   -1.1906222   0.13592615    11331.655     1000 
  550000   0.48354618   -1.9127638   0.72459396   -1.1881699   0.13129117    11284.957     1000 
  552000   0.49159284   -1.9543067   0.73665187   -1.2176548   0.12796657     11391.88     1000 
  554000   0.50024478   -1.9570457   0.74961681   -1.2074289   0.13566107    11412.769     1000 
  556000   0.49281244   -1.9716516   0.73847943   -1.2331722   0.12927384    11313.254     1000 
  558000   0.48845887   -1.9240685   0.73195562   -1.1921129   0.11564756     11533.58     1000 
  560000    0.4939752   -1.9374354   0.74022184   -1.1972136   0.13261391    11293.523     1000 
  562000   0.48382548    -1.975639   0.72501249   -1.2506265   0.12539626    11408.048     1000 
  564000   0.49126213   -1.9612205    0.7361563   -1.2250642   0.12645886    11410.001     1000 
  566000   0.48399895   -1.9562021   0.72527242   -1.2309297   0.13041452    11408.501     1000 
  568000   0.49022995   -1.9567819   0.73460958   -1.2221723   0.13597351    11356.978     1000 
  570000   0.50091581   -1.9659367   0.75062234   -1.2153143   0.13137314    11364.698     1000 
  572000    0.4780958   -1.9048581   0.71642656   -1.1884316   0.12592358    11340.681     1000 
  574000   0.47129437   -1.9599107   0.70623462   -1.2536761   0.13551677    11258.076     1000 
  576000   0.48402202   -1.9647618     0.725307   -1.2394548   0.13205242    11470.628     1000 
  578000   0.48964548    -1.947297   0.73373376   -1.2135632   0.11904662    11471.198     1000 
  580000   0.49383592   -1.9276665   0.74001312   -1.1876534    0.1238232    11332.482     1000 
  582000   0.48092352    -1.962327   0.72066389   -1.2416632   0.13711943    11302.342     1000 
  584000   0.48428404   -1.9513955   0.72569964   -1.2256958   0.13618639    11339.088     1000 
  586000   0.49348418   -1.9376281   0.73948604   -1.1981421    0.1406802    11282.218     1000 
  588000   0.48994546   -1.9463215   0.73418328   -1.2121382   0.12008639    11374.145     1000 
  590000   0.49152847   -1.8885501   0.73655541   -1.1519947   0.15089967    11172.922     1000 
  592000   0.48001207   -1.9513679   0.71929809   -1.2320699   0.12750271    11428.549     1000 
  594000   0.50013035   -1.9636116   0.74944533   -1.2141663   0.13084456    11412.912     1000 
  596000   0.49048592    -2.034803   0.73499316   -1.2998098   0.11944628    11528.048     1000 
  598000   0.49122145   -1.9294851   0.73609534   -1.1933898    0.1328005    11235.492     1000 
  600000   0.49527554   -1.9920892    0.7421704   -1.2499188   0.12834096    11419.071     1000 
  602000   0.49432793   -1.9421112    0.7407504   -1.2013608   0.13106388    11388.823     1000 
  604000    0.4950075   -1.9311376   0.74176874   -1.1893689   0.11168507    11552.076     1000 
  606000   0.49021536    -1.939279   0.73458772   -1.2046913   0.12297482    11413.038     1000 
  608000   0.48493419   -1.9657548   0.72667388    -1.239081   0.12721495    11429.564     1000 
  610000   0.48830825   -1.9553494   0.73172991   -1.2236195   0.12975152    11280.138     1000 
  612000   0.49334342   -1.9723834   0.73927511   -1.2331083   0.11605958    11598.353     1000 
  614000   0.48741559   -1.8832142   0.73039227   -1.1528219   0.13852384    11327.756     1000 
  616000   0.51052694   -1.9549435   0.76502462   -1.1899189   0.13153443    11413.842     1000 
  618000   0.48861758   -1.9109426   0.73219345   -1.1787492    0.1220613    11505.999     1000 
  620000   0.48241174    -1.928236   0.72289399    -1.205342   0.12633482    11354.832     1000 
  622000   0.50058674   -1.9801237   0.75012924   -1.2299945   0.13462462    11417.118     1000 
  624000   0.48165444    -1.949087   0.72175918   -1.2273279   0.12919873    11419.018     1000 
  626000   0.48462058   -1.9524239   0.72620394     -1.22622   0.13633807    11362.114     1000 
  628000   0.49613938   -1.9770743   0.74346486   -1.2336094   0.12581224    11464.443     1000 
  630000   0.48596416   -1.9867058    0.7282173   -1.2584885   0.13396061    11327.806     1000 
  632000    0.4963553    -1.981208   0.74378841   -1.2374196   0.13657525    11421.754     1000 
  634000   0.47454117   -1.9021472   0.71109994   -1.1910473   0.12809323    11392.932     1000 
  636000   0.48661047   -1.9796782   0.72918579   -1.2504924   0.12187029    11356.052     1000 
  638000   0.48990649   -1.9239009   0.73412488   -1.1897761   0.12102843    11539.808     1000 
  640000   0.47965552   -1.9154511    0.7187638   -1.1966873   0.13536729     11360.78     1000 
  642000   0.47365321   -1.9572579   0.70976934   -1.2474886   0.13196789    11253.584     1000 
  644000   0.47900408   -1.9266631   0.71778762   -1.2088755   0.13558085    11317.709     1000 
  646000   0.49460467   -1.9146075   0.74116509   -1.1734424   0.13137685     11380.84     1000 
  648000   0.47433165   -1.9435241   0.71078598   -1.2327381    0.1342243    11227.955     1000 
  650000    0.5071676   -1.9097337   0.75999066    -1.149743   0.13138059    11316.532     1000 
  652000   0.49743104   -1.9163567   0.74540041   -1.1709562   0.13227985    11287.648     1000 
  654000   0.49507103   -1.9443318   0.74186394   -1.2024679   0.14193565    11267.878     1000 
  656000   0.48485242   -1.9758509   0.72655136   -1.2492995   0.11839359    11462.502     1000 
  658000    0.4894383   -1.9891172   0.73342329   -1.2556939   0.12563774    11474.797     1000 
  660000   0.47930528   -1.9463815   0.71823896   -1.2281425   0.11536398    11519.635     1000 
  662000   0.47605729   -1.9115106   0.71337184   -1.1981388   0.14244613    11295.253     1000 
  664000   0.48915341   -1.9162477   0.73299639   -1.1832513   0.13636066    11288.285     1000 
  666000   0.47957814   -1.8855888   0.71864785   -1.1669409   0.13081998    11162.051     1000 
  668000     0.499374   -1.9249919   0.74831194   -1.1766799   0.11968677    11372.404     1000 
  670000   0.48389044   -2.0273559   0.72510983   -1.3022461   0.12938178    11445.063     1000 
  672000   0.48867379   -1.9411937   0.73227768   -1.2089161   0.12102114    11474.822     1000 
  674000   0.50822698   -1.9246194   0.76157813   -1.1630413    0.1318041    11376.986     1000 
  676000   0.46596235   -1.9096005   0.69824458   -1.2113559    0.1324051    11269.931     1000 
  678000    0.4674054   -1.9615051     0.700407   -1.2610981   0.12181074    11466.449     1000 
  680000   0.48483191   -1.9437218   0.72652061   -1.2172012   0.12494283    11556.119     1000 
  682000   0.49209448   -1.9615769   0.73740357   -1.2241734   0.13306453    11538.147     1000 
  684000   0.47258644   -1.9608917   0.70817079    -1.252721   0.12262635    11401.675     1000 
  686000   0.50919703    -1.960911   0.76303176   -1.1978792   0.13181591    11338.924     1000 
  688000   0.50675968   -1.9874035   0.75937938   -1.2280242   0.12824046    11435.007     1000 
  690000   0.50089734   -1.9831676   0.75059466   -1.2325729   0.13431186    11378.328     1000 
  692000    0.5039604   -1.9238894   0.75518466   -1.1687047   0.12632575    11405.237     1000 
  694000   0.48864193     -1.93737   0.73222994   -1.2051401   0.14055436    11282.176     1000 
  696000   0.48633571   -1.9512152   0.72877407   -1.2224411   0.13115063    11323.273     1000 
  698000   0.46995799   -1.9514687   0.70423205   -1.2472366   0.12767301    11365.507     1000 
  700000   0.48749754   -1.9333699   0.73051506   -1.2028548    0.1355615     11310.88     1000 
  702000   0.48708363    -1.943474   0.72989481   -1.2135791   0.14311408    11311.848     1000 
  704000   0.47893152    -1.966258   0.71767888   -1.2485791   0.12659737     11418.62     1000 
  706000   0.50399277   -1.9318674   0.75523316   -1.1766342   0.12493305    11446.237     1000 
  708000    0.5005902   -1.9122051   0.75013442   -1.1620707   0.12359992    11389.953     1000 
  710000   0.51959588    -1.943393   0.77861442   -1.1647786   0.14099097    11333.916     1000 
  712000    0.4885479   -1.9170547   0.73208903   -1.1849657   0.12322397    11494.207     1000 
  714000   0.47290047   -1.9816235   0.70864135   -1.2729821   0.13843055     11398.41     1000 
  716000   0.49864927   -1.9613994   0.74722592   -1.2141735   0.12639857    11376.675     1000 
  718000    0.4711942   -1.8772375   0.70608451    -1.171153    0.1315077     11258.85     1000 
  720000   0.48856492   -1.9176474   0.73211453   -1.1855329   0.12864929    11365.366     1000 
  722000   0.47597115   -1.9723166   0.71324277   -1.2590738   0.13385975    11433.692     1000 
  724000   0.51251043   -1.9422614   0.76799688   -1.1742646    0.1498945    11247.656     1000 
  726000   0.49095257   -1.9443971   0.73569243   -1.2087047   0.13183503    11333.489     1000 
  728000   0.47765112   -1.9091523    0.7157602   -1.1933921   0.13789152    11244.662     1000 
  730000   0.49550969   -1.9634998   0.74252127   -1.2209785   0.13346549    11369.216     1000 
  732000   0.49423472   -1.9196593   0.74061073   -1.1790486   0.13576635    11304.562     1000 
  734000   0.51084254    -1.987268   0.76549754   -1.2217705   0.11989051    11495.696     1000 
  736000   0.46867986   -1.9368957   0.70231677   -1.2345789   0.12682262    11473.264     1000 
  738000   0.51900082   -1.9285792   0.77772274   -1.1508564   0.12920221    11374.124     1000 
  740000   0.48679315   -1.9544701   0.72945954   -1.2250105   0.12004644     11362.75     1000 
  742000   0.48820342   -1.9492773   0.73157282   -1.2177045   0.12636789    11354.493     1000 
  744000   0.49054734    -1.952479    0.7350852   -1.2173938   0.13327194    11263.223     1000 
  746000   0.49535954   -1.9464067   0.74229626   -1.2041104   0.13053356    11341.996     1000 
  748000    0.4872163   -1.9572402   0.73009363   -1.2271465   0.12443101    11463.965     1000 
  750000   0.48002926   -1.9645238   0.71932385   -1.2451999   0.13104253    11423.693     1000 
  752000   0.48679587   -1.9437911   0.72946361   -1.2143275   0.12013771     11390.04     1000 
  754000   0.49417108   -1.9539363   0.74051536   -1.2134209   0.13682444    11279.488     1000 
  756000   0.48788917   -1.9472853   0.73110192   -1.2161834   0.13477773    11328.005     1000 
  758000   0.50453786   -1.9302243   0.75604999   -1.1741743   0.12980884    11375.205     1000 
  760000   0.47629552    -1.939387   0.71372884   -1.2256581   0.13495133    11372.926     1000 
  762000   0.49429665   -1.9568261   0.74070353   -1.2161226   0.13715612    11297.415     1000 
  764000   0.48964339   -1.9997819   0.73373062   -1.2660512   0.11495786    11584.804     1000 
  766000    0.4766458   -1.9696896   0.71425373   -1.2554359   0.12496995    11520.286     1000 
  768000   0.50084749   -1.9688552   0.75051996   -1.2183352   0.12293334    11452.209     1000 
  770000   0.50453074   -1.9521151   0.75603931   -1.1960758   0.13986331    11253.885     1000 
  772000   0.48951785    -1.980717    0.7335425   -1.2471745   0.11899558    11483.676     1000 
  774000   0.47807696   -1.9288591   0.71639833   -1.2124608   0.13365545    11365.866     1000 
  776000   0.48961439   -2.0224137   0.73368716   -1.2887266   0.12387656    11464.116     1000 
  778000   0.48837529   -1.9147857   0.73183037   -1.1829554    0.1358171    11379.405     1000 
  780000   0.50109056   -1.9646013    0.7508842   -1.2137171   0.13419014    11296.131     1000 
  782000   0.49819351   -1.9554922   0.74654297   -1.2089492   0.12639695    11417.458     1000 
  784000   0.48919276    -1.974474   0.73305535   -1.2414187   0.12850558    11376.761     1000 
  786000   0.47964935   -1.9890672   0.71875455   -1.2703127   0.12103243    11470.649     1000 
  788000   0.48543674   -1.9706943   0.72742695   -1.2432673   0.13314347    11345.288     1000 
  790000   0.49120706    -1.964549   0.73607377   -1.2284752   0.14307709    11264.721     1000 
  792000   0.47948554   -1.9636044   0.71850909   -1.2450953   0.13186414    11414.236     1000 
  794000   0.50166172   -1.9486292   0.75174009   -1.1968891   0.11814659    11580.502     1000 
  796000   0.51218962   -1.9929261   0.76751615     -1.22541   0.13361322    11334.652     1000 
  798000   0.50977884   -1.8901887   0.76390359   -1.1262851   0.13912646    11296.357     1000 
  800000   0.48238615   -1.9712464   0.72285564   -1.2483907   0.12560309    11474.074     1000 
  802000   0.49927374   -1.9201934    0.7481617   -1.1720317   0.13049291    11330.993     1000 
  804000   0.47635718   -1.9743198   0.71382124   -1.2604986   0.13555467    11385.719     1000 
  806000   0.46776595   -1.9293951   0.70094728   -1.2284478    0.1187381    11442.203     1000 
  808000   0.48903404    -1.918366   0.73281751   -1.1855485   0.13051629    11300.965     1000 
  810000   0.47561874   -1.9356284   0.71271469   -1.2229137   0.13404642    11316.068     1000 
  812000   0.48367097   -1.8980892   0.72478095   -1.1733083    0.1412613    11229.211     1000 
  814000   0.52400929   -1.9388589   0.78522792    -1.153631   0.13514916    11325.558     1000 
  816000   0.48739622   -1.9341373   0.73036324   -1.2037741    0.1269874     11477.36     1000 
  818000   0.49856366   -1.9092483   0.74709764   -1.1621506   0.13061012    11354.357     1000 
  820000   0.50712269   -1.9236812   0.75992336   -1.1637579   0.12570093    11418.553     1000 
  822000   0.48906724   -1.9207832   0.73286726   -1.1879159   0.13084928    11329.279     1000 
  824000   0.49178943   -1.9310936   0.73694646   -1.1941472   0.14068802    11226.965     1000 
  826000   0.48958407   -1.9527962   0.73364173   -1.2191544   0.12566168    11410.064     1000 
  828000   0.49297686   -1.9802593   0.73872583   -1.2415335   0.12173544    11500.644     1000 
  830000   0.48423267   -1.9715348   0.72562266   -1.2459122   0.12938402    11369.108     1000 
  832000   0.51881618   -1.9356742   0.77744605   -1.1582282   0.13470227    11545.179     1000 
  834000   0.48759809    -1.990115   0.73066574   -1.2594492   0.11842143    11529.425     1000 
  836000   0.50939888   -1.9525754   0.76333423   -1.1892412   0.13193308    11413.709     1000 
  838000    0.4822871   -1.9427498   0.72270722   -1.2200426   0.12431635    11407.597     1000 
  840000   0.48217464   -1.9706841    0.7225387   -1.2481454   0.12034574    11413.471     1000 
  842000   0.49262453   -1.9472337   0.73819786   -1.2090358   0.13060211    11409.256     1000 
  844000   0.49785532   -1.9805702   0.74603619    -1.234534    0.1271853    11480.805     1000 
  846000   0.50479669   -1.9381278   0.75643785     -1.18169   0.13936107    11264.612     1000 
  848000   0.48979421   -1.9240137   0.73395662   -1.1900571   0.13628479    11179.284     1000 
  850000   0.50708565   -1.9494605   0.75986784   -1.1895926   0.13542706    11242.966     1000 
  852000   0.48115408   -1.9595297   0.72100938   -1.2385203   0.13378742    11264.047     1000 
  854000   0.48103617   -1.9529877    0.7208327    -1.232155   0.11433737     11564.74     1000 
  856000   0.47031071   -1.9620982   0.70476061   -1.2573375   0.13058721    11314.339     1000 
  858000   0.48914174   -1.9539904   0.73297889   -1.2210115   0.12996392    11480.837     1000 
  860000   0.47917214   -1.9732246   0.71803945   -1.2551851   0.12741339    11482.959     1000 
  862000   0.48257431   -1.9067769    0.7231376   -1.1836393   0.14269193    11164.996     1000 
  864000   0.48294075   -1.9425419   0.72368672   -1.2188551   0.12700156    11429.809     1000 
  866000   0.48303413    -1.967533   0.72382665   -1.2437063   0.13029987    11492.094     1000 
  868000   0.49679776   -1.9590634   0.74445145   -1.2146119   0.12780082    11390.746     1000 
  870000   0.50258289   -1.9476816   0.75312046   -1.1945611    0.1311013    11526.329     1000 
  872000   0.47626318   -1.9035715   0.71368038   -1.1898912      0.12962    11373.928     1000 
  874000   0.46068247   -1.9543286   0.69033268   -1.2639959   0.10457744    11548.932     1000 
  876000   0.50550876   -1.9265458   0.75750488   -1.1690409   0.13600048    11325.769     1000 
  878000   0.49081854   -1.9493124   0.73549158   -1.2138208   0.12676993     11409.54     1000 
  880000   0.48955061   -1.9017839   0.73359159   -1.1681923   0.12675781    11277.903     1000 
  882000    0.4820476   -1.9506786   0.72234833   -1.2283303   0.12007937    11468.239     1000 
  884000   0.49631431   -1.9483741     0.743727   -1.2046471   0.12120258    11580.928     1000 
  886000   0.52090941   -1.9480136   0.78058275   -1.1674308   0.12971171    11318.324     1000 
  888000   0.47755041   -1.9159989   0.71560929   -1.2003896   0.12397723    11465.896     1000 
  890000   0.49523948   -1.9485173   0.74211636   -1.2064009   0.12052704    11405.338     1000 
  892000   0.51071852   -1.9225179    0.7653117   -1.1572062   0.13346305    11303.071     1000 
  894000   0.47803649   -1.9360397   0.71633767   -1.2197021   0.13588004    11338.677     1000 
  896000   0.48840088   -1.8905363   0.73186871   -1.1586676   0.13471193    11404.914     1000 
  898000   0.50191069   -1.9435008   0.75211317   -1.1913877   0.12613774    11489.877     1000 
  900000   0.47232097   -1.9094302   0.70777298   -1.2016573   0.12375881    11447.768     1000 
  902000   0.50049837   -1.9488631   0.74999681   -1.1988663   0.13463161    11387.863     1000 
  904000   0.47937472   -1.9354146   0.71834302   -1.2170716   0.13625942    11314.141     1000 
  906000    0.4734589   -1.9449417   0.70947816   -1.2354635   0.12127163    11465.752     1000 
  908000   0.49290787   -1.9405156   0.73862244   -1.2018932   0.12919238    11389.173     1000 
  910000   0.48241057   -1.9537241   0.72289223   -1.2308318   0.13180969    11301.819     1000 
  912000   0.47690161     -1.95151   0.71463706   -1.2368729   0.12568967    11434.056     1000 
  914000   0.50587689   -1.9353901   0.75805651   -1.1773336   0.14289281    11289.119     1000 
  916000   0.47229187   -1.9044634   0.70772937    -1.196734    0.1348972    11207.347     1000 
  918000   0.48921164   -2.0026671   0.73308364   -1.2695835    0.1111313    11560.348     1000 
  920000   0.48757766   -1.9537094   0.73063513   -1.2230742   0.13197473    11385.706     1000 
  922000    0.4590833   -1.9163304   0.68793632   -1.2283941   0.12095213    11326.619     1000 
  924000   0.47791779   -1.8882904   0.71615981   -1.1721306   0.12714049    11351.073     1000 
  926000    0.4916927   -1.9358391   0.73680152   -1.1990376   0.12822502    11519.799     1000 
  928000   0.51801301   -1.9940567   0.77624249   -1.2178142   0.12985665    11432.837     1000 
  930000   0.49131959    -1.975994    0.7362424   -1.2397516   0.12318545    11522.253     1000 
  932000   0.49677516   -1.9501754   0.74441758   -1.2057579   0.12247692    11379.702     1000 
  934000   0.49696471   -1.9347531   0.74470161   -1.1900515   0.12674205    11296.058     1000 
  936000   0.49765619   -1.9178593    0.7457378   -1.1721215   0.13147222    11361.683     1000 
  938000   0.49370241   -1.9816908   0.73981305   -1.2418777    0.1160676    11635.963     1000 
  940000   0.50356859   -1.9747556   0.75459753    -1.220158   0.13786283    11342.846     1000 
  942000   0.50983515   -1.9534138   0.76398797   -1.1894258   0.13186791    11405.485     1000 
  944000   0.48623878   -1.9191528   0.72862882    -1.190524   0.12071825    11364.053     1000 
  946000   0.49844855   -1.9433588   0.74692515   -1.1964337   0.11689349    11531.278     1000 
  948000   0.48778635   -1.9207919   0.73094784   -1.1898441   0.12978671    11325.933     1000 
  950000   0.48564072   -1.9046665   0.72773262   -1.1769339   0.14372476    11237.718     1000 
  952000   0.51450002   -2.0138302   0.77097828   -1.2428519   0.14198956    11488.538     1000 
  954000   0.48756407   -1.9678562   0.73061476   -1.2372415   0.13348649    11456.667     1000 
  956000   0.50341574    -1.934101   0.75436849   -1.1797325   0.11742804    11530.891     1000 
  958000   0.51281461   -1.9680883   0.76845269   -1.1996356   0.13234764    11449.686     1000 
  960000   0.47347012   -1.9420332   0.70949498   -1.2325383   0.13195084    11278.347     1000 
  962000   0.49193486   -1.9300427   0.73716438   -1.1928784   0.12431551    11462.495     1000 
  964000    0.5109234    -1.903048   0.76561871   -1.1374293   0.13660534    11296.436     1000 
  966000   0.48517339   -1.8821546   0.72703233   -1.1551223   0.13766329    11185.728     1000 
  968000   0.48405713   -1.9674653   0.72535961   -1.2421057   0.11851394    11482.682     1000 
  970000   0.48297891   -1.9795492    0.7237439   -1.2558053   0.12667971     11428.04     1000 
  972000   0.46509656   -1.9140728   0.69694719   -1.2171256   0.13734629    11194.112     1000 
  974000   0.48616764   -1.9597447    0.7285222   -1.2312225   0.12692883    11443.931     1000 
  976000   0.49064699   -1.9161461   0.73523451   -1.1809116   0.10367914    11570.773     1000 
  978000   0.49707991   -2.0429484   0.74487425   -1.2980742   0.12895493    11483.998     1000 
  980000   0.49188786   -1.9140954   0.73709395   -1.1770014   0.12747237    11323.341     1000 
  982000   0.48670357   -2.0060994   0.72932529   -1.2767741   0.13294232    11372.401     1000 
  984000   0.48707548    -1.912255   0.72988261   -1.1823724   0.13256324    11491.108     1000 
  986000   0.49507207   -1.9362958    0.7418655   -1.1944303   0.13974537    11269.492     1000 
  988000    0.5082696   -1.9683071   0.76164199   -1.2066651   0.12051433    11597.277     1000 
  990000    0.4997293   -1.9100591   0.74884436   -1.1612148   0.13154165    11298.032     1000 
  992000   0.49828744   -1.9495809   0.74668373   -1.2028972   0.12916016    11426.853     1000 
  994000   0.49551087   -1.9932561   0.74252304    -1.250733   0.14559645    11243.223     1000 
  996000   0.47810261   -1.9508206   0.71643677   -1.2343838   0.12372891    11414.952     1000 
  998000   0.49626816   -2.0229151   0.74365783   -1.2792573    0.1350333    11520.347     1000 
 1000000   0.50927893   -1.9903983   0.76315447   -1.2272438   0.13837447    11358.639     1000 
 1002000   0.48643488     -1.94287   0.72892267   -1.2139473   0.13925367    11220.327     1000 
 1004000   0.46804842   -1.9686535   0.70137056    -1.267283   0.12947457    11451.247     1000 
 1006000   0.47883721   -1.9530089   0.71753757   -1.2354713   0.12829507    11423.625     1000 
 1008000   0.48218183   -1.9245824   0.72254947   -1.2020329   0.12767052    11322.618     1000 
 1010000   0.49077216   -1.9367558   0.73542208   -1.2013337   0.13608368    11244.414     1000 
 1012000   0.50521363   -1.9137448   0.75706263   -1.1566822    0.1359054    11295.739     1000 
 1014000    0.4932018   -1.9294775    0.7390629   -1.1904146   0.13455357     11391.75     1000 
 1016000   0.45874569   -1.9520982   0.68743041   -1.2646678   0.13309596    11406.023     1000 
 1018000   0.50434909   -1.9323029   0.75576712   -1.1765358   0.13562669    11435.519     1000 
 1020000   0.50370444   -1.9625772    0.7548011   -1.2077761   0.14147772    11355.493     1000 
 1022000   0.48725945   -1.9661001   0.73015829   -1.2359418   0.12685588    11359.165     1000 
 1024000   0.48677407   -1.8958476   0.72943094   -1.1664167   0.14330103    11214.592     1000 
 1026000   0.49764769     -1.93326   0.74572506    -1.187535   0.11789658    11469.627     1000 
 1028000   0.51740632   -1.9279439   0.77533337   -1.1526105   0.14120605    11365.421     1000 
 1030000   0.47831965   -1.9233962     0.716762   -1.2066342   0.12202275    11364.752     1000 
 1032000    0.4747141   -1.9557624   0.71135909   -1.2444033   0.12844727    11418.589     1000 
 1034000   0.49306684   -1.9596317   0.73886067   -1.2207711   0.12629215    11528.751     1000 
 1036000   0.50225422   -1.9050069   0.75262796   -1.1523789   0.12739863    11451.343     1000 
 1038000   0.48063935   -1.9756062   0.72023806   -1.2553682   0.10637867    11629.119     1000 
 1040000   0.49158336   -1.9449179   0.73663766   -1.2082802   0.14251742    11280.477     1000 
 1042000   0.47288543   -1.9057615   0.70861882   -1.1971427   0.12632655    11475.788     1000 
 1044000   0.47627888   -1.9537902    0.7137039   -1.2400863   0.12645872    11566.824     1000 
 1046000   0.45934933   -1.9280359   0.68833498   -1.2397009   0.13117192    11367.203     1000 
 1048000   0.49105914   -1.9332964   0.73585212   -1.1974443   0.13126976     11279.82     1000 
 1050000   0.49308115   -1.9613905    0.7388821   -1.2225084   0.13285354    11383.554     1000 
 1052000   0.47587037   -1.8778584   0.71309174   -1.1647666    0.1253568    11391.802     1000 
 1054000   0.48108386   -1.9848925   0.72090416   -1.2639884   0.12423379    11445.976     1000 
 1056000   0.48962761   -1.9561775   0.73370697   -1.2224706   0.12753665    11408.119     1000 
 1058000   0.49893654   -1.9454371    0.7476564   -1.1977807   0.12120318    11443.438     1000 
 1060000   0.49199276   -1.8717271   0.73725115   -1.1344759   0.12729195     11344.42     1000 
 1062000   0.47628945   -1.9198932   0.71371974   -1.2061734   0.12805867    11343.287     1000 
 1064000   0.47263726   -1.9726411   0.70824693   -1.2643942   0.14068878     11385.32     1000 
 1066000   0.47816435   -1.9447925   0.71652928   -1.2282632   0.12295797    11399.777     1000 
 1068000   0.47112627   -1.9750209   0.70598272   -1.2690382    0.1110075    11626.037     1000 
 1070000   0.49159708   -1.9211223   0.73665823   -1.1844641   0.12976306    11331.299     1000 
 1072000   0.50628972   -1.9074698   0.75867515   -1.1487947    0.1245719    11465.797     1000 
 1074000   0.50354091   -1.9558321   0.75455605   -1.2012761   0.12751648     11452.83     1000 
 1076000   0.48241047   -1.9444736   0.72289209   -1.2215815   0.12703885    11339.786     1000 
 1078000   0.51588398   -1.9870882   0.77305215   -1.2140361   0.12288794    11463.804     1000 
 1080000   0.50497498   -1.8733289   0.75670501   -1.1166238   0.12598168    11334.444     1000 
 1082000   0.48377674   -1.9470443   0.72493944   -1.2221049   0.13442945    11353.055     1000 
 1084000   0.48749967   -1.9584045   0.73051826   -1.2278862   0.12370463    11468.137     1000 
 1086000   0.47500715   -1.9648418   0.71179822   -1.2530436   0.12081216    11326.332     1000 
 1088000   0.48212744   -1.9479469   0.72246797    -1.225479   0.12593605    11545.651     1000 
 1090000   0.50314603   -1.9041784   0.75396433   -1.1502141   0.13307829    11376.847     1000 
 1092000   0.45632331   -1.9253666   0.68380048   -1.2415661   0.13421613    11341.944     1000 
 1094000    0.5061924   -1.9809004   0.75852931   -1.2223711   0.12064431    11507.131     1000 
 1096000   0.49762643   -1.9480431   0.74569321   -1.2023499   0.12487418     11486.99     1000 
 1098000   0.51809125   -1.9660555   0.77635974   -1.1896958   0.13939741    11302.098     1000 
 1100000    0.4942103   -1.9375462   0.74057414   -1.1969721   0.12724327    11299.441     1000 
 1102000    0.4878045   -1.9962999   0.73097504   -1.2653248   0.13776633    11298.697     1000 
 1104000   0.49012347   -1.9541213   0.73445002   -1.2196712   0.12572828     11433.27     1000 
 1106000   0.49504098    -1.981719    0.7418189   -1.2399001   0.12702108    11469.791     1000 
 1108000   0.47432591   -1.9017222   0.71077738   -1.1909448   0.12942638    11391.586     1000 
 1110000   0.45853002   -1.9932731   0.68710724   -1.3061658   0.12190177    11501.183     1000 
 1112000   0.48201823    -1.988596   0.72230432   -1.2662917   0.13189464    11365.411     1000 
 1114000   0.49658895   -1.9099209   0.74413854   -1.1657824   0.12691468    11395.966     1000 
 1116000   0.50397517    -1.937669   0.75520679   -1.1824622   0.13384502    11337.388     1000 
 1118000   0.47662691   -1.9132815   0.71422542   -1.1990561   0.13661578     11410.66     1000 
 1120000   0.50492759   -1.8971275   0.75663399   -1.1404935   0.12992326     11352.91     1000 
 1122000   0.50611533   -1.9183982   0.75841382   -1.1599844   0.13129564    11504.908     1000 
 1124000   0.48228867   -1.9216979   0.72270957   -1.1989883   0.12603784    11464.295     1000 
 1126000   0.50124437   -1.9900041   0.75111468   -1.2388894   0.11925653    11505.664     1000 
 1128000   0.48168838   -1.9560276   0.72181004   -1.2342176   0.15040833    11305.269     1000 
 1130000   0.49510894   -1.9515599   0.74192075   -1.2096392   0.12368083    11398.436     1000 
 1132000    0.4813432   -1.9108021   0.72129278   -1.1895093   0.12036537    11468.766     1000 
 1134000   0.51892266   -1.9093292    0.7776056   -1.1317236   0.13567806    11289.451     1000 
 1136000   0.48994669   -1.9019473   0.73418511   -1.1677622   0.12803396    11351.439     1000 
 1138000   0.47183181   -1.9736003   0.70703996   -1.2665603   0.12801176    11315.887     1000 
 1140000   0.48184347   -1.9328435   0.72204245   -1.2108011   0.11473025    11509.381     1000 
 1142000   0.50642723    -1.937454    0.7588812   -1.1785728   0.14345415    11234.957     1000 
 1144000   0.48569686   -1.8848074   0.72781674   -1.1569907   0.12237106    11385.326     1000 
 1146000   0.48852203    -1.990912   0.73205026   -1.2588617     0.106272    11725.175     1000 
 1148000   0.52348827    -1.892248   0.78444717   -1.1078008    0.1336555    11329.378     1000 
 1150000   0.48225292   -1.9685197     0.722656   -1.2458637   0.12402903    11427.766     1000 
 1152000   0.49319955   -1.9269319   0.73905953   -1.1878724   0.12759588    11457.232     1000 
 1154000   0.49878669   -1.9131884   0.74743186   -1.1657565   0.13246847    11371.766     1000 
 1156000   0.47178918   -1.9164983   0.70697608   -1.2095222    0.1367294    11363.582     1000 
 1158000    0.4753948   -1.9499527    0.7123791   -1.2375736   0.14187986    11288.171     1000 
 1160000   0.49821491   -1.9159165   0.74657504   -1.1693415   0.13601885    11311.126     1000 
 1162000   0.49310202   -1.9514849   0.73891338   -1.2125716   0.13521829    11343.859     1000 
 1164000   0.49661943   -1.9843804   0.74418422   -1.2401961   0.12520258    11408.744     1000 
 1166000   0.46580996   -1.9356455   0.69801623   -1.2376292   0.13083979    11378.563     1000 
 1168000   0.50557581   -1.8967397   0.75760535   -1.1391343   0.13179477    11317.873     1000 
 1170000   0.48106172   -1.9521535   0.72087099   -1.2312825   0.12461412    11425.799     1000 
 1172000   0.49457559   -2.0048624   0.74112153   -1.2637408   0.12242684    11524.213     1000 
 1174000   0.49933172   -1.9178012   0.74824858   -1.1695526   0.12848666    11413.848     1000 
 1176000   0.47554237   -1.9549518   0.71260024   -1.2423516   0.12362346    11478.945     1000 
 1178000   0.49326729   -1.9340165   0.73916104   -1.1948554   0.13570454     11229.65     1000 
 1180000   0.48710447   -1.9337208   0.72992604   -1.2037948   0.11526047    11482.924     1000 
 1182000   0.52426604    -1.962783   0.78561266   -1.1771703   0.14234388    11300.101     1000 
 1184000   0.48862479   -1.9673404   0.73220424   -1.2351362   0.11924757    11380.588     1000 
 1186000   0.47708159   -1.9550183   0.71490676   -1.2401115   0.13229617    11452.447     1000 
 1188000   0.49082453   -1.8991255   0.73550055    -1.163625   0.13520186    11184.465     1000 
 1190000   0.48678077   -1.8970642   0.72944098   -1.1676232   0.13378997    11361.659     1000 
 1192000   0.46682752   -1.9528665   0.69954104   -1.2533254   0.13194621    11503.535     1000 
 1194000   0.48878341   -1.9545952   0.73244193   -1.2221533   0.12709118    11277.239     1000 
 1196000   0.49260096   -1.9208795   0.73816254    -1.182717   0.13322973    11436.394     1000 
 1198000   0.47871485   -1.9519651   0.71735421   -1.2346109   0.13039004    11379.573     1000 
 1200000   0.48328634   -1.9849511   0.72420458   -1.2607465   0.12962392    11490.491     1000 
 1202000   0.50725446    -1.965093   0.76012081   -1.2049722    0.1327935    11456.677     1000 
 1204000   0.46001417   -1.9389112   0.68933123     -1.24958   0.13368614    11359.701     1000 
 1206000   0.49574699   -1.9579071   0.74287687   -1.2150302    0.1384321     11319.31     1000 
 1208000   0.50331273   -1.8837813   0.75421413   -1.1295672   0.14002087    11321.817     1000 
 1210000   0.47276349   -1.9931285   0.70843609   -1.2846924   0.12730228    11429.162     1000 
 1212000   0.47547822   -1.9149111   0.71250412    -1.202407   0.10815445    11448.667     1000 
 1214000   0.47776758   -1.9652766   0.71593472   -1.2493419   0.12633357    11334.366     1000 
 1216000   0.48597266   -1.9705477   0.72823003   -1.2423177   0.13414458    11432.774     1000 
 1218000   0.47140713   -1.9314757   0.70640358   -1.2250721   0.14192503    11264.329     1000 
 1220000   0.52530675   -1.9656884   0.78717217   -1.1785162   0.13306157    11424.145     1000 
 1222000   0.48836574   -1.9345734   0.73181606   -1.2027574   0.13055887    11461.515     1000 
 1224000   0.47152366   -1.9187815    0.7065782   -1.2122033   0.13073536    11327.813     1000 
 1226000   0.49887181   -1.9377211   0.74755941   -1.1901617    0.1362161    11292.569     1000 
 1228000   0.48182454    -1.962635   0.72201407    -1.240621   0.12607977    11386.719     1000 
 1230000   0.48563402   -1.9389959   0.72772259   -1.2112733   0.13712856    11333.755     1000 
 1232000   0.49178626   -1.9735884   0.73694171   -1.2366467   0.13008595    11401.265     1000 
 1234000   0.49450262   -1.9121098   0.74101217   -1.1710976   0.13374267    11308.693     1000 
 1236000   0.46647737   -1.9054381   0.69901634   -1.2064217   0.13304195    11338.309     1000 
 1238000   0.49018355    -1.930423   0.73454005   -1.1958829   0.12260972    11457.772     1000 
 1240000     0.472088   -1.9712396   0.70742388   -1.2638157   0.12243721    11436.115     1000 
 1242000   0.48346929   -1.9460471   0.72447873   -1.2215684   0.13060088    11382.267     1000 
 1244000   0.48540762   -1.9743777   0.72738332   -1.2469944   0.13772406    11276.402     1000 
 1246000   0.47028708   -1.9152872   0.70472519    -1.210562   0.12669931    11293.475     1000 
 1248000   0.47546711    -1.897179   0.71248746   -1.1846915   0.12523661    11293.472     1000 
 1250000   0.50153312   -1.9242734   0.75154738    -1.172726   0.14038131    11373.902     1000 
 1252000   0.46197595   -2.0180822   0.69227095   -1.3258112   0.13028542    11385.938     1000 
 1254000   0.46570243   -1.9858837   0.69785509   -1.2880286   0.12648651    11508.166     1000 
 1256000   0.50635883    -1.940954   0.75877871   -1.1821753   0.13903284     11386.75     1000 
 1258000   0.49171821   -1.9138461   0.73683974   -1.1770063   0.13163953     11397.51     1000 
 1260000   0.51340067   -1.9519537    0.7693309   -1.1826228   0.13435154    11473.274     1000 
 1262000   0.49950459   -1.9546934   0.74850762   -1.2061858   0.12427449    11433.728     1000 
 1264000    0.4856583   -1.9294823   0.72775896   -1.2017233   0.12477911    11415.971     1000 
 1266000    0.4922763   -1.9375679   0.73767603   -1.1998918   0.12499581    11534.283     1000 
 1268000   0.49216995   -1.9633575   0.73751668   -1.2258408   0.14729311    11200.041     1000 
 1270000    0.4864145   -1.9571412   0.72889213    -1.228249     0.126829    11236.458     1000 
 1272000   0.49237385   -1.8906908   0.73782222   -1.1528686   0.12979762     11262.26     1000 
 1274000   0.47596985   -1.9039826   0.71324081   -1.1907418   0.11637999    11459.585     1000 
 1276000   0.49321189   -1.9552436   0.73907802   -1.2161656   0.13811292    11312.633     1000 
 1278000   0.49712721   -1.9309373   0.74494513   -1.1859922   0.13273082    11397.835     1000 
 1280000   0.49642508   -1.9801737   0.74389298   -1.2362807   0.13949409    11401.483     1000 
 1282000   0.47753188   -1.9461432   0.71558152   -1.2305617   0.12366392    11425.614     1000 
 1284000   0.46618301   -1.9368172   0.69857524   -1.2382419   0.13512051    11370.322     1000 
 1286000   0.51091965   -2.0146737    0.7656131   -1.2490606   0.13049091    11450.078     1000 
 1288000   0.48257292     -1.94913   0.72313552   -1.2259944    0.1213402    11465.914     1000 
 1290000   0.47698919   -1.9241901    0.7147683   -1.2094218   0.13383657    11195.663     1000 
 1292000   0.48625145   -1.9129938    0.7286478    -1.184346   0.12991345    11408.085     1000 
 1294000   0.48359358   -1.9429256   0.72466499   -1.2182606   0.12300734    11528.612     1000 
 1296000   0.50166641   -1.9305085   0.75174712   -1.1787614   0.13383214    11402.267     1000 
 1298000   0.50240738   -1.9387445   0.75285745   -1.1858871   0.12588498    11426.593     1000 
 1300000    0.5043101   -1.8888541   0.75570868   -1.1331454   0.12539372    11374.794     1000 
 1302000   0.48081231   -1.9715499   0.72049725   -1.2510526   0.12631373    11442.833     1000 
 1304000   0.49173979   -1.8984273   0.73687208   -1.1615553   0.12866007    11297.825     1000 
 1306000   0.48442025   -1.9516096   0.72590375   -1.2257059    0.1275865    11333.887     1000 
 1308000   0.47974487   -1.8888322   0.71889768   -1.1699345   0.12932987      11303.1     1000 
 1310000   0.49755275   -1.9174692   0.74558279   -1.1718864   0.13481605    11408.526     1000 
 1312000    0.4821705    -1.970972    0.7225325   -1.2484395   0.12547384    11412.922     1000 
 1314000   0.50007355   -1.9709923   0.74936021   -1.2216321   0.12501747    11408.024     1000 
 1316000   0.48158969    -1.925611   0.72166215   -1.2039488   0.13201019    11278.727     1000 
 1318000   0.48362201   -1.9708776   0.72470758     -1.24617   0.13346812    11431.128     1000 
 1320000   0.50495344   -1.9828081   0.75667274   -1.2261354    0.1447717    11324.376     1000 
 1322000   0.47217847   -1.9420318   0.70755944   -1.2344723   0.13575288    11496.672     1000 
 1324000   0.46448292   -1.9635672   0.69602765   -1.2675395    0.1275303    11419.193     1000 
 1326000   0.49985823   -1.9568554   0.74903756   -1.2078179   0.12936932    11387.382     1000 
 1328000   0.50139704   -2.0026896   0.75134347   -1.2513461   0.13443657    11324.556     1000 
 1330000   0.47460675    -1.962273   0.71119821   -1.2510748   0.13372328    11425.303     1000 
 1332000   0.51161782    -1.995095    0.7666593   -1.2284357   0.13594231    11405.719     1000 
 1334000   0.49192412   -1.9102126    0.7371483   -1.1730643   0.14109104    11227.104     1000 
 1336000   0.48783146   -1.9458885   0.73101545   -1.2148731   0.11890516    11395.623     1000 
 1338000   0.49562001   -1.9362229   0.74268659   -1.1935364   0.12660816    11462.273     1000 
 1340000   0.48131133    -1.963328   0.72124503    -1.242083    0.1336339     11340.12     1000 
 1342000   0.50535096   -1.9353065   0.75726841   -1.1780381   0.12642057     11434.61     1000 
 1344000   0.49850756   -1.8990687   0.74701358   -1.1520551   0.12274841    11290.481     1000 
 1346000    0.4739475   -1.9701344   0.71021032   -1.2599241   0.12994207    11403.139     1000 
 1348000   0.47564787   -1.9963315   0.71275834   -1.2835731   0.12847616    11447.689     1000 
 1350000   0.49855407   -1.8872057   0.74708327   -1.1401224   0.12604588     11388.59     1000 
 1352000   0.48536662   -1.9152053   0.72732188   -1.1878834   0.13456085    11354.934     1000 
 1354000   0.48918697   -1.9326313   0.73304668   -1.1995847   0.13263693    11360.676     1000 
 1356000   0.49655818   -1.9529055   0.74409243   -1.2088131   0.13002444    11376.165     1000 
 1358000   0.48653406   -1.9705371   0.72907129   -1.2414658   0.11378313    11566.248     1000 
 1360000   0.48986174    -1.974619   0.73405782   -1.2405612   0.12061846    11398.432     1000 
 1362000   0.49138455   -1.9222252   0.73633975   -1.1858854    0.1375915    11385.277     1000 
 1364000   0.49835295   -2.0057722   0.74678189   -1.2589903   0.12809653    11541.746     1000 
 1366000    0.5062336   -1.9013548   0.75859105   -1.1427638   0.13956837    11331.326     1000 
 1368000   0.49241893    -1.947538   0.73788977   -1.2096483   0.12734523    11386.401     1000 
 1370000   0.49392701   -1.9417684   0.74014963   -1.2016188   0.13044977    11547.466     1000 
 1372000   0.47607837   -1.9091903   0.71340343   -1.1957869   0.12241289    11416.219     1000 
 1374000   0.46526842   -1.8927597   0.69720472    -1.195555   0.12961013    11477.565     1000 
 1376000   0.48356328   -1.9431065   0.72461957   -1.2184869   0.12241975    11421.047     1000 
 1378000   0.47946473    -1.971721   0.71847789   -1.2532431   0.12999578     11455.95     1000 
 1380000   0.48795036   -1.9854278   0.73119362   -1.2542342   0.13315299     11412.43     1000 
 1382000   0.49464811   -1.9466904   0.74123019   -1.2054602   0.13148276    11254.436     1000 
 1384000   0.48422228   -1.9168233   0.72560709   -1.1912162   0.13156613     11318.27     1000 
 1386000   0.48314191    -1.936248   0.72398815   -1.2122598   0.13449641    11302.632     1000 
 1388000   0.47634473   -2.0015506   0.71380257    -1.287748   0.13398756    11327.633     1000 
 1390000   0.48188317   -1.9570384   0.72210193   -1.2349365   0.13006887    11393.075     1000 
 1392000   0.49084806    -1.955176   0.73553582   -1.2196402   0.13303306    11380.209     1000 
 1394000   0.49926241   -1.9707857   0.74814472    -1.222641   0.12935843    11423.629     1000 
 1396000   0.49153583   -1.9693355   0.73656645   -1.2327691   0.12322993    11481.544     1000 
 1398000   0.48951821   -1.9736961   0.73354304    -1.240153   0.13172133    11327.057     1000 
 1400000    0.4641124   -1.9538721   0.69547243   -1.2583997   0.12242866    11254.986     1000 
 1402000   0.48452825   -2.0035373   0.72606559   -1.2774717   0.13814679    11453.756     1000 
 1404000    0.4948996      -1.9644   0.74160705   -1.2227929   0.12910702    11362.819     1000 
 1406000   0.51503207   -1.9697828   0.77177556   -1.1980072   0.12212606     11446.07     1000 
 1408000   0.49575364   -1.9596024   0.74288683   -1.2167156     0.137139    11333.096     1000 
 1410000   0.51098536   -2.0015509   0.76571156   -1.2358393   0.12428778     11471.48     1000 
 1412000   0.48863343   -1.8977472    0.7322172     -1.16553   0.12541608    11340.746     1000 
 1414000   0.49624394   -1.9787856   0.74362155   -1.2351641   0.13009533    11390.891     1000 
 1416000   0.47374871   -1.9517933   0.70991244   -1.2418808   0.13522456    11289.798     1000 
 1418000   0.48489225   -1.9157386   0.72661103   -1.1891276   0.11592686    11462.954     1000 
 1420000   0.49678406   -1.9781245   0.74443091   -1.2336936   0.13156924    11424.844     1000 
 1422000   0.50628334   -1.9826579   0.75866558   -1.2239924   0.13617516    11408.651     1000 
 1424000   0.47715724   -1.9143759   0.71502012   -1.1993558    0.1386903    11250.894     1000 
 1426000   0.50061652   -1.9709777   0.75017386   -1.2208038    0.1333119    11346.103     1000 
 1428000   0.50019394   -1.9930734   0.74954062   -1.2435328    0.1152318    11571.336     1000 
 1430000   0.48793993   -1.9686549   0.73117798   -1.2374769    0.1290493    11387.317     1000 
 1432000   0.48261975   -1.9584934    0.7232057   -1.2352877   0.12681096    11305.355     1000 
 1434000   0.49783671   -1.9475887   0.74600831   -1.2015804   0.12012778    11516.975     1000 
 1436000   0.49517883   -1.9597183   0.74202548   -1.2176928   0.12291535    11436.206     1000 
 1438000   0.50365276   -1.9569236   0.75472366      -1.2022   0.13538171     11457.06     1000 
 1440000   0.49728225   -1.9288493   0.74517745   -1.1836719     0.129519    11406.395     1000 
 1442000   0.48090132   -1.9520108   0.72063063   -1.2313802   0.12503592    11386.903     1000 
 1444000   0.47938032   -1.9674637    0.7183514   -1.2491123   0.11780741    11473.718     1000 
 1446000   0.49050727   -1.9041503   0.73502514   -1.1691252    0.1320375    11370.048     1000 
 1448000   0.47337879   -1.9568639   0.70935811   -1.2475058   0.13622146    11305.773     1000 
 1450000   0.49694922   -1.9972718   0.74467841   -1.2525934   0.12768193     11485.53     1000 
 1452000   0.47317439   -1.9859487   0.70905183   -1.2768969   0.11845616    11570.066     1000 
 1454000   0.48626726   -1.9464422   0.72867149   -1.2177707   0.12766829    11255.138     1000 
 1456000   0.49426509   -2.0047506   0.74065624   -1.2640943    0.1128769      11429.7     1000 
 1458000   0.49142023     -1.92692   0.73639321   -1.1905268   0.13052339    11322.789     1000 
 1460000    0.4901529   -1.9397946   0.73449413   -1.2053004   0.12531452    11352.398     1000 
 1462000   0.48236591   -1.9300972   0.72282531   -1.2072719   0.11621098     11583.69     1000 
 1464000   0.51340039   -1.9136414   0.76933048   -1.1443109   0.13082402    11304.638     1000 
 1466000   0.46261999   -1.9432258   0.69323606   -1.2499897    0.1325303    11354.397     1000 
 1468000   0.49977995   -1.9559758   0.74892026   -1.2070555    0.1332014    11326.104     1000 
 1470000   0.49671565   -1.9680715    0.7443284   -1.2237431   0.12975825    11383.901     1000 
 1472000   0.47448661   -1.9686017   0.71101819   -1.2575835   0.12425692    11460.312     1000 
 1474000   0.48753439   -1.9336874   0.73057029   -1.2031171   0.13311325    11331.588     1000 
 1476000   0.47988636    -1.986103   0.71910971   -1.2669933    0.1274311    11437.582     1000 
 1478000   0.49511564   -1.9169489   0.74193079   -1.1750181   0.13879997    11288.506     1000 
 1480000   0.46668757   -1.9321751   0.69933132   -1.2328437   0.12158601    11516.269     1000 
 1482000   0.50635601   -1.9543337   0.75877448   -1.1955592   0.12194742    11561.671     1000 
 1484000   0.46693468   -1.9524177   0.69970163   -1.2527161   0.12857644    11321.144     1000 
 1486000   0.47874663   -1.9851317   0.71740183   -1.2677299   0.12618086    11524.568     1000 
 1488000   0.48783959   -1.9164377   0.73102763   -1.1854101   0.12818694    11445.119     1000 
 1490000   0.50311725    -1.961044    0.7539212   -1.2071228   0.13484451    11380.194     1000 
 1492000   0.47014199    -1.890032   0.70450776   -1.1855242   0.12364994    11371.238     1000 
 1494000   0.46894561    -1.910413     0.702715    -1.207698   0.12994422    11384.398     1000 
 1496000   0.47821016   -1.9236562   0.71659793   -1.2070582   0.12200405    11395.701     1000 
 1498000   0.46883602   -1.9940997   0.70255078    -1.291549   0.10742752    11646.536     1000 
 1500000   0.49030528   -1.9904411   0.73472246   -1.2557187   0.11704131     11611.32     1000 
 1502000   0.49920151   -1.9633543   0.74805346   -1.2153009   0.13265435    11442.902     1000 
 1504000   0.49203386   -1.9591696   0.73731274   -1.2218569   0.13214315    11361.076     1000 
 1506000   0.50356909   -1.9405253   0.75459828    -1.185927   0.13630833    11357.547     1000 
 1508000   0.48738272   -1.9299424   0.73034301   -1.1995993    0.1342984    11338.131     1000 
 1510000   0.48381793   -1.9622802   0.72500116    -1.237279   0.12896544    11382.718     1000 
 1512000    0.4967671    -1.911247    0.7444055   -1.1668415   0.13199731    11392.999     1000 
 1514000    0.4860187   -1.9609894   0.72829902   -1.2326904   0.13990665    11298.176     1000 
 1516000   0.49450082   -1.9395553   0.74100949   -1.1985458   0.13896889    11298.223     1000 
 1518000   0.48085208   -1.9415097   0.72055684   -1.2209529     0.137055    11255.373     1000 
 1520000   0.48514191   -1.9340384   0.72698516   -1.2070533   0.10730864    11521.613     1000 
 1522000    0.4931834   -1.9220038   0.73903532   -1.1829685   0.13947735    11238.307     1000 
 1524000   0.47990171   -1.9205031   0.71913272   -1.2013703   0.12545419    11474.374     1000 
 1526000   0.50607481   -1.9009327    0.7583531   -1.1425796   0.14288391     11295.92     1000 
 1528000   0.48973973   -1.9570512   0.73387498   -1.2231762   0.12174582    11460.477     1000 
 1530000   0.50249223   -1.9472494   0.75298461   -1.1942648   0.14043615    11372.193     1000 
 1532000   0.48023502   -1.9351963   0.71963218   -1.2155642   0.13324334    11336.062     1000 
 1534000   0.49342846   -1.9404411   0.73940255   -1.2010386   0.13497834    11253.698     1000 
 1536000   0.47624581   -1.9052075   0.71365435   -1.1915532   0.12443317    11312.132     1000 
 1538000   0.49191961   -1.9725062   0.73714153   -1.2353646   0.13481821    11292.524     1000 
 1540000   0.46963383   -1.8908158    0.7037463   -1.1870695   0.12438881    11360.491     1000 
 1542000   0.50832462   -1.9282047   0.76172444   -1.1664803   0.13354445    11360.101     1000 
 1544000    0.4956306   -2.0073592   0.74270246   -1.2646567   0.12925289    11509.459     1000 
 1546000   0.49255914    -1.976291   0.73809986   -1.2381912   0.12669502    11413.391     1000 
 1548000    0.4855198   -1.9539928   0.72755142   -1.2264414   0.12353161    11408.644     1000 
 1550000   0.48796068   -1.9535331   0.73120908    -1.222324    0.1252044    11543.759     1000 
 1552000   0.44813476   -1.9712858   0.67152993   -1.2997559   0.11983282    11537.284     1000 
 1554000   0.49229291   -1.9164492   0.73770093   -1.1787482   0.13976247    11318.079     1000 
 1556000    0.4867915   -1.9307473   0.72945706   -1.2012903   0.13849907    11290.812     1000 
 1558000   0.49904772   -1.9305162   0.74782301   -1.1826932    0.1386235    11318.476     1000 
 1560000   0.45799554    -1.933681   0.68630632   -1.2473747   0.11767917    11563.258     1000 
 1562000   0.49217861   -1.9218903   0.73752965   -1.1843607    0.1323037    11306.539     1000 
 1564000   0.48481717   -1.9491128   0.72649852   -1.2226143   0.12413233    11437.481     1000 
 1566000   0.50295818    -1.970569   0.75368283   -1.2168861   0.13492842    11334.948     1000 
 1568000   0.47395492   -1.9567697   0.71022145   -1.2465483   0.13718899    11344.828     1000 
 1570000   0.48195317   -1.9705146   0.72220683   -1.2483078   0.14014011    11311.748     1000 
 1572000   0.49020038    -1.955984   0.73456527   -1.2214187   0.13307526    11471.936     1000 
 1574000   0.47567504   -1.9269941   0.71279904    -1.214195   0.11716499    11388.132     1000 
 1576000   0.49852721   -1.9401507   0.74704302   -1.1931077    0.1350077    11313.909     1000 
 1578000   0.47848085   -1.9533365   0.71700355   -1.2363329   0.13441695    11338.309     1000 
 1580000    0.4896189   -1.9600787   0.73369392   -1.2263848   0.12412629    11390.229     1000 
 1582000    0.4847613   -1.9703093   0.72641481   -1.2438945   0.13450851    11397.621     1000 
 1584000   0.51006969   -1.9447294   0.76433944     -1.18039   0.13065669    11336.516     1000 
 1586000   0.49002769   -1.9630978   0.73430649   -1.2287913   0.13594981    11368.588     1000 
 1588000   0.50606731   -1.9878229   0.75834186   -1.2294811   0.12587149    11518.906     1000 
 1590000   0.50569355   -1.9599774   0.75778179   -1.2021956   0.13236392    11551.477     1000 
 1592000   0.47893372   -1.9678308   0.71768218   -1.2501486   0.12272014    11464.076     1000 
 1594000   0.48209942    -1.959193   0.72242599   -1.2367671    0.1176023    11544.566     1000 
 1596000   0.48011254   -1.9540358   0.71944864   -1.2345872   0.13452214    11266.809     1000 
[...]
 2612000   0.48651619   -1.9577408   0.72904452   -1.2286963    0.1293697    11427.143     1000 
 2614000   0.46944908    -1.927859   0.70346945   -1.2243896   0.12324474    11441.117     1000 
 2616000   0.49031528   -1.9412624   0.73473745    -1.206525   0.12075072    11375.502     1000 
 2618000   0.50783096   -1.9409676    0.7609847   -1.1799829   0.13738873     11279.47     1000 
 2620000   0.49032319   -1.9029811    0.7347493   -1.1682318   0.13922419    11225.769     1000 
 2622000   0.49066364   -1.9005257   0.73525947   -1.1652662   0.13179115    11354.884     1000 
 2624000   0.48041066   -1.9500705   0.71989537   -1.2301752   0.11505431    11356.135     1000 
 2626000   0.47746425   -1.9282465   0.71548017   -1.2127663   0.12076206    11446.523     1000 
 2628000   0.49482613   -1.9863429   0.74149696    -1.244846   0.12448354     11395.91     1000 
 2630000   0.47735835   -1.9799849   0.71532148   -1.2646634   0.13485062    11326.185     1000 
 2632000   0.48365525   -1.9447701   0.72475738   -1.2200127   0.12558664    11397.027     1000 
 2634000   0.48950173   -1.9321989   0.73351834   -1.1986806   0.13904531    11224.078     1000 
 2636000   0.50326032   -1.9835565   0.75413559   -1.2294209    0.1224721    11502.859     1000 
 2638000   0.49215417   -1.9600999   0.73749302   -1.2226068   0.12767379     11342.85     1000 
 2640000   0.47980954   -1.9916562   0.71899459   -1.2726616   0.11913111    11520.863     1000 
 2642000   0.48349692   -1.9199881   0.72452014   -1.1954679   0.11947717     11414.49     1000 
 2644000   0.49404024   -1.9272182   0.74031931   -1.1868989   0.12066347    11365.396     1000 
 2646000   0.49415986   -1.9474246   0.74049854    -1.206926   0.12982006    11413.909     1000 
 2648000   0.50665533   -1.9734401   0.75922301   -1.2142171   0.11174387    11524.191     1000 
 2650000   0.49046716   -1.9284198   0.73496504   -1.1934547   0.14228143    11276.318     1000 
 2652000    0.4748915   -1.9403601   0.71162492   -1.2287352   0.13274924    11394.911     1000 
 2654000    0.4992439   -1.9458593   0.74811699   -1.1977424   0.12719127    11425.498     1000 
 2656000   0.49206288    -1.988273   0.73735622   -1.2509168   0.12263317    11477.946     1000 
 2658000   0.50070776   -1.9561031   0.75031059   -1.2057926    0.1308359    11450.539     1000 
 2660000   0.48378116   -1.9461917   0.72494607   -1.2212456   0.12411654    11344.249     1000 
 2662000   0.49679825   -1.9493227   0.74445218   -1.2048706   0.12440761    11563.459     1000 
 2664000   0.49460005   -1.9308989   0.74115817   -1.1897407    0.1455385    11265.543     1000 
 2666000    0.4800648   -1.9391988    0.7193771   -1.2198217   0.13233719    11264.804     1000 
 2668000   0.51317947   -1.9041326   0.76899944   -1.1351332   0.13184713    11343.365     1000 
 2670000   0.48785005   -1.9693886    0.7310433   -1.2383453   0.12933095    11399.202     1000 
 2672000   0.49808398    -1.978238   0.74637884   -1.2318592   0.13379864    11443.167     1000 
 2674000   0.48302863   -1.9551936   0.72381839   -1.2313752   0.13089022    11311.946     1000 
 2676000   0.48580331   -1.9194284   0.72797625   -1.1914521   0.12960022    11301.405     1000 
 2678000   0.48089704   -1.9570225   0.72062422   -1.2363983   0.12192801    11455.563     1000 
 2680000   0.48844142   -1.9616861   0.73192946   -1.2297566   0.11384838    11584.177     1000 
 2682000   0.51625156   -2.0035946   0.77360296   -1.2299916   0.12416014    11423.898     1000 
 2684000    0.4800247   -1.9329372   0.71931702   -1.2136202   0.12628723    11443.572     1000 
 2686000   0.48648126   -1.9509509   0.72899217   -1.2219587   0.13450268    11358.115     1000 
 2688000    0.4861566   -1.9170546   0.72850567   -1.1885489   0.13193887     11347.11     1000 
 2690000   0.51978699    -1.960186   0.77890081   -1.1812852   0.14231804    11347.705     1000 
 2692000   0.47835298   -1.9762466   0.71681194   -1.2594346    0.1293039    11454.091     1000 
 2694000   0.47326285   -1.9738491   0.70918437   -1.2646647   0.11455112    11576.697     1000 
 2696000   0.51401849   -1.9781139   0.77025671   -1.2078572   0.13398387    11443.827     1000 
 2698000   0.48449032    -1.976507   0.72600874   -1.2504983   0.12312473    11448.786     1000 
 2700000   0.50523205   -1.9495422   0.75709022   -1.1924519   0.12815181    11314.415     1000 
 2702000   0.49885528   -1.9202896   0.74753464    -1.172755   0.12211367    11498.449     1000 
 2704000   0.47250007   -1.9417372   0.70804136   -1.2336958   0.11956945    11517.593     1000 
 2706000    0.5080466   -1.9782795   0.76130783   -1.2169716   0.13407684    11369.822     1000 
 2708000   0.47113064   -1.9530525   0.70598927   -1.2470632    0.1311403     11352.26     1000 
 2710000   0.50584369   -1.9354224   0.75800677   -1.1774156   0.14645055    11231.811     1000 
 2712000   0.50502862   -1.9192863   0.75678539   -1.1625009   0.13738371    11303.158     1000 
 2714000   0.50517335   -1.9708377   0.75700227   -1.2138354   0.12277951     11446.89     1000 
 2716000   0.46974511   -1.9614086   0.70391304   -1.2574956   0.12285729    11392.799     1000 
 2718000   0.49230851   -1.9603791    0.7377243   -1.2226548   0.14356004    11198.958     1000 
 2720000   0.49386478   -1.9071023   0.74005638   -1.1670459   0.12789353    11374.189     1000 
 2722000   0.49153115   -1.9546127   0.73655943   -1.2180532   0.14067138    11185.577     1000 
 2724000   0.48707135   -1.9380258   0.72987642   -1.2081494   0.12211719    11388.516     1000 
 2726000   0.47712888   -1.9328519   0.71497762   -1.2178743    0.1251836    11372.285     1000 
 2728000   0.47221686   -1.9568619   0.70761696    -1.249245   0.13238526     11329.56     1000 
 2730000   0.47568801   -1.9983809   0.71281849   -1.2855624   0.13007496    11358.063     1000 
 2732000   0.47357353   -1.9855737   0.70964994   -1.2759237   0.11606031    11547.846     1000 
 2734000   0.47464552   -1.9442313   0.71125632    -1.232975   0.14608708     11202.54     1000 
 2736000   0.50224244   -1.9218791   0.75261029   -1.1692688   0.14997861    11214.277     1000 
 2738000   0.48714049   -1.9572358   0.72998003   -1.2272558   0.13976076    11336.727     1000 
 2740000   0.49128383   -1.8826415   0.73618882   -1.1464527   0.14069161    11243.697     1000 
 2742000   0.47900114    -1.957861   0.71778322   -1.2400778   0.13182347    11345.116     1000 
 2744000   0.48722685    -1.943229   0.73010944   -1.2131195   0.12256356    11512.795     1000 
 2746000   0.46945581   -1.9565379   0.70347953   -1.2530584   0.13255553    11322.247     1000 
 2748000   0.49385416   -1.9470972   0.74004046   -1.2070568    0.1251995    11386.391     1000 
 2750000   0.49729054   -1.9656532   0.74518987   -1.2204633   0.13080273    11419.813     1000 
 2752000   0.46513981    -1.972092   0.69701201     -1.27508   0.13262664    11417.722     1000 
 2754000   0.50339638   -1.9366935   0.75433947   -1.1823541   0.12457133    11428.939     1000 
 2756000   0.49828178   -1.9021835   0.74667525   -1.1555083   0.12827822    11374.063     1000 
 2758000    0.4726667   -1.9112124   0.70829106   -1.2029214   0.13022255    11322.873     1000 
 2760000   0.49332359    -1.978372   0.73924539   -1.2391266    0.1245561    11546.354     1000 
 2762000   0.50292733   -1.9276083   0.75363661   -1.1739717   0.13991553    11284.817     1000 
 2764000   0.47397728   -1.9283702   0.71025495   -1.2181152   0.13010056    11384.822     1000 
 2766000   0.47896454   -1.9436942   0.71772836   -1.2259658    0.1413371    11337.826     1000 
 2768000   0.49557943   -1.9347724   0.74262577   -1.1921466   0.12755053    11435.045     1000 
 2770000   0.48812267    -1.970555   0.73145181   -1.2391032   0.13211828    11428.805     1000 
 2772000   0.48327195   -1.9006466   0.72418302   -1.1764636   0.13735528    11307.729     1000 
 2774000   0.48012656   -1.9596316   0.71946964    -1.240162   0.13456029    11446.561     1000 
 2776000    0.5098713   -1.9665212   0.76404214   -1.2024791   0.12540936     11434.23     1000 
 2778000   0.48985558   -1.9457898   0.73404859   -1.2117412   0.13827402    11216.955     1000 
 2780000   0.47689345   -1.9093432   0.71462483   -1.1947184   0.12121672    11550.911     1000 
 2782000   0.51583005   -1.9799504   0.77297133   -1.2069791   0.14248508    11309.971     1000 
 2784000   0.48444385   -1.9264414   0.72593911   -1.2005023   0.12541243    11333.085     1000 
 2786000   0.49971406   -1.8835505   0.74882151    -1.134729   0.12853567    11351.306     1000 
 2788000   0.48717432   -1.9490564   0.73003073   -1.2190257   0.13050655     11275.73     1000 
 2790000   0.48175608   -2.0043872   0.72191149   -1.2824757   0.13128063    11436.765     1000 
 2792000   0.48807856   -1.9956524   0.73138572   -1.2642667   0.12597544    11418.939     1000 
 2794000   0.48656913   -1.9582833   0.72912383   -1.2291594     0.132614     11459.26     1000 
 2796000   0.50847005   -2.0151145   0.76194237   -1.2531721   0.12868973    11457.373     1000 
 2798000   0.48159172   -1.9466565    0.7216652   -1.2249913    0.1340363    11434.401     1000 
 2800000   0.47814367   -1.9260628   0.71649829   -1.2095645    0.1395507    11314.072     1000 
 2802000   0.47840262   -1.9050621   0.71688633   -1.1881757   0.13408033    11227.011     1000 
 2804000   0.50459544   -1.9479083   0.75613627   -1.1917721   0.13522116     11351.81     1000 
 2806000   0.50503854    -1.880525   0.75680025   -1.1237247   0.14324564     11259.04     1000 
 2808000   0.46684825   -1.9296825    0.6995721   -1.2301105   0.13670502    11287.968     1000 
 2810000   0.48155152   -1.9984057   0.72160495   -1.2768008   0.13355301    11353.976     1000 
 2812000   0.50715171   -1.9039712   0.75996684   -1.1440044   0.12723784    11352.032     1000 
 2814000   0.47867327   -1.9124876   0.71729189   -1.1951957   0.13171251     11463.61     1000 
 2816000   0.47565616   -1.9533306   0.71277075   -1.2405598   0.11722949    11491.453     1000 
 2818000   0.48411597   -1.9807997   0.72544779   -1.2553519   0.13234506     11379.41     1000 
 2820000   0.48385024   -1.9623053   0.72504958   -1.2372557   0.12756406    11380.499     1000 
 2822000   0.49011183    -1.980843   0.73443258   -1.2464104   0.13571624    11355.287     1000 
 2824000    0.4874036   -1.9131894   0.73037429   -1.1828151   0.12085637    11345.147     1000 
 2826000   0.48671194   -1.9410887   0.72933785   -1.2117508   0.12398773    11578.619     1000 
 2828000   0.47648048   -1.9364162   0.71400599   -1.2224102   0.12578436     11505.14     1000 
 2830000   0.50633648   -1.9808023   0.75874521   -1.2220571   0.15023822    11381.962     1000 
 2832000   0.48449673   -1.9720948   0.72601836   -1.2460765   0.11505698    11529.899     1000 
 2834000    0.4908252   -1.9178378   0.73550156   -1.1823362   0.14001689    11332.989     1000 
 2836000   0.46962039   -1.9220654   0.70372616   -1.2183393   0.13180018    11221.511     1000 
 2838000   0.50780174   -1.9222987   0.76094091   -1.1613578   0.13360059    11351.376     1000 
 2840000   0.48291684   -1.9781072   0.72365089   -1.2544563   0.13969037    11185.545     1000 
 2842000   0.47688438   -1.9295507   0.71461125   -1.2149394   0.12744662    11383.874     1000 
 2844000   0.48623548   -1.9673423   0.72862386   -1.2387184   0.12743464    11408.409     1000 
 2846000    0.5056209   -1.9049094   0.75767292   -1.1472364   0.13864166    11256.004     1000 
 2848000   0.48482078    -1.934121   0.72650394    -1.207617   0.12825056    11441.147     1000 
 2850000   0.49412706   -1.9341048   0.74044939   -1.1936554   0.13584674    11261.291     1000 
 2852000   0.48885558   -1.9501055   0.73255009   -1.2175554   0.12458004     11434.85     1000 
 2854000   0.49849405   -1.9710357   0.74699334   -1.2240424   0.13701869    11359.313     1000 
 2856000   0.49842463   -1.9130461   0.74688932   -1.1661568   0.13024854    11347.292     1000 
 2858000   0.48009259   -1.9431069   0.71941875   -1.2236881   0.14039022    11325.797     1000 
 2860000   0.51257671   -1.9539447   0.76809621   -1.1858485   0.13229359    11367.911     1000 
 2862000   0.50063284   -1.9500366   0.75019831   -1.1998383   0.13434494    11249.006     1000 
 2864000   0.50671484   -1.9726137   0.75931219   -1.2133015   0.13943135    11345.494     1000 
 2866000   0.51042178   -1.8979023   0.76486703   -1.1330353   0.13741964    11315.038     1000 
 2868000   0.48204166   -1.9215481   0.72233942   -1.1992086   0.12789246     11432.68     1000 
 2870000   0.48594954   -1.9164919   0.72819539   -1.1882965   0.12012696     11479.51     1000 
 2872000   0.46582167   -1.9461843   0.69803378   -1.2481505    0.1392548    11356.121     1000 
 2874000    0.4783894   -1.8829182   0.71686651   -1.1660516   0.11544579     11527.87     1000 
 2876000   0.49555067   -1.9372321   0.74258268   -1.1946495   0.13317718    11348.831     1000 
 2878000   0.45382844   -1.9655817   0.68006192   -1.2855197   0.12871712    11304.175     1000 
 2880000   0.50627349   -1.9458117   0.75865082   -1.1871609   0.12556972     11393.88     1000 
 2882000   0.48833408   -1.9380784   0.73176862   -1.2063098   0.13544239    11269.281     1000 
 2884000   0.47091084   -1.9549095    0.7056599   -1.2492496   0.12604901    11411.828     1000 
 2886000   0.50592839   -1.9985648   0.75813369   -1.2404311   0.13360291    11466.937     1000 
 2888000   0.48696362   -1.9882923   0.72971498   -1.2585773   0.12299823    11502.769     1000 
 2890000   0.49612153   -1.9411802   0.74343812   -1.1977421   0.11599065    11584.703     1000 
 2892000   0.48572427    -1.963087   0.72785781   -1.2352292   0.13297594    11276.416     1000 
 2894000   0.50862888   -1.9693956   0.76218038   -1.2072153   0.12855837    11398.371     1000 
 2896000   0.48656686     -1.97814   0.72912044   -1.2490196   0.11355063    11617.231     1000 
 2898000   0.48350514   -1.9453593   0.72453245   -1.2208269   0.12603785    11232.418     1000 
 2900000    0.5055608   -1.9149522   0.75758286   -1.1573693   0.13105561    11406.328     1000 
 2902000   0.51797187    -1.932445   0.77618085   -1.1562641    0.1293572    11444.357     1000 
 2904000   0.51626844   -1.9278022   0.77362826   -1.1541739   0.13567337    11350.748     1000 
 2906000   0.49780024    -1.939888   0.74595366   -1.1939344   0.12889953    11436.288     1000 
 2908000   0.48283763   -1.8814073   0.72353219   -1.1578751   0.13082162    11343.929     1000 
 2910000   0.48564684   -1.9507162   0.72774178   -1.2229744   0.12076217    11525.157     1000 
 2912000    0.4854966   -1.9210291   0.72751665   -1.1935125   0.13533697    11432.142     1000 
 2914000   0.46286425   -1.9617862   0.69360208   -1.2681841   0.11898413     11370.19     1000 
 2916000   0.50261473   -1.9255258   0.75316817   -1.1723577   0.13485231    11317.661     1000 
 2918000   0.51308581   -1.9991632   0.76885909   -1.2303041   0.14727698    11305.199     1000 
 2920000   0.48560769   -1.8960636   0.72768312   -1.1683805   0.12777991    11369.251     1000 
 2922000     0.502074   -1.9566835    0.7523579   -1.2043256   0.13560722    11432.778     1000 
 2924000   0.46576154    -1.901942   0.69794367   -1.2039984   0.13665751    11364.111     1000 
 2926000   0.48393695   -1.9241851   0.72517951   -1.1990056   0.12374429    11310.683     1000 
 2928000    0.4977934   -1.9298678   0.74594341   -1.1839244   0.12308041    11400.228     1000 
 2930000   0.50442883     -1.92661   0.75588661   -1.1707234   0.13049042    11328.368     1000 
 2932000   0.46666646   -1.9716335   0.69929969   -1.2723338   0.12641774     11331.48     1000 
 2934000   0.47724669   -1.9187492   0.71515416    -1.203595   0.13783736    11198.104     1000 
 2936000   0.50459835   -1.9821355   0.75614063   -1.2259949   0.13578194    11361.228     1000 
 2938000    0.5138544   -1.9182136   0.77001082   -1.1482028   0.12925769    11419.579     1000 
 2940000   0.51344381   -1.9960986   0.76939554   -1.2267031   0.12198676    11521.534     1000 
 2942000   0.50202637   -1.9542642   0.75228652   -1.2019777   0.13340826    11408.734     1000 
 2944000   0.49418011   -1.9565268    0.7405289   -1.2159979   0.13632562    11313.414     1000 
 2946000   0.48764063   -1.9259024   0.73072949   -1.1951729   0.14039878    11257.417     1000 
 2948000   0.48519374   -1.8968887   0.72706282   -1.1698259   0.12062539    11374.444     1000 
 2950000   0.47981245   -1.9951459   0.71899896   -1.2761469   0.12525689    11491.146     1000 
 2952000   0.49316572   -1.9295658   0.73900884    -1.190557   0.13615062    11398.669     1000 
 2954000   0.49292294   -1.9398433   0.73864502   -1.2011983   0.11423965    11440.509     1000 
 2956000   0.47383152   -1.9232049   0.71003653   -1.2131684   0.12198893    11351.071     1000 
 2958000   0.48314313    -1.939881   0.72398998    -1.215891   0.13183278    11472.694     1000 
 2960000   0.48147681   -1.9849942   0.72149301   -1.2635012   0.11558125     11521.02     1000 
 2962000   0.51231674    -1.904372   0.76770664   -1.1366654   0.13188849    11245.701     1000 
 2964000   0.48069493   -1.9084076   0.72032136   -1.1880863   0.12494381    11366.565     1000 
 2966000    0.4815718   -1.9179196   0.72163535   -1.1962842   0.13846381    11413.554     1000 
 2968000   0.48152908   -1.9437797   0.72157132   -1.2222084   0.13028528     11341.86     1000 
 2970000   0.51565712   -1.9601303    0.7727122   -1.1874181   0.13263149    11340.459     1000 
 2972000   0.47949037   -1.9769678   0.71851631   -1.2584515   0.12224047    11616.263     1000 
 2974000   0.50471496   -1.9606249   0.75631537   -1.2043096   0.13303211    11310.142     1000 
 2976000   0.49950453   -1.9402527   0.74850753   -1.1917452   0.13380379    11380.653     1000 
 2978000   0.49597592   -1.9693965   0.74321991   -1.2261766   0.14062102    11363.386     1000 
 2980000    0.4818136   -1.9495011   0.72199768   -1.2275035   0.11830546    11427.023     1000 
 2982000   0.50339078   -1.9559799   0.75433108   -1.2016488    0.1193021    11483.738     1000 
 2984000   0.47450697   -1.9839203    0.7110487   -1.2728716   0.13121272    11485.998     1000 
 2986000   0.47737192   -1.9537496   0.71534183   -1.2384078   0.12710595    11455.211     1000 
 2988000   0.48301066   -1.9732105   0.72379147    -1.249419   0.12763336    11365.742     1000 
 2990000   0.48020043   -1.9364501   0.71958034   -1.2168698   0.12946225    11477.418     1000 
 2992000   0.49789079   -1.9250607   0.74608935   -1.1789714    0.1527568    11150.598     1000 
 2994000    0.4732479   -1.9721989   0.70916198    -1.263037   0.12022625    11448.853     1000 
 2996000   0.48932996    -1.956846   0.73326094   -1.2235851   0.13571473    11358.548     1000 
 2998000   0.47878308   -1.9250744   0.71745644    -1.207618   0.12307487    11453.353     1000 
 3000000    0.4955109   -1.9126422   0.74252309   -1.1701191   0.12509629    11387.359     1000 
Loop time of 1115.34 on 4 procs for 3000000 steps with 1000 atoms

Performance: 1161979.003 tau/day, 2689.766 timesteps/s
95.3% CPU use with 4 MPI tasks x no OpenMP threads

MPI task timing breakdown:
Section |  min time  |  avg time  |  max time  |%varavg| %total
---------------------------------------------------------------
Pair    | 821.69     | 824.86     | 833.67     |  17.7 | 73.96
Neigh   | 77.121     | 77.372     | 77.507     |   1.7 |  6.94
Comm    | 151.12     | 160.15     | 163.81     |  41.5 | 14.36
Output  | 0.023948   | 0.026718   | 0.034726   |   2.8 |  0.00
Modify  | 45.47      | 46.081     | 46.577     |   6.9 |  4.13
Other   |            | 6.853      |            |       |  0.61

Nlocal:    250 ave 261 max 240 min
Histogram: 1 0 0 0 2 0 0 0 0 1
Nghost:    1713.75 ave 1736 max 1690 min
Histogram: 1 0 0 0 0 2 0 0 0 1
Neighs:    14426.8 ave 15503 max 13601 min
Histogram: 1 0 0 2 0 0 0 0 0 1

Total # of neighbors = 57707
Ave neighs/atom = 57.707
Neighbor list builds = 150000
Dangerous builds not checked

Total wall time: 0:18:35
