LAMMPS (3 Mar 2020)
# ----------------------- Inicialização -----------------------

units			lj
atom_style 		atomic
dimension 		3
boundary 		p p p

# -------------------- Criação dos Átomos ---------------------

read_data 		topologia.txt
  orthogonal box = (0 0 0) to (21.54 21.54 21.54)
  1 by 2 by 2 MPI processor grid
  reading atoms ...
  1000 atoms
  read_data CPU = 0.00206624 secs

velocity 		all create ${temp} 87287 rot yes dist gaussian
velocity 		all create 0.60 87287 rot yes dist gaussian

# ------------------ Interação Interatômica -------------------

pair_style		table linear 1300
pair_coeff		1 1 force.table AA 6.5
WARNING: 2 of 1300 force values in table are inconsistent with -dE/dr.
  Should only be flagged at inflection points (src/pair_table.cpp:483)
pair_coeff		1 2 force.table AB 6.5
WARNING: 1 of 1300 force values in table are inconsistent with -dE/dr.
  Should only be flagged at inflection points (src/pair_table.cpp:483)
pair_coeff		2 2 force.table BB 6.5
pair_write		1 1 1600 r 0.008 6.5 table.check AA
Neighbor list info ...
  update every 1 steps, delay 10 steps, check yes
  max neighbors/atom: 2000, page size: 100000
  master list distance cutoff = 6.8
  ghost atom cutoff = 6.8
  binsize = 3.4, bins = 7 7 7
  1 neighbor lists, perpetual/occasional/extra = 1 0 0
  (1) pair table, perpetual
      attributes: half, newton on
      pair build: half/bin/atomonly/newton
      stencil: half/bin/3d/newton
      bin: standard
pair_write		1 2 1600 r 0.008 6.5 table.check AB
pair_write		2 2 1600 r 0.008 6.5 table.check BB

neighbor 		0.3 bin
neigh_modify	every 20 delay 0 check no

# ------------------------- Ensemble --------------------------------------

fix 1			all npt temp ${temp} ${temp} 0.5 iso ${press} ${press} 5
fix 1			all npt temp 0.60 ${temp} 0.5 iso ${press} ${press} 5
fix 1			all npt temp 0.60 0.60 0.5 iso ${press} ${press} 5
fix 1			all npt temp 0.60 0.60 0.5 iso 0.13 ${press} 5
fix 1			all npt temp 0.60 0.60 0.5 iso 0.13 0.13 5

# ---------------------- Função de Distribuição Radial -----------------------

#compute RDF 	all rdf 2000 1 1 1 2 2 2
#fix 2 			all ave/time 1 2000 2000 c_RDF[*] file rdf.data mode vector

# ------------------------- Execução ---------------------------

timestep 		0.005
thermo_style	custom step temp pe ke etotal press vol atoms
thermo			2000
run				3000000
Per MPI rank memory allocation (min/avg/max) = 2.675 | 2.675 | 2.675 Mbytes
Step Temp PotEng KinEng TotEng Press Volume Atoms 
       0          0.6   -0.9940566       0.8991 -0.094956601   0.12837532    9993.9483     1000 
    2000   0.60205689   -1.7223125   0.90218225  -0.82013026   0.12763833    11598.246     1000 
    4000   0.61271347   -1.6554988   0.91815113  -0.73734766   0.11609369    11578.267     1000 
    6000   0.61792156   -1.6383831   0.92595545  -0.71242769   0.14030795    11281.172     1000 
    8000    0.6064188   -1.6656464   0.90871857   -0.7569278   0.13842896     11313.29     1000 
   10000   0.58869261   -1.6766787   0.88215588  -0.79452284   0.13472515    11367.954     1000 
   12000   0.58788757   -1.6441588   0.88094953  -0.76320924   0.11936819    11527.138     1000 
   14000   0.60102662   -1.6649602   0.90063839  -0.76432176   0.12454058    11680.501     1000 
   16000   0.62190327    -1.663899   0.93192205  -0.73197699   0.13553558    11503.707     1000 
   18000   0.59453705   -1.6715793   0.89091377  -0.78066554    0.1337139    11493.608     1000 
   20000   0.58759884   -1.6057287   0.88051687  -0.72521183   0.13283967    11336.061     1000 
   22000   0.60540446   -1.6996089   0.90719859  -0.79241027   0.12666277    11505.474     1000 
   24000   0.61934397   -1.7232252   0.92808694  -0.79513822   0.12345884    11712.316     1000 
   26000   0.59340423    -1.720458   0.88921624  -0.83124177   0.13056636    11589.897     1000 
   28000   0.62207603   -1.6814436   0.93218093  -0.74926266   0.15003985    11305.099     1000 
   30000   0.58265801    -1.694878   0.87311304  -0.82176493   0.13682687    11372.095     1000 
   32000   0.62314204   -1.6852008   0.93377835  -0.75142245   0.13200464    11575.974     1000 
   34000   0.57803265   -1.6436617   0.86618193  -0.77747976   0.14877381    11275.461     1000 
   36000   0.61250656   -1.6602263   0.91784108  -0.74238527   0.13825504    11526.934     1000 
   38000   0.61474717    -1.685106   0.92119863  -0.76390738   0.13629969    11455.091     1000 
   40000   0.59039339   -1.6711577   0.88470449  -0.78645321   0.12817258    11630.929     1000 
   42000   0.60074877   -1.6445961   0.90022203   -0.7443741   0.13183234    11402.966     1000 
   44000   0.60157644   -1.7151294    0.9014623  -0.81366712   0.13128726    11658.031     1000 
   46000   0.57743102   -1.6759237   0.86528039   -0.8106433   0.12295798    11488.406     1000 
   48000   0.59654371    -1.689298   0.89392075   -0.7953772   0.12622809    11374.232     1000 
   50000   0.57447469   -1.7034804   0.86085032  -0.84263008   0.12097267    11750.842     1000 
   52000   0.57809767   -1.6600172   0.86627936  -0.79373784   0.12697416    11408.761     1000 
   54000   0.59074333   -1.6666066   0.88522889   -0.7813777   0.13552627    11390.368     1000 
   56000   0.62444057   -1.6800009    0.9357242  -0.74427669   0.13133235    11509.734     1000 
   58000   0.57593111   -1.6518126   0.86303277  -0.78877982   0.13028718    11436.996     1000 
   60000    0.6201172   -1.6649634   0.92924563  -0.73571775   0.12694632    11560.277     1000 
   62000    0.5964772   -1.6562026   0.89382108   -0.7623815   0.12761646    11531.333     1000 
   64000   0.61056132   -1.7159869   0.91492613  -0.80106081   0.12859859    11577.843     1000 
   66000   0.59777302   -1.6536585   0.89576287  -0.75789567   0.13440756    11389.604     1000 
   68000   0.58221535   -1.6803028    0.8724497  -0.80785315   0.11983873    11721.058     1000 
   70000   0.60537353   -1.6994289   0.90715223  -0.79227672     0.129224    11426.408     1000 
   72000   0.59770203   -1.6449434   0.89565649  -0.74928692   0.13704652     11412.36     1000 
   74000   0.59629639   -1.6546761   0.89355014  -0.76112592   0.13522623    11487.823     1000 
   76000   0.56720732   -1.6340708   0.84996016  -0.78411063   0.12386561    11488.747     1000 
   78000   0.58952305   -1.6583096    0.8834003  -0.77490925   0.12697214    11583.546     1000 
   80000   0.60991019   -1.6770335   0.91395042  -0.76308308   0.12222939    11490.711     1000 
   82000   0.56650054   -1.6332735   0.84890106   -0.7843724   0.12186382    11622.757     1000 
   84000   0.59269972   -1.6530858   0.88816054  -0.76492522   0.12457818    11492.395     1000 
   86000   0.60541405   -1.6272783   0.90721295  -0.72006531   0.13152419    11631.084     1000 
   88000   0.61369841   -1.6753408   0.91962706  -0.75571371   0.13158032    11599.481     1000 
   90000   0.61252458   -1.6377239   0.91786808  -0.71985579   0.13997742     11485.44     1000 
   92000   0.60668803   -1.6996639   0.90912202  -0.79054184   0.13550933    11420.787     1000 
   94000   0.59252431   -1.6687747   0.88789768  -0.78087701   0.12661201    11540.716     1000 
   96000   0.58265362   -1.6915055   0.87310644  -0.81839904   0.12648445    11548.884     1000 
   98000   0.58470719   -1.6567632   0.87618372  -0.78057945   0.12198313     11622.67     1000 
  100000   0.60161139   -1.6243995   0.90151467  -0.72288487   0.13334947    11524.078     1000 
  102000   0.62041904   -1.7163974   0.92969793  -0.78669942   0.12352127    11577.452     1000 
  104000   0.62525427   -1.7145925   0.93694353  -0.77764893   0.13763656    11562.118     1000 
  106000   0.59727717   -1.6828307   0.89501984  -0.78781086   0.13500738    11438.719     1000 
  108000   0.62184854   -1.7405209   0.93184003  -0.80868083   0.14906062    11394.809     1000 
  110000   0.62129692   -1.6729847   0.93101344  -0.74197123   0.12164044    11661.525     1000 
  112000   0.61123113   -1.6802098   0.91592984  -0.76427994   0.12487022    11570.901     1000 
  114000   0.60060827   -1.6371897   0.90001149  -0.73717825   0.13538641    11525.355     1000 
  116000   0.61638031   -1.6495092   0.92364589   -0.7258633   0.13039984    11542.606     1000 
  118000   0.58790796    -1.711845   0.88098007  -0.83086494   0.13294536     11434.51     1000 
  120000   0.56265687   -1.6877231   0.84314132   -0.8445818   0.11314741    11591.842     1000 
  122000    0.5955688   -1.7122441   0.89245985  -0.81978429   0.12474195    11543.455     1000 
  124000   0.57508907   -1.6808004   0.86177098  -0.81902944   0.13259336    11347.666     1000 
  126000   0.61609955   -1.6157278   0.92322518  -0.69250266   0.13603832    11495.175     1000 
  128000   0.60744315    -1.705932   0.91025357  -0.79567842   0.12937698    11621.119     1000 
  130000   0.57481588   -1.6772119   0.86136159  -0.81585033   0.12422849     11408.68     1000 
  132000   0.60167769   -1.6360823   0.90161401  -0.73446826   0.13544214    11336.574     1000 
  134000   0.58957163   -1.6571325   0.88347309  -0.77365936   0.11883896    11630.761     1000 
  136000    0.6172101   -1.6787447   0.92488934  -0.75385537   0.12501214    11522.946     1000 
  138000   0.58981999   -1.6858613   0.88384525  -0.80201609   0.12532234    11480.219     1000 
  140000   0.58395253   -1.7077181   0.87505287  -0.83266527   0.13037651    11608.063     1000 
  142000   0.62918034    -1.644459   0.94282674  -0.70163226   0.14751902    11258.021     1000 
  144000   0.59245753   -1.6618484   0.88779761  -0.77405079   0.14211619    11374.325     1000 
  146000   0.60346375   -1.6995967   0.90429043  -0.79530631    0.1209315    11634.879     1000 
  148000   0.60158332   -1.6872186   0.90147261  -0.78574598   0.12623183    11685.816     1000 
  150000   0.58505683   -1.6487845   0.87670766  -0.77207683   0.13140554    11479.134     1000 
  152000   0.61267976   -1.6670218   0.91810062  -0.74892114   0.12484662    11549.745     1000 
  154000   0.58661219   -1.6623487   0.87903836  -0.78331034   0.13686827     11598.52     1000 
  156000   0.61223692   -1.6774354   0.91743703  -0.75999838   0.12992099    11431.616     1000 
  158000   0.61321612    -1.651012   0.91890435   -0.7321076   0.13194306    11605.591     1000 
  160000   0.58726494   -1.6758116   0.88001652  -0.79579507   0.12492752    11507.594     1000 
  162000   0.60070787   -1.6313469   0.90016074  -0.73118617   0.13801353    11425.101     1000 
  164000   0.58532324   -1.6391794   0.87710688  -0.76207249   0.12626892    11421.093     1000 
  166000   0.59421659   -1.6810809   0.89043356  -0.79064736   0.12316522      11482.7     1000 
  168000   0.59591667   -1.6564166   0.89298113  -0.76343546   0.12403542    11407.764     1000 
  170000   0.58641545   -1.6717512   0.87874356  -0.79300767   0.11639741    11728.368     1000 
  172000   0.61482991   -1.6945623   0.92132262  -0.77323965    0.1198748    11687.294     1000 
  174000   0.58694515   -1.6594093    0.8795373  -0.77987199   0.12079618    11399.578     1000 
  176000   0.61018355   -1.6648898   0.91436005  -0.75052971    0.1383009    11518.916     1000 
  178000   0.61122941   -1.6505949   0.91592728  -0.73466757   0.14078334     11383.69     1000 
  180000   0.59396499   -1.6269283   0.89005654  -0.73687179   0.13568978    11405.667     1000 
  182000   0.62600158   -1.7155909   0.93806337  -0.77752755   0.13246245    11633.178     1000 
  184000   0.60105658   -1.6422858   0.90068329  -0.74160247   0.12673253    11629.208     1000 
  186000   0.58848416   -1.6709063   0.88184351  -0.78906276   0.13425448    11581.126     1000 
  188000   0.60010472   -1.7007754   0.89925693  -0.80151845   0.15501478    11207.984     1000 
  190000   0.60841443   -1.6722441   0.91170903  -0.76053507   0.13415659    11483.351     1000 
  192000   0.59389647   -1.6527359   0.88995387  -0.76278202   0.12289506    11571.547     1000 
  194000   0.57332675   -1.6674159   0.85913013  -0.80828582   0.12392081    11590.524     1000 
  196000   0.60640941   -1.6807584    0.9087045   -0.7720539    0.1326584    11484.847     1000 
  198000   0.59464526   -1.6940851   0.89107592  -0.80300916    0.1334974    11427.129     1000 
  200000   0.60797046   -1.6550287   0.91104373  -0.74398502   0.11416617    11586.657     1000 
  202000   0.59220685   -1.6826006   0.88742196   -0.7951786   0.13233525    11610.384     1000 
  204000    0.5902768   -1.6908346   0.88452979   -0.8063048   0.12185589    11685.592     1000 
  206000   0.57184409    -1.610142   0.85690837  -0.75323367   0.12582519    11449.868     1000 
  208000   0.60597273   -1.7152092   0.90805014  -0.80715903   0.13970483    11488.036     1000 
  210000   0.62022095   -1.6825007    0.9294011  -0.75309959   0.13887019    11418.885     1000 
  212000   0.59549492   -1.6871335   0.89234914  -0.79478435   0.13537411    11437.707     1000 
  214000   0.59168052   -1.6931222   0.88663326   -0.8064889   0.11971403    11485.465     1000 
  216000   0.59901888   -1.7045519   0.89762979  -0.80692209   0.12722444    11503.902     1000 
  218000   0.60538678   -1.6562079   0.90717208  -0.74903577   0.12979049    11610.434     1000 
  220000   0.58394311    -1.658938   0.87503875  -0.78389927   0.12975658    11530.224     1000 
  222000    0.5956276    -1.678615   0.89254797  -0.78606707   0.13262001    11539.876     1000 
  224000   0.59308495    -1.670509    0.8887378  -0.78177123   0.13237091    11476.773     1000 
  226000   0.57871214   -1.6423797   0.86720014  -0.77517951   0.12817775    11347.543     1000 
  228000   0.59192487   -1.6871318   0.88699942  -0.80013243   0.11105077    11695.525     1000 
  230000    0.5902401   -1.6638258   0.88447479  -0.77935097   0.13013278    11439.989     1000 
  232000   0.59410046   -1.6413174   0.89025954  -0.75105791   0.11686095    11469.123     1000 
  234000    0.6097633   -1.6812623    0.9137303  -0.76753201   0.13005759    11464.288     1000 
  236000   0.57977702   -1.6409357   0.86879587  -0.77213986   0.12251915    11497.572     1000 
  238000   0.57875435   -1.7556642    0.8672634  -0.88840076   0.14001585    11372.973     1000 
  240000   0.57015106   -1.6836661   0.85437137  -0.82929472   0.13176727    11394.142     1000 
  242000   0.59327749   -1.6514912   0.88902631  -0.76246493    0.1344344     11433.33     1000 
  244000   0.59683023   -1.7163754    0.8943501  -0.82202526   0.12721274    11724.065     1000 
  246000   0.57849988   -1.6187174   0.86688207  -0.75183533   0.12828687    11710.325     1000 
  248000    0.5877654   -1.7421345   0.88076645  -0.86136805   0.12620376    11512.836     1000 
  250000   0.60052348   -1.6784852   0.89988443  -0.77860072   0.13214962    11510.632     1000 
  252000   0.61177192   -1.6488119   0.91674022  -0.73207168   0.14260365    11222.126     1000 
  254000   0.60439929   -1.7144764   0.90569233  -0.80878404   0.14095935    11363.271     1000 
  256000    0.5798996   -1.6585637   0.86897955  -0.78958412   0.13390401    11481.515     1000 
  258000   0.60983783   -1.6731719   0.91384199  -0.75932993   0.12997732    11621.899     1000 
  260000   0.58028198   -1.6812651   0.86955255  -0.81171257   0.12258673    11721.222     1000 
  262000   0.61529552   -1.6614467   0.92202034   -0.7394264   0.12571088     11547.13     1000 
  264000    0.6146603   -1.7107874   0.92106845  -0.78971897   0.13161858    11548.543     1000 
  266000   0.60738246   -1.6643718   0.91016262  -0.75420917   0.13163482    11581.109     1000 
  268000   0.61282371   -1.6393912   0.91831633  -0.72107483   0.13870655    11441.548     1000 
  270000    0.5952197   -1.6456324   0.89193672  -0.75369565   0.13720829    11430.363     1000 
  272000    0.5824383   -1.6431081   0.87278379  -0.77032433   0.13196021    11406.718     1000 
  274000   0.57367507   -1.6757777    0.8596521  -0.81612558   0.11762584    11660.347     1000 
  276000   0.61544947   -1.6881159   0.92225103  -0.76586486   0.12818677    11532.209     1000 
  278000    0.6320356    -1.674731   0.94710535  -0.72762563   0.13322614    11548.893     1000 
  280000   0.61126708   -1.6868373   0.91598373  -0.77085353   0.12947904    11630.615     1000 
  282000   0.60509422   -1.6873164   0.90673368  -0.78058273   0.13535685    11469.061     1000 
  284000   0.58661539   -1.6253834   0.87904317  -0.74634024   0.13467548    11212.896     1000 
  286000   0.58074057   -1.6983764   0.87023974  -0.82813666   0.12897228    11542.286     1000 
  288000   0.59347207   -1.6569507    0.8893179  -0.76763277   0.13221312    11526.357     1000 
  290000   0.59238369   -1.6531888   0.88768697  -0.76550188    0.1270509     11549.54     1000 
  292000   0.60236288   -1.6595283   0.90264077  -0.75688752   0.14052263    11480.266     1000 
  294000   0.61673787   -1.6126933   0.92418169  -0.68851162   0.12669025    11387.175     1000 
  296000   0.59056981   -1.7173726   0.88496886  -0.83240372   0.13789611     11471.64     1000 
  298000   0.60361905   -1.5879912   0.90452315  -0.68346804   0.13431992    11223.172     1000 
  300000   0.61002663    -1.696829    0.9141249  -0.78270405   0.11774593    11650.316     1000 
  302000   0.59432087   -1.5983005   0.89058982  -0.70771066   0.13650764    11340.612     1000 
  304000    0.6076452   -1.7086413   0.91055633  -0.79808496   0.11764424     11528.64     1000 
  306000   0.60013731   -1.6445914   0.89930575  -0.74528564   0.13322443    11494.973     1000 
  308000    0.5856528   -1.6223962   0.87760073   -0.7447955   0.12415104    11343.877     1000 
  310000   0.61566676   -1.6595257   0.92257663   -0.7369491   0.12838077    11490.245     1000 
  312000   0.61499448   -1.6730538   0.92156923  -0.75148456   0.13849075    11495.111     1000 
  314000   0.60739183   -1.6535639   0.91017665  -0.74338729   0.13773099     11389.32     1000 
  316000   0.62725842   -1.6463747   0.93994674  -0.70642799   0.14154527    11387.364     1000 
  318000   0.60264273   -1.6420112   0.90306014  -0.73895102   0.13250908    11532.058     1000 
  320000   0.57465492    -1.683042    0.8611204  -0.82192155   0.12300942     11555.34     1000 
  322000   0.62817302   -1.7221126   0.94131727  -0.78079536   0.13006227    11542.411     1000 
  324000   0.59973755   -1.6675285   0.89870673  -0.76882179   0.13886633    11373.832     1000 
  326000   0.57759009   -1.6847319   0.86551875   -0.8192132   0.12616539    11488.248     1000 
  328000   0.58748485   -1.6410827   0.88034604  -0.76073663   0.12701066    11377.386     1000 
  330000   0.61050755    -1.692342   0.91484556  -0.77749641   0.11144589    11733.965     1000 
  332000   0.60315274   -1.7170296   0.90382439  -0.81320518   0.12746127    11610.524     1000 
  334000   0.60243114   -1.6511666   0.90274307  -0.74842354   0.13436155    11614.541     1000 
  336000   0.59540838   -1.6366729   0.89221946  -0.74445343   0.12255017    11571.484     1000 
  338000   0.59768578   -1.6548092   0.89563215  -0.75917705   0.13387329    11407.865     1000 
  340000   0.58582814    -1.681824   0.87786347  -0.80396053   0.11475563    11690.248     1000 
  342000   0.62290552   -1.7550087   0.93342393  -0.82158476   0.11604074    11713.847     1000 
  344000   0.58300662   -1.6975118   0.87363542  -0.82387643   0.11964564    11611.842     1000 
  346000   0.60862103   -1.6800149   0.91201862  -0.76799625   0.13948905    11437.464     1000 
  348000   0.60157366    -1.619795   0.90145814  -0.71833687   0.13274379    11511.885     1000 
  350000   0.59634967   -1.7051737   0.89362998  -0.81154367   0.13010166    11436.722     1000 
  352000   0.59062334    -1.672333   0.88504907  -0.78728396   0.13025579    11510.572     1000 
  354000   0.61123379   -1.6751857   0.91593383  -0.75925183   0.12537323    11609.526     1000 
  356000   0.60893415   -1.7280559   0.91248783  -0.81556805   0.12869408    11602.752     1000 
  358000   0.61253096   -1.6473859   0.91787764   -0.7295083   0.14383619    11393.314     1000 
  360000   0.57713257   -1.6365104   0.86483316   -0.7716772   0.13580808    11234.706     1000 
  362000   0.59159667   -1.6824183   0.88650761   -0.7959107   0.12837742    11259.849     1000 
  364000   0.59934971   -1.6656681   0.89812554  -0.76754258   0.12634654    11535.893     1000 
  366000   0.60859129   -1.6845817   0.91197405  -0.77260768   0.12376377    11684.555     1000 
  368000   0.60303097   -1.6794772   0.90364191  -0.77583527   0.12963422    11542.904     1000 
  370000   0.59130583   -1.6435388   0.88607179  -0.75746696   0.12141588    11376.609     1000 
  372000   0.58654472   -1.6477249   0.87893727  -0.76878768   0.12359827    11538.366     1000 
  374000   0.60277671   -1.6744651    0.9032609  -0.77120418   0.13068349    11582.572     1000 
  376000   0.58380149   -1.6612046   0.87482653   -0.7863781   0.12653931    11526.432     1000 
  378000   0.60355635   -1.6510564   0.90442919  -0.74662722   0.12861006    11647.506     1000 
  380000   0.57275709   -1.6896586    0.8582765  -0.83138214   0.12025236    11530.702     1000 
  382000   0.59962032   -1.6066673   0.89853105  -0.70813627    0.1296156    11462.513     1000 
  384000   0.61285716   -1.6570806   0.91836646  -0.73871415   0.13480173    11592.125     1000 
  386000   0.59982823    -1.653128    0.8988426  -0.75428537   0.14237798    11490.569     1000 
  388000   0.57871933   -1.6863355   0.86721092  -0.81912459   0.12009376    11577.877     1000 
  390000   0.59314807   -1.6512747   0.88883238   -0.7624423   0.12544239    11475.101     1000 
  392000   0.61392018   -1.6753092   0.91995939   -0.7553498   0.12838939    11561.115     1000 
  394000   0.60608674    -1.631251   0.90822099  -0.72303003   0.13248221    11575.253     1000 
  396000   0.61233623    -1.654202   0.91758585  -0.73661618   0.13915481    11401.617     1000 
  398000   0.65149866    -1.640673   0.97627074  -0.66440231   0.14202098    11335.027     1000 
  400000   0.59650619   -1.6844354   0.89386452   -0.7905709   0.12167181     11568.56     1000 
  402000   0.60090382   -1.6520239   0.90045437  -0.75156957   0.12628634    11519.701     1000 
  404000   0.59175629   -1.6825716   0.88674681  -0.79582484   0.12789027    11626.447     1000 
  406000   0.58662909   -1.6328805   0.87906369  -0.75381681   0.12135635    11509.341     1000 
  408000   0.58217787   -1.6568566   0.87239354  -0.78446306   0.10098123    11656.984     1000 
  410000   0.60975513   -1.6468684   0.91371806  -0.73315035   0.12923417    11464.715     1000 
  412000   0.57482639   -1.6642832   0.86137735  -0.80290582   0.12333612    11484.034     1000 
  414000   0.60307379    -1.641764   0.90370608  -0.73805793   0.12549562    11541.029     1000 
  416000   0.56246359    -1.620207    0.8428517  -0.77735532   0.12247786    11454.927     1000 
  418000   0.58929253   -1.6854772   0.88305485  -0.80242231   0.11861725    11645.723     1000 
  420000   0.60697093   -1.6638676   0.90954595   -0.7543217   0.11720827    11645.421     1000 
  422000   0.57080977   -1.6995795   0.85535845  -0.84422108   0.13815468    11375.633     1000 
  424000   0.58790362    -1.684074   0.88097357  -0.80310043   0.12636965    11787.708     1000 
  426000   0.61435503    -1.654632   0.92061101  -0.73402097   0.12913528    11525.307     1000 
  428000   0.59622364   -1.6890757   0.89344112  -0.79563454   0.12657071    11552.916     1000 
  430000   0.59510485   -1.7143017   0.89176462  -0.82253709   0.11963369    11568.392     1000 
  432000   0.60729049   -1.6061656    0.9100248  -0.69614077   0.13487818    11406.119     1000 
  434000   0.63059527   -1.6143371   0.94494701  -0.66939006   0.13447374    11453.242     1000 
  436000   0.58468559   -1.7099559   0.87615135  -0.83380453    0.1319948     11573.74     1000 
  438000   0.60718168   -1.6677411   0.90986175  -0.75787937   0.14084488    11474.298     1000 
  440000   0.62253145   -1.7136599   0.93286338  -0.78079655    0.1292315    11547.708     1000 
  442000   0.58769384    -1.647741   0.88065922  -0.76708177   0.12549936    11703.024     1000 
  444000    0.5642061   -1.6744369   0.84546285  -0.82897405   0.13317745    11448.131     1000 
  446000   0.57523186   -1.6522557   0.86198493  -0.79027081   0.14051428    11332.677     1000 
  448000   0.57395833   -1.6102949   0.86007656  -0.75021832   0.13007814     11528.31     1000 
  450000   0.63892059   -1.6732409   0.95742251  -0.71581835   0.13992359    11291.842     1000 
  452000   0.56040757   -1.7065011   0.83977075  -0.86673033   0.12740024    11520.112     1000 
  454000   0.60555701   -1.6542866   0.90742718  -0.74685943    0.1260348    11638.091     1000 
  456000   0.57360587   -1.7140254    0.8595484  -0.85447705   0.12690442    11652.332     1000 
  458000   0.59259644   -1.7198301   0.88800576  -0.83182434   0.12515341    11479.127     1000 
  460000   0.60283028   -1.6696606   0.90334118  -0.76631941   0.12911326    11492.422     1000 
  462000   0.62669689   -1.6772908   0.93910528  -0.73818549     0.124202    11674.237     1000 
  464000   0.61668008   -1.6438715   0.92409509  -0.71977642   0.14060252    11343.974     1000 
  466000   0.60732693   -1.6848993   0.91007941  -0.77481985   0.13220957    11468.699     1000 
  468000   0.55201414   -1.6570492   0.82719319  -0.82985605   0.11988764    11521.585     1000 
  470000   0.57618859   -1.6641602   0.86341859  -0.80074158   0.12618985    11638.095     1000 
  472000   0.60194466   -1.6984027   0.90201407  -0.79638858    0.1307355    11539.287     1000 
  474000   0.58975519   -1.6848153   0.88374815  -0.80106715   0.12194938    11579.843     1000 
  476000   0.61891979   -1.6864559   0.92745131  -0.75900457   0.13599184    11411.353     1000 
  478000   0.59879739   -1.6217236   0.89729788  -0.72442575   0.13111001    11537.235     1000 
  480000   0.60396566   -1.6600936   0.90504254  -0.75505104   0.14055132    11511.992     1000 
  482000   0.60672513   -1.6697925    0.9091776  -0.76061492   0.12894095    11302.449     1000 
  484000   0.58761659   -1.6869508   0.88054346  -0.80640731     0.128258    11479.166     1000 
  486000   0.59251404   -1.6847704   0.88788229  -0.79688807   0.11018851     11772.52     1000 
  488000   0.60790564   -1.6620536    0.9109466  -0.75110704   0.13418004    11392.404     1000 
  490000   0.60329795   -1.6502826   0.90404198  -0.74624064   0.13326364    11494.777     1000 
  492000   0.57824023   -1.6247758   0.86649299  -0.75828284   0.12036747    11631.989     1000 
  494000   0.56810382   -1.6096751   0.85130357  -0.75837151   0.12317235    11489.132     1000 
  496000   0.59755919   -1.6210201   0.89544245  -0.72557763   0.13253042    11423.389     1000 
  498000   0.58917101   -1.6327491   0.88287276  -0.74987633   0.13870211     11358.75     1000 
  500000   0.62844633   -1.7344523   0.94172683  -0.79272552   0.13147915    11588.515     1000 
  502000   0.61891506   -1.7060958   0.92744422  -0.77865159   0.12378145    11603.181     1000 
  504000   0.60920162   -1.6195807   0.91288863  -0.70669211    0.1366662    11343.702     1000 
  506000   0.60842699   -1.6585424   0.91172785  -0.74681456    0.1384238    11526.319     1000 
  508000   0.61374505   -1.6509879   0.91969695  -0.73129096   0.13733242    11288.856     1000 
  510000   0.59806953   -1.6834513   0.89620719  -0.78724415   0.12450913    11555.028     1000 
  512000     0.591133   -1.6283267    0.8858128   -0.7425139   0.13254993    11326.293     1000 
  514000   0.58329315   -1.6697799   0.87406479  -0.79571508   0.12285084    11478.175     1000 
  516000   0.59267583   -1.6696337   0.88812473  -0.78150894   0.11537236    11620.174     1000 
  518000   0.61435767   -1.6748439   0.92061498  -0.75422891    0.1264385     11493.38     1000 
  520000   0.59768452   -1.6551862   0.89563025  -0.75955595   0.13272575    11398.944     1000 
  522000   0.59157144   -1.6697876    0.8864698  -0.78331777   0.12635471    11479.559     1000 
  524000   0.62162228   -1.6319427   0.93150099  -0.70044168   0.13168204    11401.222     1000 
  526000   0.61017895   -1.6882605   0.91435316  -0.77390735   0.12263431    11778.444     1000 
  528000   0.56772688   -1.6517198   0.85073873  -0.80098106   0.11786369    11597.953     1000 
  530000   0.60020574   -1.6780489    0.8994083  -0.77864061   0.12068576    11611.726     1000 
  532000   0.58983184   -1.6434375   0.88386301   -0.7595745   0.11712786    11839.332     1000 
  534000   0.60524991   -1.6544362   0.90696699   -0.7474692   0.12672474    11613.388     1000 
  536000   0.61351949   -1.7219936   0.91935896  -0.80263462   0.11759764    11650.495     1000 
  538000   0.61397211   -1.6844523    0.9200372  -0.76441514   0.14032723    11549.227     1000 
  540000   0.61768914   -1.6751165   0.92560717  -0.74950936   0.12794872    11581.398     1000 
  542000   0.59463589   -1.6718802   0.89106189  -0.78081836   0.12716746    11627.361     1000 
  544000   0.60662497   -1.6572442   0.90902752  -0.74821664   0.12155117    11556.334     1000 
  546000   0.58267716   -1.6485768   0.87314173  -0.77543506   0.11525854     11672.56     1000 
  548000   0.60188946   -1.6583942   0.90193135  -0.75646288   0.13832036    11364.762     1000 
  550000   0.60041424   -1.6715947   0.89972075  -0.77187394   0.13351163    11520.955     1000 
  552000   0.62577327   -1.6151046   0.93772124  -0.67738332   0.12990959    11540.449     1000 
  554000   0.60786966    -1.709352   0.91089268  -0.79845929   0.13290233    11549.514     1000 
  556000   0.63073013   -1.6583273    0.9451491  -0.71317823   0.12933767    11607.613     1000 
  558000   0.62145577   -1.6669007   0.93125148   -0.7356492   0.13662194    11405.794     1000 
  560000   0.59268459   -1.6663244   0.88813785  -0.77818654   0.12143459    11555.965     1000 
  562000      0.60302   -1.7173297   0.90362547  -0.81370428    0.1289824    11473.325     1000 
  564000   0.59848284   -1.6866551   0.89682654  -0.78982852   0.13329954    11395.096     1000 
  566000   0.58768592   -1.6903277   0.88064736   -0.8096803   0.11488788    11691.344     1000 
  568000   0.58960387   -1.6811035    0.8835214   -0.7975821     0.122178    11565.224     1000 
  570000   0.59864999   -1.6438447   0.89707702  -0.74676764    0.1318219    11482.043     1000 
  572000   0.60893178   -1.6740644   0.91248428   -0.7615801   0.14179242    11131.128     1000 
  574000   0.60424558   -1.7003043   0.90546201  -0.79484232   0.13730555    11419.281     1000 
  576000    0.5832361   -1.6401385   0.87397929  -0.76615925   0.12378791    11494.709     1000 
  578000   0.59236527   -1.7010863   0.88765935  -0.81342697   0.11918953    11732.973     1000 
  580000   0.61036408   -1.6760703   0.91463058  -0.76143969   0.13194576    11471.199     1000 
  582000   0.61631564   -1.6419541   0.92354899   -0.7184051   0.13971777     11423.95     1000 
  584000   0.59319545   -1.6878515   0.88890338  -0.79894813   0.12391091      11681.6     1000 
  586000    0.5876482     -1.69165   0.88059083  -0.81105914   0.12747669    11523.834     1000 
  588000   0.61036946   -1.7354527   0.91463864  -0.82081405    0.1218034    11548.728     1000 
  590000   0.58182575   -1.6638659   0.87186589       -0.792   0.11630593    11595.087     1000 
  592000   0.57871395   -1.6579496   0.86720286  -0.79074677   0.13791162    11350.658     1000 
  594000   0.59603326   -1.7023176   0.89315585  -0.80916174   0.12854221    11657.807     1000 
  596000   0.58775185   -1.6766698   0.88074615  -0.79592368   0.13094454    11444.508     1000 
  598000   0.61370943    -1.674889   0.91964358  -0.75524537   0.12810189    11583.894     1000 
  600000   0.60050893   -1.6234949   0.89986263  -0.72363225   0.14267005    11281.633     1000 
  602000   0.58699091   -1.6599872   0.87960588  -0.78038129    0.1383996    11360.533     1000 
  604000   0.58592275   -1.7067977   0.87800525  -0.82879248   0.12658001     11663.45     1000 
  606000   0.60543222   -1.6746797   0.90724018   -0.7674395   0.12828359    11496.338     1000 
  608000   0.58930155   -1.7537081   0.88306838  -0.87063972   0.14054738    11447.806     1000 
  610000   0.61128421   -1.6546686   0.91600939  -0.73865925    0.1413095    11451.422     1000 
  612000   0.58450259   -1.6310362   0.87587713  -0.75515905   0.12250557    11494.343     1000 
  614000   0.58081028   -1.6814599    0.8703442  -0.81111574   0.13058554     11578.51     1000 
  616000   0.62531544   -1.7170736   0.93703518  -0.78003837   0.13922943    11474.074     1000 
  618000   0.59208368   -1.6302068   0.88723739   -0.7429694   0.12573359     11571.68     1000 
  620000   0.60346552   -1.6533757   0.90429308  -0.74908259   0.13761351    11353.713     1000 
  622000   0.58549161   -1.6427996   0.87735918  -0.76544042   0.13495488    11429.465     1000 
  624000   0.60137766   -1.6816103   0.90116442  -0.78044583   0.12457227    11468.546     1000 
  626000   0.60459425   -1.7006697   0.90598448  -0.79468518   0.12844605    11641.058     1000 
  628000   0.58809896   -1.6804899   0.88126628  -0.79922362   0.13900495    11347.688     1000 
  630000   0.59879164   -1.6512143   0.89728927    -0.753925   0.12629094    11734.556     1000 
  632000   0.58969173   -1.6282194   0.88365306  -0.74456632   0.13699625    11507.217     1000 
  634000   0.60289989   -1.6361308   0.90344549  -0.73268529    0.1265406    11540.683     1000 
  636000    0.6161293   -1.6789046   0.92326976  -0.75563488   0.13439865    11465.649     1000 
  638000    0.6037232   -1.6987871   0.90467921  -0.79410784   0.14894876    11291.384     1000 
  640000   0.59009518   -1.6692543   0.88425762  -0.78499669   0.12242187    11646.152     1000 
  642000    0.6032805   -1.6663189   0.90401583  -0.76230311   0.12957452    11493.482     1000 
  644000   0.60600701   -1.6475751    0.9081015  -0.73947364   0.13383696     11470.72     1000 
  646000   0.59531035   -1.6196865   0.89207256  -0.72761394   0.13370385    11307.381     1000 
  648000   0.62125698   -1.6852823   0.93095359  -0.75432871   0.14096104    11377.466     1000 
  650000   0.59836735   -1.6196661   0.89665348  -0.72301265   0.14677185    11206.985     1000 
  652000   0.59351665   -1.6933117    0.8893847  -0.80392704    0.1262365    11679.561     1000 
  654000   0.59826425   -1.6475516   0.89649898  -0.75105258    0.1359349    11367.449     1000 
  656000   0.61165297   -1.6328386   0.91656197  -0.71627667    0.1357331    11279.098     1000 
  658000   0.60436662   -1.6285681   0.90564337  -0.72292471   0.13478676    11479.009     1000 
  660000   0.58825871   -1.6777955   0.88150568  -0.79628986   0.13779565    11338.799     1000 
  662000   0.61273371   -1.6889394   0.91818147  -0.77075793   0.13866489    11444.066     1000 
  664000   0.62598035   -1.6764012   0.93803155   -0.7383696   0.13022179    11564.715     1000 
  666000   0.59536455   -1.6709869   0.89215378  -0.77883307   0.13142442    11414.175     1000 
  668000   0.60467723   -1.6784755   0.90610883  -0.77236668   0.12658989    11453.642     1000 
  670000   0.59581687   -1.6780406   0.89283158  -0.78520904    0.1408059     11465.15     1000 
  672000   0.58960997   -1.6724005   0.88353053  -0.78886995   0.12468026    11571.261     1000 
  674000   0.60097625    -1.631139   0.90056291   -0.7305761   0.13299316    11572.055     1000 
  676000   0.59939174   -1.6663024   0.89818852   -0.7681139   0.14099363    11412.168     1000 
  678000   0.59680674   -1.7032418    0.8943149  -0.80892686   0.13857352    11453.367     1000 
  680000   0.60321471   -1.6556574   0.90391724  -0.75174016   0.13732509    11517.636     1000 
  682000   0.61179093   -1.6819486    0.9167687  -0.76517994     0.119295    11581.563     1000 
  684000   0.61437868   -1.6831753   0.92064646  -0.76252886   0.13965267    11366.168     1000 
  686000   0.59946876   -1.6736174   0.89830393  -0.77531349   0.14068921    11528.281     1000 
  688000   0.58305409   -1.6512537   0.87370655  -0.77754716   0.12353164    11553.831     1000 
  690000   0.60506704   -1.6412771   0.90669297  -0.73458416   0.13944458    11535.188     1000 
  692000   0.61518437   -1.7391964   0.92185378  -0.81734263   0.12672504    11546.123     1000 
  694000   0.59085198    -1.634781    0.8853917  -0.74938927   0.12480816    11622.936     1000 
  696000   0.61073065   -1.6941761   0.91517988  -0.77899626   0.12710854    11521.175     1000 
  698000   0.59939009   -1.7000225   0.89818605  -0.80183649   0.12475156    11487.247     1000 
  700000    0.6025175   -1.6709816   0.90287248  -0.76810915   0.13512637    11415.363     1000 
  702000    0.6348402   -1.6458678   0.95130804  -0.69455975   0.13359357    11514.363     1000 
  704000    0.6157502   -1.6966452   0.92270167   -0.7739435   0.12506198    11372.897     1000 
  706000    0.6137947   -1.6448846   0.91977136  -0.72511326   0.12651095    11646.939     1000 
  708000   0.59375945    -1.650178   0.88974854  -0.76042944   0.13654375    11416.744     1000 
  710000   0.59547861   -1.6500841   0.89232469  -0.75775943   0.13212742    11404.022     1000 
  712000   0.57454588   -1.6774269     0.860957   -0.8164699   0.14614637    11390.111     1000 
  714000   0.59526199    -1.649716    0.8920001  -0.75771592   0.13191627    11563.062     1000 
  716000   0.60963524   -1.6715378   0.91353841  -0.75799935   0.13154276    11459.177     1000 
  718000   0.60491517   -1.6501942   0.90646538  -0.74372885   0.13394486    11472.285     1000 
  720000   0.58946214   -1.6838614   0.88330902  -0.80055234   0.12596265    11511.029     1000 
  722000    0.6029354   -1.6442461    0.9034987  -0.74074742    0.1409885    11470.044     1000 
  724000   0.59872918   -1.7018831   0.89719567  -0.80468744    0.1182357     11617.03     1000 
  726000   0.59007386   -1.6425697   0.88422569    -0.758344   0.14090546    11332.986     1000 
  728000   0.58153229    -1.759236   0.87142614  -0.88780982   0.13144413    11575.574     1000 
  730000   0.60385898   -1.6474745   0.90488269  -0.74259178   0.12182875    11446.936     1000 
  732000   0.56955814   -1.6652201   0.85348287  -0.81173724   0.11775325    11656.006     1000 
  734000   0.61643985   -1.6188851   0.92373511  -0.69514999   0.13873882    11486.785     1000 
  736000   0.61817122   -1.6606535   0.92632957  -0.73432394   0.12960952    11452.249     1000 
  738000   0.58719629   -1.6348133   0.87991365  -0.75489966   0.13913617    11524.055     1000 
  740000   0.58686188   -1.6526728   0.87941253   -0.7732603   0.11927749     11663.72     1000 
  742000   0.58851206   -1.7243986   0.88188532  -0.84251332   0.13315669    11622.117     1000 
  744000   0.60681999   -1.6237204   0.90931975  -0.71440069   0.13055529    11403.401     1000 
  746000   0.58928242   -1.6917114   0.88303971  -0.80867172   0.12542152    11472.696     1000 
  748000   0.58243931   -1.6728221   0.87278531  -0.80003675   0.13034362    11528.536     1000 
  750000   0.59515944   -1.6474068   0.89184642  -0.75556037   0.12787932    11592.013     1000 
  752000   0.61617489   -1.5955289   0.92333807  -0.67219081   0.14294127    11230.961     1000 
  754000   0.62499948   -1.6816154   0.93656173  -0.74505371   0.12997193    11560.081     1000 
  756000    0.6497201    -1.642372   0.97360557  -0.66876642   0.12743997    11507.729     1000 
  758000   0.60023952   -1.6680294   0.89945893  -0.76857043   0.12702869    11632.993     1000 
  760000   0.60410838   -1.6655143   0.90525641  -0.76025787   0.12753114    11694.379     1000 
  762000   0.60871937   -1.6970664   0.91216598  -0.78490041   0.12230111    11555.992     1000 
  764000   0.57587021   -1.6851222   0.86294151   -0.8221807   0.12467153     11507.34     1000 
  766000   0.58797062   -1.6591546   0.88107398  -0.77808064   0.12509252     11518.11     1000 
  768000    0.6036153   -1.7004312   0.90451752  -0.79591363   0.11717472    11666.053     1000 
  770000   0.57945395   -1.6929698   0.86831174  -0.82465807   0.11924597    11707.585     1000 
  772000   0.60250864   -1.6219173   0.90285919  -0.71905813   0.13042065    11539.512     1000 
  774000   0.61143871   -1.6096578    0.9162409  -0.69341692   0.12831555    11529.016     1000 
  776000   0.60334588   -1.6783934    0.9041138  -0.77427962   0.12612545    11515.626     1000 
  778000   0.60156259   -1.6722849   0.90144154  -0.77084339   0.13659706    11452.862     1000 
  780000   0.60099211   -1.6958163   0.90058668  -0.79522966   0.14399463    11309.149     1000 
  782000   0.61821018   -1.7204011   0.92638796  -0.79401317   0.14167423    11250.998     1000 
  784000   0.59356401   -1.6659845   0.88945567  -0.77652884   0.13188824    11496.435     1000 
  786000   0.59842117    -1.730861   0.89673412  -0.83412684   0.13384746    11515.889     1000 
  788000   0.61791374   -1.6461479   0.92594374  -0.72020421   0.12846794     11547.74     1000 
  790000   0.59595044   -1.6680185   0.89303173  -0.77498672   0.13558603    11390.237     1000 
  792000   0.59232947   -1.6757129   0.88760571  -0.78810716   0.12921471    11499.857     1000 
  794000   0.61818149   -1.6366814   0.92634496  -0.71033641   0.13950198    11259.739     1000 
  796000   0.60789594   -1.6558504   0.91093207  -0.74491836   0.11552465     11590.61     1000 
  798000   0.59070835   -1.6322514   0.88517646  -0.74707491   0.14358275    11340.891     1000 
  800000   0.56043821   -1.6940083   0.83981665  -0.85419166   0.12931859    11501.692     1000 
  802000   0.60889462   -1.6799435   0.91242859  -0.76751486   0.12387504    11490.423     1000 
  804000   0.58770554   -1.6482529   0.88067676  -0.76757613   0.12566415    11577.219     1000 
  806000    0.6000126   -1.6264536   0.89911889  -0.72733475   0.12707241    11462.976     1000 
  808000   0.60460712   -1.6316421   0.90600377   -0.7256383    0.1419318    11336.436     1000 
  810000   0.61872489   -1.6794038   0.92715924  -0.75224457   0.12730727    11719.809     1000 
  812000    0.6149925   -1.7163768   0.92156626  -0.79481055   0.10872767    11575.207     1000 
  814000    0.5877371   -1.6811558   0.88072405  -0.80043174   0.12323241    11488.377     1000 
  816000   0.59479887   -1.7032557   0.89130611  -0.81194958   0.13144699    11574.027     1000 
  818000   0.60610953   -1.6835456   0.90825513  -0.77529049   0.13268809    11516.731     1000 
  820000   0.61205418   -1.6417421   0.91716319  -0.72457895   0.13127067    11338.368     1000 
  822000   0.60366891   -1.6463194   0.90459787  -0.74172149   0.12832787    11480.194     1000 
  824000   0.61738483   -1.6934669   0.92515116  -0.76831569   0.13421843    11387.048     1000 
  826000   0.60097425   -1.6564638   0.90055992  -0.75590387   0.12689805    11434.201     1000 
  828000   0.60182801   -1.6880198   0.90183927  -0.78618052   0.13256843    11458.197     1000 
  830000   0.60478741   -1.6937767   0.90627393  -0.78750273   0.11731332    11670.111     1000 
  832000   0.58457191     -1.68155   0.87598101  -0.80556897   0.12593917    11509.406     1000 
  834000   0.61644088   -1.6784591   0.92373667  -0.75472243   0.14060235    11403.506     1000 
  836000    0.5859476   -1.6756752   0.87804248  -0.79763269   0.11752108    11700.919     1000 
  838000    0.6281962   -1.6985826   0.94135201  -0.75723062   0.12121535    11740.956     1000 
  840000   0.62044501   -1.6578683   0.92973685   -0.7281315   0.13053707    11355.144     1000 
  842000   0.58789365   -1.6443802   0.88095863  -0.76342155   0.12994046    11744.556     1000 
  844000   0.61788547   -1.6403622   0.92590137  -0.71446085   0.14586812     11477.77     1000 
  846000   0.60151786    -1.672041   0.90137451  -0.77066646   0.14239572    11409.532     1000 
  848000   0.58788201   -1.6744224   0.88094119  -0.79348123   0.12721098    11547.396     1000 
  850000   0.60134169   -1.6351105   0.90111052  -0.73399998    0.1284183    11371.888     1000 
  852000    0.5747463   -1.6087988   0.86125733  -0.74754151    0.1333613    11398.067     1000 
  854000   0.60623422   -1.6704775   0.90844198  -0.76203549   0.12609955    11595.296     1000 
  856000    0.5815645   -1.6964596    0.8714744  -0.82498519    0.1306829    11357.721     1000 
  858000   0.63019735   -1.6674029   0.94435072  -0.72305218   0.12699452     11570.04     1000 
  860000   0.62123361   -1.6936797   0.93091856  -0.76276117   0.13144076    11566.363     1000 
  862000   0.60337936   -1.6581591   0.90416397  -0.75399514   0.12915715    11407.268     1000 
  864000   0.57654523   -1.6620067   0.86395302  -0.79805368   0.13638686    11548.474     1000 
  866000    0.5955782   -1.6990389   0.89247393  -0.80656498   0.14236162    11483.893     1000 
  868000   0.60971361   -1.6626592   0.91365585  -0.74900332   0.14071845    11411.635     1000 
  870000   0.61791479   -1.6261479   0.92594532   -0.7002026    0.1417475    11427.298     1000 
  872000   0.60815114   -1.7070802   0.91131449  -0.79576568   0.12264205    11633.193     1000 
  874000   0.61968839   -1.7207778   0.92860305   -0.7921747   0.11873331    11605.322     1000 
  876000   0.62723048   -1.6897184   0.93990487  -0.74981353   0.13138912    11449.457     1000 
  878000   0.61204962   -1.6959214   0.91715635  -0.77876508   0.12861341    11543.632     1000 
  880000   0.61993337   -1.7336281   0.92897016   -0.8046579   0.12493248     11698.53     1000 
  882000   0.56847717   -1.6946799   0.85186305  -0.84281686   0.11400884     11621.24     1000 
  884000   0.61516264   -1.6293697   0.92182121  -0.70754845   0.12673782    11430.517     1000 
  886000    0.6008223   -1.6572517   0.90033222  -0.75691945    0.1274661    11497.963     1000 
  888000   0.58841622   -1.6595764    0.8817417  -0.77783474   0.13340678    11409.885     1000 
  890000    0.6032338   -1.6595125   0.90394585   -0.7555667   0.12303785     11597.53     1000 
  892000   0.59321182   -1.6807194    0.8889279  -0.79179151   0.13419951    11467.973     1000 
  894000   0.60179328   -1.6855407   0.90178722  -0.78375349   0.14064098     11369.18     1000 
  896000   0.60237373   -1.6496978   0.90265704  -0.74704078   0.13251333     11557.78     1000 
  898000   0.57957886   -1.6670497   0.86849892  -0.79855075     0.115208    11711.394     1000 
  900000   0.59793185   -1.6725915   0.89600088  -0.77659065   0.14633538     11282.53     1000 
  902000   0.61117165   -1.6761429   0.91584072  -0.76030219   0.13023515    11565.934     1000 
  904000   0.60356093   -1.6800871   0.90443606  -0.77565109   0.13273738    11456.196     1000 
  906000   0.59684227   -1.6339413   0.89436815  -0.73957318   0.15532058    11310.426     1000 
  908000   0.60483703    -1.628495   0.90634829  -0.72214672   0.12607111    11533.776     1000 
  910000   0.63657979   -1.6868941   0.95391482  -0.73297933   0.13463893    11355.553     1000 
  912000   0.59270934   -1.6843469   0.88817494  -0.79617191   0.12421548    11622.059     1000 
  914000   0.60152015   -1.7181094   0.90137794  -0.81673143   0.12933511    11432.371     1000 
  916000   0.61377348   -1.6761574   0.91973956  -0.75641779   0.13428388    11399.471     1000 
  918000   0.58978259   -1.6854041    0.8837892  -0.80161494   0.13873575    11461.081     1000 
  920000   0.58497371   -1.6808461    0.8765831    -0.804263    0.1172492    11634.736     1000 
  922000   0.57853878   -1.6411411   0.86694036  -0.77420071   0.13188765    11453.915     1000 
  924000   0.58951447   -1.6830413   0.88338744  -0.79965385   0.13768317    11323.432     1000 
  926000   0.61619711   -1.6968749   0.92337136   -0.7735035   0.13052667    11530.281     1000 
  928000   0.61838849   -1.6606173   0.92665516  -0.73396209   0.12818415     11550.35     1000 
  930000    0.6343503   -1.7075375   0.95057392  -0.75696355   0.12898602    11542.046     1000 
  932000   0.58955887    -1.731794   0.88345396  -0.84834007   0.13340036    11433.368     1000 
  934000   0.59364633   -1.6635272   0.88957903  -0.77394814   0.12522858    11372.314     1000 
  936000   0.59350895   -1.6780439   0.88937316  -0.78867077   0.13559984    11515.346     1000 
  938000   0.59294887   -1.6331702   0.88853388  -0.74463633   0.13011173    11550.888     1000 
  940000   0.61132758   -1.6370144   0.91607438  -0.72094004   0.12242675    11621.589     1000 
  942000   0.61488537   -1.6906317   0.92140572  -0.76922598   0.12547808    11499.696     1000 
  944000   0.59691834   -1.6721066   0.89448214  -0.77762446   0.12577855    11611.445     1000 
  946000   0.60567223   -1.6876132   0.90759983  -0.78001341   0.12028464    11570.518     1000 
  948000   0.60541132   -1.6604103   0.90720887  -0.75320139   0.12132992    11553.585     1000 
  950000   0.60464857   -1.6558148   0.90606588  -0.74974889   0.14231437    11490.865     1000 
  952000   0.58306904   -1.6176359   0.87372896  -0.74390698   0.12283454     11517.11     1000 
  954000   0.60729304   -1.6900152   0.91002862  -0.77998657   0.11475681    11644.753     1000 
  956000    0.6104258   -1.7524237   0.91472306  -0.83770068   0.12667344    11770.663     1000 
  958000   0.59916275   -1.7126771   0.89784538  -0.81483169   0.13101224    11580.786     1000 
  960000   0.60724829    -1.629359   0.90996156   -0.7193974   0.14818407    11312.617     1000 
  962000   0.59974545   -1.6767566   0.89871855  -0.77803805   0.13762846    11543.751     1000 
  964000   0.61108877   -1.6449559   0.91571652  -0.72923935   0.13602658    11357.914     1000 
  966000   0.62227422   -1.6269396   0.93247792   -0.6944617   0.14298908     11526.67     1000 
  968000   0.58884047   -1.6952375   0.88237745  -0.81286002   0.12090879     11544.79     1000 
  970000   0.58802533   -1.6421703   0.88115596   -0.7610143   0.12503804    11676.393     1000 
  972000   0.63722504   -1.6630021   0.95488173  -0.70812035   0.13375046    11528.573     1000 
  974000    0.5978465   -1.6271035   0.89587298  -0.73123047   0.13753503    11426.712     1000 
  976000   0.60280203   -1.6451721   0.90329884  -0.74187322   0.12560635    11422.466     1000 
  978000   0.60730021   -1.6174714   0.91003937  -0.70743206   0.13222219    11379.618     1000 
  980000   0.59884538    -1.650881   0.89736981  -0.75351118   0.13740308    11447.437     1000 
  982000    0.5948595   -1.7227715   0.89139696  -0.83137455   0.11785233     11740.14     1000 
  984000   0.60998547   -1.7034226   0.91406323  -0.78935938   0.13151757    11381.404     1000 
  986000   0.61161342   -1.6547715   0.91650271  -0.73826882   0.13533563    11523.305     1000 
  988000   0.62101773   -1.6455419   0.93059506   -0.7149468   0.12716989    11582.263     1000 
  990000   0.59171379   -1.6410043   0.88668312  -0.75432116   0.13319077    11660.399     1000 
  992000   0.58700221   -1.6935577   0.87962282  -0.81393486   0.14068385    11471.021     1000 
  994000   0.59717598   -1.6356207   0.89486821  -0.74075251   0.12251599    11585.879     1000 
  996000    0.5702892    -1.640833   0.85457837  -0.78625467   0.12797854    11512.457     1000 
  998000   0.59959741   -1.6595537   0.89849672  -0.76105695   0.14198925    11467.546     1000 
 1000000   0.57414905   -1.6606217   0.86036235  -0.80025937   0.13150024    11565.199     1000 
 1002000   0.56956384   -1.6602706   0.85349142  -0.80677918    0.1379183    11441.129     1000 
 1004000    0.5755631   -1.6875639   0.86248131  -0.82508256   0.12074252    11551.555     1000 
 1006000   0.60472511   -1.6671699   0.90618058  -0.76098934   0.13385451    11471.002     1000 
 1008000   0.59518607   -1.6944912   0.89188632  -0.80260488   0.12237314    11479.369     1000 
 1010000   0.60557429   -1.6853936   0.90745307  -0.77794053   0.12008878    11733.456     1000 
 1012000   0.59989822   -1.6788496   0.89894748  -0.77990211   0.13024213    11495.932     1000 
 1014000   0.63140275   -1.6670897   0.94615701  -0.72093267   0.12687723    11485.319     1000 
 1016000   0.59791227   -1.6637341   0.89597154  -0.76776253   0.12559516    11448.494     1000 
 1018000   0.59842498   -1.6700666   0.89673983  -0.77332678    0.1285561    11336.551     1000 
 1020000   0.62092408   -1.6196806   0.93045473  -0.68922589   0.13536241    11201.072     1000 
 1022000   0.61464174   -1.6584864   0.92104065  -0.73744573     0.143337    11417.329     1000 
 1024000   0.62354649    -1.684316   0.93438441  -0.74993158   0.12411719    11551.421     1000 
 1026000   0.58538264   -1.7209096   0.87719589  -0.84371369    0.1320853    11607.422     1000 
 1028000   0.62325577   -1.6421933   0.93394877  -0.70824455   0.13251261    11496.393     1000 
 1030000   0.62208803   -1.6499853   0.93219891  -0.71778637   0.13825193    11389.658     1000 
 1032000    0.6058302   -1.6462036   0.90783656  -0.73836701   0.13022645    11412.321     1000 
 1034000    0.6200032   -1.6882613   0.92907479  -0.75918655   0.13653006    11476.757     1000 
 1036000   0.61660853   -1.7302572   0.92398788  -0.80626933   0.12242855     11580.56     1000 
 1038000   0.57325794   -1.7125578   0.85902703  -0.85353079   0.12659947    11503.128     1000 
 1040000   0.58322294   -1.6968635   0.87395958  -0.82290388   0.13311447     11352.99     1000 
 1042000    0.6140426   -1.6621393   0.92014284   -0.7419965   0.13356391    11546.693     1000 
 1044000   0.57529208   -1.6720066   0.86207518  -0.80993146   0.12476095    11576.847     1000 
 1046000   0.61170832   -1.6643934   0.91664492  -0.74774849   0.13198509    11710.647     1000 
 1048000   0.58241189   -1.6714518   0.87274422  -0.79870761    0.1271357    11465.609     1000 
 1050000   0.61820741   -1.6521175    0.9263838  -0.72573371   0.12719306    11596.062     1000 
 1052000   0.61948534   -1.6680641   0.92829878  -0.73976533   0.12074872    11602.612     1000 
 1054000   0.61433469   -1.6577824   0.92058054  -0.73720183   0.14008125     11371.35     1000 
 1056000   0.60229687   -1.6756545   0.90254186  -0.77311262   0.10908377    11837.186     1000 
 1058000   0.58343287   -1.6635147   0.87427416  -0.78924056   0.11345918     11551.99     1000 
 1060000    0.6138978   -1.6462206   0.91992585  -0.72629474   0.12221259    11578.175     1000 
 1062000   0.60566118   -1.6520809   0.90758328  -0.74449767   0.12999536    11517.605     1000 
 1064000   0.57299234   -1.6918481   0.85862903  -0.83321908   0.13537316    11508.619     1000 
 1066000   0.62894521   -1.6083231    0.9424744  -0.66584871   0.13628183    11486.249     1000 
 1068000   0.57411948   -1.6015029   0.86031804  -0.74118485   0.13508226    11430.602     1000 
 1070000   0.57881196   -1.6956545   0.86734972   -0.8283048   0.13287964    11517.628     1000 
 1072000   0.61349756   -1.6453929   0.91932609  -0.72606685   0.13369507     11423.79     1000 
 1074000   0.61175335   -1.6958918   0.91671239  -0.77917937   0.12797023    11534.068     1000 
 1076000   0.59784454    -1.719532   0.89587004  -0.82366193   0.12149278    11434.702     1000 
 1078000   0.61215559   -1.6714515   0.91731515  -0.75413639   0.12802129    11655.229     1000 
 1080000   0.59421683    -1.695851   0.89043392  -0.80541706   0.12650347    11515.611     1000 
 1082000    0.6044534   -1.6860939   0.90577341  -0.78032047   0.13333228    11476.257     1000 
 1084000   0.61341892   -1.6847659   0.91920825  -0.76555762   0.13737877    11491.959     1000 
 1086000   0.59823511    -1.695655   0.89645531   -0.7991997    0.1351774    11479.782     1000 
 1088000    0.6275996    -1.685522   0.94045801  -0.74506402   0.12534763    11666.759     1000 
 1090000   0.61791229   -1.6950319   0.92594156  -0.76909034   0.12579244    11687.611     1000 
 1092000   0.60106806    -1.649805   0.90070049   -0.7491045   0.13614555    11406.259     1000 
 1094000   0.58053918   -1.6993588   0.86993796  -0.82942082   0.12322536    11447.262     1000 
 1096000   0.61872026   -1.6536834   0.92715231  -0.72653108   0.13522948    11450.581     1000 
 1098000   0.60539121   -1.6521093   0.90717873  -0.74493056    0.1113891    11804.473     1000 
 1100000   0.60102433   -1.6720646   0.90063495   -0.7714296   0.12233603    11670.195     1000 
 1102000   0.60286388   -1.6523131   0.90339152  -0.74892153   0.11767922    11551.574     1000 
 1104000   0.61731959   -1.6465026   0.92505341  -0.72144915   0.13656061    11465.357     1000 
 1106000   0.58579339   -1.7180639    0.8778114  -0.84025254   0.13505603    11489.738     1000 
 1108000   0.60741736   -1.6588209   0.91021491    -0.748606   0.13054514    11428.143     1000 
 1110000   0.59068843   -1.6510542   0.88514662  -0.76590759   0.12099669     11553.12     1000 
 1112000    0.6134945   -1.6587298   0.91932151  -0.73940826   0.13627562     11538.55     1000 
 1114000   0.60528932     -1.68559   0.90702604  -0.77856397   0.12396308    11547.455     1000 
 1116000   0.60018697   -1.6117908   0.89938018   -0.7124106   0.13220031    11543.809     1000 
 1118000   0.63184782   -1.6618987   0.94682396  -0.71507472   0.13146599     11648.56     1000 
 1120000   0.57264055   -1.6475615   0.85810186  -0.78945959   0.14077395    11365.826     1000 
 1122000   0.60728842   -1.6710044    0.9100217  -0.76098271    0.1418294    11442.865     1000 
 1124000   0.63513986   -1.6562902   0.95175709  -0.70453315   0.14219255    11409.909     1000 
 1126000   0.60797874   -1.6954502   0.91105614  -0.78439405   0.13623747    11448.907     1000 
 1128000   0.62758979   -1.6148421   0.94044329  -0.67439877   0.13325353    11462.784     1000 
 1130000    0.5866011   -1.6658874   0.87902174  -0.78686568   0.12610036    11596.562     1000 
 1132000   0.59476568   -1.7077049   0.89125637  -0.81644858   0.13690472    11444.787     1000 
 1134000   0.61055102   -1.6092399   0.91491071  -0.69432922   0.13577241     11446.48     1000 
 1136000   0.61941666     -1.63012   0.92819587  -0.70192416      0.14041    11305.059     1000 
 1138000   0.61981269    -1.656267   0.92878932  -0.72747771   0.13377664    11407.859     1000 
 1140000    0.6244445   -1.7128885   0.93573008   -0.7771584    0.1194148    11739.181     1000 
 1142000   0.57821259   -1.6310058   0.86645157   -0.7645542   0.13179083    11440.816     1000 
 1144000    0.5917096    -1.668864   0.88667684  -0.78218719   0.13587258     11362.03     1000 
 1146000    0.6077197   -1.7456221   0.91066797  -0.83495417   0.13171202    11541.324     1000 
 1148000   0.60260113   -1.6822739   0.90299779  -0.77927607   0.12475243     11404.28     1000 
 1150000   0.58691418   -1.6674987    0.8794909  -0.78800783   0.13398079     11601.83     1000 
 1152000   0.60441354   -1.6907653   0.90571369  -0.78505166    0.1312403    11459.736     1000 
 1154000   0.60575333   -1.6683044   0.90772136  -0.76058303   0.13090795    11488.248     1000 
 1156000   0.59936668   -1.6996054   0.89815097  -0.80145447   0.12297447    11567.327     1000 
 1158000   0.62805437    -1.731654   0.94113947  -0.79051453   0.13312335    11520.202     1000 
 1160000   0.56954839   -1.6736071   0.85346827  -0.82013885   0.12179421    11431.824     1000 
 1162000    0.5951758   -1.6879166   0.89187094  -0.79604566   0.11948998    11590.979     1000 
 1164000    0.6011974   -1.7024718    0.9008943  -0.80157752   0.11592085    11720.492     1000 
 1166000   0.59551171   -1.6686195    0.8923743  -0.77624516   0.13630024    11474.602     1000 
 1168000   0.58175796   -1.7074357    0.8717643   -0.8356714   0.13032262    11572.333     1000 
 1170000   0.62599564   -1.6990541   0.93805447  -0.76099963   0.13445698    11542.771     1000 
 1172000   0.59745926   -1.6507557    0.8952927  -0.75546303   0.12474457    11604.434     1000 
 1174000   0.60165549   -1.7224352   0.90158075  -0.82085447   0.12487824    11772.095     1000 
 1176000   0.58926101   -1.6535591   0.88300762   -0.7705515   0.13795623    11334.091     1000 
 1178000   0.62251686   -1.6794513   0.93284151  -0.74660981   0.13390689    11631.707     1000 
 1180000   0.57324009    -1.702468   0.85900028   -0.8434677   0.13701644    11308.024     1000 
 1182000   0.57027278   -1.6949488   0.85455376  -0.84039499   0.13300873    11444.294     1000 
 1184000   0.61193537   -1.6894587   0.91698516  -0.77247357   0.12803883    11562.905     1000 
 1186000   0.60358592   -1.6577752    0.9044735   -0.7533017   0.13735954    11391.866     1000 
 1188000   0.59425006   -1.6847627   0.89048371  -0.79427898   0.13117903    11537.241     1000 
 1190000   0.60047253   -1.6244335   0.89980809  -0.72462545   0.13370855    11362.174     1000 
 1192000   0.56656539   -1.6892027   0.84899823  -0.84020446   0.12826789    11478.536     1000 
 1194000   0.56951651   -1.6430327   0.85342049  -0.78961226   0.13035091    11254.747     1000 
 1196000   0.59576505   -1.6683344   0.89275393  -0.77558047   0.13737351     11482.83     1000 
 1198000   0.61568228   -1.6030753    0.9225999  -0.68047537   0.14410292    11341.237     1000 
 1200000   0.61322734    -1.649176   0.91892117  -0.73025481   0.15227687    11264.766     1000 
 1202000   0.62510227   -1.7044222   0.93671576  -0.76770645   0.14056387     11594.63     1000 
 1204000   0.60998752   -1.6895395    0.9140663  -0.77547321   0.13687302     11445.47     1000 
 1206000   0.60218096   -1.7169139   0.90236817  -0.81454577   0.13351913    11356.153     1000 
 1208000   0.60924675    -1.668134   0.91295626  -0.75517778   0.12974863    11496.302     1000 
 1210000   0.59861729   -1.6447065   0.89702801  -0.74767848   0.12577659    11557.774     1000 
 1212000   0.61444545   -1.6789343    0.9207465  -0.75818775    0.1407169    11365.174     1000 
 1214000    0.5971822   -1.6370779   0.89487752  -0.74220038   0.14184289    11323.971     1000 
 1216000   0.57882944   -1.6385749   0.86737591  -0.77119894   0.13717542    11394.853     1000 
 1218000   0.60613123   -1.7296821   0.90828764  -0.82139446   0.13476268    11469.047     1000 
 1220000   0.61108155    -1.627262   0.91570571  -0.71155631   0.11654168    11449.658     1000 
 1222000   0.60942146   -1.6751056   0.91321805  -0.76188751   0.13278813    11348.695     1000 
 1224000   0.58742094   -1.6420122   0.88025027  -0.76176191   0.13161086    11555.924     1000 
 1226000    0.5920431   -1.6362738   0.88717659  -0.74909723   0.13153776    11331.178     1000 
 1228000   0.61052839   -1.6663591   0.91487679  -0.75148234   0.12484131    11486.067     1000 
 1230000   0.59941208   -1.6817997     0.898219  -0.78358066   0.11980905     11628.65     1000 
 1232000    0.6064511   -1.6564662   0.90876698  -0.74769924   0.12296873    11770.764     1000 
 1234000   0.61906927   -1.6460926    0.9276753  -0.71841727   0.13762697     11617.96     1000 
 1236000   0.60999373   -1.6452571   0.91407561  -0.73118147   0.13655121    11284.832     1000 
 1238000   0.59551559   -1.6163248    0.8923801  -0.72394471   0.12608308    11501.994     1000 
 1240000   0.60190097   -1.7045029    0.9019486  -0.80255431   0.13485726    11553.848     1000 
 1242000   0.61008876   -1.6841488     0.914218  -0.76993078   0.12075844    11675.514     1000 
 1244000   0.61044408   -1.6992634   0.91475046  -0.78451292   0.12802457    11516.375     1000 
 1246000   0.59425569   -1.6752828   0.89049216  -0.78479064   0.13266929    11616.665     1000 
 1248000   0.58166976   -1.6064778   0.87163214  -0.73484567   0.12834562    11509.433     1000 
 1250000   0.60425938   -1.6519351   0.90548268  -0.74645244   0.13076262    11591.875     1000 
 1252000   0.61821934   -1.6412687   0.92640168  -0.71486701   0.12508954    11663.955     1000 
 1254000   0.60246732   -1.6821817   0.90279728  -0.77938441   0.13271005    11561.843     1000 
 1256000   0.59602133   -1.6926318   0.89313797   -0.7994938   0.12268632    11548.697     1000 
 1258000   0.60416032   -1.6939143   0.90533424  -0.78858004   0.12429871    11757.438     1000 
 1260000   0.62105013   -1.6272885   0.93064362   -0.6966449   0.13656425    11527.533     1000 
 1262000   0.61789606   -1.6877344   0.92591724  -0.76181718   0.13420959    11519.498     1000 
 1264000   0.62183587    -1.717907   0.93182105  -0.78608592   0.11648669    11633.852     1000 
 1266000   0.58911299   -1.6630619   0.88278581   -0.7802761   0.11102919    11567.278     1000 
 1268000   0.59949282   -1.6984451   0.89833998  -0.80010511   0.11977353    11602.227     1000 
 1270000   0.60702221   -1.6552816   0.90962278  -0.74565884   0.12174421    11524.358     1000 
 1272000   0.60133223    -1.693752   0.90109635  -0.79265563   0.13340437    11514.635     1000 
 1274000   0.60182127   -1.6718156   0.90182917  -0.76998647   0.13322791    11380.408     1000 
 1276000   0.59537076   -1.6646063   0.89216308  -0.77244318   0.13146622    11491.305     1000 
 1278000   0.61846514   -1.6914478   0.92677001  -0.76467779   0.11870517    11766.069     1000 
 1280000   0.62639202   -1.7141907   0.93864844  -0.77554228     0.125531    11590.961     1000 
 1282000   0.61568453    -1.675846   0.92260327   -0.7532427   0.13464831    11468.343     1000 
 1284000   0.59577334   -1.6142842   0.89276635  -0.72151786   0.12365715    11545.276     1000 
 1286000   0.62437975   -1.6712728   0.93563305  -0.73563975   0.14757257    11334.613     1000 
 1288000   0.60338472   -1.6196001     0.904172   -0.7154281   0.13433981    11529.793     1000 
 1290000   0.59320967   -1.6384713   0.88892469  -0.74954663   0.12636019    11321.669     1000 
 1292000   0.60186315   -1.7193543   0.90189193  -0.81746232   0.13200454    11489.389     1000 
 1294000   0.58682196   -1.6589973    0.8793527  -0.77964461   0.13301503    11291.746     1000 
 1296000   0.58235523   -1.6568657   0.87265932  -0.78420636    0.1231759     11671.35     1000 
 1298000   0.60742719   -1.7246992   0.91022965  -0.81446955   0.13082521    11630.502     1000 
 1300000   0.61945439   -1.6789014    0.9282524  -0.75064898   0.11927155      11501.6     1000 
 1302000   0.59574737   -1.7424916   0.89272744  -0.84976412   0.11734246    11655.561     1000 
 1304000   0.57434391    -1.627759   0.86065435  -0.76710463   0.11805056    11604.103     1000 
 1306000   0.59125883   -1.6617976   0.88600135  -0.77579626   0.12899134     11460.33     1000 
 1308000   0.58001946   -1.6859176   0.86915916  -0.81675846   0.12207072    11716.041     1000 
 1310000   0.61189865   -1.6857798   0.91693013  -0.76884966   0.13855444    11286.414     1000 
 1312000    0.5959786   -1.6387813   0.89307393  -0.74570742   0.12800991    11408.735     1000 
 1314000   0.61508174   -1.7454111   0.92169998  -0.82371108   0.12298367    11681.021     1000 
 1316000   0.63772948   -1.6684486   0.95563762  -0.71281097     0.120347    11484.538     1000 
 1318000   0.60449665   -1.7033879   0.90583823  -0.79754971   0.13969839     11559.11     1000 
 1320000   0.60629491   -1.7043579   0.90853292  -0.79582498   0.13148145    11563.575     1000 
 1322000    0.5626537   -1.6962832   0.84313657  -0.85314667   0.13608875    11456.355     1000 
 1324000   0.58457618    -1.700622    0.8759874  -0.82463459   0.11873834    11915.941     1000 
 1326000   0.58019476   -1.6586666   0.86942184  -0.78924474   0.13225264    11529.865     1000 
 1328000   0.59222573   -1.6212263   0.88745025  -0.73377606   0.13468244    11447.562     1000 
 1330000    0.5989326   -1.6064144    0.8975005  -0.70891395    0.1250189    11384.934     1000 
 1332000   0.57266051    -1.708232   0.85813178  -0.85010017   0.12105603    11530.228     1000 
 1334000   0.59612808   -1.6264933   0.89329793  -0.73319535   0.13661838    11433.015     1000 
 1336000   0.57942147   -1.6184296   0.86826307  -0.75016649    0.1165945    11677.508     1000 
 1338000    0.5857926   -1.6837343   0.87781021  -0.80592406   0.13738296    11387.006     1000 
 1340000   0.56854388   -1.6560526   0.85196301  -0.80408964    0.1387479    11519.926     1000 
 1342000    0.5907725    -1.625446   0.88527259  -0.74017341   0.13236769    11486.274     1000 
 1344000   0.59452037   -1.6841407   0.89088878  -0.79325191   0.12490238    11585.881     1000 
 1346000   0.60220922   -1.6849589   0.90241052  -0.78254838   0.11925979    11724.311     1000 
 1348000   0.59968829    -1.672437    0.8986329  -0.77380411   0.12942436    11707.519     1000 
 1350000   0.58143364    -1.702409   0.87127831  -0.83113073   0.12896362    11425.301     1000 
 1352000   0.58152736   -1.6094854   0.87141876   -0.7380666   0.13838488    11367.516     1000 
 1354000   0.63131781   -1.6753102   0.94602973  -0.72928051   0.12069771    11493.403     1000 
 1356000   0.60878081   -1.6464543   0.91225804  -0.73419624   0.13910914    11515.323     1000 
 1358000   0.59533451   -1.6573554   0.89210876  -0.76524669   0.13047544    11514.446     1000 
 1360000    0.6127347   -1.6693468   0.91818294  -0.75116384   0.12918975    11639.216     1000 
 1362000   0.57826248   -1.6113579   0.86652633  -0.74483152   0.12966758    11607.853     1000 
 1364000   0.62297703   -1.6606565   0.93353108  -0.72712539   0.12049342    11637.968     1000 
 1366000   0.60163114   -1.6951328   0.90154426  -0.79358856   0.12584107    11551.269     1000 
 1368000   0.59008549   -1.7234641   0.88424311  -0.83922104   0.12351213    11578.866     1000 
 1370000   0.55643218   -1.6855162   0.83381362  -0.85170255    0.1303219    11442.333     1000 
 1372000   0.60249258   -1.6297292   0.90283514  -0.72689408   0.13483229     11414.26     1000 
 1374000   0.60468288   -1.6978413   0.90611729  -0.79172396   0.12401844    11523.909     1000 
 1376000   0.60321127   -1.6750952   0.90391208  -0.77118313   0.13989009    11447.628     1000 
 1378000   0.60775036   -1.6315167   0.91071391  -0.72080278   0.13293485    11325.244     1000 
 1380000   0.60295613   -1.7107429   0.90352976  -0.80721319   0.12271914    11648.963     1000 
 1382000   0.60099101   -1.6724707   0.90058502  -0.77188566   0.14268427    11261.681     1000 
 1384000   0.63660305   -1.7076646   0.95394968  -0.75371491   0.13847247    11536.953     1000 
 1386000   0.61520262   -1.6734489   0.92188112  -0.75156781   0.13138745    11404.262     1000 
 1388000   0.58331363   -1.6371555   0.87409548     -0.76306   0.13111699      11545.3     1000 
 1390000   0.59090233   -1.7197021   0.88546714  -0.83423498   0.12187788    11736.978     1000 
 1392000   0.56408347   -1.6854838   0.84527908  -0.84020469   0.11208017    11438.606     1000 
 1394000   0.61813026   -1.6999841   0.92626819  -0.77371588   0.12583584    11538.746     1000 
 1396000   0.59560148   -1.7108078   0.89250882  -0.81829901   0.12980767    11506.185     1000 
 1398000   0.61625173   -1.6403477   0.92345322  -0.71689452   0.15168096    11174.645     1000 
 1400000   0.59066422   -1.7076699   0.88511034  -0.82255957   0.12108548    11716.645     1000 
 1402000   0.59768521   -1.6855712   0.89563128  -0.78993996   0.12112078    11674.559     1000 
 1404000   0.57859907    -1.659358    0.8670307  -0.79232728   0.13554089    11391.323     1000 
 1406000   0.55384897   -1.6961924   0.82994269  -0.86624971   0.12844735    11526.544     1000 
 1408000   0.61370171   -1.6452519   0.91963201  -0.72561987   0.12510669    11478.651     1000 
 1410000   0.62016163   -1.6128754   0.92931221   -0.6835632   0.13813704    11420.246     1000 
 1412000   0.61199946   -1.6522432    0.9170812  -0.73516201   0.13609516    11372.124     1000 
 1414000   0.57111136   -1.6168001   0.85581038  -0.76098974   0.12761298    11549.676     1000 
 1416000   0.59502468   -1.6610833   0.89164449  -0.76943882   0.13778938    11485.623     1000 
 1418000   0.60867347   -1.6126504   0.91209719  -0.70055324   0.14173784    11267.941     1000 
 1420000   0.62249281      -1.6143   0.93280548  -0.68149451   0.14069223    11254.578     1000 
 1422000   0.58772973   -1.7169048     0.880713  -0.83619179   0.12346467    11529.304     1000 
 1424000    0.5868679   -1.6527546   0.87942155   -0.7733331   0.12005167    11591.712     1000 
 1426000   0.59542716   -1.6955417    0.8922476  -0.80329415   0.14076537    11308.805     1000 
 1428000   0.58753262   -1.6756183   0.88041763  -0.79520068   0.13727697    11340.941     1000 
 1430000   0.59053197   -1.7193385   0.88491216  -0.83442633   0.13665853    11495.703     1000 
 1432000   0.58159085   -1.7055069   0.87151388  -0.83399305   0.12373537    11412.687     1000 
 1434000   0.58272996   -1.6464752   0.87322085  -0.77325438   0.12935964    11367.955     1000 
 1436000   0.58634376    -1.645486   0.87863612  -0.76684989   0.12817655    11442.773     1000 
 1438000   0.60530497   -1.6824528   0.90704949  -0.77540329   0.13136627    11512.205     1000 
 1440000   0.60671225   -1.6973642   0.90915831   -0.7882059   0.13484429    11358.522     1000 
 1442000   0.59298934   -1.6829407   0.88859452  -0.79434621   0.12672031    11572.326     1000 
 1444000   0.60079951   -1.6087571   0.90029807  -0.70845904   0.12744661    11471.664     1000 
 1446000   0.62818547   -1.7016093   0.94133593  -0.76027333   0.11938257    11573.974     1000 
 1448000   0.58852204    -1.664699   0.88190027  -0.78279873   0.12844986    11448.794     1000 
 1450000   0.63045052   -1.7000606   0.94473011  -0.75533046   0.14651547    11413.884     1000 
 1452000   0.59719998    -1.630643   0.89490417  -0.73573886   0.12256402    11616.016     1000 
 1454000   0.58925594   -1.7386892   0.88300002  -0.85568915   0.13056359    11681.259     1000 
 1456000   0.60062578   -1.7046059   0.90003773  -0.80456813   0.13155976    11545.077     1000 
 1458000   0.62619577   -1.7202617   0.93835437   -0.7819073   0.12938494    11610.623     1000 
 1460000   0.63001448   -1.6932835    0.9440767  -0.74920681   0.12806302    11542.123     1000 
 1462000   0.57756254   -1.6375922   0.86547747  -0.77211477   0.12850119    11484.465     1000 
 1464000   0.59796219    -1.636738   0.89604634  -0.74069165   0.13112192    11328.919     1000 
 1466000   0.62265777   -1.6986088   0.93305266  -0.76555613   0.13407621    11487.874     1000 
 1468000   0.59979263   -1.6588471   0.89878926  -0.76005779   0.13516813    11415.866     1000 
 1470000   0.59485103   -1.6089165   0.89138426  -0.71753223   0.13323409    11460.068     1000 
 1472000   0.60198489   -1.7158787   0.90207436  -0.81380436   0.12673835    11488.483     1000 
 1474000   0.61262523   -1.6428653   0.91801891  -0.72484639   0.13540088    11342.246     1000 
 1476000   0.59539335   -1.6789969   0.89219694  -0.78679995   0.12559959    11508.687     1000 
 1478000   0.61681799   -1.6792342   0.92430176   -0.7549324   0.12453575    11711.479     1000 
 1480000   0.60535832   -1.6747351   0.90712945  -0.76760565   0.12424828    11505.338     1000 
 1482000   0.59654926   -1.6405499   0.89392907  -0.74662087   0.12804937    11591.396     1000 
 1484000   0.62072702   -1.6774753   0.93015945   -0.7473159   0.13855292    11543.172     1000 
 1486000   0.60710191   -1.6369487   0.90974221  -0.72720646   0.12722861    11431.929     1000 
 1488000   0.60841931   -1.6539706   0.91171634  -0.74225422   0.14434377    11315.541     1000 
 1490000    0.6067089   -1.7324977   0.90915329  -0.82334444   0.13325311    11511.813     1000 
 1492000   0.60716499   -1.6643064   0.90983674  -0.75446967   0.14407483    11572.021     1000 
 1494000   0.57863482   -1.6602609   0.86708428  -0.79317658   0.13711834    11444.788     1000 
 1496000      0.58558   -1.7092381   0.87749163  -0.83174643   0.12083077    11564.904     1000 
 1498000   0.60424201   -1.6820216   0.90545665  -0.77656493    0.1248828    11480.689     1000 
 1500000   0.59851225   -1.7101899    0.8968706  -0.81331926   0.12675627    11610.836     1000 
 1502000   0.59235027   -1.6470649   0.88763688  -0.75942798   0.12969546    11469.648     1000 
 1504000   0.59862615   -1.6923559   0.89704129  -0.79531465   0.13429085    11472.144     1000 
 1506000   0.59193438   -1.6795946   0.88701367  -0.79258094    0.1242923    11657.149     1000 
 1508000   0.60180327   -1.6802366    0.9018022  -0.77843437    0.1466571    11306.152     1000 
 1510000   0.59748545    -1.644495   0.89533194  -0.74916305   0.12531031    11428.827     1000 
 1512000   0.59977505   -1.6546303   0.89876292  -0.75586736   0.11901265    11411.272     1000 
 1514000   0.62194604   -1.6738857   0.93198613  -0.74189952   0.12490852    11514.873     1000 
 1516000   0.58679543   -1.6105969   0.87931295  -0.73128398   0.12051695    11521.689     1000 
 1518000   0.60788742   -1.6984362    0.9109193  -0.78751693   0.13147918    11524.012     1000 
 1520000   0.59802868   -1.6329617   0.89614597  -0.73681575   0.13093221    11429.808     1000 
 1522000   0.58420098   -1.6704294   0.87542517  -0.79500422   0.13353938    11403.002     1000 
 1524000   0.62422198   -1.6862916   0.93539663  -0.75089496    0.1396129    11460.348     1000 
 1526000   0.58383895   -1.6826568   0.87488266   -0.8077741   0.11930919    11757.174     1000 
 1528000   0.58281326   -1.6152409   0.87334566  -0.74189526   0.14067562    11393.224     1000 
 1530000   0.60705047   -1.6461431   0.90966513  -0.73647799   0.13441835    11352.555     1000 
 1532000   0.59312838    -1.644753   0.88880287   -0.7559501   0.12663264    11508.735     1000 
 1534000   0.60280664   -1.6411796   0.90330574  -0.73787384   0.12083746    11567.466     1000 
 1536000   0.58994101    -1.657016    0.8840266  -0.77298945   0.13057314     11620.24     1000 
 1538000   0.59511166   -1.6652541   0.89177482  -0.77347925   0.13725658    11532.918     1000 
 1540000   0.60405191   -1.6661258   0.90517179  -0.76095402   0.13512041    11305.983     1000 
 1542000   0.59191703   -1.6715997   0.88698767  -0.78461208   0.14371836    11344.911     1000 
 1544000   0.60697773   -1.6645469   0.90955613  -0.75499073   0.11605677    11795.519     1000 
 1546000   0.62029448   -1.6524447   0.92951128  -0.72293339   0.13625853    11493.035     1000 
 1548000   0.58498344   -1.6547843   0.87659769  -0.77818656   0.13244322    11398.726     1000 
 1550000    0.5933893   -1.6750927   0.88919386  -0.78589883   0.14099405    11421.942     1000 
 1552000   0.62640222   -1.6717558   0.93866372  -0.73309211   0.14481486    11275.336     1000 
 1554000    0.5843025   -1.6925798    0.8755773  -0.81700252   0.12980964    11452.907     1000 
 1556000   0.61647748   -1.6570009   0.92379151  -0.73320943   0.13153959    11521.724     1000 
 1558000   0.59164297   -1.6635167   0.88657699  -0.77693976   0.12525139    11646.542     1000 
 1560000   0.57070769    -1.654945   0.85520547  -0.79973949   0.12796522    11553.502     1000 
 1562000    0.5705169   -1.6801028   0.85491958  -0.82518322   0.11926612    11556.141     1000 
 1564000    0.6161681   -1.5983168   0.92332791  -0.67498894   0.13740127    11399.361     1000 
 1566000   0.62058852   -1.6916494    0.9299519  -0.76169752   0.14129697     11398.05     1000 
 1568000   0.61307603   -1.6780448   0.91869444  -0.75935035   0.13249086    11484.403     1000 
 1570000   0.59830524   -1.6621641    0.8965604  -0.76560372   0.12933138    11320.616     1000 
 1572000   0.62280637   -1.6906092   0.93327534  -0.75733389    0.1266029    11544.293     1000 
 1574000    0.5919151   -1.6398923   0.88698478  -0.75290757   0.12807484     11588.27     1000 
 1576000   0.59333944   -1.7492172   0.88911915  -0.86009809   0.13294076    11498.526     1000 
 1578000   0.59928165   -1.6877765   0.89802356   -0.7897529   0.13321178    11628.165     1000 
 1580000   0.61543245   -1.6700245   0.92222553  -0.74779893    0.1370765    11485.164     1000 
 1582000   0.63146807   -1.6513252   0.94625491  -0.70507026   0.13250695    11445.219     1000 
 1584000   0.60443965    -1.701176   0.90575282  -0.79542314   0.13243116      11449.4     1000 
 1586000   0.60012947   -1.6748872   0.89929401  -0.77559321   0.13558886     11557.02     1000 
 1588000   0.60963238   -1.6421937   0.91353411  -0.72865958   0.12232624    11532.258     1000 
 1590000   0.57421113   -1.6256361   0.86045538  -0.76518072    0.1306011    11438.407     1000 
 1592000   0.57732675   -1.6866649   0.86512414  -0.82154077   0.12637497    11676.861     1000 
 1594000   0.59434867   -1.7082524   0.89063148  -0.81762094   0.12923435    11453.967     1000 
 1596000   0.60295976   -1.6756272    0.9035352    -0.772092   0.14408421    11288.958     1000 
[...]
 2612000    0.5902555   -1.6954544   0.88449787  -0.81095658   0.11024191    11589.542     1000 
 2614000   0.58735863   -1.6582991   0.88015691  -0.77814219   0.12909227    11335.102     1000 
 2616000   0.61102314   -1.6860384   0.91561818  -0.77042019   0.13595051    11492.706     1000 
 2618000   0.59525521   -1.7509494   0.89198993  -0.85895944   0.11551656    11599.884     1000 
 2620000   0.60395607   -1.7059357   0.90502817  -0.80090751   0.13016804    11463.649     1000 
 2622000   0.59163496   -1.6686634   0.88656499  -0.78209843    0.1402612    11468.199     1000 
 2624000   0.58887318   -1.6222297   0.88242646  -0.73980323    0.1379266    11386.292     1000 
 2626000   0.59148291   -1.6848876   0.88633713  -0.79855043   0.13639955    11496.119     1000 
 2628000   0.60509311   -1.7087763   0.90673202   -0.8020443   0.12338468    11589.903     1000 
 2630000   0.57602655    -1.666226   0.86317578  -0.80305017   0.11866018    11598.898     1000 
 2632000   0.62335731   -1.7043617   0.93410093  -0.77026074   0.12307454    11610.974     1000 
 2634000   0.60506862   -1.7110312   0.90669533  -0.80433587   0.12225817    11575.557     1000 
 2636000   0.61139457   -1.6236926   0.91617477  -0.70751782   0.13195054    11353.981     1000 
 2638000   0.60658233   -1.6060594   0.90896363  -0.69709581   0.14093818    11252.302     1000 
 2640000   0.62039196   -1.7065175   0.92965734  -0.77686015   0.13847794     11505.06     1000 
 2642000   0.59777082   -1.7127328   0.89575957  -0.81697319   0.14069384    11550.886     1000 
 2644000   0.58616082   -1.6718874   0.87836198  -0.79352542   0.13346275    11497.288     1000 
 2646000    0.5716195   -1.6376565   0.85657183  -0.78108464    0.1108131    11598.923     1000 
 2648000   0.59099324   -1.6743969   0.88560336  -0.78879351   0.13154662     11539.37     1000 
 2650000   0.58509298   -1.7068067   0.87676183  -0.83004486   0.12719736    11588.182     1000 
 2652000   0.59595821   -1.6430095   0.89304337  -0.74996613   0.13582047     11481.44     1000 
 2654000   0.62341148   -1.6465344   0.93418211  -0.71235231   0.13741034    11340.118     1000 
 2656000   0.63111775   -1.6097257   0.94572995  -0.66399577   0.11933783    11585.542     1000 
 2658000   0.64247627   -1.6481409    0.9627507   -0.6853902   0.13560826    11641.587     1000 
 2660000   0.59077544   -1.6798037     0.885277  -0.79452674   0.12214073    11610.837     1000 
 2662000   0.61383138   -1.7113168   0.91982632  -0.79149052   0.12724813    11617.811     1000 
 2664000   0.62619505   -1.7132294   0.93835328  -0.77487608   0.13492116    11365.729     1000 
 2666000   0.58753331   -1.6407927   0.88041866  -0.76037404   0.13010515    11516.547     1000 
 2668000   0.58871924   -1.6740911   0.88219579  -0.79189535   0.11576062    11637.714     1000 
 2670000     0.617498   -1.6573211   0.92532075  -0.73200033   0.14098927    11419.379     1000 
 2672000   0.60381024   -1.6679671   0.90480964  -0.76315748    0.1279791    11431.082     1000 
 2674000   0.58708401   -1.6963801   0.87974539  -0.81663475   0.12381719    11621.242     1000 
 2676000   0.58523115   -1.7084594   0.87696888  -0.83149049   0.11696822    11670.041     1000 
 2678000   0.58313593   -1.6644148   0.87382919  -0.79058562   0.12768461    11488.937     1000 
 2680000   0.58671961   -1.6849255   0.87919933  -0.80572621    0.1410059    11333.919     1000 
 2682000   0.61416592    -1.687961   0.92032763  -0.76763335   0.13047785    11644.434     1000 
 2684000   0.61288647   -1.6834183   0.91841037  -0.76500797   0.12916053    11438.208     1000 
 2686000   0.59891474   -1.6463831   0.89747374  -0.74890934   0.13418275    11475.306     1000 
 2688000   0.59478765    -1.694445    0.8912893  -0.80315573   0.12373331    11648.157     1000 
 2690000   0.60550309   -1.6568651   0.90734639  -0.74951869   0.13833296    11312.827     1000 
 2692000   0.57993114   -1.6962079   0.86902682  -0.82718106   0.12611752    11499.698     1000 
 2694000   0.59723849   -1.6591235   0.89496188  -0.76416165   0.13172887    11463.973     1000 
 2696000      0.61692   -1.6705247   0.92445463  -0.74607008   0.12920629    11467.153     1000 
 2698000   0.61087449     -1.66013   0.91539542  -0.74473455   0.11800377    11702.882     1000 
 2700000   0.59891964   -1.6676976   0.89748108  -0.77021649   0.12367833    11623.107     1000 
 2702000   0.58804483   -1.6776508   0.88118517  -0.79646563   0.11535876    11670.295     1000 
 2704000   0.63212847   -1.6547001   0.94724451  -0.70745557   0.12948844    11427.207     1000 
 2706000   0.58063308   -1.7093417   0.87007867    -0.839263   0.11369863    11776.509     1000 
 2708000   0.59928019   -1.6080404   0.89802137  -0.71001903   0.11966672    11594.352     1000 
 2710000   0.58102171   -1.6841696   0.87066103  -0.81350857   0.12935977    11504.449     1000 
 2712000   0.59745778   -1.6656917   0.89529048  -0.77040122   0.12962936    11547.632     1000 
 2714000   0.58400822   -1.7053461   0.87513631  -0.83020979   0.12450744    11563.056     1000 
 2716000   0.58629878   -1.6988194   0.87856872  -0.82025072    0.1291004    11616.808     1000 
 2718000   0.58278236   -1.6696022   0.87329937  -0.79630285   0.13641699     11480.16     1000 
 2720000   0.62630546   -1.6780103   0.93851873  -0.73949159   0.14109596    11427.454     1000 
 2722000   0.58040669   -1.6517974   0.86973943  -0.78205802   0.12866977    11414.056     1000 
 2724000   0.60366754   -1.6736553   0.90459581  -0.76905951   0.12716588    11561.986     1000 
 2726000   0.59875794   -1.6206298   0.89723877  -0.72339101    0.1422192    11326.173     1000 
 2728000   0.59529264   -1.6717656   0.89204602  -0.77971954   0.12934815    11630.821     1000 
 2730000    0.5959585   -1.6403425   0.89304382  -0.74729871   0.14058129    11330.517     1000 
 2732000   0.57739616   -1.6439267   0.86522815  -0.77869851   0.14042773        11385     1000 
 2734000   0.59113087   -1.6186559   0.88580961  -0.73284633   0.14571588    11246.711     1000 
 2736000    0.5955447    -1.689133   0.89242374  -0.79670931   0.14168481    11398.401     1000 
 2738000   0.59702785   -1.7205566   0.89464623  -0.82591036   0.13917473    11402.214     1000 
 2740000   0.61811046    -1.692528   0.92623853  -0.76628944   0.12263704    11570.402     1000 
 2742000   0.57583518   -1.6782445   0.86288901  -0.81535544   0.12688618    11537.312     1000 
 2744000   0.62442928   -1.6409705   0.93570728  -0.70526319    0.1304494    11567.195     1000 
 2746000   0.59815791   -1.6876509   0.89633962  -0.79131126    0.1271944    11544.275     1000 
 2748000   0.60939833   -1.6945189   0.91318339  -0.78133546   0.11978155    11581.099     1000 
 2750000   0.62507098   -1.6884549   0.93666886  -0.75178607   0.12250845    11518.655     1000 
 2752000   0.61040104   -1.6865275   0.91468595   -0.7718415   0.12487297    11528.888     1000 
 2754000   0.60694064   -1.6536726   0.90950054  -0.74417208   0.13169241    11414.308     1000 
 2756000   0.60875639   -1.6858051   0.91222146  -0.77358364   0.12196075    11568.773     1000 
 2758000   0.60896586   -1.6410219   0.91253533  -0.72848653   0.12600969    11487.077     1000 
 2760000    0.5857351   -1.6590607   0.87772404  -0.78133668   0.13085645    11295.162     1000 
 2762000   0.59700562   -1.6594772   0.89461292  -0.76486429   0.12574912    11592.761     1000 
 2764000   0.58218833   -1.6707659   0.87240921  -0.79835667   0.14020732    11372.319     1000 
 2766000   0.57472391   -1.6640009   0.86122378  -0.80277712   0.12200752     11650.85     1000 
 2768000   0.59201754   -1.6639455   0.88713828   -0.7768072   0.13125894    11533.719     1000 
 2770000   0.64390322   -1.6884088   0.96488898  -0.72351984   0.14963117    11329.597     1000 
 2772000   0.59995971    -1.688737   0.89903962  -0.78969735   0.13168595    11512.559     1000 
 2774000    0.6056391   -1.6496216   0.90755019  -0.74207139   0.12005869    11630.249     1000 
 2776000   0.64247212    -1.702168   0.96274447  -0.73942356   0.13188146    11566.317     1000 
 2778000   0.59945783   -1.7056287   0.89828756  -0.80734115   0.13462671    11479.721     1000 
 2780000   0.58865724   -1.6928947   0.88210288  -0.81079183   0.13223693    11521.964     1000 
 2782000   0.58399061    -1.695154   0.87510992  -0.82004411   0.12581367     11528.92     1000 
 2784000   0.59599331   -1.6587055   0.89309597  -0.76560951   0.12065992    11568.322     1000 
 2786000   0.60777336    -1.673436   0.91074838   -0.7626876   0.13941083    11421.845     1000 
 2788000    0.5801286   -1.7069291   0.86932271   -0.8376064    0.1321372    11673.314     1000 
 2790000    0.6319496   -1.6616465   0.94697648  -0.71467001   0.12577656    11598.741     1000 
 2792000   0.62325507   -1.6345389   0.93394772  -0.70059113   0.13104251    11362.922     1000 
 2794000   0.58751445   -1.6576158    0.8803904   -0.7772254   0.12342648    11561.988     1000 
 2796000   0.57762851   -1.5995721   0.86557632  -0.73399574   0.13753859    11212.598     1000 
 2798000   0.58391802   -1.6674394   0.87500116  -0.79243826    0.1184532    11641.416     1000 
 2800000    0.6311371   -1.6929332   0.94575894  -0.74717428   0.12922196    11516.874     1000 
 2802000   0.60406718   -1.6523496   0.90519467  -0.74715489   0.12236073    11681.403     1000 
 2804000   0.57588345   -1.6321689   0.86296136  -0.76920755   0.13122525    11456.923     1000 
 2806000   0.59810683   -1.6333226   0.89626309  -0.73705951   0.13883129    11389.812     1000 
 2808000   0.60292208   -1.7450718   0.90347873  -0.84159312   0.13120978    11644.168     1000 
 2810000   0.60127593   -1.6609726   0.90101199  -0.75996061   0.11438545    11651.053     1000 
 2812000   0.62349641   -1.6762518   0.93430936  -0.74194241   0.13705362    11338.748     1000 
 2814000   0.58404619   -1.6703991   0.87519322  -0.79520591   0.11471997    11706.782     1000 
 2816000   0.59272233   -1.6542622   0.88819441  -0.76606782   0.12931136     11433.91     1000 
 2818000   0.57394466   -1.6685118   0.86005607  -0.80845568   0.11839339      11433.2     1000 
 2820000   0.61129852   -1.6521268   0.91603083  -0.73609594   0.13416524    11363.639     1000 
 2822000    0.5895112   -1.5832313   0.88338253  -0.69984879   0.13597136    11359.004     1000 
 2824000   0.60617374   -1.6217776   0.90835135  -0.71342624   0.14626513     11369.26     1000 
 2826000   0.61747037   -1.6787043   0.92527935  -0.75342493   0.13814133    11387.118     1000 
 2828000   0.61574889   -1.6976102   0.92269972  -0.77491049   0.12947745     11577.27     1000 
 2830000   0.61811219   -1.6879033   0.92624111  -0.76166221   0.12287429    11726.233     1000 
 2832000    0.5725563   -1.7267374   0.85797561  -0.86876179   0.11797056    11559.159     1000 
 2834000   0.62096103   -1.6674187    0.9305101  -0.73690855   0.12620378    11496.192     1000 
 2836000   0.59400943   -1.6956652   0.89012313  -0.80554208   0.13977668     11299.09     1000 
 2838000   0.59483849   -1.7049794   0.89136548  -0.81361388   0.12718835    11430.091     1000 
 2840000   0.59693618   -1.6390321   0.89450887  -0.74452328   0.12822487    11437.549     1000 
 2842000   0.60152183   -1.6633333   0.90138047  -0.76195284   0.11970771     11537.52     1000 
 2844000   0.61621107    -1.678306   0.92339228  -0.75491367    0.1324409    11531.292     1000 
 2846000   0.59950695   -1.7036152   0.89836116  -0.80525405   0.12002394    11687.146     1000 
 2848000   0.60620999   -1.6976803   0.90840567  -0.78927459    0.1274621    11704.352     1000 
 2850000   0.59070276   -1.6275091   0.88516809    -0.742341   0.12712268    11471.031     1000 
 2852000    0.5956556   -1.6435388   0.89258991  -0.75094888   0.12369014    11559.701     1000 
 2854000   0.61900253   -1.6306591   0.92757529  -0.70308385   0.14805744    11305.703     1000 
 2856000   0.60277603   -1.6098657   0.90325989  -0.70660579   0.12181973    11442.785     1000 
 2858000   0.58967162   -1.6672276   0.88362292   -0.7836047   0.12634512    11606.829     1000 
 2860000   0.60952854   -1.6926506   0.91337852  -0.77927204    0.1211127    11591.022     1000 
 2862000   0.59575031   -1.6706239   0.89273184  -0.77789203   0.13316313    11433.805     1000 
 2864000   0.60382626   -1.6559678   0.90483365  -0.75113415    0.1328802    11453.612     1000 
 2866000    0.5913635   -1.6663315   0.88615821  -0.78017334   0.13163778    11448.315     1000 
 2868000    0.5999861   -1.6698266   0.89907916  -0.77074739   0.12608298    11555.317     1000 
 2870000   0.60315916   -1.6562297   0.90383399   -0.7523957   0.13552511    11524.644     1000 
 2872000   0.61070628   -1.5956784   0.91514336    -0.680535   0.14792642    11229.487     1000 
 2874000   0.60495019   -1.6580094   0.90651786  -0.75149151   0.13683106    11440.484     1000 
 2876000   0.58840715   -1.6573475   0.88172811  -0.77561944   0.14841141    11179.859     1000 
 2878000   0.57508818   -1.6485885   0.86176964  -0.78681889   0.12954343    11559.755     1000 
 2880000   0.58775366   -1.6599011   0.88074885  -0.77915229   0.12968871    11427.481     1000 
 2882000   0.59840378   -1.7211869   0.89670806  -0.82447883    0.1289671    11579.309     1000 
 2884000   0.58402008   -1.6097795   0.87515409   -0.7346254    0.1243758    11468.445     1000 
 2886000    0.6164903   -1.6942609   0.92381071  -0.77045023   0.14120479    11565.899     1000 
 2888000   0.60314464   -1.6910456   0.90381224  -0.78723332   0.13934373    11525.079     1000 
 2890000   0.59852587   -1.6482197   0.89689102  -0.75132865   0.12687669    11583.404     1000 
 2892000   0.60391674   -1.6529913   0.90496924  -0.74802206   0.11817458    11577.113     1000 
 2894000   0.56966368   -1.7095831   0.85364102  -0.85594206   0.11959782    11644.263     1000 
 2896000   0.61059232   -1.7073478   0.91497259  -0.79237519   0.13492888    11523.607     1000 
 2898000   0.58110367   -1.6709085   0.87078386  -0.80012469   0.12719108    11587.785     1000 
 2900000   0.59228069   -1.6641988   0.88753261  -0.77666619   0.13301923    11471.423     1000 
 2902000   0.62860168   -1.6370065   0.94195961  -0.69504685   0.13254893    11501.942     1000 
 2904000    0.5722817   -1.6901037   0.85756413  -0.83253961   0.13341616    11450.553     1000 
 2906000   0.59827838   -1.7263155   0.89652016  -0.82979535   0.12716465    11489.772     1000 
 2908000   0.57485171    -1.598994   0.86141529  -0.73757871   0.13010079    11526.559     1000 
 2910000   0.61209794   -1.7013029   0.91722877  -0.78407418   0.13330677    11489.728     1000 
 2912000   0.62802806   -1.7261151   0.94110005  -0.78501504   0.11396292    11850.121     1000 
 2914000    0.6073694   -1.6515317   0.91014305  -0.74138865   0.11849138    11595.392     1000 
 2916000   0.60264041   -1.7067728   0.90305665  -0.80371617   0.15208918    11348.898     1000 
 2918000   0.60625806   -1.6408543    0.9084777  -0.73237656   0.12964624    11456.145     1000 
 2920000   0.60680466   -1.6963989   0.90929678  -0.78710214   0.13187871    11566.117     1000 
 2922000   0.62052823   -1.6817542   0.92986155  -0.75189267   0.12361263    11713.781     1000 
 2924000   0.61696862   -1.6702179   0.92452748  -0.74569043   0.12390427    11423.345     1000 
 2926000   0.62785298   -1.6299416   0.94083769   -0.6891039   0.12138447    11751.912     1000 
 2928000   0.60389281   -1.7865556   0.90493338  -0.88162221   0.13014382    11563.695     1000 
 2930000   0.60219009   -1.6395777   0.90238185  -0.73719587   0.12977092    11468.018     1000 
 2932000   0.56813953   -1.6742754   0.85135709  -0.82291829    0.1307911    11437.986     1000 
 2934000   0.62212348   -1.6240786   0.93225204  -0.69182653   0.13255062    11387.146     1000 
 2936000   0.58334126   -1.7083656   0.87413688  -0.83422875   0.12647203    11624.735     1000 
 2938000   0.60485243   -1.6877056   0.90637137  -0.78133428   0.11859128     11668.27     1000 
 2940000   0.59436724   -1.6468739    0.8906593  -0.75621456   0.13824992    11353.226     1000 
 2942000   0.56953712   -1.6762942   0.85345138  -0.82284287   0.12298715     11653.67     1000 
 2944000   0.60249352   -1.6470298   0.90283653  -0.74419325   0.13626469    11350.876     1000 
 2946000   0.59551618    -1.699632     0.892381  -0.80725095   0.13245523    11573.973     1000 
 2948000   0.59445046   -1.6594804   0.89078402  -0.76869641   0.13227618     11527.39     1000 
 2950000   0.61373378   -1.6473833   0.91968008  -0.72770324   0.12787444    11604.941     1000 
 2952000   0.59503399   -1.6569646   0.89165843  -0.76530618   0.12113936    11517.909     1000 
 2954000   0.60456659   -1.6630684   0.90594304   -0.7571254   0.12691384    11483.045     1000 
 2956000   0.60528518   -1.6713359   0.90701984  -0.76431606   0.12144469    11463.046     1000 
 2958000   0.60693282   -1.7210738   0.90948883  -0.81158499   0.12396982    11675.364     1000 
 2960000    0.5873847   -1.6848307   0.88019597  -0.80463473   0.12865194    11497.651     1000 
 2962000   0.59447603   -1.6117258   0.89082233  -0.72090345   0.12115208    11441.549     1000 
 2964000   0.59708086   -1.7084098   0.89472566  -0.81368414   0.12712344    11693.595     1000 
 2966000   0.59947691   -1.6938055   0.89831615  -0.79548932   0.11817098    11570.121     1000 
 2968000   0.61293683   -1.6502103   0.91848584  -0.73172445   0.12650869    11536.687     1000 
 2970000     0.597952    -1.666068   0.89603108   -0.7700369    0.1192256    11514.403     1000 
 2972000   0.61314752   -1.6340551   0.91880156  -0.71525357   0.13689882    11407.739     1000 
 2974000   0.64379386   -1.6450487   0.96472509  -0.68032357    0.1437422    11483.719     1000 
 2976000   0.59382504   -1.6198765   0.88984683   -0.7300297    0.1300303     11430.68     1000 
 2978000    0.6028275    -1.631663   0.90333701  -0.72832596   0.13286215    11470.975     1000 
 2980000   0.61344252   -1.6199607   0.91924362  -0.70071708   0.13146439    11460.088     1000 
 2982000   0.60050565   -1.6633806   0.89985771  -0.76352292   0.13386729    11542.548     1000 
 2984000   0.59141922   -1.6961171    0.8862417  -0.80987542   0.13274814    11448.901     1000 
 2986000   0.59707108   -1.6542678   0.89471101  -0.75955681   0.13697261     11431.84     1000 
 2988000     0.591451   -1.6461606   0.88628932  -0.75987128   0.13313504    11394.686     1000 
 2990000     0.613663   -1.6163998   0.91957401  -0.69682581   0.13856243    11505.827     1000 
 2992000   0.60339566   -1.6899388   0.90418839  -0.78575044   0.12662551    11498.495     1000 
 2994000   0.56562256   -1.6630358    0.8475854  -0.81545044   0.13685867    11389.195     1000 
 2996000   0.60706987   -1.6953286    0.9096942  -0.78563443   0.12386601    11643.346     1000 
 2998000   0.58511182   -1.6728553   0.87679006  -0.79606525   0.12707254    11587.994     1000 
 3000000   0.57972278   -1.6393478   0.86871459  -0.77063324    0.1391196    11428.046     1000 
Loop time of 1098.8 on 4 procs for 3000000 steps with 1000 atoms

Performance: 1179464.918 tau/day, 2730.243 timesteps/s
95.3% CPU use with 4 MPI tasks x no OpenMP threads

MPI task timing breakdown:
Section |  min time  |  avg time  |  max time  |%varavg| %total
---------------------------------------------------------------
Pair    | 802.9      | 808.66     | 813.87     |  14.7 | 73.59
Neigh   | 76.308     | 76.709     | 77.129     |   3.5 |  6.98
Comm    | 156.6      | 162.03     | 167.92     |  33.2 | 14.75
Output  | 0.023995   | 0.026855   | 0.034952   |   2.9 |  0.00
Modify  | 44.468     | 44.614     | 44.856     |   2.4 |  4.06
Other   |            | 6.766      |            |       |  0.62

Nlocal:    250 ave 251 max 248 min
Histogram: 1 0 0 0 0 0 1 0 0 2
Nghost:    1713.75 ave 1729 max 1697 min
Histogram: 1 0 0 0 0 2 0 0 0 1
Neighs:    14349.2 ave 14564 max 14107 min
Histogram: 1 0 0 0 1 0 0 1 0 1

Total # of neighbors = 57397
Ave neighs/atom = 57.397
Neighbor list builds = 150000
Dangerous builds not checked

Total wall time: 0:18:18
