LAMMPS (3 Mar 2020)
# ----------------------- Inicialização -----------------------

units			lj
atom_style 		atomic
dimension 		3
boundary 		p p p

# -------------------- Criação dos Átomos ---------------------

read_data 		topologia.txt
  orthogonal box = (0 0 0) to (21.54 21.54 21.54)
  1 by 2 by 2 MPI processor grid
  reading atoms ...
  1000 atoms
  read_data CPU = 0.00244964 secs

velocity 		all create ${temp} 87287 rot yes dist gaussian
velocity 		all create 0.42 87287 rot yes dist gaussian

# ------------------ Interação Interatômica -------------------

pair_style		table linear 1300
pair_coeff		1 1 force.table AA 6.5
WARNING: 2 of 1300 force values in table are inconsistent with -dE/dr.
  Should only be flagged at inflection points (src/pair_table.cpp:483)
pair_coeff		1 2 force.table AB 6.5
WARNING: 1 of 1300 force values in table are inconsistent with -dE/dr.
  Should only be flagged at inflection points (src/pair_table.cpp:483)
pair_coeff		2 2 force.table BB 6.5
pair_write		1 1 1600 r 0.008 6.5 table.check AA
Neighbor list info ...
  update every 1 steps, delay 10 steps, check yes
  max neighbors/atom: 2000, page size: 100000
  master list distance cutoff = 6.8
  ghost atom cutoff = 6.8
  binsize = 3.4, bins = 7 7 7
  1 neighbor lists, perpetual/occasional/extra = 1 0 0
  (1) pair table, perpetual
      attributes: half, newton on
      pair build: half/bin/atomonly/newton
      stencil: half/bin/3d/newton
      bin: standard
pair_write		1 2 1600 r 0.008 6.5 table.check AB
pair_write		2 2 1600 r 0.008 6.5 table.check BB

neighbor 		0.3 bin
neigh_modify	every 20 delay 0 check no

# ------------------------- Ensemble --------------------------------------

fix 1			all npt temp ${temp} ${temp} 0.5 iso ${press} ${press} 5
fix 1			all npt temp 0.42 ${temp} 0.5 iso ${press} ${press} 5
fix 1			all npt temp 0.42 0.42 0.5 iso ${press} ${press} 5
fix 1			all npt temp 0.42 0.42 0.5 iso 0.13 ${press} 5
fix 1			all npt temp 0.42 0.42 0.5 iso 0.13 0.13 5

# ---------------------- Função de Distribuição Radial -----------------------

#compute RDF 	all rdf 2000 1 1 1 2 2 2
#fix 2 			all ave/time 1 2000 2000 c_RDF[*] file rdf.data mode vector

# ------------------------- Execução ---------------------------

timestep 		0.005
thermo_style	custom step temp pe ke etotal press vol atoms
thermo			2000
run				3000000
Per MPI rank memory allocation (min/avg/max) = 2.675 | 2.675 | 2.675 Mbytes
Step Temp PotEng KinEng TotEng Press Volume Atoms 
       0         0.42   -0.9940566      0.62937   -0.3646866   0.11038243    9993.9483     1000 
    2000   0.42712543   -2.1581807   0.64004746   -1.5181332   0.13971739    11256.977     1000 
    4000   0.42513965   -2.1214511   0.63707176   -1.4843794   0.13022665    11341.948     1000 
    6000   0.42567461   -2.1478722    0.6378734   -1.5099988   0.13881063    11300.184     1000 
    8000   0.41520924   -2.1678978   0.62219105   -1.5457068    0.1164568    11526.712     1000 
   10000    0.4091226   -2.1469125   0.61307021   -1.5338423   0.13248174    11364.889     1000 
   12000   0.42780055   -2.1648613   0.64105913   -1.5238021    0.1436658    11285.465     1000 
   14000   0.41726194   -2.1484674   0.62526702   -1.5232003   0.13170501    11301.889     1000 
   16000   0.42245262   -2.1767942   0.63304525    -1.543749    0.1356829    11322.896     1000 
   18000   0.39868354   -2.1870357   0.59742728   -1.5896085   0.11987543    11492.868     1000 
   20000   0.42829932   -2.1277092   0.64180653   -1.4859027   0.13965664     11321.85     1000 
   22000    0.4222678   -2.1563369    0.6327683   -1.5235686   0.12673425    11287.376     1000 
   24000   0.42193464   -2.1474497   0.63226906   -1.5151807   0.14108899    11330.979     1000 
   26000   0.42910296   -2.1417709   0.64301078   -1.4987601   0.13206157    11386.476     1000 
   28000   0.42917336   -2.1667549   0.64311628   -1.5236386   0.13032462     11314.65     1000 
   30000   0.42315632   -2.1442606   0.63409975   -1.5101608   0.13802413     11357.06     1000 
   32000   0.40849596    -2.225239   0.61213119   -1.6131079   0.13740176     11341.91     1000 
   34000   0.42601968   -2.1431761   0.63839048   -1.5047856   0.13231589    11303.788     1000 
   36000   0.42393567   -2.1553221    0.6352676   -1.5200545   0.12305396    11440.751     1000 
   38000    0.4222811    -2.143549   0.63278823   -1.5107608   0.12707449    11458.815     1000 
   40000   0.40902618   -2.1642969   0.61292573   -1.5513711   0.13402319    11363.522     1000 
   42000   0.42607086   -2.1698873   0.63846719   -1.5314201   0.13863152    11367.098     1000 
   44000   0.41629147   -2.1604033   0.62381277   -1.5365905   0.12935732    11392.409     1000 
   46000   0.41897254   -2.1838907   0.62783035   -1.5560604   0.12813541    11351.395     1000 
   48000   0.42538047   -2.1732285   0.63743263   -1.5357958   0.12039908    11436.573     1000 
   50000   0.41525881   -2.1022476   0.62226533   -1.4799823   0.12968824    11330.698     1000 
   52000   0.43380061   -2.1685704   0.65005021   -1.5185202   0.12879934    11355.159     1000 
   54000   0.41845219   -2.1725474   0.62705061   -1.5454968    0.1262942    11305.401     1000 
   56000   0.41686775   -2.1980661   0.62467633   -1.5733897   0.13421884    11391.363     1000 
   58000   0.42471426   -2.1368549   0.63643432   -1.5004206   0.13095539    11416.998     1000 
   60000   0.43171006   -2.1713587   0.64691753   -1.5244411   0.12292099    11395.519     1000 
   62000   0.42177788   -2.1635079   0.63203415   -1.5314738   0.12929183    11349.909     1000 
   64000   0.40761822    -2.206718   0.61081591    -1.595902   0.12437793    11435.547     1000 
   66000   0.43695498   -2.1560385   0.65477704   -1.5012615   0.12395994    11433.581     1000 
   68000   0.40447254   -2.1739191    0.6061021   -1.5678171   0.12754956    11307.508     1000 
   70000   0.40781858   -2.1574446   0.61111615   -1.5463284   0.13423373    11283.984     1000 
   72000   0.40738558   -2.1776354   0.61046729   -1.5671681   0.11104972    11426.157     1000 
   74000   0.40455265     -2.20714   0.60622215   -1.6009178   0.12344013    11376.257     1000 
   76000   0.44038495   -2.1767381   0.65991684   -1.5168213     0.126331    11415.471     1000 
   78000   0.42809665   -2.1702443   0.64150282   -1.5287415   0.13601247    11434.703     1000 
   80000   0.40791558   -2.1695116   0.61126149   -1.5582501   0.13296974    11301.987     1000 
   82000   0.41042221   -2.2042846   0.61501768   -1.5892669   0.12657733    11377.851     1000 
   84000   0.40776209   -2.1696173   0.61103149   -1.5585858   0.13144492    11382.102     1000 
   86000   0.42685378   -2.1590211   0.63964039   -1.5193807    0.1260218    11473.848     1000 
   88000   0.43267528   -2.1912249    0.6483639    -1.542861   0.12140198    11414.728     1000 
   90000   0.41527418   -2.1574612   0.62228836   -1.5351728   0.12338252     11478.63     1000 
   92000   0.40078522   -2.1760829   0.60057665   -1.5755062   0.12887162    11387.288     1000 
   94000   0.42327539   -2.1778918   0.63427817   -1.5436136   0.13254865    11388.062     1000 
   96000   0.41535296   -2.1483764   0.62240642   -1.5259699   0.13781825    11304.847     1000 
   98000    0.4027498   -2.2013534   0.60352057   -1.5978328    0.1161386    11533.892     1000 
  100000   0.43008586   -2.1296832   0.64448366   -1.4851996   0.13027353    11388.716     1000 
  102000   0.42344017   -2.1291592   0.63452509   -1.4946341   0.13960774    11284.554     1000 
  104000   0.40951688   -2.1039886   0.61366105   -1.4903276   0.13717942    11178.538     1000 
  106000   0.40580217   -2.2050963   0.60809454   -1.5970018   0.12646879    11418.101     1000 
  108000   0.41034212   -2.1659937   0.61489766    -1.551096   0.13523005    11243.715     1000 
  110000   0.39488407   -2.1674736   0.59173378   -1.5757399   0.12540791    11354.226     1000 
  112000   0.41356569   -2.1736352   0.61972819    -1.553907   0.13626634     11410.58     1000 
  114000   0.43435715   -2.2032731    0.6508842   -1.5523889   0.12740068    11327.805     1000 
  116000   0.40756486    -2.204043   0.61073595   -1.5933071   0.13262695    11296.329     1000 
  118000    0.4137908   -2.1737799   0.62006551   -1.5537144   0.12225357     11401.24     1000 
  120000   0.42233257   -2.1621461   0.63286536   -1.5292807   0.13413874    11249.305     1000 
  122000   0.42990616   -2.1106294   0.64421438   -1.4664151    0.1399081    11195.077     1000 
  124000   0.41772981   -2.1553074   0.62596812   -1.5293393   0.14154283    11194.664     1000 
  126000   0.40999975   -2.1455775   0.61438463   -1.5311929   0.13218971    11318.305     1000 
  128000     0.410101   -2.1820361   0.61453634   -1.5674998   0.13738873    11348.901     1000 
  130000   0.42276382   -2.0968769   0.63351159   -1.4633653   0.13207957    11295.221     1000 
  132000   0.42330271   -2.2043677   0.63431911   -1.5700486   0.12837703    11392.309     1000 
  134000   0.43950145   -2.1467712   0.65859292   -1.4881783   0.13100875    11373.782     1000 
  136000    0.4260363   -2.1739178    0.6384154   -1.5355024   0.12091258    11318.058     1000 
  138000   0.43535935   -2.1428715   0.65238599   -1.4904855   0.13587491    11236.375     1000 
  140000   0.40885722   -2.1177535   0.61267254    -1.505081   0.12463652     11362.53     1000 
  142000   0.41164348   -2.1596979   0.61684775   -1.5428502   0.13539267    11386.607     1000 
  144000   0.42683391   -2.1582121   0.63961062   -1.5186014   0.14036609    11197.908     1000 
  146000   0.42289617   -2.1566059   0.63370991   -1.5228959   0.13706585     11282.12     1000 
  148000   0.42582826   -2.1789002   0.63810364   -1.5407965   0.12296461    11374.926     1000 
  150000   0.42598353   -2.2054679   0.63833631   -1.5671316   0.12169512    11468.238     1000 
  152000   0.40269251   -2.1641525   0.60343473   -1.5607177   0.13919392    11234.481     1000 
  154000   0.43235391   -2.1629799   0.64788233   -1.5150976   0.13363632    11237.767     1000 
  156000   0.41226449   -2.2199774   0.61777834    -1.602199   0.11494881    11446.237     1000 
  158000    0.4173504   -2.1411451   0.62539958   -1.5157455   0.13191416    11320.543     1000 
  160000   0.43108963   -2.1867596    0.6459878   -1.5407718   0.11829395    11486.872     1000 
  162000   0.39039648   -2.1489174   0.58500912   -1.5639082   0.12992843    11250.661     1000 
  164000   0.41403396   -2.1851842    0.6204299   -1.5647543   0.12432421    11434.225     1000 
  166000   0.42499303   -2.1725005   0.63685206   -1.5356484   0.12773819    11404.688     1000 
  168000   0.41128148   -2.1816272   0.61630529    -1.565322   0.13005959    11390.216     1000 
  170000   0.42116822   -2.1937529   0.63112058   -1.5626323   0.13376343    11366.361     1000 
  172000   0.40774329   -2.1168219   0.61100331   -1.5058186   0.12844578    11351.918     1000 
  174000   0.42145908   -2.1661007   0.63155644   -1.5345442   0.13923716    11360.737     1000 
  176000    0.4101995   -2.1477545   0.61468395   -1.5330706   0.13541303    11315.368     1000 
  178000   0.42925258   -2.2096279     0.643235   -1.5663929   0.12556836    11366.051     1000 
  180000    0.4153766   -2.1708242   0.62244184   -1.5483824   0.13349952    11317.776     1000 
  182000   0.43241105   -2.1752379   0.64796796     -1.52727   0.13863951    11286.387     1000 
  184000   0.42686199   -2.1446321   0.63965269   -1.5049794   0.11508425    11542.401     1000 
  186000   0.42281129   -2.0996239   0.63358273   -1.4660412   0.13419322    11305.439     1000 
  188000   0.42352988   -2.1659172   0.63465953   -1.5312577    0.1285549    11291.903     1000 
  190000   0.42601881   -2.1889062   0.63838919    -1.550517   0.13646433    11269.008     1000 
  192000     0.417767   -2.1753955   0.62602384   -1.5493717   0.13734929    11270.042     1000 
  194000   0.42813228   -2.2269398   0.64155623   -1.5853836   0.13906555    11294.992     1000 
  196000   0.43197472   -2.1727555   0.64731412   -1.5254414   0.13297334    11369.441     1000 
  198000    0.4215769   -2.1561376   0.63173298   -1.5244046   0.12169882    11439.854     1000 
  200000   0.42536293   -2.1178216   0.63740635   -1.4804153   0.12928992    11325.762     1000 
  202000   0.40930203   -2.1597342   0.61333909   -1.5463951    0.1404417    11348.859     1000 
  204000   0.42956298   -2.1724186   0.64370013   -1.5287185   0.13690757     11378.55     1000 
  206000   0.40999428   -2.1439709   0.61437643   -1.5295945   0.13061923    11362.435     1000 
  208000   0.41017454   -2.1717551   0.61464655   -1.5571085   0.12802378    11413.783     1000 
  210000   0.41853212   -2.1913424   0.62717038   -1.5641721   0.13798734    11353.648     1000 
  212000   0.42642041   -2.1232587   0.63899099   -1.4842677   0.15200894    11116.848     1000 
  214000   0.40532572   -2.2029073   0.60738059   -1.5955267   0.12574082    11432.474     1000 
  216000   0.40819948   -2.1723244   0.61168692   -1.5606375   0.11712016    11445.468     1000 
  218000   0.42261138   -2.1641249   0.63328315   -1.5308418   0.12598888    11488.539     1000 
  220000   0.41031746   -2.1799144   0.61486071   -1.5650537   0.14763759    11246.524     1000 
  222000   0.42816047   -2.1645875   0.64159847    -1.522989   0.14217374    11291.667     1000 
  224000   0.40847214    -2.134439    0.6120955   -1.5223435   0.13125335    11263.918     1000 
  226000   0.42209912   -2.1798336   0.63251553   -1.5473181   0.13145827    11345.232     1000 
  228000   0.41031552   -2.1830807    0.6148578   -1.5682229   0.12950194    11292.131     1000 
  230000   0.42846757   -2.2366907   0.64205865   -1.5946321   0.12955641    11409.757     1000 
  232000   0.41238709   -2.1527636   0.61796205   -1.5348016    0.1490079    11268.082     1000 
  234000   0.43636762   -2.1645091   0.65389688   -1.5106122   0.12620658    11490.414     1000 
  236000   0.43749394   -2.1818536   0.65558467   -1.5262689   0.13037486    11391.904     1000 
  238000    0.4334505   -2.1718008   0.64952557   -1.5222752   0.13390558    11352.654     1000 
  240000   0.43186448   -2.1445827   0.64714892   -1.4974338   0.13203267    11296.615     1000 
  242000   0.43488667   -2.1701878   0.65167768   -1.5185102   0.13412339    11436.622     1000 
  244000   0.41744955   -2.1868478   0.62554815   -1.5612997   0.12460547    11395.076     1000 
  246000   0.44435098   -2.1339323   0.66585995   -1.4680723   0.12703078    11351.298     1000 
  248000   0.42445002    -2.164962   0.63603835   -1.5289237   0.14233064    11346.735     1000 
  250000   0.40800909     -2.17664   0.61140161   -1.5652383   0.13446035    11320.729     1000 
  252000   0.41600349   -2.1983536   0.62338122   -1.5749724   0.12693896    11398.297     1000 
  254000   0.40817678   -2.1567485   0.61165291   -1.5450955   0.12432949    11364.867     1000 
  256000   0.41275223   -2.1325969   0.61850922   -1.5140877    0.1492272    11233.782     1000 
  258000   0.41170471   -2.1883277    0.6169395   -1.5713882   0.11899095    11446.878     1000 
  260000   0.43174764   -2.1286519   0.64697384   -1.4816781   0.13369343    11396.395     1000 
  262000   0.43232291   -2.1692222   0.64783588   -1.5213863   0.12763378    11436.736     1000 
  264000   0.40590286   -2.1736061   0.60824543   -1.5653607    0.1276344    11395.212     1000 
  266000   0.41631666   -2.1521893   0.62385052   -1.5283388   0.12743526    11394.468     1000 
  268000   0.43148615   -2.1730927     0.646582   -1.5265107   0.13397492    11404.571     1000 
  270000   0.41634583    -2.149311   0.62389423   -1.5254167   0.13570851    11252.766     1000 
  272000   0.43720164   -2.1451522   0.65514665   -1.4900056   0.13826504     11310.51     1000 
  274000   0.43550921   -2.1660762   0.65261055   -1.5134656   0.13838168    11335.094     1000 
  276000    0.4327298   -2.1665821   0.64844561   -1.5181365   0.13530483    11404.393     1000 
  278000   0.40234637   -2.1678542   0.60291604   -1.5649382   0.13634397    11274.783     1000 
  280000   0.41924503   -2.1702765   0.62823868   -1.5420379   0.13725324    11365.382     1000 
  282000   0.41666988   -2.1676564   0.62437981   -1.5432766   0.13002247    11346.985     1000 
  284000   0.43179859   -2.1460472   0.64705019    -1.498997   0.12377746    11329.831     1000 
  286000   0.41749722   -2.1774635   0.62561959    -1.551844   0.12387776    11382.739     1000 
  288000   0.43057474   -2.1736491   0.64521624   -1.5284329   0.13614421    11379.833     1000 
  290000   0.40997687   -2.1846893   0.61435034   -1.5703389   0.13091503    11395.208     1000 
  292000   0.42882367   -2.1999932   0.64259227   -1.5574009   0.12721736    11509.646     1000 
  294000   0.40594941   -2.1397046   0.60831519   -1.5313894   0.12249448    11455.005     1000 
  296000    0.4025722   -2.1555424   0.60325444    -1.552288   0.12008289    11501.393     1000 
  298000   0.43811904   -2.1730987   0.65652139   -1.5165773   0.12785825    11315.999     1000 
  300000   0.42376315   -2.1847651   0.63500908    -1.549756   0.11786564    11426.266     1000 
  302000   0.41330721   -2.1590062   0.61934085   -1.5396654   0.12111392    11437.066     1000 
  304000   0.43071691   -2.1216646    0.6454293   -1.4762353   0.13466835    11291.904     1000 
  306000   0.41216011   -2.1853638   0.61762192   -1.5677419   0.12985961    11392.652     1000 
  308000   0.41162473   -2.1708862   0.61681966   -1.5540665   0.11667731    11450.631     1000 
  310000   0.44520354   -2.1527998    0.6671375   -1.4856623   0.13098921    11381.413     1000 
  312000   0.43044905   -2.1090677    0.6450279   -1.4640398   0.12963755    11331.733     1000 
  314000   0.41373517   -2.1545111   0.61998216   -1.5345289    0.1238213    11505.327     1000 
  316000   0.41394193   -2.1742998   0.62029198   -1.5540079   0.11318528     11474.92     1000 
  318000   0.41585158   -2.1461076   0.62315359   -1.5229541   0.14528022    11185.821     1000 
  320000   0.42836823    -2.135948    0.6419098   -1.4940382   0.13913856    11353.891     1000 
  322000   0.43100631   -2.2142575   0.64586295   -1.5683946   0.12103027    11464.179     1000 
  324000   0.42715325   -2.1939042   0.64008914   -1.5538151    0.1439985    11273.775     1000 
  326000   0.41423812   -2.1537071   0.62073583   -1.5329713   0.13338501    11257.721     1000 
  328000   0.43220449   -2.1876936   0.64765843   -1.5400352    0.1268081    11434.278     1000 
  330000   0.42828364   -2.1695628   0.64178304   -1.5277797   0.13327856    11246.788     1000 
  332000   0.40952563   -2.1456089   0.61367416   -1.5319348   0.13385451     11391.77     1000 
  334000   0.42066855   -2.1667543   0.63037182   -1.5363824   0.12606293    11440.321     1000 
  336000   0.40573511   -2.1539226   0.60799406   -1.5459285    0.1316371    11234.401     1000 
  338000   0.42580398   -2.1555747   0.63806727   -1.5175075   0.12224815    11470.919     1000 
  340000   0.41331563   -2.1297647   0.61935347   -1.5104113   0.13130338    11347.532     1000 
  342000   0.41760888   -2.1153003   0.62578691   -1.4895134   0.13382597    11246.606     1000 
  344000   0.42973078   -2.1857612   0.64395158   -1.5418097   0.12928927    11340.817     1000 
  346000   0.43806018   -2.1454358   0.65643319   -1.4890026   0.13817941    11324.104     1000 
  348000   0.41531281   -2.1868184   0.62234625   -1.5644722    0.1260843    11370.264     1000 
  350000   0.40805117    -2.160702   0.61146467   -1.5492373   0.12972962    11415.022     1000 
  352000   0.43133569   -2.1424884   0.64635654   -1.4961318   0.12573773    11423.902     1000 
  354000   0.41825519   -2.1671102    0.6267554   -1.5403548   0.13203566    11347.622     1000 
  356000   0.43684003   -2.1941023   0.65460478   -1.5394975   0.13359108    11358.037     1000 
  358000   0.40349346   -2.1940695   0.60463495   -1.5894345   0.12994183    11366.768     1000 
  360000   0.40253903   -2.1831807   0.60320473   -1.5799759      0.12288    11404.178     1000 
  362000   0.40305537   -2.1715354   0.60397847   -1.5675569    0.1253678    11360.778     1000 
  364000   0.42771817   -2.1189622   0.64093568   -1.4780265   0.12971326    11256.598     1000 
  366000   0.41420282   -2.1849375   0.62068292   -1.5642546   0.12890476    11361.966     1000 
  368000   0.41628003   -2.1762613   0.62379563   -1.5524656   0.13292474    11349.023     1000 
  370000   0.40757745   -2.1479141   0.61075482   -1.5371593   0.13247994    11366.954     1000 
  372000   0.41506573   -2.1630214     0.621976   -1.5410454   0.12010872    11461.111     1000 
  374000    0.4233738   -2.1904813   0.63442564   -1.5560557   0.12888819    11389.758     1000 
  376000   0.41828698   -2.2081145   0.62680303   -1.5813115   0.13493684    11374.935     1000 
  378000   0.41126642   -2.1504375   0.61628274   -1.5341548   0.13023401    11387.939     1000 
  380000    0.4331265   -2.1759579   0.64904006   -1.5269179     0.134269    11412.511     1000 
  382000   0.41549127    -2.188021   0.62261366   -1.5654074    0.1221516    11421.393     1000 
  384000   0.42582423   -2.1519374    0.6380976   -1.5138398   0.14539441    11345.892     1000 
  386000   0.41451367    -2.171406   0.62114874   -1.5502572   0.13767744    11285.052     1000 
  388000   0.39980532    -2.169715   0.59910827   -1.5706067   0.11914079    11510.236     1000 
  390000    0.4004362   -2.1711672   0.60005364   -1.5711135   0.13627235     11240.23     1000 
  392000   0.41839441   -2.1396801   0.62696403   -1.5127161   0.12400567    11454.269     1000 
  394000   0.43480338   -2.1775513   0.65155286   -1.5259985   0.12637809    11385.449     1000 
  396000   0.42743915   -2.1863025   0.64051756    -1.545785   0.13069079    11334.881     1000 
  398000   0.42694477   -2.1878327   0.63977674    -1.548056   0.13336329    11413.045     1000 
  400000   0.43019355   -2.1630445   0.64464504   -1.5183994   0.12859539    11449.492     1000 
  402000   0.41667325   -2.1835227   0.62438487   -1.5591378   0.11971964     11518.15     1000 
  404000   0.42069036   -2.1639273    0.6304045   -1.5335228   0.13045232    11328.846     1000 
  406000   0.42132447   -2.2241248   0.63135471   -1.5927701   0.13167026    11476.316     1000 
  408000   0.41129577   -2.1284035   0.61632671   -1.5120768   0.12188242    11354.246     1000 
  410000   0.44031586   -2.1590344   0.65981332   -1.4992211   0.13703702    11395.828     1000 
  412000   0.40694786   -2.1907971   0.60981138   -1.5809857   0.13457265    11232.634     1000 
  414000   0.42880136   -2.1705225   0.64255884   -1.5279637   0.14190059    11339.962     1000 
  416000    0.4062541   -2.1260629   0.60877177   -1.5172912   0.13213695    11421.705     1000 
  418000   0.43816845   -2.1925333   0.65659542   -1.5359379   0.12143774    11398.626     1000 
  420000   0.40601562   -2.1611889   0.60841441   -1.5527745   0.12818574    11348.338     1000 
  422000   0.42185612   -2.1557842    0.6321514   -1.5236328   0.12123144    11461.456     1000 
  424000   0.41136184   -2.0819031   0.61642572   -1.4654774   0.13589616    11264.773     1000 
  426000   0.42010094   -2.1422415   0.62952126   -1.5127202   0.12434195    11325.023     1000 
  428000   0.42182576   -2.1404505   0.63210591   -1.5083446   0.13482701    11206.584     1000 
  430000    0.4269049   -2.1866417   0.63971699   -1.5469247    0.1225873    11447.376     1000 
  432000   0.42696136   -2.1242214    0.6398016   -1.4844198   0.13680247    11264.122     1000 
  434000   0.41645023   -2.1297063   0.62405068   -1.5056556   0.12856108    11406.707     1000 
  436000   0.41627069   -2.1800689   0.62378162   -1.5562873   0.12636125    11410.721     1000 
  438000   0.41664062   -2.1341286   0.62433597   -1.5097926   0.14521921    11340.306     1000 
  440000   0.41373544   -2.1479649   0.61998256   -1.5279824   0.13109697    11386.694     1000 
  442000   0.41432736   -2.1471458   0.62086955   -1.5262762   0.13069598    11348.071     1000 
  444000   0.42332952   -2.1886498   0.63435929   -1.5542905   0.12519092    11473.423     1000 
  446000   0.42384681   -2.1740859   0.63513444   -1.5389515   0.14096691     11254.24     1000 
  448000   0.41946458   -2.1717344   0.62856767   -1.5431668   0.13091662    11405.012     1000 
  450000    0.4104648   -2.2090809    0.6150815   -1.5939994    0.1211205    11342.418     1000 
  452000   0.41755754   -2.1358577   0.62570997   -1.5101478   0.13663766    11293.936     1000 
  454000   0.42117754   -2.1448186   0.63113455    -1.513684   0.12451466    11352.865     1000 
  456000   0.43876568   -2.1476656   0.65749038   -1.4901752   0.13277956    11411.355     1000 
  458000   0.43392304   -2.1463595   0.65023367   -1.4961258   0.12351184    11469.614     1000 
  460000   0.44389041   -2.1157787   0.66516978   -1.4506089   0.12004697    11443.043     1000 
  462000   0.41972922   -2.1663762   0.62896423    -1.537412   0.12821734    11418.091     1000 
  464000   0.41037795   -2.1851355   0.61495135   -1.5701841    0.1263357    11472.378     1000 
  466000   0.41272094   -2.1707845   0.61846232   -1.5523222   0.12857599    11342.738     1000 
  468000   0.43107536   -2.1747425   0.64596643   -1.5287761   0.12941196    11407.447     1000 
  470000   0.41215719   -2.1963548   0.61761755   -1.5787373     0.130473    11448.896     1000 
  472000   0.41418147   -2.1602134   0.62065093   -1.5395625   0.13178535    11373.478     1000 
  474000   0.43779048   -2.1622908   0.65602903   -1.5062618   0.12873067     11436.34     1000 
  476000   0.40543448    -2.138151   0.60754357   -1.5306075   0.12688887    11397.955     1000 
  478000   0.40824432   -2.1624576   0.61175412   -1.5507035    0.1265087     11355.31     1000 
  480000   0.42283483   -2.1689646   0.63361799   -1.5353466    0.1290063     11374.28     1000 
  482000   0.40491725   -2.1427884   0.60676851   -1.5360199   0.11921064    11384.796     1000 
  484000   0.42152426   -2.1851052    0.6316541   -1.5534511   0.13228539    11399.999     1000 
  486000   0.43661184   -2.1332687   0.65426285   -1.4790058   0.13171549    11271.514     1000 
  488000   0.41451098   -2.1703293   0.62114471   -1.5491846   0.12943812    11381.945     1000 
  490000   0.40866644   -2.1741349   0.61238666   -1.5617482   0.12718637    11354.672     1000 
  492000   0.40991283   -2.1449994   0.61425437    -1.530745   0.12945475    11311.792     1000 
  494000   0.41983799   -2.1733284   0.62912722   -1.5442012   0.13234112    11463.446     1000 
  496000   0.42052327   -2.1928079   0.63015412   -1.5626538   0.12357096    11453.811     1000 
  498000   0.41505734   -2.1552937   0.62196342   -1.5333303   0.12420616      11398.6     1000 
  500000   0.41947764    -2.156622   0.62858724   -1.5280348   0.11895542     11441.58     1000 
  502000   0.42053912   -2.1418998   0.63017787   -1.5117219   0.13549596    11348.522     1000 
  504000   0.40812822   -2.1694998   0.61158014   -1.5579197   0.12992199    11367.565     1000 
  506000   0.40183487   -2.1287301   0.60214956   -1.5265806   0.12187382    11297.995     1000 
  508000   0.43169088   -2.1059501   0.64688878   -1.4590613   0.15075663    11157.988     1000 
  510000   0.41949662   -2.1864234   0.62861568   -1.5578077    0.1256537    11477.244     1000 
  512000   0.41965943   -2.1259236   0.62885966    -1.497064   0.12839054    11298.082     1000 
  514000   0.43156753   -2.1979108   0.64670394   -1.5512068    0.1241084    11394.149     1000 
  516000    0.4311341   -2.1605981   0.64605445   -1.5145436   0.13109665    11448.849     1000 
  518000   0.40426277   -2.1308712   0.60578776   -1.5250835   0.13072237    11284.729     1000 
  520000   0.43786953   -2.1881327    0.6561475   -1.5319853   0.13213711    11340.164     1000 
  522000   0.41751241   -2.2210489   0.62564235   -1.5954066    0.1261562    11473.885     1000 
  524000   0.42394878   -2.1487439   0.63528724   -1.5134567   0.12497876    11408.428     1000 
  526000   0.42089638   -2.1804621   0.63071322   -1.5497488   0.12725567    11431.797     1000 
  528000   0.39468806   -2.1544031   0.59144005    -1.562963   0.11911475    11446.737     1000 
  530000   0.43156794   -2.1387565   0.64670457   -1.4920519   0.13856321     11388.96     1000 
  532000   0.42573726   -2.1652201   0.63796729   -1.5272529   0.13531123    11360.772     1000 
  534000   0.42982546   -2.1503479   0.64409345   -1.5062545   0.13524864    11460.464     1000 
  536000   0.41097403   -2.1426203   0.61584459   -1.5267757   0.14120648    11288.759     1000 
  538000   0.43229329   -2.1646988    0.6477915   -1.5169073   0.12115863    11459.285     1000 
  540000   0.41705712   -2.1699836    0.6249601   -1.5450235   0.13244454    11343.056     1000 
  542000   0.41988247   -2.1785176   0.62919388   -1.5493237    0.1328588    11496.276     1000 
  544000   0.41347047   -2.1549082    0.6195855   -1.5353227   0.13442863     11321.04     1000 
  546000   0.41811707   -2.1646459   0.62654842   -1.5380975    0.1474992    11194.302     1000 
  548000   0.42104793   -2.1760739   0.63094032   -1.5451335   0.12505187    11405.202     1000 
  550000   0.42664872   -2.1803074   0.63933311   -1.5409743   0.12731699    11433.961     1000 
  552000   0.42118088   -2.1369521   0.63113955   -1.5058125    0.1390991    11228.262     1000 
  554000   0.41375024   -2.1771021   0.62000473   -1.5570974   0.13478631    11277.998     1000 
  556000   0.39452284   -2.1677666   0.59119248   -1.5765741   0.12273372    11381.877     1000 
  558000   0.40559355   -2.1622218   0.60778193   -1.5544399   0.11430316    11532.563     1000 
  560000   0.40877807   -2.1172624   0.61255394   -1.5047084   0.13695039    11254.109     1000 
  562000   0.43030595   -2.0847318   0.64481347   -1.4399184   0.14373533    11126.886     1000 
  564000   0.42324734   -2.1484769   0.63423615   -1.5142408   0.13086564    11336.734     1000 
  566000   0.43222088   -2.2038158   0.64768299   -1.5561328   0.13795919    11411.703     1000 
  568000   0.42509874   -2.1823096   0.63701046   -1.5452992   0.12837281    11399.742     1000 
  570000   0.40181968   -2.1522959   0.60212679   -1.5501691   0.14310385     11243.15     1000 
  572000   0.42327727   -2.1619582     0.634281   -1.5276772    0.1288359    11368.872     1000 
  574000   0.42101049   -2.1658213   0.63088422   -1.5349371   0.13108408    11358.166     1000 
  576000    0.4202292   -2.1720036   0.62971346   -1.5422901    0.1237688    11482.262     1000 
  578000   0.42844053    -2.128726   0.64201814   -1.4867079   0.13414298    11421.272     1000 
  580000   0.41987588   -2.1938829   0.62918401   -1.5646988   0.12974057    11353.842     1000 
  582000   0.41780335   -2.1791405   0.62607833   -1.5530621   0.12784526     11375.16     1000 
  584000   0.42822919   -2.1702571   0.64170143   -1.5285557   0.13785515    11359.978     1000 
  586000   0.43500566   -2.1477871   0.65185599   -1.4959312   0.13585845    11432.618     1000 
  588000   0.42285148   -2.1530008   0.63364294   -1.5193578    0.1309342    11277.008     1000 
  590000   0.42693795   -2.1546331   0.63976651   -1.5148666    0.1379251    11319.106     1000 
  592000   0.41660573   -2.1402639   0.62428368   -1.5159802   0.11440278    11395.128     1000 
  594000   0.41718611   -2.1823153   0.62515339   -1.5571619   0.13880407    11419.231     1000 
  596000   0.44161898   -2.1832616   0.66176605   -1.5214956   0.12612686     11482.78     1000 
  598000   0.42171705   -2.1841386     0.631943   -1.5521956   0.12323767    11477.478     1000 
  600000   0.43458301   -2.1816734   0.65122264   -1.5304507   0.12173613    11514.556     1000 
  602000   0.42033841   -2.1623406    0.6298771   -1.5324635   0.12178807    11386.855     1000 
  604000   0.42353588   -2.1397553   0.63466852   -1.5050868   0.13686561    11280.718     1000 
  606000   0.43159489   -2.1461674   0.64674494   -1.4994225   0.13507232    11303.486     1000 
  608000   0.41266188    -2.138872   0.61837383   -1.5204981    0.1387774    11174.114     1000 
  610000   0.43302559   -2.1621744   0.64888884   -1.5132856   0.13084248     11340.06     1000 
  612000   0.41881867   -2.1628157   0.62759978   -1.5352159   0.12358474    11438.614     1000 
  614000   0.42634895   -2.1375244   0.63888389   -1.4986405   0.13591563    11256.864     1000 
  616000   0.40032914    -2.191937   0.59989322   -1.5920438   0.13158364    11395.829     1000 
  618000   0.41057397   -2.1503171   0.61524509    -1.535072   0.13706761    11248.965     1000 
  620000   0.43947734   -2.1694538   0.65855679    -1.510897   0.13823992    11282.069     1000 
  622000   0.42574184   -2.1876395   0.63797415   -1.5496653   0.11478467    11533.001     1000 
  624000   0.40806436   -2.1362714   0.61148444    -1.524787   0.12361936    11421.548     1000 
  626000   0.41909736   -2.1577068    0.6280174   -1.5296894   0.12960892    11444.463     1000 
  628000    0.4271727   -2.1606906   0.64011829   -1.5205723   0.13387544    11435.471     1000 
  630000   0.42219754   -2.1599859   0.63266301   -1.5273229    0.1315702    11274.325     1000 
  632000   0.41004628   -2.1760498   0.61445435   -1.5615954   0.12400887    11461.461     1000 
  634000   0.42676229   -2.2008419    0.6395033   -1.5613386   0.12883313    11392.644     1000 
  636000   0.43281237   -2.1258287   0.64856934   -1.4772593   0.13270059    11289.453     1000 
  638000   0.42833623   -2.1744391   0.64186184   -1.5325773   0.12629988    11428.329     1000 
  640000   0.41636842   -2.1766852   0.62392808   -1.5527571   0.13327134    11378.255     1000 
  642000   0.40230435   -2.2091766   0.60285307   -1.6063235   0.12344779    11466.153     1000 
  644000   0.43365442   -2.1929913   0.64983115   -1.5431602   0.13861492    11356.039     1000 
  646000   0.40968765   -2.1560915   0.61391694   -1.5421746   0.13883834    11278.758     1000 
  648000   0.41470124   -2.1781073    0.6214298   -1.5566775   0.12209519    11407.888     1000 
  650000   0.42312698   -2.1577806   0.63405579   -1.5237248   0.12500007    11417.989     1000 
  652000   0.41404105   -2.1637741   0.62044052   -1.5433336   0.13264455    11295.525     1000 
  654000   0.43268928   -2.1407101   0.64838489   -1.4923252   0.13095228    11378.764     1000 
  656000   0.42658095   -2.1852813   0.63923155   -1.5460497   0.13181406      11350.8     1000 
  658000   0.43187877   -2.1583749   0.64717034   -1.5112045   0.13766828    11351.371     1000 
  660000   0.43600961   -2.1652125    0.6533604   -1.5118522   0.11737211    11525.042     1000 
  662000   0.43868654   -2.1654725   0.65737178   -1.5081008   0.13462653    11332.774     1000 
  664000   0.42792887   -2.1964585   0.64125141   -1.5552071   0.12492627    11461.546     1000 
  666000   0.42517527   -2.2009126   0.63712514   -1.5637875   0.13161275    11388.302     1000 
  668000   0.41383179   -2.0964902   0.62012693   -1.4763633    0.1243848    11289.683     1000 
  670000   0.43406216   -2.1855519   0.65044215   -1.5351097   0.12645085    11484.912     1000 
  672000   0.42976676   -2.1647832   0.64400549   -1.5207777   0.13727534    11415.064     1000 
  674000   0.42158114    -2.139576   0.63173934   -1.5078366    0.1190689    11522.429     1000 
  676000   0.42311238   -2.1920766    0.6340339   -1.5580427   0.13539006    11368.186     1000 
  678000   0.42481065   -2.1936585   0.63657876   -1.5570798    0.1284892    11449.049     1000 
  680000   0.43267723   -2.1674262   0.64836683   -1.5190593   0.12094871    11514.537     1000 
  682000   0.41547227   -2.1751429   0.62258519   -1.5525577   0.13549047    11230.163     1000 
  684000   0.42434058   -2.1344916   0.63587436   -1.4986173   0.13753379    11278.285     1000 
  686000   0.42704122    -2.147025   0.63992127   -1.5071038   0.13226212    11416.013     1000 
  688000    0.4007725   -2.1814358    0.6005576   -1.5808782   0.11022875    11513.754     1000 
  690000   0.41254314   -2.1556252    0.6181959   -1.5374293   0.13546543    11355.112     1000 
  692000   0.42269857   -2.1687836   0.63341381   -1.5353698   0.13027417     11361.58     1000 
  694000   0.42595627   -2.1867266   0.63829548   -1.5484312   0.12342369    11431.569     1000 
  696000    0.4053356   -2.1722837   0.60739539   -1.5648883   0.12938698    11380.513     1000 
  698000   0.41859259   -2.1489879   0.62726099   -1.5217269   0.14672698    11235.287     1000 
  700000   0.42410185   -2.1491267   0.63551662   -1.5136101   0.12268959    11474.893     1000 
  702000   0.40764731   -2.2251173   0.61085949   -1.6142578   0.11864872    11401.035     1000 
  704000   0.42660402   -2.1584254   0.63926613   -1.5191592   0.13418271    11357.292     1000 
  706000   0.43327311   -2.1974464   0.64925976   -1.5481866   0.12694732    11421.752     1000 
  708000    0.4113777   -2.1672494   0.61644948   -1.5507999   0.13517589    11282.027     1000 
  710000   0.42028381   -2.1620738   0.62979528   -1.5322785   0.13985831    11435.183     1000 
  712000   0.42500027    -2.166599   0.63686291   -1.5297361   0.13169587    11333.359     1000 
  714000    0.4060044   -2.1605665    0.6083976   -1.5521689   0.12180393    11434.214     1000 
  716000     0.417516   -2.1929073   0.62564773   -1.5672595   0.12891638     11416.74     1000 
  718000   0.43563047   -2.1302895   0.65279226   -1.4774973    0.1233029    11453.387     1000 
  720000   0.41135841   -2.1711667   0.61642057   -1.5547461   0.12065784    11413.762     1000 
  722000   0.42306389   -2.2000752   0.63396123   -1.5661139   0.12260217    11544.942     1000 
  724000   0.42172832   -2.1792015   0.63195989   -1.5472416    0.1356092    11300.206     1000 
  726000   0.43870102    -2.161556   0.65739348   -1.5041626   0.13252011    11296.758     1000 
  728000   0.39671337   -2.1523853   0.59447499   -1.5579103   0.13570535    11215.083     1000 
  730000   0.41057084   -2.1696057    0.6152404   -1.5543653   0.10899405    11555.353     1000 
  732000   0.42614297    -2.144387   0.63857525   -1.5058118   0.14202186    11261.664     1000 
  734000   0.39722238   -2.1313637   0.59523774   -1.5361259   0.13496176    11214.079     1000 
  736000   0.41223725   -2.1858168   0.61773752   -1.5680793   0.13422658    11326.701     1000 
  738000   0.42372153   -2.1458731   0.63494672   -1.5109264   0.13323343    11375.283     1000 
  740000   0.41231245   -2.1484172   0.61785021    -1.530567   0.13509528    11338.122     1000 
  742000   0.41751316   -2.1802921   0.62564347   -1.5546487   0.12538863    11383.009     1000 
  744000   0.42404335   -2.1204921   0.63542896   -1.4850632   0.13455365      11299.6     1000 
  746000   0.42876292   -2.1530388   0.64250124   -1.5105376   0.13389078    11268.432     1000 
  748000   0.42137872   -2.1614894   0.63143602   -1.5300534   0.13735601    11331.371     1000 
  750000   0.42267655   -2.1984804    0.6333808   -1.5650996   0.13967594    11232.574     1000 
  752000    0.4155575   -2.1244835   0.62271291   -1.5017706   0.14516928    11210.865     1000 
  754000   0.40946136   -2.1532581   0.61357785   -1.5396802   0.13641718    11392.578     1000 
  756000    0.4286963   -2.1593974   0.64240141   -1.5169959   0.12711423    11345.308     1000 
  758000   0.42140154   -2.1927106   0.63147021   -1.5612404   0.12580834    11494.033     1000 
  760000   0.41181444   -2.1928029   0.61710393    -1.575699   0.13427268    11417.338     1000 
  762000   0.41956249   -2.1266944    0.6287144     -1.49798   0.13256215    11326.114     1000 
  764000    0.4080703   -2.1637728   0.61149334   -1.5522795   0.11639316    11434.178     1000 
  766000   0.42060564   -2.1724428   0.63027754   -1.5421652   0.13049061    11422.519     1000 
  768000   0.41944679   -2.2183673   0.62854102   -1.5898263   0.13076163    11380.835     1000 
  770000   0.43073314   -2.1684213    0.6454536   -1.5229677   0.13814116     11285.29     1000 
  772000     0.424654   -2.1387783   0.63634402   -1.5024343   0.12674354    11431.354     1000 
  774000   0.41081948   -2.2004294   0.61561299   -1.5848164   0.12292246    11421.327     1000 
  776000   0.42681332   -2.1835687   0.63957976   -1.5439889   0.13712415    11339.319     1000 
  778000   0.42971257   -2.1923033   0.64392429    -1.548379   0.13648788     11297.41     1000 
  780000   0.41285152   -2.2076115     0.618658   -1.5889535   0.12238842    11477.726     1000 
  782000   0.42631512   -2.1709653   0.63883321   -1.5321321   0.12506888    11350.958     1000 
  784000   0.41755668   -2.1271021   0.62570868   -1.5013934   0.12525257     11438.78     1000 
  786000   0.41180665   -2.1205418   0.61709227   -1.5034496    0.1283703     11276.76     1000 
  788000    0.4099244   -2.1378635   0.61427172   -1.5235918   0.14056723    11265.549     1000 
  790000   0.41726171   -2.1404075   0.62526668   -1.5151408    0.1267371    11338.726     1000 
  792000   0.41816498   -2.1823793   0.62662023   -1.5557591   0.13098556    11290.507     1000 
  794000   0.42383218   -2.2200048   0.63511252   -1.5848923   0.12595891    11485.127     1000 
  796000   0.42317734   -2.2124629   0.63413124   -1.5783317   0.12443305    11391.879     1000 
  798000   0.41134063   -2.1676728   0.61639393   -1.5512789   0.13623837    11348.851     1000 
  800000   0.42123166   -2.1725262   0.63121565   -1.5413105   0.13773879    11199.868     1000 
  802000   0.39859026   -2.1864312    0.5972875   -1.5891437   0.12739849    11378.549     1000 
  804000    0.4222366   -2.1462417   0.63272155   -1.5135201   0.13010213    11372.244     1000 
  806000   0.41597628   -2.1812529   0.62334046   -1.5579124   0.13338401    11388.569     1000 
  808000   0.40946375   -2.1651214   0.61358144   -1.5515399   0.13437545    11346.956     1000 
  810000    0.4171952   -2.1950691     0.625167   -1.5699021   0.11465068    11480.624     1000 
  812000   0.42787701   -2.1296061    0.6411737   -1.4884324    0.1391867    11254.636     1000 
  814000   0.40291127   -2.1758399   0.60376253   -1.5720773   0.12381022    11445.865     1000 
  816000   0.40957647   -2.1979091   0.61375034   -1.5841588   0.13866014    11330.833     1000 
  818000   0.43222899   -2.1228631   0.64769515   -1.4751679   0.13508573    11356.496     1000 
  820000   0.41030299   -2.1803749   0.61483903   -1.5655359   0.13161796    11304.133     1000 
  822000   0.42434435   -2.1609313   0.63588001   -1.5250513   0.13543392     11276.73     1000 
  824000   0.43850688   -2.1395486   0.65710256    -1.482446   0.13038127     11332.72     1000 
  826000   0.42019292   -2.1609075   0.62965909   -1.5312484   0.13953483    11346.546     1000 
  828000   0.41797446   -2.1809033   0.62633473   -1.5545686   0.12525243     11420.53     1000 
  830000   0.41471773   -2.1735772   0.62145453   -1.5521227   0.12538758    11321.647     1000 
  832000   0.42987663   -2.1830049   0.64417013   -1.5388348   0.13202778    11401.532     1000 
  834000   0.42802418   -2.2137563   0.64139423   -1.5723621   0.12952481    11414.305     1000 
  836000   0.42480864   -2.1661729   0.63657574   -1.5295972   0.12462008    11333.231     1000 
  838000   0.40930675   -2.1611695   0.61334617   -1.5478233   0.13993986    11382.346     1000 
  840000   0.41852897   -2.1166841   0.62716566   -1.4895185   0.14372556    11187.792     1000 
  842000   0.41585065   -2.1206092    0.6231522    -1.497457   0.13380859    11289.594     1000 
  844000   0.43198222   -2.1523246   0.64732536   -1.5049993   0.13639351    11257.909     1000 
  846000   0.39243914   -2.0949268   0.58807004   -1.5068568   0.12419366    11443.185     1000 
  848000   0.42108149    -2.212491   0.63099061   -1.5815004   0.14011965    11369.265     1000 
  850000   0.41646681   -2.1693069   0.62407551   -1.5452314   0.13692375    11206.876     1000 
  852000   0.41079905   -2.1791005   0.61558238   -1.5635181   0.12780124    11522.719     1000 
  854000   0.41141417   -2.1396658   0.61650413   -1.5231617   0.11607706    11420.707     1000 
  856000   0.40667276   -2.1887803   0.60939913   -1.5793812   0.12592792    11349.664     1000 
  858000   0.42646375   -2.1537974   0.63905593   -1.5147414   0.11900699    11447.893     1000 
  860000   0.42244016   -2.1692076   0.63302659   -1.5361811   0.14217963    11285.314     1000 
  862000    0.4275427   -2.1057072   0.64067273   -1.4650345   0.13135316    11306.286     1000 
  864000   0.43042642   -2.1659758   0.64499399   -1.5209818    0.1216981    11433.163     1000 
  866000   0.41592404     -2.22268   0.62326217   -1.5994178   0.12488556    11409.558     1000 
  868000    0.4487711   -2.1457881   0.67248349   -1.4733046   0.13154967    11368.105     1000 
  870000   0.42081964   -2.1793933   0.63059824   -1.5487951   0.12069169    11374.004     1000 
  872000   0.41355488   -2.1589435   0.61971198   -1.5392315   0.13052951    11375.823     1000 
  874000   0.41446998   -2.1411812   0.62108326    -1.520098    0.1290917    11341.033     1000 
  876000   0.41653864   -2.1716066   0.62418315   -1.5474234   0.12625714    11382.467     1000 
  878000   0.43220687   -2.1618376     0.647662   -1.5141756   0.13342387    11312.575     1000 
  880000   0.41583702   -2.1635955   0.62313177   -1.5404637    0.1479941    11163.252     1000 
  882000   0.42182683   -2.1175877    0.6321075   -1.4854802   0.12353786    11380.818     1000 
  884000   0.42783932   -2.1291023   0.64111721   -1.4879851   0.11633674    11474.926     1000 
  886000    0.4215025   -2.1606846    0.6316215   -1.5290631   0.13824039    11284.175     1000 
  888000   0.40226571   -2.1395708   0.60279516   -1.5367757   0.13074383    11425.844     1000 
  890000   0.42728604   -2.1829899   0.64028813   -1.5427017    0.1266492    11419.422     1000 
  892000   0.40461129   -2.1425861   0.60631002    -1.536276   0.13215193    11356.916     1000 
  894000   0.44266301   -2.1534048   0.66333053   -1.4900742   0.12306747    11463.344     1000 
  896000   0.41127766   -2.1308446   0.61629957    -1.514545   0.12778381    11279.081     1000 
  898000   0.43126717   -2.1709694   0.64625385   -1.5247155   0.13208126    11405.866     1000 
  900000   0.42430847   -2.1405565   0.63582625   -1.5047302   0.12114427    11351.395     1000 
  902000   0.42943511   -2.1709836   0.64350851   -1.5274751   0.13714176    11322.329     1000 
  904000   0.42038042   -2.1616212   0.62994007   -1.5316812   0.12860848    11376.084     1000 
  906000   0.43827653   -2.2019648   0.65675738   -1.5452074   0.13535146    11327.244     1000 
  908000   0.42904918   -2.1495479    0.6429302   -1.5066177   0.13259282    11361.517     1000 
  910000   0.43619242   -2.1954861   0.65363434   -1.5418517   0.13763929    11338.315     1000 
  912000   0.41115652   -2.1569476   0.61611804   -1.5408295   0.12733026    11420.625     1000 
  914000   0.41332367   -2.1991273   0.61936551   -1.5797618   0.13634431     11340.04     1000 
  916000   0.42240171   -2.2189457   0.63296896   -1.5859767   0.13068242    11379.239     1000 
  918000   0.42813729   -2.1610483   0.64156372   -1.5194846   0.12740608    11376.968     1000 
  920000   0.42495665   -2.1701153   0.63679755   -1.5333177   0.13135551    11421.049     1000 
  922000   0.41649516   -2.1976672   0.62411799   -1.5735492    0.1259355    11388.341     1000 
  924000   0.40853072   -2.1827479   0.61218328   -1.5705646   0.12250585    11419.329     1000 
  926000   0.41609023   -2.1623718   0.62351121   -1.5388606   0.12221732    11331.795     1000 
  928000   0.41265508   -2.1712103   0.61836364   -1.5528467   0.13228411    11324.118     1000 
  930000    0.4284062   -2.1655995   0.64196669   -1.5236328    0.1343815    11315.114     1000 
  932000   0.43203651   -2.1247868    0.6474067   -1.4773801   0.13102978    11311.052     1000 
  934000   0.41857333   -2.2109643   0.62723213   -1.5837321   0.13643956    11326.754     1000 
  936000   0.41283226   -2.1419877   0.61862914   -1.5233586   0.12644883    11404.412     1000 
  938000   0.40596343   -2.1317033    0.6083362   -1.5233671   0.12645069    11357.314     1000 
  940000   0.43344248   -2.1437166   0.64951356    -1.494203   0.14569848    11303.226     1000 
  942000   0.40193277   -2.1590767   0.60229625   -1.5567805   0.12310438    11348.809     1000 
  944000   0.44508734   -2.1666039   0.66696338   -1.4996405   0.13862311    11381.042     1000 
  946000   0.42776249   -2.1924801   0.64100209    -1.551478   0.12455859     11388.94     1000 
  948000   0.40371262    -2.235957   0.60496337   -1.6309936    0.1103319    11527.739     1000 
  950000   0.42006906   -2.2198247   0.62947349   -1.5903512   0.12994197    11365.922     1000 
  952000   0.41398391   -2.1749333   0.62035489   -1.5545784   0.13044534    11384.701     1000 
  954000   0.41823174   -2.1728337   0.62672026   -1.5461134   0.12228532    11464.893     1000 
  956000   0.42703731   -2.1268121    0.6399154   -1.4868967   0.12693854    11393.646     1000 
  958000   0.41399757   -2.1313591   0.62037536   -1.5109837   0.13395535    11403.604     1000 
  960000   0.41536206   -2.1671786   0.62242005   -1.5447586   0.12817948    11293.829     1000 
  962000   0.45209484   -2.1424118   0.67746412   -1.4649477   0.13162195    11358.375     1000 
  964000   0.41263359   -2.1494634   0.61833144   -1.5311319   0.12514888    11414.086     1000 
  966000   0.42371111    -2.173914    0.6349311   -1.5389829   0.11882979    11497.825     1000 
  968000    0.4106596   -2.1742665   0.61537341   -1.5588931   0.12225927    11319.659     1000 
  970000   0.41734478   -2.1519338   0.62539115   -1.5265427   0.13173383    11387.723     1000 
  972000   0.41511738   -2.1398205    0.6220534   -1.5177671   0.12680268    11338.052     1000 
  974000   0.41750206   -2.1085716   0.62562683   -1.4829447   0.12847242    11292.395     1000 
  976000   0.43918308   -2.2168752   0.65811584   -1.5587594   0.12729827    11434.658     1000 
  978000    0.4168846   -2.1895077   0.62470158   -1.5648062   0.12444241    11350.591     1000 
  980000   0.41932976   -2.1531812   0.62836565   -1.5248156    0.1458286    11260.513     1000 
  982000   0.41834179   -2.2176411   0.62688518   -1.5907559   0.13216733    11421.553     1000 
  984000    0.4219991   -2.1822226   0.63236566   -1.5498569   0.13169686    11265.569     1000 
  986000   0.39702379   -2.1565623   0.59494015   -1.5616222   0.13382083    11236.265     1000 
  988000   0.42662371   -2.1890512   0.63929563   -1.5497555   0.13259239    11406.718     1000 
  990000   0.41213131   -2.1604381   0.61757877   -1.5428593   0.13336587    11337.745     1000 
  992000   0.43690522    -2.166869   0.65470247   -1.5121665   0.13477531    11464.545     1000 
  994000   0.42042787   -2.1662751   0.63001116   -1.5362639   0.12989308    11281.527     1000 
  996000   0.42027619   -2.1385384   0.62978387   -1.5087545   0.12212065    11440.881     1000 
  998000     0.428235   -2.1473111   0.64171015    -1.505601   0.13643957    11326.569     1000 
 1000000   0.41463388    -2.128643   0.62132887   -1.5073141    0.1392135    11358.319     1000 
 1002000   0.42034258    -2.123356   0.62988335   -1.4934726   0.13479694    11313.171     1000 
 1004000   0.41684769   -2.1536881   0.62464626   -1.5290418   0.13367045    11369.053     1000 
 1006000   0.42833807   -2.1644793    0.6418646   -1.5226147   0.12288967    11529.073     1000 
 1008000   0.42650297   -2.1705294    0.6391147   -1.5314147    0.1337497    11295.245     1000 
 1010000   0.42648852   -2.1555262   0.63909305   -1.5164331   0.12717758    11418.965     1000 
 1012000   0.42386121   -2.1691328   0.63515602   -1.5339768   0.12710667    11313.132     1000 
 1014000   0.41745418   -2.1585969   0.62555509   -1.5330418   0.12018619    11480.994     1000 
 1016000   0.42009681   -2.1079345   0.62951508   -1.4784194   0.13395119    11269.986     1000 
 1018000    0.4054984   -2.1580571   0.60763935   -1.5504177   0.12456633    11421.705     1000 
 1020000   0.42288827   -2.1904107   0.63369807   -1.5567127   0.12802802    11414.951     1000 
 1022000   0.42765942   -2.1731629   0.64084764   -1.5323153   0.13644043    11403.579     1000 
 1024000   0.44330193   -2.1509752   0.66428795   -1.4866872   0.12984796    11457.263     1000 
 1026000   0.41586148   -2.1544287   0.62316843   -1.5312603   0.13657062     11287.81     1000 
 1028000   0.41149425   -2.1733388   0.61662414   -1.5567146   0.13235123    11416.675     1000 
 1030000   0.40992916   -2.1629087   0.61427885   -1.5486298     0.128528    11324.017     1000 
 1032000   0.39734234   -2.1457337    0.5954175   -1.5503162   0.13165687    11242.915     1000 
 1034000   0.40781911   -2.1587622   0.61111694   -1.5476453    0.1362745    11341.296     1000 
 1036000   0.41544652   -2.1726242   0.62254661   -1.5500776   0.12426108      11418.8     1000 
 1038000   0.43014742   -2.1738866   0.64457591   -1.5293107   0.13882916     11249.54     1000 
 1040000    0.4201458   -2.1778181   0.62958848   -1.5482297   0.12953772    11398.027     1000 
 1042000    0.4120746   -2.1829909   0.61749379   -1.5654972   0.12319292    11379.522     1000 
 1044000   0.41294907    -2.142244   0.61880419   -1.5234398   0.13625572    11352.182     1000 
 1046000   0.40862669   -2.1927177   0.61232709   -1.5803906   0.11369319    11532.997     1000 
 1048000   0.41044481   -2.1856174   0.61505155   -1.5705659   0.12968156    11382.134     1000 
 1050000   0.41328785   -2.1892452   0.61931185   -1.5699334   0.13894547    11329.835     1000 
 1052000   0.41329601   -2.1792176   0.61932407   -1.5598936   0.12756883    11329.717     1000 
 1054000   0.41516679    -2.139768   0.62212744   -1.5176406   0.12020085     11425.05     1000 
 1056000   0.43237656   -2.1317179   0.64791628   -1.4838016   0.13942317    11228.698     1000 
 1058000   0.40545991   -2.1781204   0.60758168   -1.5705387   0.12798657    11419.142     1000 
 1060000   0.41617614   -2.1908089   0.62363994    -1.567169   0.12661552    11476.584     1000 
 1062000   0.42550655   -2.1543295   0.63762156    -1.516708   0.11326938    11485.687     1000 
 1064000   0.42498668   -2.1258396   0.63684254   -1.4889971   0.13630745    11229.889     1000 
 1066000   0.42872278   -2.2167342   0.64244108   -1.5742931   0.12369309    11414.787     1000 
 1068000   0.42883893   -2.2093589   0.64261513   -1.5667437   0.11218853    11609.367     1000 
 1070000    0.4285429   -2.1669556   0.64217153    -1.524784   0.13203804      11380.4     1000 
 1072000   0.41180568   -2.2010198   0.61709081    -1.583929   0.12721446    11357.461     1000 
 1074000   0.42916189   -2.1127169   0.64309909   -1.4696178   0.11920583    11352.033     1000 
 1076000    0.4278114    -2.208809   0.64107538   -1.5677336   0.12626437      11429.9     1000 
 1078000   0.43036752   -2.1666668   0.64490572   -1.5217611   0.13649536    11364.085     1000 
 1080000   0.41561011   -2.1881701   0.62279175   -1.5653784   0.12450069    11367.778     1000 
 1082000   0.42904436    -2.156586   0.64292297    -1.513663   0.13719248    11331.416     1000 
 1084000   0.42015324   -2.1714697   0.62959963   -1.5418701   0.12627649    11509.796     1000 
 1086000   0.41438425   -2.1324608   0.62095481    -1.511506   0.12629656    11357.028     1000 
 1088000   0.42640851   -2.1527086   0.63897315   -1.5137355   0.12778566    11342.887     1000 
 1090000   0.41921177   -2.1211838   0.62818884    -1.492995   0.12993606    11333.714     1000 
 1092000   0.41958425   -2.1934804   0.62874699   -1.5647334    0.1369037    11353.951     1000 
 1094000   0.42105573   -2.1141873   0.63095201   -1.4832353   0.13531363    11237.135     1000 
 1096000   0.42181005   -2.1907902   0.63208235   -1.5587079   0.14419926    11335.741     1000 
 1098000   0.43674683    -2.167232   0.65446513   -1.5127668    0.1341619    11399.864     1000 
 1100000   0.40899664   -2.1601105   0.61288146    -1.547229   0.13678419    11220.929     1000 
 1102000   0.42190072   -2.2370927   0.63221823   -1.6048744   0.13405541    11303.931     1000 
 1104000   0.40678651   -2.2220154   0.60956958   -1.6124459    0.1268123    11445.344     1000 
 1106000   0.41996783   -2.1958344   0.62932179   -1.5665126    0.1234384    11453.714     1000 
 1108000   0.42467374   -2.1360148    0.6363736   -1.4996412   0.13750702    11315.875     1000 
 1110000   0.42563958   -2.1414957   0.63782091   -1.5036748   0.13832637    11353.591     1000 
 1112000    0.4198501   -2.1701308   0.62914538   -1.5409854   0.12332696    11447.962     1000 
 1114000   0.40436333   -2.1319766   0.60593844   -1.5260381   0.13582069    11321.662     1000 
 1116000   0.40723485   -2.1665843   0.61024142   -1.5563429   0.13670309    11337.925     1000 
 1118000     0.420914   -2.1307955   0.63073963   -1.5000559   0.13207544    11386.543     1000 
 1120000   0.42304585   -2.1233702   0.63393421    -1.489436   0.13691394    11276.387     1000 
 1122000     0.425072   -2.1466119   0.63697039   -1.5096415   0.12658147    11365.312     1000 
 1124000   0.42803435   -2.1688455   0.64140947    -1.527436   0.12190637    11471.502     1000 
 1126000   0.40018155   -2.1795235   0.59967205   -1.5798515   0.13016141    11320.545     1000 
 1128000   0.42455633   -2.1953967   0.63619766    -1.559199   0.12301804     11500.79     1000 
 1130000   0.41822093   -2.1905751   0.62670406   -1.5638711   0.12338688    11413.279     1000 
 1132000   0.41001042   -2.0996096   0.61440062    -1.485209   0.13433572    11297.662     1000 
 1134000   0.43278111   -2.1574357    0.6485225   -1.5089132   0.13962294    11324.923     1000 
 1136000   0.43486278   -2.1850432   0.65164188   -1.5334013   0.13328763    11395.864     1000 
 1138000   0.42382238   -2.1546327   0.63509783   -1.5195349   0.12603799    11342.924     1000 
 1140000   0.41451199   -2.1604631   0.62114621   -1.5393169   0.13153446    11435.631     1000 
 1142000   0.42599052   -2.1021425    0.6383468   -1.4637957   0.12654633    11347.985     1000 
 1144000   0.42295117   -2.1503088   0.63379233   -1.5165164   0.13045028    11389.217     1000 
 1146000   0.42640431   -2.2063953   0.63896685   -1.5674284   0.13652964    11326.207     1000 
 1148000   0.40881486   -2.1751769   0.61260907   -1.5625679   0.13404646    11346.275     1000 
 1150000   0.41034149   -2.1461764   0.61489673   -1.5312797    0.1260697    11301.461     1000 
 1152000   0.41466662   -2.1456048   0.62137793   -1.5242268   0.12789386    11419.404     1000 
 1154000   0.44284334   -2.1491163   0.66360075   -1.4855156   0.14763029    11269.676     1000 
 1156000   0.41525121   -2.1594943   0.62225395   -1.5372404   0.12887474    11379.437     1000 
 1158000   0.41561445   -2.1043315   0.62279826   -1.4815332   0.14352237    11167.549     1000 
 1160000   0.42817189    -2.203069   0.64161558   -1.5614534   0.12871334    11413.529     1000 
 1162000   0.42330397    -2.107671   0.63432099     -1.47335   0.14943605    11227.765     1000 
 1164000   0.41750116   -2.1455116   0.62562548   -1.5198861   0.12821576    11274.924     1000 
 1166000   0.43173936   -2.1511244   0.64696142   -1.5041629   0.13471559    11328.103     1000 
 1168000   0.41670571   -2.1581909   0.62443351   -1.5337574   0.13308349    11271.904     1000 
 1170000   0.41895194   -2.1717698   0.62779949   -1.5439703   0.13154606    11269.949     1000 
 1172000   0.41467697   -2.1284971   0.62139344   -1.5071036   0.13311884    11341.966     1000 
 1174000   0.42122934   -2.1764719   0.63121217   -1.5452598   0.13688026     11269.92     1000 
 1176000   0.41654394   -2.1458069   0.62419109   -1.5216158    0.1364024    11257.891     1000 
 1178000   0.41018267   -2.1175438   0.61465873   -1.5028851   0.13023768     11425.56     1000 
 1180000   0.39639986   -2.1790494   0.59400519   -1.5850442   0.11027147    11572.834     1000 
 1182000   0.42471796   -2.1334602   0.63643987   -1.4970203   0.13690448    11221.826     1000 
 1184000   0.39736873    -2.157432   0.59545705    -1.561975   0.12355865    11373.376     1000 
 1186000   0.43867198   -2.2119906   0.65734997   -1.5546406   0.12055107    11440.905     1000 
 1188000   0.42540072    -2.141967   0.63746297    -1.504504   0.12606466    11366.833     1000 
 1190000   0.41432235   -2.1603464   0.62086204   -1.5394843   0.13605833    11283.426     1000 
 1192000   0.42433909   -2.1665522   0.63587213   -1.5306801   0.13561115     11379.21     1000 
 1194000   0.43089338    -2.113696   0.64569374   -1.4680023   0.13296859    11281.815     1000 
 1196000   0.41881873   -2.1801039   0.62759986    -1.552504   0.13894203    11232.717     1000 
 1198000   0.40704602   -2.1550728   0.60995846   -1.5451144   0.12764134    11404.656     1000 
 1200000    0.4256803   -2.1539596   0.63788193   -1.5160777   0.13361873    11363.592     1000 
 1202000   0.41957215   -2.1577393   0.62872887   -1.5290104   0.13543083    11289.905     1000 
 1204000   0.43800932   -2.1839275   0.65635697   -1.5275706   0.11585361    11514.562     1000 
 1206000   0.42204372   -2.1516158   0.63243252   -1.5191833   0.12464186    11349.582     1000 
 1208000    0.4085822   -2.1958382   0.61226043   -1.5835778   0.11433888    11440.382     1000 
 1210000    0.4185475   -2.1713808   0.62719342   -1.5441874   0.10853526    11513.828     1000 
 1212000   0.41414142   -2.1255911   0.62059092   -1.5050001   0.13247371    11231.335     1000 
 1214000   0.42650537   -2.1757224   0.63911829   -1.5366041    0.1291619    11334.561     1000 
 1216000   0.44840558   -2.1741643   0.67193576   -1.5022286   0.12985915    11412.573     1000 
 1218000   0.42869358   -2.1613585   0.64239733   -1.5189611   0.12838869    11343.717     1000 
 1220000   0.43209857    -2.173466   0.64749971   -1.5259663   0.12572608    11494.224     1000 
 1222000   0.41303582   -2.1586773   0.61893418   -1.5397432   0.13074064    11297.956     1000 
 1224000   0.42279813   -2.2042083   0.63356299   -1.5706453   0.12700072    11280.041     1000 
 1226000   0.42869149   -2.1248718    0.6423942   -1.4824776   0.12748595    11329.417     1000 
 1228000    0.4416548     -2.17016   0.66181972   -1.5083403   0.13679246    11423.857     1000 
 1230000   0.41493388   -2.1560194   0.62177842    -1.534241   0.12227305    11363.877     1000 
 1232000   0.39703896   -2.2094377   0.59496288   -1.6144748   0.12270715    11369.507     1000 
 1234000   0.41552118   -2.1907616   0.62265849   -1.5681031   0.12848803    11374.524     1000 
 1236000   0.41469897   -2.1993207   0.62142641   -1.5778943   0.13192096    11327.442     1000 
 1238000   0.41984258   -2.1558885   0.62913411   -1.5267544   0.14052817    11288.951     1000 
 1240000   0.41747002   -2.1333684   0.62557883   -1.5077896   0.11317608    11504.655     1000 
 1242000   0.41753159   -2.2376907   0.62567109   -1.6120196   0.12354802    11422.248     1000 
 1244000   0.42465174   -2.1259196   0.63634063    -1.489579   0.13952681    11318.668     1000 
 1246000   0.43057619   -2.1768072   0.64521841   -1.5315888   0.11320801    11546.518     1000 
 1248000     0.414833   -2.1985197   0.62162724   -1.5768924   0.12136747    11358.736     1000 
 1250000   0.41497314   -2.1458208   0.62183725   -1.5239835   0.11830452    11341.979     1000 
 1252000   0.41645978   -2.1512251   0.62406497   -1.5271601   0.12615061    11315.646     1000 
 1254000   0.43368472   -2.1696403   0.64987656   -1.5197637   0.12911901    11353.744     1000 
 1256000   0.42035189   -2.1625477    0.6298973   -1.5326504   0.13236464    11318.303     1000 
 1258000   0.41473459   -2.1423933   0.62147979   -1.5209135   0.13939335    11295.924     1000 
 1260000   0.42261508   -2.1899041    0.6332887   -1.5566154   0.12102586    11400.436     1000 
 1262000   0.41577726    -2.183437   0.62304223   -1.5603948    0.1246435     11473.27     1000 
 1264000   0.42837776   -2.1814534   0.64192407   -1.5395294   0.13334737    11389.848     1000 
 1266000   0.42235443   -2.1541656   0.63289812   -1.5212675   0.12727247    11323.262     1000 
 1268000   0.41687526   -2.1257275   0.62468757   -1.5010399   0.13720404    11224.306     1000 
 1270000    0.4157642   -2.1531985   0.62302266   -1.5301759   0.12611294    11353.957     1000 
 1272000   0.42772116    -2.126107   0.64094016   -1.4851669   0.12926923    11418.526     1000 
 1274000   0.43613702   -2.1644098   0.65355132   -1.5108585   0.13507314    11301.743     1000 
 1276000   0.41799458   -2.1598998   0.62636487   -1.5335349   0.13924066    11285.376     1000 
 1278000   0.42875172   -2.1574663   0.64248446   -1.5149818   0.12357831    11430.376     1000 
 1280000   0.42992269   -2.1545839   0.64423915   -1.5103448   0.12857351        11413     1000 
 1282000   0.43181096   -2.1193581   0.64706873   -1.4722894   0.12793973    11304.826     1000 
 1284000   0.41824337   -2.1244646    0.6267377   -1.4977269   0.13333573    11255.579     1000 
 1286000   0.44098184     -2.17794   0.66081129   -1.5171287   0.13087905    11430.526     1000 
 1288000   0.42684649   -2.2068994   0.63962946   -1.5672699   0.12973366    11380.911     1000 
 1290000   0.41748193    -2.197223   0.62559667   -1.5716263   0.12099113    11589.231     1000 
 1292000   0.40622223   -2.1635077   0.60872402   -1.5547837   0.14062388    11193.603     1000 
 1294000   0.41858679   -2.1652629    0.6272523   -1.5380106   0.12589824    11431.585     1000 
 1296000   0.41925627   -2.1702655   0.62825553     -1.54201   0.12729234    11409.071     1000 
 1298000   0.40359169   -2.1687832   0.60478214   -1.5640011   0.12591652      11388.8     1000 
 1300000   0.41225487   -2.1520887   0.61776393   -1.5343248   0.12664204    11347.446     1000 
 1302000   0.42373834   -2.1402706    0.6349719   -1.5052987   0.13248438    11346.832     1000 
 1304000   0.42369633   -2.1820556   0.63490895   -1.5471467   0.13696852     11302.65     1000 
 1306000   0.41470353   -2.1951298   0.62143324   -1.5736965   0.12554383    11365.235     1000 
 1308000   0.43454892   -2.1843279   0.65117156   -1.5331563   0.12442176    11467.818     1000 
 1310000   0.42115553   -2.2104902   0.63110156   -1.5793887   0.12232846    11480.091     1000 
 1312000   0.42043236   -2.1294677   0.63001789   -1.4994499   0.14099086    11244.525     1000 
 1314000   0.43009162   -2.1510027    0.6444923   -1.5065104   0.12887138    11362.209     1000 
 1316000   0.40867357   -2.1694777   0.61239734   -1.5570804   0.13373726     11295.62     1000 
 1318000   0.40778981   -2.1441482   0.61107303   -1.5330752   0.13077639    11363.094     1000 
 1320000    0.4010467   -2.1445335   0.60096848    -1.543565    0.1235231    11415.122     1000 
 1322000   0.42497823   -2.1627228   0.63682987   -1.5258929   0.12637827    11438.537     1000 
 1324000   0.41387853   -2.1716008   0.62019698   -1.5514039   0.13463723    11299.283     1000 
 1326000   0.42858229   -2.1711343   0.64223056   -1.5289038   0.12271639    11410.231     1000 
 1328000   0.43589276   -2.1318203    0.6531853   -1.4786349    0.1382231    11244.511     1000 
 1330000   0.42661212   -2.1849358   0.63927826   -1.5456575   0.12753557    11477.194     1000 
 1332000   0.41998131   -2.1385249     0.629342   -1.5091829   0.13407706    11365.669     1000 
 1334000   0.41331424   -2.1227859   0.61935139   -1.5034345   0.14078656    11320.155     1000 
 1336000    0.4289628   -2.1039686   0.64280075   -1.4611678   0.12621076    11350.398     1000 
 1338000   0.42462432   -2.1839456   0.63629954   -1.5476461   0.13987697    11271.729     1000 
 1340000   0.40442615    -2.167764   0.60603258   -1.5617314   0.12472774    11490.291     1000 
 1342000   0.42143625   -2.1582589   0.63152221   -1.5267367   0.14010844    11339.526     1000 
 1344000   0.42339249   -2.1605176   0.63445365   -1.5260639   0.12793466    11317.347     1000 
 1346000   0.43334472     -2.15058   0.64936706   -1.5012129   0.14332134    11275.589     1000 
 1348000   0.41551024   -2.1412611    0.6226421    -1.518619   0.13091571    11364.802     1000 
 1350000   0.41772331   -2.1792303   0.62595837    -1.553272   0.14414905     11319.57     1000 
 1352000   0.41157768   -2.1745111   0.61674916   -1.5577619   0.14061727    11292.103     1000 
 1354000   0.41584227   -2.1470798   0.62313964   -1.5239401   0.12354628    11381.612     1000 
 1356000   0.40526253   -2.1033313   0.60728591   -1.4960454   0.12409039    11254.045     1000 
 1358000   0.42514879   -2.1644129   0.63708546   -1.5273274   0.13653772    11331.496     1000 
 1360000   0.41521619   -2.1951825   0.62220147    -1.572981   0.13236902     11306.38     1000 
 1362000   0.43195981   -2.1493175   0.64729177   -1.5020257   0.14475546    11258.107     1000 
 1364000   0.42151323   -2.1872494   0.63163758   -1.5556119   0.12485372    11424.629     1000 
 1366000   0.43297179   -2.1320961   0.64880822   -1.4832879   0.12427049    11401.175     1000 
 1368000   0.42704408   -2.1457704   0.63992556   -1.5058449   0.13288178    11370.329     1000 
 1370000   0.42980276   -2.1354337   0.64405944   -1.4913743    0.1342311    11407.842     1000 
 1372000   0.40338174   -2.1464558   0.60446754   -1.5419882   0.12819886    11398.174     1000 
 1374000   0.42455414   -2.1263717   0.63619438   -1.4901773   0.13472388    11352.917     1000 
 1376000   0.42006922     -2.15946   0.62947373   -1.5299863   0.11003129    11511.276     1000 
 1378000   0.42999046   -2.2089078    0.6443407   -1.5645671   0.14041387     11295.39     1000 
 1380000   0.42023086   -2.1324421   0.62971594   -1.5027261   0.12522532    11412.769     1000 
 1382000    0.4119227   -2.1099535   0.61726617   -1.4926873   0.11644071    11300.334     1000 
 1384000   0.43382406    -2.214298   0.65008536   -1.5642126   0.12273682    11495.298     1000 
 1386000   0.42900557    -2.157439   0.64286485   -1.5145742   0.12326491    11422.338     1000 
 1388000   0.41168256   -2.1316296   0.61690632   -1.5147233   0.13398129     11252.13     1000 
 1390000   0.41529433    -2.187536   0.62231855   -1.5652175   0.11599764    11418.746     1000 
 1392000    0.4343633   -2.1110106   0.65089341   -1.4601172   0.13042019    11414.474     1000 
 1394000   0.41142719   -2.1681284   0.61652364   -1.5516048   0.13564006    11324.849     1000 
 1396000   0.42135036   -2.1617609   0.63139352   -1.5303674   0.12768186    11347.179     1000 
 1398000   0.43109932   -2.1489306   0.64600233   -1.5029282   0.13495924    11362.463     1000 
 1400000   0.41443936   -2.1782694   0.62103737   -1.5572321   0.13044993    11253.143     1000 
 1402000   0.43993129   -2.1724551   0.65923704   -1.5132181   0.13454534    11396.854     1000 
 1404000   0.42110796   -2.1148193   0.63103028    -1.483789   0.13411142    11317.281     1000 
 1406000   0.40621985   -2.1807294   0.60872045   -1.5720089   0.12122436     11506.13     1000 
 1408000   0.41930436   -2.1901369   0.62832758   -1.5618093   0.13262312    11390.701     1000 
 1410000   0.41568399   -2.1591659   0.62290246   -1.5362635   0.13017731    11338.216     1000 
 1412000   0.43316833   -2.1261516   0.64910274   -1.4770489   0.13561267    11328.771     1000 
 1414000   0.40141537   -2.1538413   0.60152094   -1.5523204   0.12170055    11472.884     1000 
 1416000   0.42767013   -2.1639092   0.64086369   -1.5230456   0.12462106    11389.713     1000 
 1418000   0.42366715   -2.1465195   0.63486523   -1.5116542    0.1185344    11443.017     1000 
 1420000   0.43874851   -2.1618353   0.65746464   -1.5043707   0.13397009    11433.847     1000 
 1422000   0.43012905   -2.1871154   0.64454839    -1.542567    0.1395164    11368.758     1000 
 1424000   0.40685884   -2.1346957   0.60967797   -1.5250177   0.12421905    11284.806     1000 
 1426000   0.41856453   -2.1693349   0.62721895   -1.5421159   0.13103188    11384.047     1000 
 1428000    0.4187408   -2.1605981   0.62748308   -1.5331151   0.12656441    11275.983     1000 
 1430000   0.42651655   -2.1538498   0.63913505   -1.5147147   0.14065574    11326.737     1000 
 1432000   0.42989308   -2.1567726   0.64419478   -1.5125779   0.11752642    11421.569     1000 
 1434000   0.44461698   -2.1652201   0.66625855   -1.4989616   0.13754156    11280.503     1000 
 1436000   0.41722658   -2.2279023   0.62521403   -1.6026882   0.13016733     11439.43     1000 
 1438000   0.39902766    -2.171721   0.59794295   -1.5737781   0.12359163     11342.44     1000 
 1440000    0.4375677   -2.1004219    0.6556952   -1.4447267   0.10779752    11568.402     1000 
 1442000   0.43137643   -2.2391197   0.64641757   -1.5927022    0.1198789    11515.041     1000 
 1444000   0.42101707     -2.20299   0.63089408   -1.5720959   0.12642969    11452.112     1000 
 1446000   0.42637236   -2.1061197   0.63891899   -1.4672007   0.13134305    11371.597     1000 
 1448000   0.43405827   -2.1514044   0.65043632   -1.5009681   0.13915135    11247.078     1000 
 1450000   0.42791307   -2.1832783   0.64122774   -1.5420505   0.12514342    11424.574     1000 
 1452000   0.44556268   -2.1725671   0.66767568   -1.5048914   0.13913953    11362.781     1000 
 1454000   0.41573999   -2.2151245   0.62298638   -1.5921381   0.12306286    11404.903     1000 
 1456000   0.41512757   -2.1479888   0.62206866   -1.5259202   0.13418001    11364.641     1000 
 1458000   0.41826131   -2.1517704   0.62676457   -1.5250058   0.12502884     11355.29     1000 
 1460000   0.41036763   -2.1263358    0.6149359   -1.5113999   0.12979592     11323.56     1000 
 1462000   0.41685733    -2.098625   0.62466071   -1.4739643   0.13993841    11248.516     1000 
 1464000    0.4119083   -2.1789689   0.61724459   -1.5617243   0.12473822    11404.866     1000 
 1466000   0.41974946   -2.1707144   0.62899457   -1.5417199   0.13424253    11235.728     1000 
 1468000   0.42047057   -2.2347769   0.63007514   -1.6047017   0.14021357    11377.826     1000 
 1470000   0.41777342    -2.180616   0.62603347   -1.5545825   0.12776932    11498.302     1000 
 1472000   0.43029273   -2.1019954   0.64479365   -1.4572018   0.14183184    11270.469     1000 
 1474000   0.40749489   -2.2000417    0.6106311   -1.5894106   0.13707009     11411.45     1000 
 1476000   0.42955228   -2.1643329   0.64368409   -1.5206488   0.12748073    11297.409     1000 
 1478000   0.41779992   -2.1638782   0.62607318   -1.5378051   0.13002958    11314.306     1000 
 1480000   0.42943368   -2.1654356   0.64350636   -1.5219292    0.1377633    11367.801     1000 
 1482000    0.4127901   -2.1770747   0.61856597   -1.5585088   0.12257568    11388.872     1000 
 1484000   0.42069795   -2.1330152   0.63041587   -1.5025993   0.13382696    11305.441     1000 
 1486000   0.41247684   -2.1859721   0.61809655   -1.5678755   0.12488569    11423.787     1000 
 1488000   0.42035034   -2.1841081   0.62989499   -1.5542131   0.12857233    11385.102     1000 
 1490000   0.42427508   -2.1967778   0.63577621   -1.5610015   0.13149573    11325.283     1000 
 1492000   0.40882322   -2.1668909   0.61262159   -1.5542693   0.13755331    11354.404     1000 
 1494000   0.42283342   -2.1715357   0.63361589   -1.5379198   0.11942848    11637.268     1000 
 1496000   0.42166737   -2.1962048   0.63186856   -1.5643363   0.13031087     11395.68     1000 
 1498000     0.416662   -2.1454307   0.62436801   -1.5210627   0.14045013    11280.991     1000 
 1500000    0.4364715    -2.170411   0.65405254   -1.5163585   0.13969778    11309.066     1000 
 1502000   0.40175028   -2.1886362    0.6020228   -1.5866134   0.11543659    11570.959     1000 
 1504000   0.41403835   -2.1605907   0.62043647   -1.5401543    0.1427701    11291.383     1000 
 1506000   0.42600207   -2.1437621    0.6383641    -1.505398   0.12732405    11379.368     1000 
 1508000   0.41811878   -2.1534384     0.626551   -1.5268874   0.11737633    11453.357     1000 
 1510000   0.42958126   -2.1667551   0.64372752   -1.5230276   0.13361094    11342.018     1000 
 1512000   0.41151401   -2.1763344   0.61665375   -1.5596807   0.12692731     11302.32     1000 
 1514000    0.4220499   -2.1477074   0.63244177   -1.5152656   0.13241218    11377.371     1000 
 1516000   0.41874001   -2.1758723    0.6274819   -1.5483904   0.12643802    11477.882     1000 
 1518000   0.44097211   -2.1500075    0.6607967   -1.4892108   0.13745949    11373.371     1000 
 1520000   0.42078631   -2.1109072   0.63054829   -1.4803589   0.14543417    11196.667     1000 
 1522000   0.41416009   -2.1378892   0.62061889   -1.5172703   0.12557987    11392.067     1000 
 1524000   0.41457651   -2.1609262    0.6212429   -1.5396833   0.12158287    11487.626     1000 
 1526000   0.40637937   -2.1985762   0.60895949   -1.5896167   0.12296896    11493.282     1000 
 1528000   0.40675554   -2.1530365   0.60952317   -1.5435134   0.11938791    11427.697     1000 
 1530000   0.44042363   -2.1556796   0.65997482   -1.4957048   0.13906425    11309.182     1000 
 1532000   0.40528958   -2.2025554   0.60732643    -1.595229   0.12810359    11412.392     1000 
 1534000   0.42010486   -2.1788969   0.62952713   -1.5493698   0.12745616    11375.223     1000 
 1536000   0.43513766   -2.1671802   0.65205379   -1.5151264   0.12638322    11330.201     1000 
 1538000   0.43126783   -2.1606615   0.64625484   -1.5144067   0.12491405    11532.258     1000 
 1540000   0.43233835   -2.1326138   0.64785902   -1.4847547   0.13598296     11325.36     1000 
 1542000   0.41063687   -2.1352158   0.61533935   -1.5198764   0.13527811    11317.302     1000 
 1544000   0.40733413   -2.1911677    0.6103902   -1.5807775   0.14016359    11287.973     1000 
 1546000   0.42425312   -2.1525825    0.6357433   -1.5168392   0.13184645    11373.526     1000 
 1548000   0.41710738   -2.1345543   0.62503541   -1.5095189   0.13494407    11214.269     1000 
 1550000   0.43832621   -2.1861855   0.65683182   -1.5293537   0.13158698    11368.174     1000 
 1552000   0.41274989   -2.1541045   0.61850572   -1.5355988    0.1288623    11336.637     1000 
 1554000   0.42666289   -2.1648507   0.63935434   -1.5254964   0.12438355    11437.628     1000 
 1556000   0.41383299   -2.1583338   0.62012873    -1.538205   0.13195787    11435.584     1000 
 1558000    0.4361457    -2.141634   0.65356434   -1.4880696   0.13185147    11347.411     1000 
 1560000   0.40247578   -2.1664238   0.60310995   -1.5633139   0.13576596    11269.886     1000 
 1562000    0.4111237   -2.1617905   0.61606886   -1.5457216   0.13527557    11300.792     1000 
 1564000   0.42520876   -2.1512408   0.63717533   -1.5140654   0.11766547    11487.927     1000 
 1566000   0.41555764   -2.1941375   0.62271312   -1.5714244   0.12763839    11449.314     1000 
 1568000   0.41572803   -2.1763355   0.62296845    -1.553367   0.12313962    11375.416     1000 
 1570000   0.41786501   -2.1584877   0.62617072    -1.532317   0.13376707    11330.221     1000 
 1572000   0.41675784   -2.1607534   0.62451162   -1.5362418   0.12743014    11339.403     1000 
 1574000   0.42016477    -2.164222   0.62961691   -1.5346051   0.13215511    11293.982     1000 
 1576000   0.41645299   -2.1878333    0.6240548   -1.5637785   0.12789671    11436.858     1000 
 1578000   0.41677184   -2.1571714    0.6245326   -1.5326388   0.14089358     11289.14     1000 
 1580000   0.40168468   -2.1649991   0.60192449   -1.5630746   0.12914265    11450.955     1000 
 1582000   0.42002571     -2.16598   0.62940852   -1.5365715   0.12658897    11354.655     1000 
 1584000   0.40413222   -2.0994607   0.60559213   -1.4938686    0.1254614    11368.381     1000 
 1586000   0.42844739   -2.1341299   0.64202842   -1.4921015   0.12705072    11452.265     1000 
 1588000   0.41364131   -2.1290228    0.6198415   -1.5091813   0.12766448     11329.34     1000 
 1590000   0.41661029   -2.1414107   0.62429052   -1.5171202   0.12753941    11312.264     1000 
 1592000   0.42894314   -2.1456881    0.6427713   -1.5029168   0.11866221    11439.268     1000 
 1594000   0.41458812   -2.1198885    0.6212603   -1.4986282   0.13462072    11258.501     1000 
 1596000   0.41074522   -2.1921496   0.61550172   -1.5766479   0.12692668    11348.153     1000 
[...]
 2612000   0.42952469   -2.1515904   0.64364275   -1.5079477   0.12617557    11355.622     1000 
 2614000   0.42258162   -2.1156717   0.63323856   -1.4824332   0.14012043    11180.494     1000 
 2616000   0.40811257   -2.1228386   0.61155668   -1.5112819   0.12141222    11296.228     1000 
 2618000   0.39776616   -2.1859215   0.59605259   -1.5898689    0.1341636     11329.16     1000 
 2620000   0.40398211   -2.2180573   0.60536719   -1.6126901   0.12001489    11467.335     1000 
 2622000    0.4371443   -2.1801688   0.65506073    -1.525108   0.12741356    11502.967     1000 
 2624000   0.41030732   -2.2179759   0.61484552   -1.6031303   0.11970381     11505.77     1000 
 2626000   0.40906475   -2.1438284   0.61298352   -1.5308449   0.13367515    11335.983     1000 
 2628000   0.40833475   -2.2088423   0.61188963   -1.5969526   0.12786512    11332.274     1000 
 2630000    0.4151675   -2.1682159    0.6221285   -1.5460874   0.13530643    11322.292     1000 
 2632000   0.43097467    -2.172687   0.64581554   -1.5268715   0.13371828    11273.374     1000 
 2634000    0.4229392   -2.1946923   0.63377439   -1.5609179   0.12562965    11430.214     1000 
 2636000   0.41137128   -2.1777253   0.61643986   -1.5612854   0.13010487    11301.554     1000 
 2638000   0.39850226   -2.1908602   0.59715564   -1.5937046   0.13038369    11428.615     1000 
 2640000    0.4032454   -2.1661293   0.60426323   -1.5618661   0.12631449    11371.253     1000 
 2642000   0.43293551    -2.122845   0.64875387   -1.4740911   0.13352946    11288.145     1000 
 2644000   0.41632546   -2.1756534    0.6238637   -1.5517897   0.12858342    11364.709     1000 
 2646000   0.43138217   -2.1593066   0.64642617   -1.5128804   0.12902614    11369.591     1000 
 2648000   0.43464789   -2.1078019   0.65131986    -1.456482   0.13407861    11273.876     1000 
 2650000   0.41799232   -2.1680148   0.62636149   -1.5416533   0.13575959    11350.201     1000 
 2652000   0.41878388    -2.167247   0.62754764   -1.5396994   0.14120291    11396.218     1000 
 2654000   0.41388282   -2.1884414   0.62020341    -1.568238    0.1283887    11405.328     1000 
 2656000   0.41696616    -2.180227   0.62482379   -1.5554032   0.13327775    11344.003     1000 
 2658000   0.42622175   -2.1238838   0.63869329   -1.4851905   0.13529001    11286.201     1000 
 2660000   0.39047605   -2.1137489   0.58512836   -1.5286206    0.1277471    11361.162     1000 
 2662000   0.40532038    -2.183303    0.6073726   -1.5759304   0.12205386    11335.644     1000 
 2664000   0.40637352   -2.2152972   0.60895072   -1.6063465   0.11998857    11446.445     1000 
 2666000   0.41713357   -2.1532766   0.62507465   -1.5282019   0.11546795    11413.085     1000 
 2668000   0.42898774   -2.1418793   0.64283813   -1.4990412   0.13691698    11162.495     1000 
 2670000   0.42632196   -2.1645614   0.63884345   -1.5257179   0.13391529    11386.669     1000 
 2672000    0.4102376   -2.2080042   0.61474105   -1.5932632   0.15289804    11322.683     1000 
 2674000   0.40825773   -2.1855015   0.61177421   -1.5737273   0.11407645    11453.391     1000 
 2676000   0.42747945   -2.1959185   0.64057796   -1.5553405    0.1341677    11369.454     1000 
 2678000   0.43088648   -2.1267376   0.64568339   -1.4810542   0.13048848     11303.02     1000 
 2680000   0.42026314   -2.1752001   0.62976431   -1.5454358   0.12545471    11397.607     1000 
 2682000   0.43362637   -2.1473655   0.64978912   -1.4975764   0.12598263    11395.833     1000 
 2684000    0.4346593   -2.1998759   0.65133696   -1.5485389   0.12598691    11429.032     1000 
 2686000    0.4196278   -2.1539879   0.62881226   -1.5251756   0.12799163    11401.174     1000 
 2688000   0.41434126   -2.2082144   0.62089038    -1.587324   0.13212867    11399.041     1000 
 2690000   0.42959187   -2.2003388   0.64374342   -1.5565953   0.12796892    11432.849     1000 
 2692000   0.42974597   -2.1913804   0.64397434   -1.5474061    0.1292394    11409.486     1000 
 2694000   0.42608385   -2.1722203   0.63848665   -1.5337337   0.12762767      11314.6     1000 
 2696000   0.42949172   -2.1554023   0.64359335   -1.5118089    0.1387795    11241.526     1000 
 2698000   0.39370067   -2.1093508   0.58996045   -1.5193904   0.13580087    11311.718     1000 
 2700000   0.42225178   -2.1527142   0.63274429   -1.5199699   0.12717284    11332.505     1000 
 2702000   0.40897638    -2.165693   0.61285111   -1.5528419   0.12737354    11301.213     1000 
 2704000   0.43595266   -2.1598335   0.65327506   -1.5065584   0.12176929    11375.467     1000 
 2706000    0.4081069   -2.1058537    0.6115482   -1.4943055    0.1384854    11266.432     1000 
 2708000   0.41385874   -2.1857894   0.62016732   -1.5656221    0.1323546    11352.466     1000 
 2710000   0.42144473   -2.1853435   0.63153492   -1.5538086   0.11897279     11567.96     1000 
 2712000   0.40776374   -2.1458293   0.61103396   -1.5347953   0.14398683    11188.348     1000 
 2714000   0.43575256   -2.1686192   0.65297522    -1.515644   0.13903129    11203.956     1000 
 2716000    0.4143957   -2.1690876   0.62097195   -1.5481157   0.13604378    11257.168     1000 
 2718000   0.43232318   -2.1729789   0.64783628   -1.5251426   0.12659561      11421.5     1000 
 2720000   0.42058426   -2.1507856   0.63024551   -1.5205401   0.12665105    11409.169     1000 
 2722000   0.40650447   -2.1586296   0.60914695   -1.5494826   0.12343036    11355.731     1000 
 2724000   0.41619153   -2.1256741   0.62366301   -1.5020111   0.13748867     11359.49     1000 
 2726000   0.41454904   -2.1893399   0.62120174   -1.5681381   0.13061256    11353.435     1000 
 2728000   0.41888078   -2.1852371   0.62769285   -1.5575443   0.11288928    11572.113     1000 
 2730000   0.41510366   -2.2086441   0.62203284   -1.5866113   0.12926177    11351.811     1000 
 2732000   0.42371417   -2.1769844   0.63493568   -1.5420487   0.12269982    11421.985     1000 
 2734000   0.43503319   -2.1637842   0.65189724   -1.5118869   0.13622527    11333.041     1000 
 2736000    0.4219713   -2.1950097   0.63232399   -1.5626857   0.14100055    11292.534     1000 
 2738000   0.43231273   -2.1499636   0.64782062    -1.502143   0.14098933    11296.247     1000 
 2740000   0.42504663    -2.175413   0.63693238   -1.5384806   0.12942901    11298.672     1000 
 2742000   0.43271272   -2.1659954      0.64842   -1.5175754   0.12354698    11498.116     1000 
 2744000   0.44174279   -2.1466351   0.66195157   -1.4846836   0.13744206    11243.998     1000 
 2746000   0.43529351   -2.1770986   0.65228732   -1.5248113   0.13178537    11348.575     1000 
 2748000   0.42698914    -2.109055   0.63984323   -1.4692118   0.13820437    11189.007     1000 
 2750000   0.41789647   -2.1507604   0.62621787   -1.5245426   0.12301888    11435.616     1000 
 2752000   0.41897072   -2.1453425   0.62782762   -1.5175149     0.128924    11444.614     1000 
 2754000   0.42019182   -2.1107339   0.62965744   -1.4810764   0.13778525    11243.868     1000 
 2756000   0.41077092   -2.1347496   0.61554023   -1.5192094   0.13021707    11340.266     1000 
 2758000   0.42397106   -2.1729515   0.63532063   -1.5376308   0.14358307    11286.412     1000 
 2760000   0.43332305   -2.1652588   0.64933459   -1.5159242   0.13526907    11458.971     1000 
 2762000   0.40941058   -2.1737912   0.61350176   -1.5602895   0.13248681    11385.682     1000 
 2764000   0.43466565   -2.1916945   0.65134648    -1.540348   0.12199656     11500.67     1000 
 2766000   0.39749822   -2.1413946   0.59565108   -1.5457436   0.12876142    11475.649     1000 
 2768000   0.43263452   -2.1628725   0.64830283   -1.5145696    0.1351663    11371.461     1000 
 2770000   0.40170212   -2.1370077   0.60195062   -1.5350571   0.13491023    11220.418     1000 
 2772000    0.4245467   -2.1290245   0.63618323   -1.4928413   0.13255864    11308.969     1000 
 2774000   0.43137926   -2.1595036   0.64642182   -1.5130817   0.11765724    11451.992     1000 
 2776000   0.41591046   -2.1919364   0.62324183   -1.5686945   0.12630438    11455.834     1000 
 2778000   0.41284559   -2.1589776   0.61864912   -1.5403285   0.13245554    11352.416     1000 
 2780000   0.41253702   -2.1857741   0.61818673   -1.5675874   0.11995366    11557.951     1000 
 2782000   0.43722723    -2.155299   0.65518501    -1.500114   0.13031516      11382.2     1000 
 2784000   0.40196498   -2.1545763   0.60234453   -1.5522317   0.12835971    11329.131     1000 
 2786000    0.4225281   -2.1564511   0.63315835   -1.5232927   0.13243814    11386.451     1000 
 2788000   0.43337274   -2.2021629   0.64940904   -1.5527539   0.12906604    11409.314     1000 
 2790000    0.4129966   -2.1452758   0.61887541   -1.5264004   0.12814764    11405.593     1000 
 2792000   0.43734267   -2.1840298   0.65535799   -1.5286718   0.13027112    11402.912     1000 
 2794000   0.40035415   -2.1443309   0.59993069   -1.5444002    0.1258207    11273.249     1000 
 2796000   0.41217517   -2.1544657   0.61764449   -1.5368212   0.13266342    11403.846     1000 
 2798000   0.41659386   -2.1555768   0.62426589   -1.5313109   0.13323876    11347.448     1000 
 2800000   0.41335705    -2.201831   0.61941554   -1.5824155   0.12069399    11539.454     1000 
 2802000   0.41325486   -2.2024061   0.61926241   -1.5831437   0.12712399    11427.248     1000 
 2804000   0.38972523    -2.192912   0.58400326   -1.6089088   0.12202625     11443.45     1000 
 2806000    0.4174978   -2.1282223   0.62562046   -1.5026018   0.14527545    11229.723     1000 
 2808000   0.42215234   -2.1774743   0.63259529    -1.544879   0.12812247    11415.475     1000 
 2810000   0.40789109   -2.1732648   0.61122479     -1.56204   0.12844255    11357.604     1000 
 2812000   0.42332632   -2.1607282   0.63435449   -1.5263737   0.14147058    11284.702     1000 
 2814000   0.44086446    -2.192032   0.66063539   -1.5313966   0.13395669    11433.998     1000 
 2816000   0.40602381   -2.1959524   0.60842668   -1.5875257   0.12584353    11361.503     1000 
 2818000   0.41988379   -2.1634125   0.62919586   -1.5342167   0.12610097    11419.015     1000 
 2820000   0.42343114   -2.1869532   0.63451156   -1.5524416   0.12662263    11381.579     1000 
 2822000   0.42302927   -2.1901067   0.63390936   -1.5561973   0.12483877    11325.807     1000 
 2824000   0.38981184   -2.1911292   0.58413304   -1.6069962   0.13124635    11395.544     1000 
 2826000   0.43503574   -2.1418967   0.65190105   -1.4899956   0.13290297    11228.924     1000 
 2828000   0.41557311   -2.1796207    0.6227363   -1.5568844    0.1377288    11326.038     1000 
 2830000   0.42371455   -2.1372415   0.63493626   -1.5023053    0.1396824    11354.826     1000 
 2832000   0.43472727    -2.111443   0.65143882   -1.4600041   0.13778945    11205.199     1000 
 2834000   0.41326954   -2.1817997   0.61928441   -1.5625153    0.1336715    11315.269     1000 
 2836000   0.41159133   -2.2070255   0.61676961   -1.5902558   0.13120424    11495.689     1000 
 2838000   0.42335516   -2.1712268    0.6343977   -1.5368291   0.13944674    11351.113     1000 
 2840000   0.41064821   -2.1491915   0.61535634   -1.5338351   0.11998425    11510.779     1000 
 2842000   0.41950451   -2.1669352    0.6286275   -1.5383077   0.12769918    11389.415     1000 
 2844000   0.41374875   -2.1785966    0.6200025   -1.5585941   0.13509695    11319.749     1000 
 2846000   0.42399723   -2.1655694   0.63535985   -1.5302096   0.13848853    11241.148     1000 
 2848000   0.40731559   -2.1744302   0.61036241   -1.5640678   0.11574019    11442.766     1000 
 2850000    0.4127633   -2.1626151   0.61852581   -1.5440893   0.13649158    11215.387     1000 
 2852000   0.41835591   -2.1560834   0.62690633    -1.529177   0.14223678    11240.597     1000 
 2854000    0.4216727   -2.1326347   0.63187654   -1.5007582   0.14402875     11274.94     1000 
 2856000   0.42679706   -2.1604954   0.63955539     -1.52094   0.13827264    11304.894     1000 
 2858000   0.41436199    -2.161446   0.62092144   -1.5405246    0.1419156    11327.437     1000 
 2860000   0.41658261   -2.1594285   0.62424904   -1.5351795   0.13270605     11376.64     1000 
 2862000   0.40229755   -2.1800752   0.60284288   -1.5772323   0.12914622    11352.587     1000 
 2864000   0.42618367   -2.1516787   0.63863622   -1.5130425   0.13213807    11316.594     1000 
 2866000   0.44786991   -2.1286117   0.67113305   -1.4574787   0.12459377    11389.094     1000 
 2868000   0.42359177   -2.1392692   0.63475227   -1.5045169   0.13123531    11296.325     1000 
 2870000   0.43476166   -2.1490846   0.65149035   -1.4975942   0.13221949    11371.727     1000 
 2872000   0.41408666   -2.2080571   0.62050886   -1.5875483    0.1215527    11443.175     1000 
 2874000    0.4328649   -2.1263795   0.64864805   -1.4777314    0.1295413     11337.73     1000 
 2876000   0.41249508   -2.1599673   0.61812387   -1.5418435   0.12248817    11512.675     1000 
 2878000   0.41151098   -2.1497016    0.6166492   -1.5330524   0.13979618    11280.659     1000 
 2880000   0.41785981   -2.1606335   0.62616292   -1.5344706   0.12716786    11370.946     1000 
 2882000   0.41155311    -2.173358   0.61671233   -1.5566457   0.11818779    11398.338     1000 
 2884000   0.41696954   -2.1897857   0.62482885   -1.5649568   0.13720374    11459.659     1000 
 2886000   0.43232446   -2.1451846   0.64783821   -1.4973464     0.141448    11350.688     1000 
 2888000   0.43972438   -2.1672661   0.65892698   -1.5083391   0.13167174    11391.638     1000 
 2890000   0.42076443   -2.2088093    0.6305155   -1.5782938   0.14123918    11212.958     1000 
 2892000   0.43111309    -2.176589   0.64602296   -1.5305661   0.13418631    11337.872     1000 
 2894000   0.42443621   -2.1637389   0.63601766   -1.5277212   0.13348155    11371.097     1000 
 2896000   0.42334528   -2.1889933    0.6343829   -1.5546104    0.1314178    11389.837     1000 
 2898000   0.40735022   -2.1456822   0.61041431   -1.5352679   0.13615615    11349.049     1000 
 2900000   0.40147953   -2.1769722   0.60161708   -1.5753551   0.12532374     11314.03     1000 
 2902000   0.41935222   -2.1779664   0.62839931   -1.5495671   0.12995722    11420.622     1000 
 2904000    0.4177496   -2.1325897   0.62599778   -1.5065919   0.13819057    11264.597     1000 
 2906000   0.42207182   -2.1584208   0.63247462   -1.5259462   0.12202383    11420.718     1000 
 2908000   0.42970735   -2.1768155   0.64391646   -1.5328991   0.14300031    11234.081     1000 
 2910000   0.40417606   -2.1807361   0.60565783   -1.5750783   0.12021517    11477.438     1000 
 2912000   0.42507329   -2.1287823   0.63697232   -1.4918099   0.13189736    11371.021     1000 
 2914000   0.43531704   -2.1356564   0.65232259   -1.4833338   0.13386839    11321.748     1000 
 2916000   0.40691838   -2.1998723   0.60976719   -1.5901051   0.13175294    11363.816     1000 
 2918000   0.41216799   -2.1234069   0.61763373   -1.5057732    0.1265813    11334.366     1000 
 2920000   0.43639941   -2.1396947   0.65394452   -1.4857502     0.120799    11330.748     1000 
 2922000   0.43729474   -2.1428722   0.65528617    -1.487586   0.13472789    11369.575     1000 
 2924000   0.42030613   -2.1715831   0.62982873   -1.5417543   0.14696003    11176.785     1000 
 2926000   0.40286549   -2.1350288   0.60369394   -1.5313349   0.13055786    11436.382     1000 
 2928000   0.41301608    -2.174644    0.6189046   -1.5557394   0.13564296    11330.869     1000 
 2930000   0.42570326   -2.1872089   0.63791633   -1.5492926    0.1277496    11466.134     1000 
 2932000   0.40932461    -2.150296   0.61337293   -1.5369231   0.12197549    11435.325     1000 
 2934000   0.40508053   -2.1809003   0.60701318   -1.5738871   0.12777112    11418.328     1000 
 2936000   0.41210121   -2.1631571   0.61753367   -1.5456235   0.13035865    11293.636     1000 
 2938000   0.41534834   -2.1697888   0.62239948   -1.5473893   0.14038146    11383.972     1000 
 2940000   0.41523181   -2.1780556   0.62222486   -1.5558307   0.12177128    11426.753     1000 
 2942000   0.41871023    -2.159354   0.62743728   -1.5319167    0.1297906     11375.01     1000 
 2944000   0.41787762   -2.1219979   0.62618962   -1.4958083   0.13402348    11349.023     1000 
 2946000   0.41931498   -2.1899006    0.6283435   -1.5615571   0.13721952    11404.577     1000 
 2948000   0.41406682   -2.1913122   0.62047913   -1.5708331     0.126868    11350.325     1000 
 2950000   0.40859997   -2.1579648   0.61228705   -1.5456777   0.12553196    11405.404     1000 
 2952000   0.41074034   -2.2069691    0.6154944   -1.5914747   0.12725548    11475.438     1000 
 2954000   0.42488044   -2.1005617   0.63668334   -1.4638783   0.13761186    11277.573     1000 
 2956000   0.41148168   -2.1528627    0.6166053   -1.5362574   0.13471583    11255.723     1000 
 2958000    0.4434738   -2.1261161   0.66454549   -1.4615706    0.1238305    11400.801     1000 
 2960000    0.4289092   -2.1789366   0.64272044   -1.5362161   0.12951528    11486.193     1000 
 2962000   0.42516749   -2.1676481   0.63711349   -1.5305346   0.11958673    11539.587     1000 
 2964000   0.43748515   -2.1907243    0.6555715   -1.5351529   0.12943009    11473.889     1000 
 2966000   0.42173287   -2.1818146   0.63196671   -1.5498479   0.13736415    11348.985     1000 
 2968000   0.42285846   -2.1483483   0.63365341   -1.5146948    0.1343313     11302.22     1000 
 2970000   0.41489609   -2.1622691   0.62172179   -1.5405474   0.13387945    11320.109     1000 
 2972000   0.42585632   -2.1888769    0.6381457   -1.5507312   0.13393527    11319.348     1000 
 2974000   0.40933913   -2.1879382   0.61339468   -1.5745435   0.12739837    11457.325     1000 
 2976000   0.40543122   -2.1838416   0.60753869    -1.576303   0.12526072    11473.065     1000 
 2978000   0.41947964   -2.2307864   0.62859024   -1.6021962   0.12321118    11546.694     1000 
 2980000   0.39141125   -2.1532037   0.58652975   -1.5666739   0.12605887    11370.558     1000 
 2982000   0.43218517   -2.2444429   0.64762948   -1.5968134   0.11882941    11518.423     1000 
 2984000     0.419504   -2.2064093   0.62862674   -1.5777826   0.13641765    11416.283     1000 
 2986000   0.41368209   -2.1764269   0.61990261   -1.5565243   0.12018316    11402.156     1000 
 2988000   0.42104303     -2.19902   0.63093298    -1.568087   0.11447265    11565.508     1000 
 2990000   0.42438321   -2.1729899   0.63593824   -1.5370517   0.13160816     11374.39     1000 
 2992000    0.4154788   -2.1490556   0.62259499   -1.5264606   0.12278526    11377.421     1000 
 2994000   0.41557965   -2.2032244    0.6227461   -1.5804783   0.12340572    11474.603     1000 
 2996000   0.43656785   -2.1955093   0.65419692   -1.5413124   0.13050384    11366.262     1000 
 2998000   0.42524125   -2.1310475   0.63722401   -1.4938234   0.13640732    11334.624     1000 
 3000000   0.41563509   -2.1769352   0.62282918   -1.5541061   0.13603615    11351.623     1000 
Loop time of 1663.22 on 4 procs for 3000000 steps with 1000 atoms

Performance: 779211.561 tau/day, 1803.730 timesteps/s
95.5% CPU use with 4 MPI tasks x no OpenMP threads

MPI task timing breakdown:
Section |  min time  |  avg time  |  max time  |%varavg| %total
---------------------------------------------------------------
Pair    | 1234.8     | 1244.3     | 1251.7     |  17.6 | 74.81
Neigh   | 105.77     | 106.34     | 106.77     |   4.3 |  6.39
Comm    | 221.96     | 229.19     | 238.84     |  40.9 | 13.78
Output  | 0.03879    | 0.067778   | 0.15441    |  19.2 |  0.00
Modify  | 73.758     | 74.63      | 75.484     |   8.3 |  4.49
Other   |            | 8.731      |            |       |  0.52

Nlocal:    250 ave 258 max 244 min
Histogram: 1 0 1 0 0 1 0 0 0 1
Nghost:    1725 ave 1731 max 1708 min
Histogram: 1 0 0 0 0 0 0 0 0 3
Neighs:    14534.2 ave 15226 max 14104 min
Histogram: 1 0 2 0 0 0 0 0 0 1

Total # of neighbors = 58137
Ave neighs/atom = 58.137
Neighbor list builds = 150000
Dangerous builds not checked

Total wall time: 0:27:43
