LAMMPS (29 Sep 2021 - Update 2)
OMP_NUM_THREADS environment is not set. Defaulting to 1 thread. (src/comm.cpp:98)
  using 1 OpenMP thread(s) per MPI task
# ----------------------- Inicialização -----------------------

units			lj
atom_style 		atomic
dimension 		3
boundary 		p p p

# -------------------- Criação dos Átomos ---------------------

read_data 		topologia.txt
Reading data file ...
  orthogonal box = (0.0000000 0.0000000 0.0000000) to (21.540000 21.540000 21.540000)
  1 by 2 by 2 MPI processor grid
  reading atoms ...
  1000 atoms
  read_data CPU = 0.009 seconds

velocity 		all create ${temp} 87287 rot yes dist gaussian
velocity 		all create 0.32 87287 rot yes dist gaussian

# ------------------ Interação Interatômica -------------------

pair_style		table linear 2000
pair_coeff		1 1 force.table AA 10.0
WARNING: 3 of 2000 force values in table AA are inconsistent with -dE/dr.
WARNING:  Should only be flagged at inflection points (src/pair_table.cpp:465)
pair_coeff		1 2 force.table AB 10.0
WARNING: 1 of 2000 force values in table AB are inconsistent with -dE/dr.
WARNING:  Should only be flagged at inflection points (src/pair_table.cpp:465)
pair_coeff		2 2 force.table BB 10.0
pair_write		1 1 2000 r 0.008 10.0 table.check AA
Appending to table file table.check with DATE: 2023-08-08
Neighbor list info ...
  update every 1 steps, delay 10 steps, check yes
  max neighbors/atom: 2000, page size: 100000
  master list distance cutoff = 10.3
  ghost atom cutoff = 10.3
  binsize = 5.15, bins = 5 5 5
  1 neighbor lists, perpetual/occasional/extra = 1 0 0
  (1) pair table, perpetual
      attributes: half, newton on
      pair build: half/bin/atomonly/newton
      stencil: half/bin/3d
      bin: standard
pair_write		1 2 2000 r 0.008 10.0 table.check AB
Appending to table file table.check with DATE: 2023-08-08
pair_write		2 2 2000 r 0.008 10.0 table.check BB
Appending to table file table.check with DATE: 2023-08-08

neighbor 		0.3 bin
neigh_modify		every 20 delay 0 check no

# ------------------------- Ensemble --------------------------------------

fix 1			all npt temp ${temp} ${temp} 0.5 iso ${press} ${press} 5
fix 1			all npt temp 0.32 ${temp} 0.5 iso ${press} ${press} 5
fix 1			all npt temp 0.32 0.32 0.5 iso ${press} ${press} 5
fix 1			all npt temp 0.32 0.32 0.5 iso 0.13 ${press} 5
fix 1			all npt temp 0.32 0.32 0.5 iso 0.13 0.13 5

# ---------------------- Função de Distribuição Radial -----------------------

#compute RDF 		all rdf 2000 1 1 1 2 2 2
#fix 2 			all ave/time 1 2000 2000 c_RDF[*] file rdf.data mode vector

# ------------------------- Execução ---------------------------

timestep 		0.005
thermo_style		custom step temp pe ke etotal press vol atoms
thermo			2000
run			3000000
Per MPI rank memory allocation (min/avg/max) = 2.758 | 2.758 | 2.758 Mbytes
Step Temp PotEng KinEng TotEng Press Volume Atoms 
       0         0.32  -0.47916925      0.47952 0.00035075105   0.41748719    9993.9483     1000 
    2000   0.32417694   -2.5443528   0.48577914   -2.0585736   0.12748851    11395.671     1000 
    4000   0.32347913   -2.5651426   0.48473348   -2.0804092   0.13477699     11384.38     1000 
    6000   0.32467491   -2.5945816   0.48652536   -2.1080562   0.12901204    11430.245     1000 
    8000   0.31861251   -2.6234019   0.47744085    -2.145961   0.12774437      11456.2     1000 
   10000   0.32548211   -2.5985039   0.48773494   -2.1107689   0.14244509    11344.899     1000 
   12000    0.3226617   -2.6057752   0.48350855   -2.1222666   0.14158983    11343.426     1000 
   14000   0.32147891   -2.6036944   0.48173614   -2.1219583   0.12226984    11464.821     1000 
   16000   0.32331881   -2.5848761   0.48449324   -2.1003828   0.13043536    11372.771     1000 
   18000   0.31530083     -2.57224   0.47247829   -2.0997617   0.13016133    11399.688     1000 
   20000   0.31927839   -2.5829866   0.47843866   -2.1045479   0.12368958    11437.215     1000 
   22000   0.32620755   -2.5883086   0.48882202   -2.0994866   0.12368108    11454.644     1000 
   24000   0.31501609   -2.6305217   0.47205161   -2.1584701   0.13087401    11348.068     1000 
   26000   0.31341928   -2.6020405   0.46965879   -2.1323817   0.12925678    11384.637     1000 
   28000   0.32309793   -2.5989926   0.48416224   -2.1148303   0.13725237    11362.412     1000 
   30000   0.32365975   -2.5939133   0.48500413   -2.1089091   0.12799302    11432.822     1000 
   32000   0.31470474   -2.5948248   0.47158506   -2.1232397   0.13045089    11401.999     1000 
   34000   0.30593509    -2.655787   0.45844373   -2.1973433   0.13341907    11443.809     1000 
   36000   0.32509503   -2.6336482    0.4871549   -2.1464933   0.12691365    11377.948     1000 
   38000   0.32719639   -2.6519169   0.49030379   -2.1616132   0.12589852     11407.11     1000 
   40000   0.31901038   -2.5636071   0.47803706   -2.0855701   0.13164674    11400.934     1000 
   42000   0.33901634   -2.5669729   0.50801598   -2.0589569   0.13675516    11358.996     1000 
   44000   0.31546605   -2.5882736   0.47272587   -2.1155478   0.13498684    11397.164     1000 
   46000    0.3263087   -2.6077183   0.48897359   -2.1187447   0.13366391    11386.109     1000 
   48000   0.31518706   -2.6086381   0.47230782   -2.1363303   0.13726711    11316.094     1000 
   50000   0.31942639   -2.6136234   0.47866045    -2.134963   0.13298807     11376.96     1000 
   52000    0.3248279   -2.5666475   0.48675462   -2.0798929    0.1306423    11462.863     1000 
   54000   0.31844552   -2.6183396   0.47719061    -2.141149   0.13257471    11433.221     1000 
   56000   0.33117399   -2.5896263   0.49626423    -2.093362   0.12366684    11436.783     1000 
   58000   0.32616897   -2.5679087    0.4887642   -2.0791445   0.12967961    11385.397     1000 
   60000    0.3264989   -2.6052552   0.48925861   -2.1159965   0.12572351    11470.009     1000 
   62000   0.32510379   -2.6003028   0.48716803   -2.1131348   0.12365237    11427.352     1000 
   64000   0.32079993    -2.608119   0.48071869   -2.1274003   0.13603823    11343.466     1000 
   66000   0.31968079    -2.596192   0.47904167   -2.1171503    0.1253303    11402.433     1000 
   68000   0.31778518   -2.6337682   0.47620109   -2.1575671   0.12499778    11452.942     1000 
   70000   0.31864553   -2.6419771   0.47749033   -2.1644868   0.12966024    11437.708     1000 
   72000   0.31318891   -2.6231504   0.46931358   -2.1538368   0.12067921    11471.363     1000 
   74000   0.32055271   -2.5785158   0.48034823   -2.0981675   0.13711517     11350.82     1000 
   76000   0.33056984   -2.6273853    0.4953589   -2.1320264   0.13838435    11397.109     1000 
   78000   0.30464546   -2.6013333   0.45651122    -2.144822   0.12913834    11390.295     1000 
   80000   0.32086004   -2.6118524   0.48080876   -2.1310437   0.12517767    11447.317     1000 
   82000    0.3223077   -2.5936574   0.48297809   -2.1106794   0.13361155    11406.513     1000 
   84000   0.33567279   -2.6329806   0.50300567   -2.1299749   0.11936029     11498.21     1000 
   86000    0.3313385   -2.6213463   0.49651075   -2.1248355   0.12244759    11518.127     1000 
   88000   0.31796587   -2.5689168   0.47647186   -2.0924449   0.12747543    11428.427     1000 
   90000   0.31977295   -2.5931094   0.47917977   -2.1139297   0.13440098    11382.984     1000 
   92000   0.30954618   -2.6356351   0.46385495   -2.1717802   0.11269518    11503.589     1000 
   94000   0.31840889   -2.6251525   0.47713571   -2.1480168    0.1246284    11455.289     1000 
   96000   0.33708469    -2.638367   0.50512141   -2.1332456   0.12510483    11484.034     1000 
   98000   0.32757345    -2.615017   0.49086881   -2.1241481   0.14336351    11377.503     1000 
  100000   0.31966062   -2.6044018   0.47901144   -2.1253904   0.14120909    11322.442     1000 
  102000    0.3222775   -2.6158186   0.48293283   -2.1328858   0.12419603    11540.547     1000 
  104000   0.31208997   -2.6221291   0.46766682   -2.1544623   0.12118861    11395.192     1000 
  106000    0.3264205   -2.6203541   0.48914112   -2.1312129   0.13557311    11408.443     1000 
  108000   0.32057681   -2.5946785   0.48038435   -2.1142942   0.13563183    11407.737     1000 
  110000   0.31598611   -2.6186201   0.47350518   -2.1451149   0.13688447    11435.025     1000 
  112000   0.32354058   -2.6249412   0.48482556   -2.1401156   0.13228304    11415.594     1000 
  114000   0.32506655   -2.6181137   0.48711222   -2.1310015   0.12021474    11455.743     1000 
  116000   0.31415284   -2.6007062   0.47075803   -2.1299482   0.11980102    11442.983     1000 
  118000   0.32071431    -2.611489    0.4805904   -2.1308986   0.14419502    11271.286     1000 
  120000   0.31355098    -2.602819   0.46985614   -2.1329629   0.12927109    11429.831     1000 
  122000   0.29990329    -2.582878   0.44940508   -2.1334729   0.13111058    11423.797     1000 
  124000   0.32649341   -2.6033396   0.48925037   -2.1140893   0.14504865    11302.447     1000 
  126000   0.32734687   -2.6329281   0.49052928   -2.1423988   0.12865818    11455.529     1000 
  128000   0.31293155   -2.6081689   0.46892793    -2.139241   0.13383889    11425.384     1000 
  130000   0.33237848   -2.6514864   0.49806916   -2.1534173   0.12530464    11534.261     1000 
  132000   0.31587379   -2.5921712   0.47333688   -2.1188343   0.12996219    11421.745     1000 
  134000   0.33825686   -2.6080278   0.50687791   -2.1011499   0.13339092    11485.172     1000 
  136000   0.31333563   -2.5898619   0.46953344   -2.1203285   0.13007836    11304.411     1000 
  138000   0.31302331   -2.5742452   0.46906543   -2.1051798   0.12227978      11433.4     1000 
  140000   0.29902867   -2.6368774   0.44809447   -2.1887829   0.12542961    11487.922     1000 
  142000   0.32625579   -2.5710883   0.48889431    -2.082194   0.12970804    11368.233     1000 
  144000   0.31831445   -2.6010052    0.4769942    -2.124011   0.13544276    11382.802     1000 
  146000   0.31138867    -2.583646   0.46661592   -2.1170301   0.12471896    11408.745     1000 
  148000   0.30604563   -2.5985878   0.45860937   -2.1399784   0.12208728    11442.293     1000 
  150000   0.32630968   -2.6321871   0.48897506    -2.143212   0.13307463    11351.473     1000 
  152000   0.31444863   -2.5788177   0.47120127   -2.1076164   0.14029491    11414.926     1000 
  154000   0.31867439   -2.5761732   0.47753357   -2.0986396    0.1309802    11346.752     1000 
  156000   0.31490564   -2.5830632    0.4718861   -2.1111771   0.13484788     11372.44     1000 
  158000   0.33377476   -2.6080987   0.50016148   -2.1079372   0.12751559    11452.514     1000 
  160000   0.30150804   -2.5742502   0.45180979   -2.1224404    0.1237415    11428.196     1000 
  162000   0.31980157   -2.5792336   0.47922266    -2.100011   0.13429821    11400.189     1000 
  164000   0.33387608   -2.6344748   0.50031331   -2.1341615   0.13131837    11448.725     1000 
  166000   0.32860326   -2.6075249   0.49241199   -2.1151129   0.12108013    11477.861     1000 
  168000   0.31326795   -2.5823668   0.46943203   -2.1129348   0.13141473    11382.037     1000 
  170000   0.31062668   -2.6189249   0.46547408   -2.1534508   0.13025513    11437.324     1000 
  172000   0.32414439   -2.6013016   0.48573037   -2.1155712   0.12782016    11551.955     1000 
  174000   0.31752902   -2.6088317   0.47581724   -2.1330144   0.13314958    11386.026     1000 
  176000   0.32296896   -2.5917637   0.48396899   -2.1077947   0.11564881    11515.869     1000 
  178000   0.32017301   -2.5723334   0.47977926   -2.0925541   0.11695249    11426.312     1000 
  180000   0.30502642   -2.6084428   0.45708209   -2.1513607   0.12508525     11477.63     1000 
  182000   0.32294325    -2.581868   0.48393046   -2.0979376   0.13259999    11361.588     1000 
  184000   0.31359961   -2.6289433   0.46992902   -2.1590143    0.1238193    11484.005     1000 
  186000   0.33689442   -2.6412108   0.50483629   -2.1363745   0.12970985    11429.811     1000 
  188000   0.31875823   -2.5957447    0.4776592   -2.1180855    0.1490443    11283.546     1000 
  190000   0.32315748   -2.5750252   0.48425149   -2.0907737   0.11926556     11501.68     1000 
  192000   0.32155732   -2.6011578   0.48185364   -2.1193041   0.13758088    11342.624     1000 
  194000   0.32260478   -2.6085062   0.48342327    -2.125083   0.13293003     11388.72     1000 
  196000   0.32220012   -2.5833749   0.48281688   -2.1005581   0.12674253    11330.762     1000 
  198000   0.32148832   -2.5881993   0.48175024   -2.1064491   0.12196793    11465.763     1000 
  200000   0.31815863    -2.604648    0.4767607   -2.1278873   0.13447425    11367.684     1000 
  202000   0.31388443    -2.625511   0.47035581   -2.1551552   0.11601467    11513.677     1000 
  204000    0.3205733   -2.6126059   0.48037908   -2.1322268   0.13777465      11352.1     1000 
  206000   0.31978262   -2.6035311   0.47919426   -2.1243368    0.1294698    11375.358     1000 
  208000   0.31684778   -2.5743311    0.4747964   -2.0995347   0.13293522    11373.926     1000 
  210000   0.32587835   -2.5957493   0.48832871   -2.1074206   0.12514193     11440.45     1000 
  212000   0.30354727   -2.6004478   0.45486558   -2.1455823   0.13454062    11396.768     1000 
  214000   0.31670825    -2.597859   0.47458731   -2.1232717   0.12290487    11399.187     1000 
  216000   0.29938482   -2.6188204   0.44862815   -2.1701923   0.12814375    11453.251     1000 
  218000   0.32573304   -2.5843191   0.48811096   -2.0962081   0.13564057    11385.224     1000 
  220000   0.31504606   -2.6124791   0.47209651   -2.1403826   0.11986018    11475.531     1000 
  222000   0.32569633   -2.6125166   0.48805595   -2.1244606   0.13018461    11432.397     1000 
  224000   0.31338003   -2.5981876   0.46959998   -2.1285876   0.13042664    11425.689     1000 
  226000   0.30833501   -2.6028134   0.46204002   -2.1407734   0.13770267    11334.616     1000 
  228000    0.3059355   -2.6248814   0.45844435   -2.1664371   0.12286714    11494.018     1000 
  230000   0.32674696   -2.6148421   0.48963032   -2.1252118   0.12777381    11465.758     1000 
  232000    0.3382238   -2.6171588   0.50682836   -2.1103304   0.13213614    11416.979     1000 
  234000   0.32145295   -2.5565712   0.48169725    -2.074874   0.12652347    11374.037     1000 
  236000   0.31547319   -2.5811715   0.47273658    -2.108435   0.14050337    11294.968     1000 
  238000   0.31290417    -2.624167    0.4688869   -2.1552801   0.12303247     11412.14     1000 
  240000   0.31396136   -2.6065176    0.4704711   -2.1360465   0.12587558    11404.376     1000 
  242000   0.31577795   -2.5820954   0.47319326   -2.1089021   0.12437941    11377.659     1000 
  244000   0.32239755   -2.5917833   0.48311272   -2.1086706   0.13373208    11404.331     1000 
  246000   0.33411775   -2.5595317   0.50067545   -2.0588562   0.13246011    11380.538     1000 
  248000    0.2982449   -2.6110377   0.44691998   -2.1641177   0.11504054    11466.053     1000 
  250000   0.32794294   -2.6180971    0.4914225   -2.1266746   0.13416699     11414.23     1000 
  252000   0.31801909   -2.5751027    0.4765516   -2.0985511   0.12564451    11474.569     1000 
  254000   0.33012801   -2.5930236   0.49469683   -2.0983268   0.13345543    11463.201     1000 
  256000   0.32928796   -2.6029059     0.493438   -2.1094679    0.1311118    11442.732     1000 
  258000   0.32196479   -2.6378488   0.48246423   -2.1553845   0.12177902    11488.082     1000 
  260000   0.31999927   -2.5583578    0.4795189   -2.0788389   0.13715094     11343.68     1000 
  262000   0.32452875   -2.5885349   0.48630633   -2.1022286   0.11623272    11510.484     1000 
  264000   0.31889189   -2.6053361    0.4778595   -2.1274766   0.12884981    11404.679     1000 
  266000    0.3252127   -2.6197126   0.48733122   -2.1323813   0.12613726    11481.203     1000 
  268000   0.32184575   -2.6473454   0.48228586   -2.1650596   0.11767793    11522.191     1000 
  270000   0.33039961   -2.5934816   0.49510381   -2.0983777   0.12996122    11448.998     1000 
  272000   0.32679522    -2.606086   0.48970264   -2.1163833   0.13580806    11367.739     1000 
  274000   0.32392427   -2.5952695   0.48540051   -2.1098689   0.14102078    11333.369     1000 
  276000   0.31983498     -2.62011   0.47927271   -2.1408373    0.1240852    11536.386     1000 
  278000   0.32373895   -2.5616059   0.48512282   -2.0764831   0.13891064    11360.447     1000 
  280000   0.31240747   -2.6101424    0.4681426   -2.1419998   0.12665022    11423.695     1000 
  282000   0.32103209   -2.6046387   0.48106659   -2.1235722   0.13789908    11336.855     1000 
  284000   0.30745489   -2.5918569   0.46072116   -2.1311358   0.12600249     11459.87     1000 
  286000   0.31649241   -2.6380423   0.47426387   -2.1637784   0.12738547    11470.694     1000 
  288000   0.32125666    -2.615738    0.4814031   -2.1343349   0.11752156    11454.327     1000 
  290000   0.32124587   -2.6188544   0.48138693   -2.1374674   0.13108688     11394.87     1000 
  292000   0.30602327   -2.6005284   0.45857587   -2.1419526   0.12674326    11348.641     1000 
  294000   0.32741972   -2.6223684   0.49063845   -2.1317299   0.13390113    11391.279     1000 
  296000   0.31249516   -2.5806368   0.46827399   -2.1123628   0.13570874     11342.61     1000 
  298000    0.3170892   -2.6185955   0.47515816   -2.1434374   0.13130891    11452.643     1000 
  300000   0.31133001   -2.6061499   0.46652801   -2.1396219   0.13137543    11456.879     1000 
  302000   0.31590649   -2.5957035   0.47338587   -2.1223177   0.12871402    11438.609     1000 
  304000   0.31512691   -2.5865491   0.47221767   -2.1143314   0.13858956    11363.809     1000 
  306000   0.31656894   -2.5752069   0.47437856   -2.1008283    0.1304806    11425.871     1000 
  308000   0.33306853   -2.5725461   0.49910319   -2.0734429   0.13953911    11368.711     1000 
  310000      0.31458   -2.6187963   0.47139814   -2.1473982   0.12894868     11405.03     1000 
  312000   0.31389854   -2.5884218   0.47037696   -2.1180448   0.13623832    11333.818     1000 
  314000   0.33319565   -2.5727944   0.49929367   -2.0735007   0.13134777    11460.251     1000 
  316000   0.31951283   -2.5806378   0.47878997   -2.1018478   0.13256466    11411.474     1000 
  318000   0.31510518     -2.62219   0.47218512   -2.1500049   0.13285203    11489.889     1000 
  320000   0.32482285   -2.6004039   0.48674705   -2.1136569   0.12332874      11448.8     1000 
  322000   0.31594177   -2.5848138   0.47343874   -2.1113751   0.14028046    11332.855     1000 
  324000   0.33198357    -2.585613   0.49747738   -2.0881357   0.12811448    11432.653     1000 
  326000   0.31861974   -2.6368656   0.47745168   -2.1594139   0.12988276    11424.429     1000 
  328000   0.30886839   -2.6333975   0.46283928   -2.1705583   0.11870974    11542.306     1000 
  330000   0.30648146   -2.5836757   0.45926247   -2.1244133   0.13094009    11411.502     1000 
  332000   0.32073072   -2.6323508   0.48061499   -2.1517358   0.12229125    11504.774     1000 
  334000   0.32184343   -2.5880263   0.48228238   -2.1057439   0.12996891    11437.118     1000 
  336000   0.30782303   -2.5850237   0.46127281   -2.1237508   0.14237261    11245.814     1000 
  338000   0.31738139   -2.6144066   0.47559601   -2.1388106   0.12413422    11495.709     1000 
  340000   0.33080374   -2.6449416   0.49570941   -2.1492322   0.11999555    11487.811     1000 
  342000   0.31983561   -2.5926347   0.47927367   -2.1133611   0.12359134    11430.655     1000 
  344000   0.32462168   -2.6484585   0.48644559   -2.1620129   0.10957164    11587.966     1000 
  346000   0.31135514   -2.6116213   0.46656567   -2.1450557   0.14453158    11303.854     1000 
  348000   0.32110231   -2.6326504   0.48117181   -2.1514786    0.1338842     11457.74     1000 
  350000   0.33429108   -2.6342179   0.50093518   -2.1332827   0.12521337     11492.22     1000 
  352000   0.32620688   -2.6287183   0.48882102   -2.1398973   0.12385662    11474.028     1000 
  354000   0.31712246   -2.6204506     0.475208   -2.1452426   0.13430914     11385.79     1000 
  356000   0.32735249   -2.6403474    0.4905377   -2.1498097   0.13020289    11411.281     1000 
  358000   0.32003595   -2.6063771   0.47957388   -2.1268032   0.12404887    11435.328     1000 
  360000   0.33090508   -2.6212953   0.49586126    -2.125434   0.13678575    11292.201     1000 
  362000   0.32523124   -2.5981341   0.48735902   -2.1107751   0.14142839    11316.281     1000 
  364000    0.3222826   -2.6001403   0.48294047   -2.1171998   0.12781427    11399.176     1000 
  366000   0.33255884   -2.6218854   0.49833943    -2.123546   0.12897875    11494.934     1000 
  368000   0.31948203   -2.5982406   0.47874382   -2.1194968   0.13779067    11396.734     1000 
  370000   0.31039535   -2.6003231   0.46512743   -2.1351957   0.12812573    11424.664     1000 
  372000   0.31796497   -2.5770004    0.4764705   -2.1005299   0.13224675    11409.385     1000 
  374000   0.32047994   -2.6141442   0.48023919    -2.133905   0.13216074    11433.524     1000 
  376000   0.31493227   -2.5951811     0.471926   -2.1232551   0.13531415    11408.331     1000 
  378000   0.32912373   -2.6080464    0.4931919   -2.1148545   0.12960733    11405.597     1000 
  380000   0.32582636   -2.6012341   0.48825081   -2.1129833   0.13740008    11375.566     1000 
  382000   0.32682029   -2.5746594    0.4897402   -2.0849192   0.13158132    11428.436     1000 
  384000   0.30786696   -2.5985404   0.46133864   -2.1372018   0.13386983    11416.926     1000 
  386000   0.32043438   -2.5731987   0.48017092   -2.0930277   0.13897017    11380.998     1000 
  388000   0.32784559   -2.6321353   0.49127662   -2.1408587   0.12382912    11458.055     1000 
  390000   0.32438248   -2.5885387   0.48608715   -2.1024515   0.12559878    11417.726     1000 
  392000   0.32508454   -2.6460823   0.48713918   -2.1589431   0.12243095    11544.573     1000 
  394000   0.30976977   -2.6077233      0.46419   -2.1435333   0.11583546    11489.968     1000 
  396000   0.32897083   -2.6227195   0.49296279   -2.1297567     0.135709    11434.353     1000 
  398000   0.32312351   -2.5858486   0.48420059    -2.101648   0.14668727    11289.345     1000 
  400000   0.31534618   -2.5885495   0.47254626   -2.1160033   0.12344312    11453.467     1000 
  402000    0.3198915   -2.6052622   0.47935741   -2.1259048   0.12247309      11444.3     1000 
  404000   0.32987952   -2.6017046   0.49432447   -2.1073802     0.124783    11357.049     1000 
  406000   0.31676316   -2.5975861    0.4746696   -2.1229165   0.12906049    11415.517     1000 
  408000   0.32131941   -2.6197566   0.48149713   -2.1382595   0.12112188    11498.254     1000 
  410000   0.31502077    -2.624803   0.47205862   -2.1527444   0.12745839    11468.208     1000 
  412000   0.32958864   -2.6171833   0.49388858   -2.1232947   0.12846574    11448.292     1000 
  414000   0.31930984   -2.6385824   0.47848579   -2.1600966   0.12947523    11426.931     1000 
  416000   0.32519006   -2.6083255    0.4872973   -2.1210282   0.12801694    11387.434     1000 
  418000   0.29393105   -2.5895035   0.44045568   -2.1490478   0.12360551    11444.412     1000 
  420000   0.30955879   -2.6092762   0.46387385   -2.1454023   0.13228892    11469.846     1000 
  422000    0.3152651   -2.6221698   0.47242475   -2.1497451   0.12881227    11413.883     1000 
  424000   0.32886332   -2.6320636   0.49280169    -2.139262   0.12969921    11389.508     1000 
  426000   0.32529215   -2.6279162   0.48745028    -2.140466   0.11610107    11477.733     1000 
  428000   0.32142045   -2.5854102   0.48164854   -2.1037617   0.12822745    11390.776     1000 
  430000   0.31760368   -2.5388956   0.47592912   -2.0629664   0.13166815    11272.192     1000 
  432000   0.33362766   -2.6209709   0.49994105   -2.1210298   0.12139922    11548.508     1000 
  434000   0.32750621   -2.6222806   0.49076806   -2.1315126   0.12639751    11456.449     1000 
  436000   0.31517731   -2.6026632   0.47229319     -2.13037    0.1412341    11284.697     1000 
  438000   0.32096401   -2.5615691   0.48096458   -2.0806045   0.12626435    11413.338     1000 
  440000   0.31855715   -2.5811909   0.47735788    -2.103833   0.13266221     11445.35     1000 
  442000   0.31212346   -2.6191947   0.46771701   -2.1514777   0.13295751    11361.421     1000 
  444000   0.31067532   -2.5663971   0.46554696   -2.1008501   0.13381107    11352.314     1000 
  446000   0.32024415   -2.5707782   0.47988586   -2.0908923   0.13946506    11294.444     1000 
  448000   0.33120973   -2.5748006   0.49631779   -2.0784828    0.1363965    11368.072     1000 
  450000   0.31300252   -2.6037876   0.46903427   -2.1347533   0.13310922    11396.963     1000 
  452000   0.31477583   -2.6156688   0.47169158   -2.1439772   0.12804886    11440.145     1000 
  454000   0.31256808   -2.6560321   0.46838326   -2.1876488   0.13801037     11413.57     1000 
  456000   0.31799957   -2.6105666   0.47652235   -2.1340442   0.13755267     11397.27     1000 
  458000   0.33440843   -2.5923631   0.50111103    -2.091252   0.12844612    11417.331     1000 
  460000    0.3232267   -2.6049317   0.48435521   -2.1205765   0.12648331    11412.869     1000 
  462000   0.31603173   -2.6297575   0.47357354    -2.156184   0.13151209    11347.081     1000 
  464000    0.3114418   -2.5890087   0.46669554   -2.1223132   0.13497448    11346.887     1000 
  466000   0.33282566   -2.6269229   0.49873925   -2.1281837    0.1317044    11457.364     1000 
  468000   0.31272324   -2.6283466   0.46861577   -2.1597308   0.11614273    11552.628     1000 
  470000   0.32580751   -2.5968978   0.48822255   -2.1086752     0.137788    11390.734     1000 
  472000    0.3139458   -2.5704692   0.47044778   -2.1000214   0.13122689    11377.572     1000 
  474000   0.31773297   -2.6069957   0.47612285   -2.1308729   0.12621033    11414.258     1000 
  476000   0.32880505   -2.5913379   0.49271437   -2.0986235   0.13618575    11430.156     1000 
  478000   0.31351785   -2.6157577   0.46980651   -2.1459512   0.12215948    11533.969     1000 
  480000   0.32249905   -2.6048596   0.48326482   -2.1215948   0.11699038    11509.108     1000 
  482000   0.30787697   -2.5968495   0.46135364   -2.1354959   0.13867886    11308.852     1000 
  484000   0.31525145   -2.5881216    0.4724043   -2.1157173   0.12518171    11410.379     1000 
  486000   0.31450374   -2.6210552   0.47128385   -2.1497714   0.11312546    11576.374     1000 
  488000   0.31725673   -2.5918976   0.47540921   -2.1164884   0.12483474    11422.646     1000 
  490000   0.31754765   -2.5801194   0.47584515   -2.1042742   0.13310162    11416.508     1000 
  492000   0.31845931   -2.6215905   0.47721127   -2.1443792   0.13479929    11413.047     1000 
  494000   0.32205764   -2.5821173   0.48260338   -2.0995139   0.13475461    11318.324     1000 
  496000   0.31316908    -2.607097   0.46928387   -2.1378132   0.13851543    11333.706     1000 
  498000   0.31170707   -2.5976737   0.46709305   -2.1305806   0.13851494    11366.409     1000 
  500000   0.32257117   -2.5813697   0.48337289   -2.0979968   0.14264485    11305.173     1000 
  502000   0.31882946   -2.6091641   0.47776594   -2.1313981   0.13770054    11355.359     1000 
  504000   0.32398939   -2.5765659    0.4854981   -2.0910678   0.13226123    11362.985     1000 
  506000      0.30867   -2.6016644     0.462542   -2.1391224   0.13508329     11375.52     1000 
  508000   0.33065541   -2.6112827   0.49548714   -2.1157955    0.1219937    11516.125     1000 
  510000   0.33555119   -2.5933567   0.50282345   -2.0905332   0.12975348    11404.474     1000 
  512000    0.3170809   -2.6067091   0.47514572   -2.1315633   0.13596604    11354.912     1000 
  514000   0.34392044   -2.5947844   0.51536478   -2.0794196   0.12758834    11477.788     1000 
  516000   0.30634552   -2.5863497   0.45905876    -2.127291   0.13480926    11366.283     1000 
  518000   0.33136968   -2.5966392   0.49655746   -2.1000817   0.13667308    11388.135     1000 
  520000   0.31960845   -2.6365994   0.47893327   -2.1576661   0.12517661    11461.604     1000 
  522000   0.31222431   -2.5805824   0.46786814   -2.1127142   0.13414301    11406.922     1000 
  524000   0.32812047   -2.5631564   0.49168853   -2.0714678    0.1423013    11310.966     1000 
  526000    0.3287133   -2.6065427   0.49257688   -2.1139659   0.12815492    11521.957     1000 
  528000   0.32125752   -2.6239949   0.48140439   -2.1425905   0.12560903    11462.853     1000 
  530000   0.31756173   -2.6373866   0.47586625   -2.1615203   0.12968756    11424.682     1000 
  532000   0.30225013   -2.6381871   0.45292182   -2.1852652   0.13087368    11353.535     1000 
  534000   0.31420506   -2.6252601   0.47083628   -2.1544238   0.13081899     11357.13     1000 
  536000   0.32369787   -2.5828572   0.48506125    -2.097796   0.13641993    11285.652     1000 
  538000   0.31475866   -2.5725011   0.47166585   -2.1008352   0.12875982    11384.219     1000 
  540000   0.31237571   -2.5877525     0.468095   -2.1196575   0.12383474    11456.871     1000 
  542000   0.31951341   -2.5898253   0.47879085   -2.1110345   0.12421108    11400.273     1000 
  544000   0.32814463   -2.5387502   0.49172473   -2.0470255   0.13538336    11306.147     1000 
  546000    0.3175562   -2.5886261   0.47585797   -2.1127681   0.12971325    11424.964     1000 
  548000   0.30927291   -2.6304143   0.46344545   -2.1669689   0.13531996    11433.302     1000 
  550000   0.31672776   -2.6432847   0.47461654   -2.1686682   0.13172624      11413.6     1000 
  552000   0.31421095   -2.6175838   0.47084511   -2.1467387   0.13465467    11436.713     1000 
  554000   0.31618282   -2.5776076   0.47379996   -2.1038077   0.13059581    11380.918     1000 
  556000   0.31683939   -2.6205809   0.47478382   -2.1457971   0.13811642    11389.008     1000 
  558000   0.32265423   -2.6191335   0.48349736   -2.1356362   0.13185421    11405.083     1000 
  560000   0.31667173   -2.5729207   0.47453258   -2.0983881   0.13401296    11345.366     1000 
  562000   0.31732656   -2.6270632   0.47551385   -2.1515494   0.12496907    11428.499     1000 
  564000   0.30696592   -2.6216922   0.45998844   -2.1617038   0.14639807    11277.965     1000 
  566000   0.30235414   -2.6106056   0.45307768   -2.1575279   0.13520514    11362.915     1000 
  568000   0.31537317   -2.6255717    0.4725867    -2.152985   0.13379236    11408.953     1000 
  570000   0.32313418   -2.5837906   0.48421657    -2.099574   0.13379223    11293.914     1000 
  572000   0.30711897   -2.5926379   0.46021778   -2.1324202    0.1218554    11487.709     1000 
  574000   0.32361006   -2.5561536   0.48492967   -2.0712239   0.13464154    11322.963     1000 
  576000   0.33045792   -2.5975488    0.4951912   -2.1023576   0.13429103     11316.46     1000 
  578000   0.31085783   -2.6271153   0.46582046   -2.1612948   0.13260318    11397.824     1000 
  580000   0.31530438   -2.6244933   0.47248361   -2.1520097   0.11303348    11531.449     1000 
  582000   0.32657449    -2.626269   0.48937187   -2.1368972   0.12343126    11455.853     1000 
  584000   0.31534153   -2.5904744   0.47253928   -2.1179351   0.13225295    11397.994     1000 
  586000   0.31616394   -2.6205919   0.47377166   -2.1468202   0.13307916    11407.296     1000 
  588000   0.32088044   -2.6171587   0.48083934   -2.1363193    0.1405467     11379.19     1000 
  590000   0.31171098   -2.6028042    0.4670989   -2.1357053   0.13471003    11306.135     1000 
  592000   0.32167736   -2.5688669   0.48203352   -2.0868334   0.13663642    11280.065     1000 
  594000   0.31967637   -2.5956341   0.47903504    -2.116599   0.13481604    11430.993     1000 
  596000   0.32181979   -2.5965331   0.48224696   -2.1142861   0.12753843    11460.213     1000 
  598000   0.32313528   -2.6259009   0.48421822   -2.1416827   0.11281002    11580.353     1000 
  600000   0.33299498   -2.5978134   0.49899298   -2.0988204   0.12996781    11444.702     1000 
  602000    0.3240621    -2.644619   0.48560705    -2.159012    0.1402296    11319.967     1000 
  604000   0.31295211   -2.6048877   0.46895874   -2.1359289   0.12287821    11442.298     1000 
  606000   0.32018212   -2.6166797   0.47979291   -2.1368868   0.12299318    11382.185     1000 
  608000   0.31855569   -2.6051207    0.4773557    -2.127765   0.12424264    11434.286     1000 
  610000   0.31799822   -2.6420254   0.47652034   -2.1655051   0.10955918    11528.075     1000 
  612000   0.31625492    -2.633355     0.473908    -2.159447   0.12589645    11400.628     1000 
  614000   0.31807287   -2.6180606   0.47663219   -2.1414284   0.12612229     11463.48     1000 
  616000   0.34028685    -2.589844   0.50991984   -2.0799242   0.12861409    11436.623     1000 
  618000   0.31151752   -2.5941528   0.46680901   -2.1273438   0.10964699     11530.62     1000 
  620000   0.33391755    -2.596234   0.50037545   -2.0958586   0.12656843    11467.074     1000 
  622000   0.30784732   -2.5799791   0.46130921   -2.1186699   0.13223156    11414.181     1000 
  624000   0.31931574   -2.6080885   0.47849464   -2.1295938   0.12254233    11493.067     1000 
  626000   0.31406258   -2.5929365   0.47062277   -2.1223137   0.13575807    11359.556     1000 
  628000   0.31946545   -2.5774783   0.47871897   -2.0987594   0.11787667    11490.682     1000 
  630000   0.34532014   -2.6036896   0.51746224   -2.0862274   0.12505091    11438.912     1000 
  632000   0.31928142   -2.5339055   0.47844321   -2.0554623   0.14282371    11358.807     1000 
  634000   0.32442457   -2.5933806   0.48615022   -2.1072304    0.1319428    11437.255     1000 
  636000   0.33093942   -2.5679477   0.49591272    -2.072035   0.12285399    11386.545     1000 
  638000   0.32566215   -2.6141518   0.48800473   -2.1261471   0.12854086    11403.241     1000 
  640000   0.31277545   -2.5992397     0.468694   -2.1305457    0.1152688    11491.773     1000 
  642000   0.32747627   -2.5901437   0.49072319   -2.0994205   0.13654102    11394.998     1000 
  644000   0.31796435   -2.6007676   0.47646957   -2.1242981   0.13808253    11378.851     1000 
  646000   0.32206997   -2.5728972   0.48262185   -2.0902754   0.13157375     11435.61     1000 
  648000   0.31328816   -2.6171657   0.46946231   -2.1477034   0.11660755    11475.128     1000 
  650000    0.3231432   -2.5707821   0.48423008   -2.0865521   0.12032127    11435.228     1000 
  652000   0.31752722   -2.6143243   0.47581454   -2.1385097   0.13078433     11399.16     1000 
  654000   0.32035407   -2.6339214   0.48005058   -2.1538708   0.11788974    11519.507     1000 
  656000    0.3079867   -2.5904313   0.46151807   -2.1289132   0.13375167    11338.893     1000 
  658000    0.3295027   -2.5809459    0.4937598   -2.0871861   0.13660315    11393.737     1000 
  660000   0.33228637   -2.5991195   0.49793113   -2.1011884   0.13991594    11319.298     1000 
  662000   0.30321649   -2.6013266    0.4543699   -2.1469567     0.122209    11442.345     1000 
  664000   0.30666947   -2.6037969   0.45954421   -2.1442527   0.12275663    11473.213     1000 
  666000     0.316151   -2.5946315   0.47375228   -2.1208792    0.1160086    11531.938     1000 
  668000   0.32444351   -2.6220109    0.4861786   -2.1358323   0.13760972     11462.11     1000 
  670000   0.31911292   -2.6149943   0.47819072   -2.1368036   0.14077886    11361.723     1000 
  672000   0.31865546    -2.621173   0.47750521   -2.1436678   0.12905989    11442.585     1000 
  674000   0.33585326   -2.6294551    0.5032761    -2.126179   0.12895489    11468.974     1000 
  676000    0.3232277   -2.5880136   0.48435671   -2.1036568   0.14356083    11381.509     1000 
  678000   0.32617613   -2.6365092   0.48877493   -2.1477343    0.1235245    11506.517     1000 
  680000   0.31896177    -2.561143   0.47796421   -2.0831788   0.13763838    11310.927     1000 
  682000   0.31486214   -2.5844398   0.47182092   -2.1126189   0.12644982     11436.72     1000 
  684000   0.30700086   -2.6148856   0.46004079   -2.1548448   0.12822244     11420.34     1000 
  686000   0.31176531   -2.5781608   0.46718032   -2.1109805   0.13228973    11353.671     1000 
  688000   0.33417801   -2.6334714   0.50076575   -2.1327056   0.13433841    11406.968     1000 
  690000   0.32913248   -2.6259606   0.49320503   -2.1327556   0.13832548    11373.127     1000 
  692000   0.32309358   -2.6509198   0.48415572   -2.1667641   0.13520494    11357.429     1000 
  694000   0.31424268   -2.5766685   0.47089265   -2.1057758   0.13556703    11330.036     1000 
  696000   0.31632398   -2.6268266   0.47401149   -2.1528151   0.11845935    11438.353     1000 
  698000   0.31876296   -2.6137688    0.4776663   -2.1361025   0.13199351     11314.19     1000 
  700000   0.31219126   -2.5762408    0.4678186   -2.1084222   0.12899119    11313.562     1000 
  702000    0.3065727   -2.5732697   0.45939919   -2.1138705   0.13831566    11393.382     1000 
  704000   0.32515357   -2.5614724   0.48724262   -2.0742298   0.13941204    11402.551     1000 
  706000   0.31316743   -2.6100184    0.4692814    -2.140737   0.13961367     11402.59     1000 
  708000   0.30596047   -2.5991465   0.45848177   -2.1406647     0.121419    11434.243     1000 
  710000   0.31982465   -2.6087685   0.47925723   -2.1295113   0.13710976    11356.361     1000 
  712000   0.32500528   -2.6061346   0.48702042   -2.1191142   0.12646073     11399.11     1000 
  714000   0.31309112   -2.6120588   0.46916705   -2.1428917   0.12006896    11425.288     1000 
  716000   0.31778281   -2.5840175   0.47619754   -2.1078199   0.13920519    11364.544     1000 
  718000   0.31197105   -2.5989344   0.46748861   -2.1314458   0.13214709    11345.093     1000 
  720000   0.33267458    -2.588267   0.49851286   -2.0897542   0.12595704    11475.535     1000 
  722000   0.31139285   -2.6041534   0.46662219   -2.1375312   0.12434821     11477.13     1000 
  724000    0.3259966   -2.5982978    0.4885059   -2.1097919   0.13177055     11422.68     1000 
  726000   0.32311146   -2.5733354   0.48418252   -2.0891529   0.14189529    11356.814     1000 
  728000   0.31147182   -2.5735657   0.46674052   -2.1068251   0.12185655    11426.893     1000 
  730000   0.31331436   -2.6265258   0.46950158   -2.1570242   0.11900405    11487.485     1000 
  732000    0.3070299   -2.6004947    0.4600843   -2.1404104   0.12885465    11339.621     1000 
  734000   0.32570369    -2.610747   0.48806697     -2.12268    0.1216573    11509.392     1000 
  736000   0.32362944   -2.5755116   0.48495872   -2.0905529   0.13163735    11384.476     1000 
  738000   0.33085806   -2.6301686    0.4957908   -2.1343778   0.12755668    11423.733     1000 
  740000   0.31584552   -2.5877485   0.47329451    -2.114454   0.12990393    11428.108     1000 
  742000    0.3200429   -2.5906818   0.47958428   -2.1110975    0.1366976    11434.462     1000 
  744000   0.31631577   -2.5824975   0.47399918   -2.1084983   0.12835035    11366.064     1000 
  746000   0.31112936   -2.5805565   0.46622735   -2.1143292   0.11859666    11512.124     1000 
  748000   0.32710778    -2.558407   0.49017101    -2.068236   0.13233064    11388.099     1000 
  750000   0.30984361   -2.5933815   0.46430065   -2.1290809    0.1130667    11515.504     1000 
  752000   0.33103487   -2.6189282   0.49605576   -2.1228724   0.14129062    11332.053     1000 
  754000   0.32743033   -2.6215274   0.49065435    -2.130873   0.12753872    11461.292     1000 
  756000   0.32615526   -2.6247903   0.48874366   -2.1360466   0.13163675    11404.784     1000 
  758000   0.32491833   -2.6143691   0.48689012   -2.1274789   0.12965017    11474.351     1000 
  760000   0.30648983   -2.6259805   0.45927502   -2.1667055   0.12739554    11432.716     1000 
  762000   0.30782157   -2.6425382   0.46127062   -2.1812676   0.12335162    11477.708     1000 
  764000   0.33011053   -2.5932109   0.49467063   -2.0985403   0.12842267    11443.294     1000 
  766000   0.33926861   -2.5856599   0.50839402   -2.0772659   0.12878854    11350.849     1000 
  768000   0.32619371   -2.6343868   0.48880128   -2.1455855   0.12915113    11451.527     1000 
  770000   0.30351604   -2.5802135   0.45481879   -2.1253947    0.1294281    11430.879     1000 
  772000   0.31689275   -2.5889041   0.47486379   -2.1140404   0.14642396    11275.649     1000 
  774000   0.30844748   -2.6043582   0.46220854   -2.1421497   0.12467825    11525.812     1000 
  776000   0.32937047   -2.6260086   0.49356164    -2.132447   0.13933128    11456.769     1000 
  778000   0.32799236   -2.6245999   0.49149655   -2.1331033   0.11902587     11540.42     1000 
  780000   0.32767101   -2.6566448   0.49101501   -2.1656298   0.12731366    11449.661     1000 
  782000    0.3233916   -2.6274268   0.48460232   -2.1428245   0.13550929    11398.901     1000 
  784000   0.33147687   -2.5977454   0.49671809   -2.1010273   0.13904339    11360.708     1000 
  786000   0.30888835   -2.5961389   0.46286919   -2.1332697   0.14663298    11372.872     1000 
  788000   0.32982685   -2.5906787   0.49424553   -2.0964332   0.13106363    11388.597     1000 
  790000   0.32660847   -2.6014957    0.4894228   -2.1120729   0.13901043    11286.666     1000 
  792000   0.30517917   -2.6638486   0.45731098   -2.2065376   0.12291594    11420.571     1000 
  794000   0.32458569   -2.5869795   0.48639166   -2.1005878   0.13396529    11402.838     1000 
  796000   0.32712342   -2.5895892   0.49019445   -2.0993948   0.12532479    11492.073     1000 
  798000   0.32480804   -2.5606113   0.48672484   -2.0738865   0.13726208    11301.029     1000 
  800000   0.32745416   -2.5883877   0.49069007   -2.0976976   0.13063002     11348.09     1000 
  802000   0.32526361   -2.6061572   0.48740751   -2.1187497   0.13044489     11420.38     1000 
  804000   0.31041717   -2.5799532   0.46516013   -2.1147931    0.1136165    11500.136     1000 
  806000   0.32196822   -2.5911972   0.48246937   -2.1087278   0.13353356    11322.261     1000 
  808000   0.32617797   -2.5835323   0.48877768   -2.0947546   0.13451191    11393.685     1000 
  810000   0.31241576   -2.5787867   0.46815502   -2.1106316   0.11929082    11476.831     1000 
  812000   0.33037949   -2.5937033   0.49507367   -2.0986296   0.13349628    11410.536     1000 
  814000   0.30901942   -2.5925796    0.4630656    -2.129514   0.13527526    11415.347     1000 
  816000   0.32620701    -2.627438   0.48882121   -2.1386168   0.12769963    11472.756     1000 
  818000   0.31459803   -2.5774313   0.47142515   -2.1060062   0.12802856    11419.459     1000 
  820000   0.31977791   -2.5575035   0.47918719   -2.0783163   0.12769573    11411.182     1000 
  822000   0.30259816   -2.5728871   0.45344335   -2.1194437   0.13437458     11415.69     1000 
  824000   0.32132458   -2.5879598   0.48150488   -2.1064549    0.1297693    11404.853     1000 
  826000   0.31508966   -2.5910345   0.47216186   -2.1188727   0.14609168    11334.695     1000 
  828000   0.32102048   -2.6122898   0.48104919   -2.1312406   0.11118263    11562.559     1000 
  830000   0.32445003   -2.6256125   0.48618837   -2.1394241    0.1276393    11446.915     1000 
  832000   0.31303983   -2.6026242   0.46909018   -2.1335341   0.12930353    11430.537     1000 
  834000   0.30586231   -2.6134958   0.45833467   -2.1551611   0.12524081    11431.255     1000 
  836000   0.32585855   -2.6198519   0.48829904   -2.1315529   0.12723703    11435.163     1000 
  838000   0.31747766   -2.6103361   0.47574027   -2.1345958   0.11903866    11548.076     1000 
  840000   0.33335525    -2.612678   0.49953284   -2.1131451   0.13546834    11464.159     1000 
  842000   0.32456184   -2.5953757   0.48635591   -2.1090198   0.12734995    11442.187     1000 
  844000   0.32222258   -2.6144913   0.48285054   -2.1316407   0.13116226    11441.689     1000 
  846000   0.31177303   -2.5917456   0.46719189   -2.1245537   0.12388291    11433.341     1000 
  848000   0.32598748   -2.6073338   0.48849224   -2.1188415   0.12209787    11448.591     1000 
  850000   0.32104784   -2.5802983   0.48109019   -2.0992081   0.12036598    11479.027     1000 
  852000   0.31407955   -2.6097718    0.4706482   -2.1391236   0.13487178     11406.54     1000 
  854000   0.32116563   -2.6182663   0.48126669   -2.1369996   0.12141416    11472.166     1000 
  856000   0.32695651   -2.6010012   0.48994433   -2.1110569   0.12410162    11530.463     1000 
  858000    0.3073656   -2.5944471   0.46058736   -2.1338597   0.12419155    11430.086     1000 
  860000    0.3163258   -2.6363483   0.47401422   -2.1623341   0.13489015     11395.48     1000 
  862000   0.33775017   -2.5789766   0.50611863    -2.072858   0.13297082    11410.254     1000 
  864000   0.31506343   -2.5962223   0.47212255   -2.1240998   0.11908009    11508.063     1000 
  866000   0.32515218   -2.6252084   0.48724055   -2.1379678   0.12315683    11531.926     1000 
  868000   0.33631484   -2.6031963   0.50396779   -2.0992285   0.12721579    11420.991     1000 
  870000   0.32323116   -2.6132132   0.48436189   -2.1288513   0.12237036    11422.897     1000 
  872000   0.32809367   -2.5804302   0.49164837   -2.0887819   0.12011759    11453.278     1000 
  874000   0.31065333   -2.6121497   0.46551401   -2.1466357   0.13128306     11459.84     1000 
  876000    0.3068114   -2.5836635   0.45975688   -2.1239066   0.12726079    11396.651     1000 
  878000   0.32597805   -2.5882743    0.4884781   -2.0997962   0.12341836    11510.797     1000 
  880000     0.310819    -2.615252   0.46576227   -2.1494897   0.12199268    11483.381     1000 
  882000   0.30815799    -2.599523   0.46177474   -2.1377483   0.12675162    11440.216     1000 
  884000   0.32389041   -2.5942792   0.48534978   -2.1089295   0.14026383    11308.065     1000 
  886000   0.31960804   -2.5996848   0.47893264   -2.1207522   0.13389274    11371.116     1000 
  888000   0.31719616   -2.5697304   0.47531845   -2.0944119    0.1386511    11383.455     1000 
  890000   0.30731873   -2.5743887   0.46051711   -2.1138716   0.12508088    11437.549     1000 
  892000   0.32839985   -2.5869044   0.49210718   -2.0947972   0.14167834    11305.406     1000 
  894000   0.33129242   -2.5804197    0.4964417    -2.083978   0.14064179    11344.172     1000 
  896000   0.31240494   -2.6040087    0.4681388   -2.1358699   0.12220609    11511.165     1000 
  898000   0.32389271   -2.6107934   0.48535323   -2.1254401    0.1255315    11424.155     1000 
  900000   0.30732391   -2.6201999   0.46052488    -2.159675   0.12378378    11434.449     1000 
  902000   0.32310482   -2.5972839   0.48417257   -2.1131113   0.13111097    11410.714     1000 
  904000    0.3253273   -2.5849043   0.48750295   -2.0974013   0.12955624    11480.725     1000 
  906000   0.32336666   -2.6097221   0.48456493   -2.1251571   0.15127633     11222.48     1000 
  908000   0.31663385   -2.6061077   0.47447582   -2.1316318    0.1235308    11475.701     1000 
  910000   0.32323557   -2.6188344   0.48436851   -2.1344659   0.14067495    11418.895     1000 
  912000   0.31706373    -2.602235      0.47512    -2.127115   0.14294745    11369.753     1000 
  914000   0.31856492   -2.5983053   0.47736954   -2.1209358   0.12897688    11420.532     1000 
  916000     0.303572   -2.5990301   0.45490264   -2.1441275   0.12278651    11431.845     1000 
  918000   0.31871355   -2.6383687   0.47759225   -2.1607764   0.11935911    11495.654     1000 
  920000   0.31771584   -2.6056613   0.47609718   -2.1295641   0.13223925    11371.118     1000 
  922000   0.32228857   -2.5634253   0.48294942   -2.0804759   0.12827774    11378.629     1000 
  924000   0.31756282   -2.5807337   0.47586788   -2.1048658   0.11855484    11477.966     1000 
  926000   0.31857445   -2.5867859   0.47738381   -2.1094021   0.13000067    11426.528     1000 
  928000   0.30316028   -2.6098492   0.45428568   -2.1555636   0.11950539    11493.044     1000 
  930000   0.34229175   -2.6174502   0.51292418    -2.104526   0.12668186    11459.014     1000 
  932000   0.31578995   -2.6147714   0.47321125   -2.1415602   0.12776394    11478.785     1000 
  934000   0.32452854   -2.6262318   0.48630602   -2.1399258   0.12040533    11525.268     1000 
  936000   0.32510541   -2.6004388   0.48717046   -2.1132683   0.13179899    11448.347     1000 
  938000   0.32915792   -2.6228545   0.49324314   -2.1296114   0.12048861    11496.733     1000 
  940000   0.30521791   -2.6285085   0.45736904   -2.1711394   0.11983292    11456.544     1000 
  942000   0.33554851   -2.6067653   0.50281944   -2.1039458   0.13216236     11394.58     1000 
  944000   0.31387851   -2.5748725   0.47034695   -2.1045255   0.13268201    11375.197     1000 
  946000   0.32499515   -2.6098295   0.48700523   -2.1228243   0.12060511    11381.326     1000 
  948000   0.33247738   -2.6111307   0.49821735   -2.1129133   0.13248437    11396.244     1000 
  950000   0.31612613   -2.5896023     0.473715   -2.1158873   0.12141979    11464.919     1000 
  952000   0.30628674   -2.6283729   0.45897068   -2.1694022   0.12423273    11507.911     1000 
  954000   0.30629648   -2.5277177   0.45898528   -2.0687324   0.13354327    11359.179     1000 
  956000   0.32928659   -2.5673286   0.49343595   -2.0738927   0.14182084    11292.523     1000 
  958000   0.31532059    -2.601997    0.4725079   -2.1294891   0.12560159    11538.991     1000 
  960000   0.30726227   -2.6117861    0.4604325   -2.1513536   0.11914096    11488.388     1000 
  962000   0.29655878   -2.6457112   0.44439334   -2.2013179   0.12152242    11453.987     1000 
  964000   0.30282526   -2.6284138   0.45378365   -2.1746302   0.11989125    11481.113     1000 
  966000   0.31707496   -2.6330846   0.47513683   -2.1579477   0.13256382    11426.735     1000 
  968000   0.32026193    -2.629347   0.47991251   -2.1494345   0.12784462    11445.808     1000 
  970000   0.32122661   -2.6056293   0.48135808   -2.1242712   0.12978248    11402.008     1000 
  972000   0.32652958   -2.6594488   0.48930458   -2.1701442   0.13400515    11436.758     1000 
  974000   0.32453976   -2.6041324   0.48632283   -2.1178095   0.12148064    11474.931     1000 
  976000   0.31128196   -2.5784876   0.46645602   -2.1120315   0.12865979    11425.152     1000 
  978000   0.33387843    -2.607896   0.50031682   -2.1075792   0.11934341     11439.51     1000 
  980000   0.31537241   -2.6393353   0.47258555   -2.1667497   0.13355521    11433.098     1000 
  982000   0.32173354   -2.5690187   0.48211771   -2.0869009   0.14253691    11319.417     1000 
  984000   0.32748793   -2.5756003   0.49074067   -2.0848596    0.1360632    11414.535     1000 
  986000   0.32285058   -2.5992262    0.4837916   -2.1154346   0.13555047    11358.608     1000 
  988000   0.31760537   -2.5910131   0.47593165   -2.1150815   0.12975581    11364.028     1000 
  990000   0.32093741   -2.5729657    0.4809247    -2.092041   0.14613286    11284.039     1000 
  992000   0.31974841   -2.5922631   0.47914299   -2.1131201   0.12920008    11457.515     1000 
  994000   0.32378149   -2.6115595   0.48518657   -2.1263729   0.12509155    11465.276     1000 
  996000   0.32899949   -2.6261863   0.49300574   -2.1331806   0.13159624    11426.674     1000 
  998000   0.33292368   -2.5765433   0.49888614   -2.0776572   0.12719733     11366.81     1000 
 1000000   0.31236496   -2.6383482    0.4680789   -2.1702693   0.13317793    11370.518     1000 
 1002000   0.31346286   -2.6228464    0.4697241   -2.1531223   0.13019124    11412.666     1000 
 1004000   0.29632951    -2.650411   0.44404977   -2.2063612   0.11220202    11554.276     1000 
 1006000   0.31183367   -2.6271617   0.46728275   -2.1598789   0.11718987    11450.893     1000 
 1008000   0.31947985   -2.5665916   0.47874056    -2.087851   0.14210522    11288.175     1000 
 1010000   0.31391318   -2.6168155    0.4703989   -2.1464166   0.12656378    11406.265     1000 
 1012000    0.3199203   -2.6049421   0.47940057   -2.1255415   0.13796191     11339.55     1000 
 1014000   0.31441855    -2.616049   0.47115619   -2.1448929   0.11601695    11429.889     1000 
 1016000   0.30352016   -2.5906216   0.45482496   -2.1357966   0.13099218    11373.863     1000 
 1018000   0.30865356   -2.5934005   0.46251737   -2.1308832   0.13851438    11400.555     1000 
 1020000   0.30174144   -2.5825955   0.45215954    -2.130436   0.12804458    11353.318     1000 
 1022000   0.31414622   -2.5920968   0.47074811   -2.1213487   0.13001104    11381.389     1000 
 1024000   0.32423664   -2.6363888   0.48586861   -2.1505202    0.1233273    11469.278     1000 
 1026000   0.32342492   -2.5999274   0.48465224   -2.1152752   0.13164017    11396.263     1000 
 1028000   0.32954241   -2.5669454   0.49381931   -2.0731261   0.13764779    11355.335     1000 
 1030000   0.32397825   -2.5665631    0.4854814   -2.0810817   0.12734094    11416.354     1000 
 1032000   0.31311602   -2.5924024   0.46920436   -2.1231981   0.12283179    11482.173     1000 
 1034000   0.30887614   -2.5941894   0.46285089   -2.1313385    0.1390672    11295.231     1000 
 1036000   0.32460252   -2.5890429   0.48641688    -2.102626   0.14300254    11350.388     1000 
 1038000   0.32214979   -2.5780839   0.48274146   -2.0953424    0.1319855    11425.393     1000 
 1040000   0.32362128    -2.568614   0.48494649   -2.0836675   0.13273153    11391.565     1000 
 1042000   0.32160938   -2.5755703   0.48193165   -2.0936387   0.12623089    11401.433     1000 
 1044000   0.31514134   -2.5794256    0.4722393   -2.1071862   0.13745619    11389.851     1000 
 1046000   0.32054372   -2.6109787   0.48033476    -2.130644   0.12786621    11507.394     1000 
 1048000   0.32201972   -2.5990649   0.48254654   -2.1165183   0.12984966    11404.459     1000 
 1050000    0.3081092    -2.594146   0.46170163   -2.1324443    0.1305572     11421.04     1000 
 1052000   0.30687103   -2.5849942   0.45984623    -2.125148   0.12694615    11444.721     1000 
 1054000   0.31625093   -2.5780761   0.47390202   -2.1041741   0.12276815    11470.064     1000 
 1056000   0.33031841   -2.5984095   0.49498214   -2.1034273   0.12402443    11456.155     1000 
 1058000   0.32806319    -2.627028   0.49160269   -2.1354253   0.13103316    11421.978     1000 
 1060000   0.31037572   -2.5847197   0.46509802   -2.1196217    0.1242989    11462.093     1000 
 1062000   0.31636041   -2.6091563   0.47406608   -2.1350902   0.12998837    11469.154     1000 
 1064000   0.32173281    -2.588672   0.48211661   -2.1065554    0.1358874     11386.96     1000 
 1066000   0.32518347   -2.6195996   0.48728742   -2.1323122     0.137502    11358.179     1000 
 1068000   0.31026886   -2.5844124   0.46493789   -2.1194745   0.12576205    11403.013     1000 
 1070000   0.32732029   -2.6403633   0.49048945   -2.1498739   0.11441359    11481.776     1000 
 1072000    0.3427211   -2.5929815   0.51356757   -2.0794139   0.13987525    11380.892     1000 
 1074000   0.32029002   -2.5995219   0.47995459   -2.1195673   0.12745953    11367.887     1000 
 1076000   0.31193016   -2.6180502   0.46742735   -2.1506228   0.13122395      11419.3     1000 
 1078000    0.3250008   -2.6124666    0.4870137   -2.1254529   0.12043985    11523.014     1000 
 1080000   0.30792976   -2.6311713   0.46143275   -2.1697386   0.13328194    11339.344     1000 
 1082000   0.33253536   -2.6061728   0.49830424   -2.1078686   0.13202929    11408.696     1000 
 1084000   0.32728844   -2.5740991   0.49044173   -2.0836573   0.12855679    11355.112     1000 
 1086000   0.31169851   -2.5999151   0.46708022   -2.1328349   0.13054335    11367.002     1000 
 1088000   0.33328779    -2.599636   0.49943175   -2.1002042   0.12558823    11398.046     1000 
 1090000   0.32310308   -2.6137569   0.48416996    -2.129587   0.12924808    11456.399     1000 
 1092000    0.3283646   -2.6368374   0.49205435    -2.144783   0.12825707    11463.752     1000 
 1094000   0.31738086     -2.59786   0.47559522   -2.1222648   0.13824907    11336.325     1000 
 1096000   0.31988862   -2.6171836    0.4793531   -2.1378305   0.12414303     11450.75     1000 
 1098000   0.33064841   -2.6041332   0.49547665   -2.1086566   0.12882311    11408.956     1000 
 1100000   0.31834591   -2.6198974   0.47704135    -2.142856    0.1160087    11492.301     1000 
 1102000   0.32549014   -2.6290496   0.48774697   -2.1413026   0.12334952    11494.637     1000 
 1104000   0.32656747   -2.5998309   0.48936136   -2.1104695   0.12041697    11418.159     1000 
 1106000   0.31618986   -2.6151313   0.47381051   -2.1413207   0.12902656    11375.672     1000 
 1108000   0.31659052   -2.5847539    0.4744109    -2.110343   0.13498011    11353.786     1000 
 1110000   0.31229876   -2.6053963   0.46797969   -2.1374166   0.12163095    11496.409     1000 
 1112000   0.30868765   -2.6030617   0.46256844   -2.1404933   0.12656023    11421.425     1000 
 1114000   0.32615554   -2.6035045   0.48874407   -2.1147605   0.13079606    11427.264     1000 
 1116000   0.31133409   -2.6081236   0.46653414   -2.1415894   0.13258716    11417.917     1000 
 1118000   0.31798978   -2.6044842   0.47650769   -2.1279765    0.1183262    11539.601     1000 
 1120000   0.32192798   -2.6258872   0.48240907   -2.1434782   0.12869558    11503.927     1000 
 1122000    0.3258023   -2.6145367   0.48821475   -2.1263219    0.1219809    11500.552     1000 
 1124000   0.29971226   -2.5987985   0.44911882   -2.1496797   0.14181126    11304.103     1000 
 1126000   0.32216091   -2.5920878   0.48275813   -2.1093297   0.14136201    11295.316     1000 
 1128000   0.32791385   -2.6202945    0.4913789   -2.1289156   0.13889391    11371.468     1000 
 1130000   0.31808746   -2.5686941   0.47665406     -2.09204    0.1346783     11393.27     1000 
 1132000   0.32612492    -2.589183   0.48869819   -2.1004848   0.12271792    11380.068     1000 
 1134000   0.33089795   -2.5898563   0.49585058   -2.0940057   0.14252216    11291.818     1000 
 1136000   0.32168239   -2.5866729   0.48204107   -2.1046318   0.12366663    11425.239     1000 
 1138000   0.32239654   -2.5790984   0.48311121   -2.0959872   0.13213517    11345.571     1000 
 1140000   0.31649092   -2.6078764   0.47426164   -2.1336148   0.12262185    11446.212     1000 
 1142000    0.3108701   -2.6155517   0.46583885   -2.1497128   0.12045364    11429.184     1000 
 1144000   0.32423702   -2.5989886   0.48586918   -2.1131194   0.14044735    11309.401     1000 
 1146000   0.32796809   -2.6252794   0.49146018   -2.1338193   0.12832677    11444.968     1000 
 1148000   0.31508642   -2.5934433     0.472157   -2.1212863   0.12220912    11456.238     1000 
 1150000   0.33394558   -2.5738168   0.50041745   -2.0733994   0.14182236    11299.256     1000 
 1152000   0.32882577   -2.6314437   0.49274542   -2.1386983   0.13158376    11475.357     1000 
 1154000   0.32369865    -2.640329   0.48506243   -2.1552666   0.12379882    11485.443     1000 
 1156000   0.32259556    -2.556962   0.48340944   -2.0735525   0.13142161    11401.013     1000 
 1158000   0.33163931    -2.619056   0.49696151   -2.1220945   0.13046195    11406.545     1000 
 1160000   0.32900803   -2.6057866   0.49301853   -2.1127681   0.13107467     11406.29     1000 
 1162000   0.33680545   -2.6429114   0.50470297   -2.1382084   0.13155795    11469.913     1000 
 1164000   0.32611606   -2.5911793   0.48868492   -2.1024944   0.12303573    11455.362     1000 
 1166000   0.32524924    -2.603031   0.48738598    -2.115645   0.13086316    11377.152     1000 
 1168000    0.3243599   -2.5776614   0.48605332    -2.091608   0.13547478    11386.656     1000 
 1170000   0.31982654   -2.6169784   0.47926006   -2.1377183   0.11455884    11515.801     1000 
 1172000   0.32214866   -2.6298309   0.48273977   -2.1470912   0.11754116    11504.653     1000 
 1174000   0.32321985   -2.6023556   0.48434494   -2.1180106   0.13063398    11426.422     1000 
 1176000   0.32135293   -2.6132452   0.48154736   -2.1316979   0.11359064    11519.559     1000 
 1178000   0.33183524    -2.610522    0.4972551   -2.1132669   0.12183754    11494.426     1000 
 1180000   0.34259444   -2.6053121   0.51337776   -2.0919343   0.12974207    11363.549     1000 
 1182000    0.3151852   -2.6079445   0.47230502   -2.1356395   0.12540563    11464.138     1000 
 1184000   0.32253807   -2.6004088    0.4833233   -2.1170855    0.1282532     11400.25     1000 
 1186000   0.31379034   -2.6221028   0.47021483   -2.1518879   0.13368982     11412.34     1000 
 1188000   0.30688351   -2.5880721   0.45986494   -2.1282072   0.13038666     11434.65     1000 
 1190000   0.32258087   -2.6064147   0.48338744   -2.1230272   0.13899324    11360.327     1000 
 1192000   0.31101021   -2.6201094   0.46604881   -2.1540605   0.12752938    11398.859     1000 
 1194000   0.31916919   -2.5814752   0.47827504   -2.1032001   0.12356494    11394.394     1000 
 1196000   0.31081953   -2.6014785   0.46576307   -2.1357154   0.12979023    11397.575     1000 
 1198000   0.30729925   -2.6161781   0.46048792   -2.1556901   0.11361998    11559.766     1000 
 1200000   0.32497278   -2.5943336   0.48697172   -2.1073619   0.13765229    11307.628     1000 
 1202000    0.3074619    -2.629715   0.46073165   -2.1689833    0.1313197    11363.353     1000 
 1204000   0.33284167   -2.5936427   0.49876325   -2.0948795   0.14753464    11295.203     1000 
 1206000   0.33126874   -2.5930804   0.49640621   -2.0966742   0.13729907    11363.916     1000 
 1208000   0.28991205   -2.5837987   0.43443321   -2.1493654   0.14403767    11249.269     1000 
 1210000   0.32146102   -2.5897832   0.48170935   -2.1080738   0.13354726     11370.21     1000 
 1212000   0.32163764   -2.5831688   0.48197401   -2.1011948   0.12684932    11441.387     1000 
 1214000   0.31462525   -2.5945919   0.47146594   -2.1231259   0.11472807    11499.112     1000 
 1216000    0.3163318   -2.5807637    0.4740232   -2.1067405   0.14165343    11273.584     1000 
 1218000   0.32208896   -2.5765648   0.48265031   -2.0939145    0.1402193    11358.584     1000 
 1220000   0.31475251   -2.5759496   0.47165664    -2.104293   0.13182774    11369.278     1000 
 1222000   0.32743239   -2.6123211   0.49065744   -2.1216637    0.1321068    11439.482     1000 
 1224000    0.3153097   -2.5769564   0.47249158   -2.1044648    0.1486741    11295.501     1000 
 1226000   0.32606405   -2.5916599   0.48860698   -2.1030529   0.13173704    11442.613     1000 
 1228000    0.3145451   -2.6100392   0.47134583   -2.1386934   0.13161417    11482.589     1000 
 1230000   0.30362723    -2.598799    0.4549854   -2.1438136   0.13274037    11347.558     1000 
 1232000   0.33107089   -2.5767178   0.49610972    -2.080608   0.14061976    11354.266     1000 
 1234000   0.32087145   -2.5992463   0.48082587   -2.1184204   0.13017133     11423.27     1000 
 1236000   0.31831656    -2.575837   0.47699737   -2.0988396   0.12984434    11359.449     1000 
 1238000   0.31625822    -2.612829   0.47391294   -2.1389161   0.13021604    11382.231     1000 
 1240000   0.34326469   -2.5719832   0.51438214   -2.0576011   0.13343753     11414.46     1000 
 1242000   0.32666257   -2.5984306   0.48950385   -2.1089267   0.12497279    11375.941     1000 
 1244000    0.3251057   -2.6098819   0.48717089    -2.122711   0.12887025    11438.516     1000 
 1246000   0.32024685   -2.5663464   0.47988991   -2.0864565   0.14556736    11277.456     1000 
 1248000   0.32005839   -2.6392458    0.4796075   -2.1596383   0.13170509     11397.34     1000 
 1250000   0.31131406   -2.6172846   0.46650412   -2.1507804   0.12873633     11429.52     1000 
 1252000   0.32555728   -2.6375229   0.48784759   -2.1496753   0.13243982    11446.185     1000 
 1254000   0.32177669   -2.6083426   0.48218238   -2.1261602   0.14335669    11405.135     1000 
 1256000    0.3243174   -2.5707118   0.48598963   -2.0847222   0.13522942    11355.938     1000 
 1258000   0.30266752   -2.6100083   0.45354728    -2.156461   0.13349398    11378.358     1000 
 1260000   0.33424414   -2.6443677   0.50086485   -2.1435028   0.12500524    11456.806     1000 
 1262000   0.32598069   -2.6410445   0.48848206   -2.1525624   0.12183076    11490.808     1000 
 1264000   0.32325692   -2.6058162   0.48440049   -2.1214157   0.12975597    11403.639     1000 
 1266000   0.31608088   -2.5995853    0.4736472   -2.1259381   0.11647666    11513.517     1000 
 1268000   0.31799597   -2.5888761   0.47651696   -2.1123591   0.13576413    11360.699     1000 
 1270000   0.34003229   -2.6016027   0.50953838   -2.0920643   0.13490597    11412.225     1000 
 1272000   0.32051278   -2.5974978    0.4802884   -2.1172094   0.12615484    11398.431     1000 
 1274000    0.3143317   -2.5876976   0.47102605   -2.1166716   0.14100931    11300.096     1000 
 1276000   0.30122738   -2.5750775   0.45138923   -2.1236883   0.14400943    11376.283     1000 
 1278000    0.3262291   -2.6214625    0.4888543   -2.1326082   0.12687706    11450.452     1000 
 1280000   0.30742679   -2.6211734   0.46067905   -2.1604944   0.12330587    11448.788     1000 
 1282000   0.31390511   -2.5876191   0.47038681   -2.1172323   0.12780356    11421.473     1000 
 1284000   0.31344505   -2.5728696   0.46969741   -2.1031722   0.13512653    11374.135     1000 
 1286000   0.31778876   -2.6166462   0.47620646   -2.1404398   0.12330402     11484.32     1000 
 1288000   0.32363047   -2.6189375   0.48496026   -2.1339773   0.13365967    11411.678     1000 
 1290000   0.33103132    -2.585777   0.49605043   -2.0897266   0.12532369    11457.193     1000 
 1292000    0.3173293   -2.6025225   0.47551796   -2.1270046   0.11687344    11495.386     1000 
 1294000   0.31789686    -2.622868   0.47636845   -2.1464995   0.13390158    11393.442     1000 
 1296000   0.32550773   -2.6055607   0.48777333   -2.1177874   0.14139578    11387.406     1000 
 1298000   0.31501362   -2.6214045    0.4720479   -2.1493565   0.13861587    11477.301     1000 
 1300000   0.32668382   -2.6248732   0.48953571   -2.1353375   0.13071693    11431.717     1000 
 1302000   0.32930509   -2.6214545   0.49346368   -2.1279908   0.13708061    11414.764     1000 
 1304000   0.31863271   -2.5982474   0.47747112   -2.1207763   0.12529542    11368.476     1000 
 1306000   0.31463909   -2.5939796   0.47148667   -2.1224929   0.12897733    11360.482     1000 
 1308000   0.31532079   -2.6260201    0.4725082   -2.1535119   0.12052063     11543.52     1000 
 1310000   0.31685096   -2.6129095   0.47480116   -2.1381084   0.12753331    11449.521     1000 
 1312000   0.32063945   -2.5843458   0.48047821   -2.1038676    0.1282197    11472.722     1000 
 1314000   0.33673803   -2.6336615   0.50460193   -2.1290596   0.11764819    11577.136     1000 
 1316000   0.31886073   -2.5785644    0.4778128   -2.1007516   0.13815013    11316.644     1000 
 1318000    0.3136694   -2.6219315    0.4700336   -2.1518979    0.1346783    11408.704     1000 
 1320000   0.31511921    -2.555894   0.47220613   -2.0836879   0.13586318      11312.2     1000 
 1322000   0.32170572   -2.5903583   0.48207602   -2.1082823   0.13343291    11385.705     1000 
 1324000   0.31944886   -2.6038823   0.47869412   -2.1251881   0.12284109    11472.906     1000 
 1326000   0.30957877   -2.5779562   0.46390378   -2.1140524   0.12875026     11382.15     1000 
 1328000   0.32029387   -2.5910958   0.47996037   -2.1111354   0.14089255    11307.241     1000 
 1330000   0.31447864   -2.5899192   0.47124625   -2.1186729   0.11808158    11466.983     1000 
 1332000   0.32653241   -2.6295238   0.48930882    -2.140215   0.13167441    11396.627     1000 
 1334000   0.31104241   -2.5765255   0.46609705   -2.1104284   0.12666524    11369.306     1000 
 1336000   0.30114683   -2.6280052   0.45126853   -2.1767366   0.12231635    11476.299     1000 
 1338000   0.29508024   -2.6059749   0.44217774   -2.1637972   0.12841693     11342.25     1000 
 1340000   0.32843061   -2.6100365   0.49215327   -2.1178832   0.12016181     11422.88     1000 
 1342000   0.32272661   -2.5751158   0.48360583   -2.0915099   0.13156003    11409.535     1000 
 1344000    0.3229849   -2.6122399   0.48399288    -2.128247   0.12248982    11527.134     1000 
 1346000   0.31233551   -2.6187125   0.46803477   -2.1506777    0.1442684    11353.596     1000 
 1348000   0.30638081   -2.5872495   0.45911165   -2.1281378   0.13270154    11385.907     1000 
 1350000   0.31496847    -2.626383   0.47198026   -2.1544027    0.1253388    11411.557     1000 
 1352000   0.32005665   -2.6571351   0.47960489   -2.1775303   0.11582488    11500.889     1000 
 1354000   0.31577474   -2.6180805   0.47318845   -2.1448921   0.12245624    11530.298     1000 
 1356000   0.31412983   -2.6072769   0.47072355   -2.1365533   0.13472952    11402.366     1000 
 1358000   0.31560304   -2.6163146   0.47293115   -2.1433835   0.13573544    11363.222     1000 
 1360000   0.33115409   -2.6364128   0.49623441   -2.1401784   0.12981628    11445.259     1000 
 1362000   0.30760334   -2.6134173   0.46094361   -2.1524737   0.12306673    11484.268     1000 
 1364000   0.32334738   -2.6329663   0.48453605   -2.1484303    0.1199374    11478.961     1000 
 1366000   0.32011646   -2.5970841   0.47969451   -2.1173896   0.11640666    11465.394     1000 
 1368000   0.32703109   -2.6299652   0.49005608   -2.1399091   0.12627414    11444.532     1000 
 1370000   0.32715908   -2.5972035   0.49024789   -2.1069556   0.12599087    11459.225     1000 
 1372000   0.30627575   -2.6099697   0.45895421   -2.1510155   0.13715351    11327.965     1000 
 1374000   0.32424391   -2.6063757    0.4858795   -2.1204962   0.12436164    11461.069     1000 
 1376000   0.31931233   -2.6001886   0.47848952    -2.121699   0.13145641    11450.212     1000 
 1378000   0.30758798   -2.6097797   0.46092059   -2.1488591    0.1178938    11494.959     1000 
 1380000   0.32417605   -2.6363106   0.48577782   -2.1505328   0.12727215    11465.136     1000 
 1382000   0.31906879   -2.6132215   0.47812458   -2.1350969   0.12509989    11450.109     1000 
 1384000   0.31894862   -2.5845184    0.4779445   -2.1065739   0.12989202    11479.494     1000 
 1386000   0.33790918   -2.6147094   0.50635691   -2.1083525   0.12787468    11453.234     1000 
 1388000   0.32021328   -2.5905254   0.47983961   -2.1106858   0.12852929    11466.783     1000 
 1390000   0.32615899   -2.5598082   0.48874925   -2.0710589   0.12747632    11451.408     1000 
 1392000   0.32801025   -2.5978544   0.49152337   -2.1063311   0.14058383    11336.268     1000 
 1394000    0.3215355   -2.6232824   0.48182094   -2.1414614   0.13859285    11372.142     1000 
 1396000   0.32517697   -2.6335934    0.4872777   -2.1463157   0.12573818    11451.744     1000 
 1398000   0.33378186   -2.5975772   0.50017212   -2.0974051    0.1252983    11415.344     1000 
 1400000   0.31513696   -2.6077168   0.47223274   -2.1354841   0.12888855    11419.716     1000 
 1402000   0.32244272   -2.6336652   0.48318042   -2.1504848   0.12712468    11447.156     1000 
 1404000   0.33416868    -2.614324   0.50075177   -2.1135722   0.14093686    11395.614     1000 
 1406000    0.3100915   -2.6046756   0.46467211   -2.1400035    0.1237868    11441.732     1000 
 1408000   0.32235285   -2.6003475   0.48304574   -2.1173018   0.14143075    11379.103     1000 
 1410000   0.31940394   -2.5983822    0.4786268   -2.1197554   0.14035794    11308.124     1000 
 1412000   0.32579256   -2.6404289   0.48820015   -2.1522287   0.13997053    11475.231     1000 
 1414000   0.33106224   -2.5944983   0.49609677   -2.0984016   0.12763551    11437.389     1000 
 1416000   0.31552918   -2.6030606   0.47282047   -2.1302402   0.12565476     11433.17     1000 
 1418000   0.32094614   -2.5756881    0.4809378   -2.0947503   0.10979737    11492.227     1000 
 1420000   0.29832844   -2.6157366   0.44704517   -2.1686914   0.12531328    11409.058     1000 
 1422000   0.32384883   -2.6187234   0.48528748   -2.1334359   0.13355186    11424.866     1000 
 1424000   0.30590117   -2.5955327    0.4583929   -2.1371398   0.12435964    11481.661     1000 
 1426000    0.3371922   -2.5715508   0.50528252   -2.0662683   0.14515986    11327.275     1000 
 1428000   0.31343495   -2.5914067   0.46968228   -2.1217244   0.12701647    11395.432     1000 
 1430000   0.31512969   -2.6082538   0.47222183   -2.1360319   0.14185037    11318.819     1000 
 1432000   0.31623156    -2.597235     0.473873    -2.123362   0.12609993     11385.34     1000 
 1434000   0.32668209   -2.6160623   0.48953311   -2.1265291   0.13100961    11407.993     1000 
 1436000   0.32069913   -2.6290985   0.48056765   -2.1485308   0.13146913    11446.597     1000 
 1438000   0.31873151   -2.6298776   0.47761916   -2.1522584   0.12116172    11542.228     1000 
 1440000   0.32717494   -2.5932052   0.49027165   -2.1029336   0.14496435    11367.646     1000 
 1442000   0.32062352   -2.6100489   0.48045434   -2.1295946   0.12927716     11383.68     1000 
 1444000    0.3197473   -2.5914993   0.47914133   -2.1123579   0.12998643    11410.986     1000 
 1446000   0.32018354   -2.5869837   0.47979504   -2.1071886    0.1274454    11397.548     1000 
 1448000   0.32938797   -2.5727803   0.49358787   -2.0791924   0.13442529    11359.895     1000 
 1450000   0.32519969   -2.6121209   0.48731174   -2.1248092   0.13473749    11457.729     1000 
 1452000   0.32494368   -2.5967424   0.48692811   -2.1098143    0.1247908    11499.404     1000 
 1454000   0.31180289   -2.5580569   0.46723663   -2.0908202   0.13957036    11373.147     1000 
 1456000   0.31165431   -2.5538058   0.46701398   -2.0867918   0.13580086    11300.672     1000 
 1458000   0.31730082      -2.6077   0.47547528   -2.1322247   0.12458659    11475.986     1000 
 1460000   0.33118049   -2.6031732   0.49627397   -2.1068992   0.12283456    11484.307     1000 
 1462000   0.32302835   -2.5891888   0.48405799   -2.1051308   0.12511284    11428.675     1000 
 1464000   0.32297383   -2.5681551   0.48397628   -2.0841788   0.13762362    11353.669     1000 
 1466000   0.32858543   -2.5870146   0.49238527   -2.0946293   0.14682975    11334.595     1000 
 1468000   0.32247534   -2.5764825   0.48322929   -2.0932532   0.12430656    11372.566     1000 
 1470000   0.32301774   -2.6000956   0.48404209   -2.1160536   0.13214443    11360.732     1000 
 1472000   0.31299867   -2.5734564   0.46902851   -2.1044279   0.12830777    11392.322     1000 
 1474000   0.32703187   -2.5901022   0.49005725    -2.100045   0.13553038    11397.389     1000 
 1476000   0.32668989   -2.5903567    0.4895448   -2.1008119   0.13236032    11380.986     1000 
 1478000   0.30551434   -2.5860352   0.45781324    -2.128222   0.13054814    11343.086     1000 
 1480000   0.33329988   -2.6142614   0.49944987   -2.1148115   0.13642994    11377.214     1000 
 1482000   0.31013386   -2.6095724   0.46473558   -2.1448368   0.12983631    11378.351     1000 
 1484000   0.32907011   -2.6091228   0.49311156   -2.1160113    0.1347003    11422.022     1000 
 1486000   0.32688767   -2.5923101   0.48984117    -2.102469   0.13532761     11416.94     1000 
 1488000   0.31464422   -2.5786414   0.47149437   -2.1071471   0.13637916    11394.475     1000 
 1490000   0.32786606   -2.6194622    0.4913073   -2.1281549    0.1354728    11411.356     1000 
 1492000   0.31161971   -2.6167316   0.46696213   -2.1497695   0.13486625    11455.087     1000 
 1494000   0.32088577   -2.6175428   0.48084733   -2.1366955   0.12668361    11447.047     1000 
 1496000   0.32322111   -2.5958358   0.48434683    -2.111489   0.13748779    11357.572     1000 
 1498000    0.3046313   -2.5678726      0.45649   -2.1113826   0.13835599    11358.009     1000 
 1500000   0.32000588   -2.6469009   0.47952881   -2.1673721   0.12149683    11477.811     1000 
 1502000   0.29475783   -2.6169721    0.4416946   -2.1752775   0.12080417    11490.652     1000 
 1504000   0.31654018   -2.6215774   0.47433546    -2.147242   0.12470643    11463.436     1000 
 1506000   0.31710997   -2.6158685   0.47518929   -2.1406792   0.13523832    11354.957     1000 
 1508000   0.32718656   -2.5841756   0.49028906   -2.0938865   0.12960383    11434.756     1000 
 1510000   0.32858362   -2.5904068   0.49238255   -2.0980242   0.13194395    11390.991     1000 
 1512000   0.31838817   -2.5562468   0.47710467   -2.0791421   0.14037992     11333.08     1000 
 1514000   0.31076073   -2.5789594   0.46567496   -2.1132845   0.13315591    11379.963     1000 
 1516000   0.31146283   -2.5997596   0.46672705   -2.1330326   0.11910688     11471.18     1000 
 1518000   0.32415393   -2.6085119   0.48574466   -2.1227672   0.13711784    11378.217     1000 
 1520000   0.32463092   -2.5880131   0.48645943   -2.1015537   0.13792409    11408.299     1000 
 1522000   0.31957487   -2.5995357   0.47888294   -2.1206528   0.13825766    11318.399     1000 
 1524000   0.31512139   -2.6204208    0.4722094   -2.1482114   0.13029441    11407.401     1000 
 1526000   0.32533096   -2.5573218   0.48750844   -2.0698134   0.14065546    11327.758     1000 
 1528000   0.33402248     -2.60184   0.50053268   -2.1013073   0.13111967    11436.056     1000 
 1530000   0.31669953   -2.6227605   0.47457425   -2.1481862     0.137055    11385.209     1000 
 1532000   0.32168947   -2.6444365   0.48205168   -2.1623848   0.13226353    11501.019     1000 
 1534000   0.33161251   -2.5645356   0.49692134   -2.0676142   0.13352127    11396.424     1000 
 1536000   0.32255661   -2.5956807   0.48335108   -2.1123297   0.12970612    11419.277     1000 
 1538000   0.32479658   -2.6064043   0.48670767   -2.1196967   0.14070213    11347.756     1000 
 1540000   0.31505906   -2.5972555     0.472116   -2.1251395   0.12733796    11499.052     1000 
 1542000   0.31871513   -2.5916423   0.47759462   -2.1140477   0.13264981    11432.239     1000 
 1544000   0.31382168   -2.5538432   0.47026178   -2.0835814   0.14605861    11317.119     1000 
 1546000   0.31747854   -2.5634439    0.4757416   -2.0877023    0.1285581    11360.806     1000 
 1548000   0.32397622   -2.5985423   0.48547837    -2.113064   0.12853477    11427.638     1000 
 1550000   0.32528846   -2.6146598   0.48744476   -2.1272151   0.12974015    11442.314     1000 
 1552000   0.33057886   -2.6199223   0.49537243   -2.1245499   0.13484167    11413.122     1000 
 1554000   0.32118667   -2.5993736   0.48129822   -2.1180754   0.13334852    11407.432     1000 
 1556000   0.31154884   -2.6410257   0.46685593   -2.1741698   0.12723597    11417.139     1000 
 1558000   0.30877226   -2.6248945   0.46269523   -2.1621993   0.12500739    11393.165     1000 
 1560000   0.32067782    -2.604083   0.48053571   -2.1235473   0.12815735    11394.568     1000 
 1562000   0.33635936   -2.5841773   0.50403449   -2.0801428   0.13675057    11315.649     1000 
 1564000   0.32078815   -2.5713182   0.48070104   -2.0906172   0.12703661    11342.945     1000 
 1566000   0.31871427    -2.618436   0.47759333   -2.1408427   0.13872696     11410.38     1000 
 1568000   0.32371021   -2.6216212   0.48507974   -2.1365414   0.12325387    11473.378     1000 
 1570000   0.32079419   -2.5982967    0.4807101   -2.1175866   0.13878579    11319.659     1000 
 1572000   0.31695017   -2.5684642   0.47494984   -2.0935144   0.13558997    11337.363     1000 
 1574000   0.30858956   -2.6375927   0.46242146   -2.1751713   0.11968657    11427.166     1000 
 1576000   0.31503497   -2.6312445   0.47207991   -2.1591646   0.13200591    11395.213     1000 
 1578000    0.3242118   -2.6018871   0.48583138   -2.1160558   0.12994417    11413.755     1000 
 1580000   0.31336147   -2.6153033   0.46957216   -2.1457311   0.12269097    11445.215     1000 
 1582000   0.31645766   -2.6089853    0.4742118   -2.1347735    0.1334709    11404.626     1000 
 1584000   0.32880149   -2.6248902   0.49270903   -2.1321812   0.13860323    11389.522     1000 
 1586000   0.30937204   -2.6181905     0.463594   -2.1545965    0.1340957    11410.308     1000 
 1588000   0.32681287   -2.5643359   0.48972909   -2.0746068   0.12846317    11378.425     1000 
[...]
 2614000   0.31944842   -2.6141345   0.47869346   -2.1354411   0.13613166    11352.228     1000 
 2616000   0.32461134    -2.580377   0.48643009   -2.0939469   0.12594822    11420.875     1000 
 2618000   0.33878824   -2.5523341   0.50767418     -2.04466   0.13604925    11336.089     1000 
 2620000    0.2989019   -2.5674656    0.4479045   -2.1195611   0.12068081    11441.952     1000 
 2622000   0.31708507   -2.5886514   0.47515198   -2.1134994   0.14407823    11342.841     1000 
 2624000   0.30273761   -2.5829549   0.45365231   -2.1293026   0.13470695    11323.404     1000 
 2626000   0.31537045   -2.6220036   0.47258262    -2.149421   0.13180421    11412.296     1000 
 2628000   0.31909017   -2.6195915   0.47815662   -2.1414349   0.11370658    11543.757     1000 
 2630000   0.32408418   -2.5958268   0.48564014   -2.1101866   0.13825033    11405.648     1000 
 2632000   0.32689439   -2.5940849   0.48985125   -2.1042337   0.13362395     11301.75     1000 
 2634000   0.32256004   -2.5888176   0.48335622   -2.1054613   0.13756542    11337.408     1000 
 2636000   0.30791899   -2.6229027   0.46141661   -2.1614861   0.13191114    11395.461     1000 
 2638000   0.32089755   -2.5812151   0.48086498   -2.1003502   0.13547565     11338.97     1000 
 2640000   0.31216665   -2.5992926   0.46778173   -2.1315109   0.12403729    11402.409     1000 
 2642000   0.30930861   -2.6329327   0.46349895   -2.1694337   0.13179571    11459.426     1000 
 2644000   0.31705199   -2.6485413   0.47510241   -2.1734389   0.12789806    11418.221     1000 
 2646000   0.32451803   -2.6010626   0.48629027   -2.1147723   0.12883882    11397.332     1000 
 2648000   0.32520237   -2.6047114   0.48731575   -2.1173956   0.13953939    11408.542     1000 
 2650000   0.31565247   -2.5787635   0.47300523   -2.1057582   0.12696523    11418.285     1000 
 2652000     0.319166   -2.5954355   0.47827024   -2.1171653   0.11563187    11521.769     1000 
 2654000    0.3078996   -2.5738041   0.46138755   -2.1124165   0.12925779    11460.857     1000 
 2656000   0.32733198    -2.587089   0.49050697    -2.096582   0.12418984    11470.901     1000 
 2658000   0.32783734   -2.6150518   0.49126426   -2.1237876   0.13149465    11428.729     1000 
 2660000   0.32979495   -2.6163777   0.49419773     -2.12218   0.12652018    11455.226     1000 
 2662000   0.32489771   -2.6017617   0.48685921   -2.1149025   0.12634392    11381.528     1000 
 2664000   0.33435361   -2.5707013   0.50102888   -2.0696724    0.1237889    11479.506     1000 
 2666000   0.31782287   -2.5856559   0.47625757   -2.1093984   0.12254765    11468.239     1000 
 2668000   0.30351629   -2.6057527   0.45481916   -2.1509335    0.1169653    11441.215     1000 
 2670000   0.32002788   -2.6002111   0.47956178   -2.1206493   0.13944446    11407.063     1000 
 2672000   0.31600485   -2.5906013   0.47353327   -2.1170681   0.12674066    11423.167     1000 
 2674000   0.30537919   -2.6319964   0.45761071   -2.1743857   0.12399993     11431.08     1000 
 2676000   0.32314211   -2.5838063   0.48422845   -2.0995779   0.13064819    11301.713     1000 
 2678000   0.33354017   -2.6221776   0.49980994   -2.1223677   0.12384634    11522.205     1000 
 2680000   0.32134015   -2.6078993   0.48152821   -2.1263711   0.13444201    11427.958     1000 
 2682000   0.32633325   -2.6022861   0.48901037   -2.1132757   0.13138489    11389.692     1000 
 2684000   0.32120816   -2.5981358   0.48133042   -2.1168054    0.1306604    11428.979     1000 
 2686000   0.33084886   -2.6073886   0.49577701   -2.1116116   0.13552251    11451.609     1000 
 2688000    0.3091903   -2.6218219   0.46332167   -2.1585003   0.12684456     11425.12     1000 
 2690000   0.32564802   -2.5846743   0.48798355   -2.0966907   0.12760468     11390.14     1000 
 2692000   0.31462109   -2.6194349    0.4714597   -2.1479752   0.12921283     11473.95     1000 
 2694000   0.31662516   -2.6068892    0.4744628   -2.1324264   0.12418383    11443.284     1000 
 2696000   0.31283028   -2.5965734   0.46877618   -2.1277972   0.12747564    11456.518     1000 
 2698000   0.30328001   -2.6261273   0.45446509   -2.1716622   0.12713868    11442.158     1000 
 2700000   0.32730699   -2.5981039   0.49046952   -2.1076344   0.13445219    11391.224     1000 
 2702000   0.33297053   -2.6208469   0.49895633   -2.1218905   0.12255816    11435.554     1000 
 2704000   0.31128663    -2.601281   0.46646301    -2.134818    0.1272906    11432.377     1000 
 2706000   0.30924367   -2.5896904   0.46340164   -2.1262888   0.12399302    11373.673     1000 
 2708000   0.30908118   -2.6206711   0.46315815    -2.157513   0.12239822    11428.165     1000 
 2710000   0.33150647   -2.6219936   0.49676245   -2.1252312   0.13228043     11475.57     1000 
 2712000   0.33361213   -2.6127648   0.49991778   -2.1128471   0.13033702    11509.252     1000 
 2714000    0.3150959   -2.5937979   0.47217121   -2.1216267   0.12085278    11403.479     1000 
 2716000   0.33463538   -2.5917414   0.50145111   -2.0902903   0.13513191    11396.756     1000 
 2718000   0.32490276   -2.5991392   0.48686679   -2.1122724   0.13025275    11416.944     1000 
 2720000   0.32680169   -2.5820524   0.48971233   -2.0923401   0.13228889    11438.257     1000 
 2722000   0.32453504   -2.6060149   0.48631575   -2.1196991   0.12215907    11475.276     1000 
 2724000   0.31370011   -2.5727714   0.47007961   -2.1026918   0.12312471    11461.828     1000 
 2726000   0.33785114   -2.6444865   0.50626993   -2.1382165   0.13474544    11429.769     1000 
 2728000   0.32066883   -2.5995409   0.48052224   -2.1190187   0.12828219    11405.265     1000 
 2730000   0.32163306   -2.5882241   0.48196715   -2.1062569   0.12361677    11413.365     1000 
 2732000   0.32983473   -2.6251334   0.49425735    -2.130876   0.12121357    11439.808     1000 
 2734000   0.31202671   -2.5942758   0.46757203   -2.1267038   0.13519941    11335.187     1000 
 2736000   0.33472153   -2.6046721   0.50158021   -2.1030919   0.14063783    11329.639     1000 
 2738000     0.322561   -2.5709204   0.48335766   -2.0875627   0.13537181    11331.474     1000 
 2740000   0.31619405   -2.6290501   0.47381679   -2.1552333   0.12324401    11444.827     1000 
 2742000   0.32875932   -2.5964173   0.49264584   -2.1037714   0.12640479    11474.797     1000 
 2744000   0.32607175   -2.6104669   0.48861852   -2.1218484   0.13601418    11367.107     1000 
 2746000    0.3234338   -2.6097578   0.48466555   -2.1250923   0.12618609    11500.507     1000 
 2748000   0.31466013   -2.5919969    0.4715182   -2.1204787   0.13708965    11330.077     1000 
 2750000   0.32108725   -2.6254322   0.48114925    -2.144283   0.12151611     11455.85     1000 
 2752000   0.32916944   -2.5793286    0.4932604   -2.0860682   0.14218356    11318.758     1000 
 2754000    0.3091231   -2.6000911   0.46322096   -2.1368702   0.12461098    11439.382     1000 
 2756000   0.32122699   -2.5660518   0.48135865   -2.0846931   0.13466235    11371.499     1000 
 2758000    0.3180627   -2.5829414   0.47661695   -2.1063244   0.12807773    11408.173     1000 
 2760000   0.31584043   -2.5937838   0.47328689   -2.1204969   0.13106783    11348.995     1000 
 2762000   0.32093978   -2.5616377   0.48092825   -2.0807094   0.13885856    11353.224     1000 
 2764000   0.30817224   -2.6093292    0.4617961   -2.1475331   0.12550666    11431.074     1000 
 2766000   0.32428681   -2.6033604   0.48594378   -2.1174166    0.1253872    11471.449     1000 
 2768000   0.32957287   -2.5772238   0.49386495   -2.0833588   0.13004412    11465.454     1000 
 2770000    0.3347876   -2.6141331   0.50167922   -2.1124539    0.1383708    11457.712     1000 
 2772000   0.32593149   -2.6090219   0.48840833   -2.1206135   0.13087363    11431.833     1000 
 2774000   0.31766929   -2.6048553   0.47602743   -2.1288279   0.13381604    11449.816     1000 
 2776000   0.31947527   -2.5611932   0.47873369   -2.0824595   0.12656827    11363.882     1000 
 2778000   0.33292443   -2.5922687   0.49888725   -2.0933815   0.12860614    11383.674     1000 
 2780000   0.32073831   -2.5941609   0.48062635   -2.1135345   0.13568709    11337.229     1000 
 2782000   0.30912007   -2.6189205   0.46321643   -2.1557041   0.12600533    11460.165     1000 
 2784000   0.31397534   -2.5957482   0.47049205   -2.1252562   0.12619186    11438.888     1000 
 2786000   0.32335513    -2.582754   0.48454766   -2.0982064   0.13181088    11418.599     1000 
 2788000    0.3060901   -2.5959017   0.45867601   -2.1372256   0.13071938    11401.399     1000 
 2790000   0.31003322   -2.6183274   0.46458478   -2.1537426   0.12802811    11394.023     1000 
 2792000   0.33098144   -2.6189877   0.49597568   -2.1230121   0.13423577    11421.591     1000 
 2794000   0.33487831   -2.5873398   0.50181515   -2.0855246   0.12847745    11401.541     1000 
 2796000   0.33162918   -2.6178075   0.49694633   -2.1208612   0.13114322    11367.482     1000 
 2798000   0.31016322   -2.6071012   0.46477958   -2.1423216   0.13330781    11432.721     1000 
 2800000   0.32138126   -2.5925722   0.48158983   -2.1109824    0.1283659    11465.371     1000 
 2802000   0.31823834   -2.6427882   0.47688016   -2.1659081   0.13597217    11400.566     1000 
 2804000   0.31964128   -2.6086073   0.47898246   -2.1296249   0.14063584    11261.992     1000 
 2806000   0.32009936     -2.61435   0.47966889   -2.1346811   0.13496408    11443.869     1000 
 2808000   0.31076722   -2.6191977   0.46568467    -2.153513   0.12133091    11495.842     1000 
 2810000   0.32933302   -2.6198234   0.49350553   -2.1263179   0.12418081    11500.807     1000 
 2812000   0.32304282   -2.6456579   0.48407967   -2.1615783   0.11794393    11525.345     1000 
 2814000   0.32990309   -2.6108722   0.49435978   -2.1165124    0.1326628    11379.342     1000 
 2816000   0.33244756   -2.6006526   0.49817267     -2.10248   0.13206021    11417.973     1000 
 2818000   0.33387615   -2.6415427   0.50031341   -2.1412292   0.12238625    11427.757     1000 
 2820000   0.31010184   -2.6403671   0.46468761   -2.1756795   0.12925141    11414.956     1000 
 2822000   0.32446346    -2.622217   0.48620849   -2.1360085   0.13537409    11383.281     1000 
 2824000   0.32331009   -2.6171911   0.48448016   -2.1327109   0.13757052    11359.807     1000 
 2826000   0.32935275   -2.5670882   0.49353509   -2.0735531   0.12474232    11460.958     1000 
 2828000   0.31037158   -2.6007197   0.46509182   -2.1356278   0.12858934    11444.888     1000 
 2830000   0.33692733   -2.5701516    0.5048856    -2.065266   0.14515914    11314.166     1000 
 2832000   0.31359432   -2.5743104   0.46992109   -2.1043893   0.14012959    11327.806     1000 
 2834000   0.32107165    -2.608013   0.48112587   -2.1268872   0.13240542    11408.552     1000 
 2836000   0.32972817    -2.609256   0.49409766   -2.1151583   0.13814373    11353.522     1000 
 2838000   0.32259959    -2.639177   0.48341549   -2.1557615   0.12439358    11443.336     1000 
 2840000    0.3236147   -2.6181451   0.48493663   -2.1332084   0.13612752    11340.134     1000 
 2842000   0.31415939   -2.6330437   0.47076784   -2.1622759   0.12267983    11499.568     1000 
 2844000   0.30944925   -2.5891613    0.4637097   -2.1254516   0.11946365    11459.339     1000 
 2846000   0.32330408   -2.5540331   0.48447117   -2.0695619   0.12156898    11457.966     1000 
 2848000   0.32009834   -2.5902509   0.47966736   -2.1105835   0.12305849    11418.304     1000 
 2850000   0.31730453   -2.5952104   0.47548084   -2.1197296   0.12053961    11490.804     1000 
 2852000   0.32953948   -2.6172239   0.49381491   -2.1234089   0.12487113    11416.609     1000 
 2854000   0.31952798   -2.5915459   0.47881267   -2.1127332   0.12895395    11373.285     1000 
 2856000   0.31697098   -2.6154664   0.47498102   -2.1404854   0.13507943    11456.835     1000 
 2858000   0.31990499   -2.6169445   0.47937763   -2.1375669   0.13118071    11458.602     1000 
 2860000   0.33324838   -2.5821594   0.49937269   -2.0827867   0.12613243    11477.891     1000 
 2862000   0.32036956   -2.6030031   0.48007378   -2.1229293   0.12905521    11427.711     1000 
 2864000   0.30169435   -2.5936601   0.45208898   -2.1415711   0.14035416    11313.882     1000 
 2866000   0.33162482   -2.6071117   0.49693979   -2.1101719   0.12879978    11441.911     1000 
 2868000   0.32296662   -2.6238837   0.48396548   -2.1399182   0.12690935    11478.305     1000 
 2870000   0.32230915   -2.6045643   0.48298025    -2.121584   0.13595709    11346.685     1000 
 2872000    0.3342751    -2.588595   0.50091123   -2.0876838   0.13237975    11409.659     1000 
 2874000   0.31721557   -2.6153523   0.47534754   -2.1400048   0.13634241    11421.326     1000 
 2876000   0.31345457   -2.6059918   0.46971167   -2.1362801    0.1284869    11446.746     1000 
 2878000   0.30989835   -2.5882189   0.46438268   -2.1238362    0.1388391    11331.274     1000 
 2880000   0.32771876   -2.5772008   0.49108656   -2.0861142   0.14022226    11289.932     1000 
 2882000   0.32716549   -2.6336542   0.49025749   -2.1433967   0.12818252    11494.918     1000 
 2884000   0.31576929   -2.5732965   0.47318028   -2.1001162   0.12502413    11403.134     1000 
 2886000    0.3227472   -2.6026886   0.48363668   -2.1190519   0.12906747    11423.704     1000 
 2888000   0.32351834   -2.5898219   0.48479223   -2.1050296   0.11978763    11399.735     1000 
 2890000   0.30753179   -2.6102212   0.46083638   -2.1493848   0.11967085        11527     1000 
 2892000     0.314279   -2.5751614   0.47094708   -2.1042144   0.13053009    11434.794     1000 
 2894000   0.31254492   -2.5691355   0.46834857    -2.100787   0.13580802    11343.732     1000 
 2896000   0.32468371   -2.6172275   0.48653853    -2.130689   0.12883777    11463.222     1000 
 2898000   0.33514281   -2.5804084    0.5022115   -2.0781969   0.14095093    11366.661     1000 
 2900000    0.3239119   -2.6187166   0.48538197   -2.1333346   0.13094744    11511.412     1000 
 2902000    0.3169881   -2.6052229   0.47500666   -2.1302162   0.13263396    11321.676     1000 
 2904000    0.3193292   -2.6050309   0.47851481   -2.1265161   0.12785845    11433.458     1000 
 2906000   0.32747543   -2.6155721   0.49072193   -2.1248502   0.12688694    11457.994     1000 
 2908000   0.30979739   -2.6210874   0.46423138    -2.156856   0.12916189     11405.79     1000 
 2910000   0.32058784   -2.6157273   0.48040088   -2.1353264   0.12250151    11438.896     1000 
 2912000   0.32478222   -2.5950191   0.48668615    -2.108333   0.11981851    11415.026     1000 
 2914000   0.31400991    -2.606664   0.47054385   -2.1361201   0.13240452    11395.391     1000 
 2916000   0.31875868   -2.6223873   0.47765988   -2.1447274   0.11886672     11449.96     1000 
 2918000   0.33100479   -2.5636621   0.49601067   -2.0676514    0.1272417    11418.416     1000 
 2920000   0.29979805   -2.5681153   0.44924737   -2.1188679   0.12738507    11398.927     1000 
 2922000   0.31878818   -2.6359373   0.47770408   -2.1582332   0.13878562    11394.363     1000 
 2924000   0.30927138   -2.6361458   0.46344316   -2.1727026   0.12702797    11523.834     1000 
 2926000   0.31223692   -2.6005461   0.46788703   -2.1326591   0.12715159    11437.181     1000 
 2928000   0.31989349   -2.6155328    0.4793604   -2.1361724   0.12790531    11391.039     1000 
 2930000   0.32303401   -2.5673544   0.48406646    -2.083288   0.13872084     11377.65     1000 
 2932000   0.34475491   -2.5635737   0.51661524   -2.0469584   0.14028932    11291.717     1000 
 2934000   0.33027983     -2.61481   0.49492433   -2.1198857   0.12549254    11434.929     1000 
 2936000   0.32489788   -2.5578635   0.48685947    -2.071004   0.13048975    11418.239     1000 
 2938000    0.3000865   -2.6083562   0.44967962   -2.1586765   0.13348575    11339.099     1000 
 2940000   0.32213567   -2.5887586   0.48272031   -2.1060383   0.12766932    11382.733     1000 
 2942000   0.33250177   -2.5767909    0.4982539    -2.078537    0.1281557    11422.822     1000 
 2944000   0.31169373   -2.6163005   0.46707305   -2.1492275   0.12808381     11345.35     1000 
 2946000   0.30255712   -2.5918644   0.45338184   -2.1384826   0.12832116    11376.729     1000 
 2948000   0.33173396   -2.6339715   0.49710334   -2.1368681   0.13428226    11415.505     1000 
 2950000   0.31642879   -2.6316932   0.47416854   -2.1575247   0.11430682    11491.642     1000 
 2952000   0.32066281   -2.6260551   0.48051322   -2.1455419   0.12146323    11415.925     1000 
 2954000   0.32691149   -2.5491912   0.48987687   -2.0593143   0.13996095    11298.675     1000 
 2956000   0.30463239   -2.5793167   0.45649164    -2.122825   0.13774424    11360.953     1000 
 2958000   0.32114157   -2.6134582   0.48123064   -2.1322275   0.12608011    11468.031     1000 
 2960000   0.31436587   -2.5899304   0.47107725   -2.1188532    0.1374483    11341.229     1000 
 2962000   0.31909637    -2.567729    0.4781659   -2.0895631   0.13543993    11405.208     1000 
 2964000    0.2986373   -2.5879734   0.44750799   -2.1404654   0.13746251    11396.912     1000 
 2966000   0.32231232   -2.6064559     0.482985   -2.1234709   0.13072447    11387.978     1000 
 2968000   0.32146007   -2.5796315   0.48170791   -2.0979236   0.13184395    11373.968     1000 
 2970000   0.32034409   -2.5820821   0.48003561   -2.1020465   0.13802013    11449.586     1000 
 2972000   0.31455331   -2.5602414   0.47135814   -2.0888833   0.12960027    11400.751     1000 
 2974000   0.33673885   -2.5723077   0.50460317   -2.0677046   0.14118141    11278.921     1000 
 2976000   0.31729696    -2.594934   0.47546949   -2.1194645   0.14432508    11306.845     1000 
 2978000   0.31902018   -2.5842804   0.47805174   -2.1062286   0.12515262    11447.002     1000 
 2980000    0.3146276   -2.6068843   0.47146946   -2.1354148   0.12719405    11495.633     1000 
 2982000   0.31830386   -2.5857772   0.47697834   -2.1087989   0.13304668    11398.473     1000 
 2984000   0.31019888   -2.6232312   0.46483303   -2.1583982   0.13570195    11353.258     1000 
 2986000   0.32181606   -2.6062895   0.48224136   -2.1240482   0.14959253    11276.132     1000 
 2988000   0.32188161   -2.6122015    0.4823396   -2.1298619   0.13681034    11398.096     1000 
 2990000   0.31149982   -2.6075562   0.46678248   -2.1407737   0.12954556    11428.048     1000 
 2992000    0.3222933   -2.5967777   0.48295652   -2.1138212   0.10974799    11553.353     1000 
 2994000   0.31598619    -2.586447    0.4735053   -2.1129417   0.13207045    11312.381     1000 
 2996000   0.32717001    -2.579658   0.49026426   -2.0893937   0.12565493    11414.313     1000 
 2998000    0.3140439   -2.5536879   0.47059479   -2.0830931    0.1151975    11501.258     1000 
 3000000   0.32137625   -2.6326948   0.48158232   -2.1511125   0.13110491    11386.945     1000 
Loop time of 2234.17 on 4 procs for 3000000 steps with 1000 atoms

Performance: 580082.459 tau/day, 1342.783 timesteps/s
97.0% CPU use with 4 MPI tasks x 1 OpenMP threads

MPI task timing breakdown:
Section |  min time  |  avg time  |  max time  |%varavg| %total
---------------------------------------------------------------
Pair    | 1825       | 1836.7     | 1850.4     |  21.9 | 82.21
Neigh   | 154.19     | 154.7      | 155.75     |   5.0 |  6.92
Comm    | 186.31     | 201.1      | 213.36     |  70.0 |  9.00
Output  | 0.02425    | 0.027844   | 0.038453   |   3.7 |  0.00
Modify  | 31.392     | 31.466     | 31.555     |   1.1 |  1.41
Other   |            | 10.14      |            |       |  0.45

Nlocal:        250.000 ave         252 max         247 min
Histogram: 1 0 0 0 1 0 0 0 0 2
Nghost:        3571.75 ave        3580 max        3556 min
Histogram: 1 0 0 0 0 0 0 1 0 2
Neighs:        49958.0 ave       51205 max       48910 min
Histogram: 1 0 0 1 1 0 0 0 0 1

Total # of neighbors = 199832
Ave neighs/atom = 199.83200
Neighbor list builds = 150000
Dangerous builds not checked

Total wall time: 0:37:14
