LAMMPS (3 Mar 2020)
# ----------------------- Inicialização -----------------------

units			lj
atom_style 		atomic
dimension 		3
boundary 		p p p

# -------------------- Criação dos Átomos ---------------------

read_data 		topologia.txt
  orthogonal box = (0 0 0) to (21.54 21.54 21.54)
  1 by 2 by 2 MPI processor grid
  reading atoms ...
  1000 atoms
  read_data CPU = 0.00151828 secs

velocity 		all create ${temp} 87287 rot yes dist gaussian
velocity 		all create 0.85 87287 rot yes dist gaussian

# ------------------ Interação Interatômica -------------------

pair_style		table linear 1600
pair_coeff		1 1 force.table AA 8.0
WARNING: 3 of 1600 force values in table are inconsistent with -dE/dr.
  Should only be flagged at inflection points (src/pair_table.cpp:483)
pair_coeff		1 2 force.table AB 8.0
WARNING: 1 of 1600 force values in table are inconsistent with -dE/dr.
  Should only be flagged at inflection points (src/pair_table.cpp:483)
pair_coeff		2 2 force.table BB 8.0
pair_write		1 1 1600 r 0.008 8.0 table.check AA
Neighbor list info ...
  update every 1 steps, delay 10 steps, check yes
  max neighbors/atom: 2000, page size: 100000
  master list distance cutoff = 8.3
  ghost atom cutoff = 8.3
  binsize = 4.15, bins = 6 6 6
  1 neighbor lists, perpetual/occasional/extra = 1 0 0
  (1) pair table, perpetual
      attributes: half, newton on
      pair build: half/bin/atomonly/newton
      stencil: half/bin/3d/newton
      bin: standard
pair_write		1 2 1600 r 0.008 8.0 table.check AB
pair_write		2 2 1600 r 0.008 8.0 table.check BB

neighbor 		0.3 bin
neigh_modify		every 20 delay 0 check no

# ------------------------- Ensemble --------------------------------------

fix 1			all npt temp ${temp} ${temp} 0.5 iso ${press} ${press} 5
fix 1			all npt temp 0.85 ${temp} 0.5 iso ${press} ${press} 5
fix 1			all npt temp 0.85 0.85 0.5 iso ${press} ${press} 5
fix 1			all npt temp 0.85 0.85 0.5 iso 0.13 ${press} 5
fix 1			all npt temp 0.85 0.85 0.5 iso 0.13 0.13 5

# ---------------------- Função de Distribuição Radial -----------------------

#compute RDF 		all rdf 2000 1 1 1 2 2 2
#fix 2 			all ave/time 1 2000 2000 c_RDF[*] file rdf.data mode vector

# ------------------------- Execução ---------------------------

timestep 		0.005
thermo_style		custom step temp pe ke etotal press vol atoms
thermo			2000
run			3000000
Per MPI rank memory allocation (min/avg/max) = 2.675 | 2.675 | 2.675 Mbytes
Step Temp PotEng KinEng TotEng Press Volume Atoms 
       0         0.85      1.46278     1.273725     2.736505     1.685311    9993.9483     1000 
    2000   0.83176384    -1.891306    1.2463981  -0.64490789   0.11113373    11919.399     1000 
    4000   0.87963507   -1.8572793    1.3181331  -0.53914618   0.13347784      11759.7     1000 
    6000   0.84566407   -1.9153202    1.2672276  -0.64809255   0.12304104    11762.852     1000 
    8000   0.83088908   -1.8955936    1.2450873  -0.65050634   0.11474201    11684.127     1000 
   10000   0.88633281   -1.9151916    1.3281697  -0.58702188   0.14517987    11671.917     1000 
   12000   0.84766146   -1.9452649    1.2702207  -0.67504422    0.1291905    11782.002     1000 
   14000   0.82279836   -1.9312977    1.2329633  -0.69833433   0.13185175    11740.428     1000 
   16000   0.83394247   -1.9402555    1.2496628  -0.69059272   0.11868909    11873.046     1000 
   18000   0.82584466   -1.8897377    1.2375282  -0.65220952   0.12312061    12071.566     1000 
   20000   0.81114536   -1.9410152    1.2155013  -0.72551391   0.12709114    11561.357     1000 
   22000   0.86654906   -1.9412482    1.2985238  -0.64272445   0.13192363    11583.504     1000 
   24000   0.82366685   -1.8954752    1.2342648  -0.66121041    0.1211892    11790.236     1000 
   26000   0.85431139   -1.8995357    1.2801856   -0.6193501   0.15040844    11574.423     1000 
   28000   0.86102693    -1.886862    1.2902489  -0.59661312   0.11198627    12050.232     1000 
   30000   0.84223877   -1.9395936    1.2620948  -0.67749879   0.12793398    11371.851     1000 
   32000    0.8620006   -1.9564525    1.2917079  -0.66474455   0.13242917     11610.43     1000 
   34000   0.83818623   -1.9438701    1.2560221  -0.68784806   0.13922203    11591.642     1000 
   36000   0.86069232   -1.9212036    1.2897474  -0.63145614   0.14196442    11488.241     1000 
   38000   0.85041631   -1.9677402    1.2743488  -0.69339134   0.12291975    11861.885     1000 
   40000   0.86213795   -1.9094326    1.2919137  -0.61751887   0.13961722    11543.616     1000 
   42000    0.8310053    -1.899968    1.2452614  -0.65470661   0.11666357    11972.077     1000 
   44000   0.82569107   -1.9567188    1.2372981  -0.71942076    0.1266605    11714.116     1000 
   46000   0.83217635   -1.9003418    1.2470163  -0.65332556   0.12857483    11694.863     1000 
   48000   0.87863301   -1.9546176    1.3166316  -0.63798602    0.1333833    11669.553     1000 
   50000   0.84875867   -1.9097637    1.2718649  -0.63789881   0.14513509    11402.527     1000 
   52000   0.86481777   -1.9244851    1.2959294  -0.62855565   0.12154391    11775.643     1000 
   54000   0.85726822   -1.8864791    1.2846164  -0.60186267   0.12863054    11540.168     1000 
   56000   0.84059921   -1.9011398    1.2596379  -0.64150186   0.14636106    11422.784     1000 
   58000   0.83088566   -1.8596528    1.2450822  -0.61457065   0.13705188    11590.917     1000 
   60000   0.82602025   -1.9123623    1.2377913  -0.67457092   0.11419969    11643.406     1000 
   62000   0.82855798   -1.9533974    1.2415941  -0.71180329   0.10975922    11612.012     1000 
   64000   0.86560467   -1.9297923    1.2971086  -0.63268365   0.13698463    11638.076     1000 
   66000   0.85522275    -1.936247    1.2815513   -0.6546957   0.13895634    11631.954     1000 
   68000   0.89559915   -1.8907953    1.3420553  -0.54873992   0.13000896     11721.05     1000 
   70000   0.84935624   -1.9332373    1.2727603  -0.66047701   0.13555991    11590.434     1000 
   72000   0.85622841   -1.9301847    1.2830583  -0.64712639   0.13118127    11618.928     1000 
   74000   0.85207313   -1.8859287    1.2768316  -0.60909714   0.10806255    11829.922     1000 
   76000   0.80202543   -1.8873447    1.2018351   -0.6855096   0.13830313    11599.604     1000 
   78000   0.86460209   -1.9069164    1.2956062  -0.61131019   0.11578971    11799.682     1000 
   80000   0.83233819   -1.9935781    1.2472588  -0.74631928    0.1328135    11625.779     1000 
   82000   0.86890082    -1.876025    1.3020479  -0.57397715   0.14153733    11585.601     1000 
   84000    0.8222976   -1.9329521     1.232213  -0.70073918   0.13435895    11892.791     1000 
   86000   0.83288838   -1.9754804    1.2480832  -0.72739711   0.12776721    11728.811     1000 
   88000   0.85771505   -1.8940797     1.285286  -0.60879368   0.13218746    11537.583     1000 
   90000   0.82912458   -1.9295548    1.2424432  -0.68711162   0.12905624    11701.834     1000 
   92000   0.82769834    -1.893495     1.240306  -0.65318905   0.13677773    11785.006     1000 
   94000   0.84734622   -1.8733201    1.2697483  -0.60357175   0.12543744    11648.382     1000 
   96000   0.83754198   -1.9505197    1.2550567  -0.69546302     0.127011    11794.193     1000 
   98000   0.86036533   -1.8808677    1.2892574  -0.59161021   0.13730711    11481.681     1000 
  100000   0.86876491   -1.8912004    1.3018442   -0.5893562   0.11956162    11781.345     1000 
  102000   0.85946895    -1.954213    1.2879142  -0.66629877    0.1298332    11746.277     1000 
  104000   0.86389325   -1.9401777     1.294544   -0.6456337   0.14952719    11451.897     1000 
  106000   0.84801288   -1.9687002    1.2707473  -0.69795294   0.12243304     11704.81     1000 
  108000   0.82865768   -1.8895184    1.2417435  -0.64777484    0.1286537    11705.951     1000 
  110000   0.85378422   -1.9279392    1.2793957  -0.64854351   0.13496365     11497.69     1000 
  112000   0.85723622   -1.9441541    1.2845685  -0.65958558   0.11379478    11986.661     1000 
  114000   0.87558327   -1.8962403    1.3120615  -0.58417874   0.14051829    11561.281     1000 
  116000   0.83072633   -1.9312422    1.2448434  -0.68639884   0.11494874    11867.155     1000 
  118000   0.86510115   -1.9210773    1.2963541  -0.62472321    0.1363542    11570.071     1000 
  120000   0.85492014   -1.9628007    1.2810978  -0.68170289   0.11573307    11872.208     1000 
  122000   0.83929431   -1.9449048    1.2576825   -0.6872223   0.12071645    11774.476     1000 
  124000   0.87382952   -1.9282353    1.3094335  -0.61880175    0.1262582    12061.999     1000 
  126000   0.85752045   -1.8677067    1.2849944  -0.58271231   0.13959469    11581.953     1000 
  128000   0.84824628   -1.9084967    1.2710971  -0.63739962    0.1357362    11622.245     1000 
  130000     0.850704   -1.9853342    1.2747799   -0.7105543    0.1232501    11861.069     1000 
  132000   0.86581123   -1.9045238    1.2974181  -0.60710563   0.13640999    11659.057     1000 
  134000   0.80269547   -1.9930803    1.2028392  -0.79024115   0.11926715    11789.265     1000 
  136000   0.86462029   -1.9409387    1.2956335  -0.64530522   0.13860775    11707.186     1000 
  138000   0.88918748   -1.8746675    1.3324474  -0.54222011   0.15711179    11706.933     1000 
  140000   0.85460203   -1.9175913    1.2806211  -0.63697018   0.12147687    11739.847     1000 
  142000   0.84938395   -1.9050581    1.2728018  -0.63225621   0.12497068    11693.408     1000 
  144000    0.8599547   -2.0075666    1.2886421  -0.71892453    0.1307621    11655.034     1000 
  146000   0.87014033   -1.9715181    1.3039053  -0.66761287   0.12446977    12023.085     1000 
  148000   0.87226728   -1.9335118    1.3070925  -0.62641925   0.13579553    11834.999     1000 
  150000   0.86060959   -1.9070695    1.2896235  -0.61744601   0.13440993    11537.364     1000 
  152000   0.86920171   -1.8726552    1.3024988  -0.57015648   0.12139922    11749.032     1000 
  154000   0.86089431   -1.8843361    1.2900501  -0.59428598   0.13550462    11790.845     1000 
  156000   0.84437687   -1.8550101    1.2652987  -0.58971134     0.133057    11437.144     1000 
  158000   0.87660438   -1.9556342    1.3135917  -0.64204254   0.11601901    11729.509     1000 
  160000   0.85444284   -1.9458235    1.2803826  -0.66544087   0.14771013    11546.603     1000 
  162000   0.84932216    -1.934889    1.2727093  -0.66217974   0.13885725     11876.51     1000 
  164000   0.85146389   -1.9182338    1.2759186  -0.64231518     0.117806    11766.126     1000 
  166000   0.86604094   -1.9845511    1.2977623  -0.68678876   0.14074949    11747.026     1000 
  168000   0.89302363   -1.8850739    1.3381959  -0.54687796   0.14709225     11533.75     1000 
  170000   0.86487106   -1.8781747    1.2960093  -0.58216542   0.14021907    11501.285     1000 
  172000   0.87204081   -1.9066162    1.3067532    -0.599863   0.12326244    11877.024     1000 
  174000   0.85291379   -1.8904156    1.2780913  -0.61232427   0.13765145    11569.908     1000 
  176000   0.87419427    -1.951183    1.3099801  -0.64120287   0.11854883     11837.63     1000 
  178000   0.83012921   -1.9044826    1.2439486  -0.66053402   0.12208264    11758.661     1000 
  180000   0.86441629   -1.9463477    1.2953278   -0.6510199   0.13450015    11854.686     1000 
  182000   0.86158045   -1.9284692    1.2910783  -0.63739085   0.11932938    11608.278     1000 
  184000    0.8253652   -1.9217089    1.2368098   -0.6848991   0.13559089    11528.571     1000 
  186000   0.84091395   -1.9177517    1.2601096  -0.65764218   0.14360128    11469.562     1000 
  188000   0.86354734   -1.9301125    1.2940257  -0.63608676   0.11887304    11881.847     1000 
  190000   0.84959206   -1.9395289    1.2731137  -0.66641515   0.12143113    11533.495     1000 
  192000   0.85144906   -1.9406566    1.2758964   -0.6647602   0.13064936    11657.003     1000 
  194000   0.86241937   -1.9485901    1.2923354  -0.65625466    0.1338015    11469.046     1000 
  196000   0.83681528   -1.9421376    1.2539677  -0.68816995   0.12996833    11674.561     1000 
  198000   0.83015822   -1.8813522    1.2439921   -0.6373601   0.13153197    11661.625     1000 
  200000   0.86337571   -1.8584893    1.2937685  -0.56472081   0.13221765    11851.762     1000 
  202000    0.8356015   -1.8924607    1.2521489  -0.64031185   0.14153104    11350.613     1000 
  204000    0.8868409   -1.8964907    1.3289311  -0.56755957   0.12497293    11736.653     1000 
  206000   0.86800749   -1.8960918    1.3007092  -0.59538255   0.12702794    11652.315     1000 
  208000   0.86069583   -1.8960737    1.2897527  -0.60632099   0.13346302     11747.05     1000 
  210000   0.86310463   -1.9291653    1.2933623  -0.63580298   0.11506635     11820.96     1000 
  212000   0.88769324   -1.9052347    1.3302083  -0.57502642   0.13993945     11436.61     1000 
  214000   0.85684408   -1.8855406    1.2839808  -0.60155977   0.13182399    11633.597     1000 
  216000   0.85264973   -1.9239546    1.2776956  -0.64625898    0.1372541    11640.886     1000 
  218000   0.82077141   -1.9656416     1.229926  -0.73571567   0.11654751    11556.572     1000 
  220000   0.86661935   -1.9178441    1.2986291  -0.61921504    0.1351802    11850.516     1000 
  222000   0.84514819   -1.8904161    1.2664546   -0.6239615   0.12898309     11596.77     1000 
  224000   0.86957232   -1.9477476    1.3030541  -0.64469346   0.11370931    11862.675     1000 
  226000   0.87794588    -1.921049    1.3156019  -0.60544714   0.14534021    11639.815     1000 
  228000   0.85228443   -1.9526316    1.2771482  -0.67548336   0.12229398    11846.229     1000 
  230000   0.82364682   -1.9051387    1.2342348  -0.67090399   0.14249278    11438.738     1000 
  232000   0.86713809   -1.9130925    1.2994064  -0.61368608   0.13693809    11774.573     1000 
  234000   0.82810237   -1.8866939    1.2409114   -0.6457825     0.134983    11536.199     1000 
  236000   0.85389323    -1.923894     1.279559  -0.64433497   0.12024151    11511.647     1000 
  238000   0.83664152   -1.9050201    1.2537073  -0.65131284   0.12417186    11759.383     1000 
  240000   0.84969505   -1.8923385     1.273268  -0.61907044   0.12766967    11756.668     1000 
  242000   0.89349803   -1.9210335    1.3389068  -0.58212674   0.13302045    11585.735     1000 
  244000   0.81755387   -1.9573613    1.2251045  -0.73225687   0.11759806    11564.443     1000 
  246000   0.82947853   -1.9000564    1.2429736  -0.65708278   0.11596846    11613.957     1000 
  248000   0.87800644   -1.9336413    1.3156926  -0.61794867   0.13715893    11509.052     1000 
  250000    0.8443198   -1.9432237    1.2652132  -0.67801047   0.12283375    11826.291     1000 
  252000   0.87037834   -1.9212631    1.3042619  -0.61700119   0.14021634    11599.914     1000 
  254000   0.80963875   -1.9623377    1.2132437  -0.74909405   0.13363464    11564.675     1000 
  256000   0.82262178   -1.9501544    1.2326987   -0.7174557    0.1255178    11838.291     1000 
  258000   0.84259952   -1.8773339    1.2626354  -0.61469854   0.13098875    11565.305     1000 
  260000   0.85891904   -1.8245128    1.2870902  -0.53742264   0.12892471    11799.997     1000 
  262000    0.8434295   -1.8969981    1.2638791  -0.63311896     0.127033    11573.911     1000 
  264000   0.84213885   -1.9043941    1.2619451  -0.64244908   0.13983211    11406.914     1000 
  266000   0.85982129   -1.9431298    1.2884422  -0.65468759   0.14880013    11644.515     1000 
  268000   0.84533286   -1.9315233    1.2667313  -0.66479205   0.13150266    11560.557     1000 
  270000   0.83797354   -1.8931221    1.2557033   -0.6374188   0.13239795    11710.147     1000 
  272000   0.79445228   -1.9709146    1.1904867  -0.78042787   0.12220021    11794.617     1000 
  274000   0.86007895   -1.9205502    1.2888283  -0.63172187   0.13094802    11819.668     1000 
  276000    0.8418999   -1.9394645     1.261587  -0.67787748   0.13253742     11680.72     1000 
  278000   0.83247484   -1.9637293    1.2474635  -0.71626575   0.11671287    11879.088     1000 
  280000   0.87019211   -1.9315511    1.3039829  -0.62756827   0.13875642    11750.682     1000 
  282000   0.89015259   -1.9352036    1.3338937  -0.60130993   0.13195612    11778.552     1000 
  284000   0.84635037   -1.9096954     1.268256  -0.64143934   0.14317519    11755.988     1000 
  286000   0.83413846   -2.0100663    1.2499565  -0.76010978   0.11427574    11922.798     1000 
  288000   0.84166725   -1.8876558    1.2612384  -0.62641738   0.14902389    11515.422     1000 
  290000   0.82514276   -1.9615083    1.2364764  -0.72503183   0.12645013    11767.042     1000 
  292000   0.87125924   -1.8943823     1.305582  -0.58880029   0.13609283     11462.07     1000 
  294000   0.79998597    -1.949385     1.198779  -0.75060603   0.12766414    11705.883     1000 
  296000   0.89387048   -1.9585212    1.3394649  -0.61905626   0.13447392    11639.155     1000 
  298000   0.83726612   -1.9384658    1.2546433  -0.68382249   0.11838716    11848.837     1000 
  300000   0.87850915   -1.9275213     1.316446  -0.61107534   0.14623938    11553.561     1000 
  302000     0.822863   -2.0245553    1.2330602  -0.79149508   0.11805355    11858.367     1000 
  304000   0.82764408   -1.9299032    1.2402247  -0.68967856   0.12297833    11873.584     1000 
  306000   0.85440817   -1.9756522    1.2803306  -0.69532157   0.13245854    11596.575     1000 
  308000   0.87925986   -1.9063303    1.3175709  -0.58875943   0.15020788    11566.864     1000 
  310000   0.85966222   -1.9378064    1.2882038  -0.64960255   0.11783207    11925.358     1000 
  312000   0.83830128    -1.969899    1.2561945  -0.71370449   0.11295429    11608.759     1000 
  314000   0.82691282   -1.8912354    1.2391289  -0.65210655   0.12553387    11794.137     1000 
  316000   0.82987858   -1.9135478    1.2435731  -0.66997476   0.10798417    11695.236     1000 
  318000   0.85509964   -1.9064126    1.2813668   -0.6250458   0.12747048     11815.34     1000 
  320000   0.83097416   -1.9289429    1.2452148  -0.68372816   0.14596516    11626.658     1000 
  322000   0.87801375   -1.9153098    1.3157036  -0.59960617   0.12596304    11930.043     1000 
  324000   0.86653666   -1.9183098    1.2985052  -0.61980466   0.13047712     11798.78     1000 
  326000   0.82729654   -1.9142415    1.2397039  -0.67453765   0.10732718    11762.887     1000 
  328000   0.85129537   -1.9332636    1.2756661  -0.65759748   0.13972296    11471.072     1000 
  330000   0.87550114   -1.9052657    1.3119385  -0.59332724   0.12429635    11494.914     1000 
  332000   0.82995194   -1.9571131     1.243683  -0.71343012    0.1201979    11676.592     1000 
  334000   0.84400334   -1.9084051     1.264739  -0.64366609   0.13871726      11575.5     1000 
  336000   0.85738923   -1.9377282    1.2847978  -0.65293044   0.14760333    11522.984     1000 
  338000   0.85967744    -1.904329    1.2882266  -0.61610232   0.14264164    11455.604     1000 
  340000   0.81892005   -1.8750366    1.2271517  -0.64788493   0.12154494     11613.67     1000 
  342000   0.81334237   -2.0218875    1.2187935  -0.80309399   0.12716541    11495.809     1000 
  344000   0.83385708   -1.9797169    1.2495348  -0.73018205    0.1204182    11786.707     1000 
  346000   0.83383326   -1.8685501    1.2494991  -0.61905093    0.1255793    11770.077     1000 
  348000   0.89851401   -1.8098067    1.3464232   -0.4633835   0.14873478    11314.939     1000 
  350000   0.84159921   -1.9044779    1.2611364  -0.64334147   0.11913955     11743.44     1000 
  352000    0.8595009   -1.9244222    1.2879621  -0.63646011   0.13949576    11683.407     1000 
  354000   0.85378231   -1.9352519    1.2793928  -0.65585912   0.12090697    11575.307     1000 
  356000    0.8566123   -1.9486401    1.2836335  -0.66500659   0.12642546    11497.496     1000 
  358000   0.85068391   -1.9705703    1.2747498   -0.6958205   0.12530317    11707.179     1000 
  360000   0.87159666   -1.9544125    1.3060876  -0.64832488   0.12519893    11785.191     1000 
  362000   0.83762709   -1.9746977    1.2551842  -0.71951352   0.11022694    11775.668     1000 
  364000   0.84563716   -1.9697399    1.2671873  -0.70255257   0.11542641     11724.43     1000 
  366000   0.88784872   -1.8687482    1.3304413  -0.53830687   0.13570889    11467.463     1000 
  368000   0.84468189   -1.9066089    1.2657558  -0.64085307    0.1261781    11721.555     1000 
  370000   0.83119756   -1.9424098    1.2455495  -0.69686031   0.13242243    11659.772     1000 
  372000   0.86242923   -1.9169031    1.2923502  -0.62455284   0.11902546    11669.727     1000 
  374000   0.84312341   -1.9004704    1.2634204  -0.63705001   0.11718254    11816.066     1000 
  376000   0.81369194   -1.8963995    1.2193174  -0.67708214   0.12819292    11640.588     1000 
  378000   0.82967583   -1.9720527    1.2432692  -0.72878344   0.13131743    11506.663     1000 
  380000   0.86166204   -1.9441085    1.2912006  -0.65290793   0.11980351    11762.157     1000 
  382000   0.85327884   -1.9223399    1.2786383  -0.64370152    0.1232935    11799.232     1000 
  384000   0.87032339   -1.9492696    1.3041796  -0.64509002   0.11895541    11825.841     1000 
  386000   0.83427551    -1.945097    1.2501619  -0.69493518   0.12592709    11686.139     1000 
  388000   0.86206728   -1.9316986    1.2918078  -0.63989075    0.1312714    11685.514     1000 
  390000   0.86088182   -1.9456596    1.2900314  -0.65562816   0.12967511    11738.909     1000 
  392000   0.82106412   -1.8835395    1.2303646  -0.65317487   0.12415295     11622.32     1000 
  394000   0.79835974   -1.8679822    1.1963421  -0.67164016    0.1359398     11389.94     1000 
  396000   0.85966072   -1.9159936    1.2882016  -0.62779203    0.1341058      11724.4     1000 
  398000    0.8849913     -1.88194    1.3261595  -0.55578057   0.14135001    11674.957     1000 
  400000   0.83436355   -1.8826042    1.2502938  -0.63231046   0.12488553    11490.707     1000 
  402000   0.85385847   -1.9433434    1.2795069  -0.66383643   0.12841389    11586.712     1000 
  404000   0.84631251   -1.8594253    1.2681993  -0.59122602   0.10974118    11861.558     1000 
  406000   0.86133219   -1.9085891    1.2907063  -0.61788286    0.1266629    11727.006     1000 
  408000   0.83980105   -1.9485137    1.2584419  -0.69007179   0.12934013    11569.413     1000 
  410000    0.8616317   -1.9262542    1.2911551  -0.63509906   0.13201061    11685.689     1000 
  412000   0.87215763   -1.9185835    1.3069282  -0.61165527   0.12552194    11720.566     1000 
  414000   0.83916881   -1.9460711    1.2574945  -0.68857664      0.14036    11588.728     1000 
  416000   0.86020183   -1.9789488    1.2890124  -0.68993633   0.12286383    12070.243     1000 
  418000   0.80740991   -1.9050627    1.2099037    -0.695159   0.13851021    11570.384     1000 
  420000   0.85718353   -1.9435934    1.2844895  -0.65910387   0.14119092    11487.247     1000 
  422000   0.84468816   -1.9400127    1.2657652  -0.67424746   0.13435262    11601.101     1000 
  424000   0.81599155   -1.8675153    1.2227633  -0.64475199   0.11756381    11737.421     1000 
  426000   0.85036338   -1.9410835    1.2742695    -0.666814   0.12736329    11708.203     1000 
  428000   0.84667076   -1.9215032    1.2687361  -0.65276709   0.11914515    11639.146     1000 
  430000   0.89189951   -1.8697831    1.3365114  -0.53327169     0.153498    11540.216     1000 
  432000   0.82910376   -1.9212939     1.242412  -0.67888193   0.12602652    11551.427     1000 
  434000     0.817952   -1.9523199    1.2257011  -0.72661885   0.12954953     11768.88     1000 
  436000   0.85159852   -1.9227023    1.2761204  -0.64658194   0.12582053    11699.721     1000 
  438000   0.84832081   -1.9266246    1.2712087  -0.65541585   0.12684222    11708.795     1000 
  440000   0.83937656   -1.8905298    1.2578058  -0.63272404   0.12594951     11768.41     1000 
  442000    0.8143261   -1.8799916    1.2202677  -0.65972392   0.14452233    11555.596     1000 
  444000   0.86964669     -1.90667    1.3031656  -0.60350448    0.1373926    11783.269     1000 
  446000   0.84640534   -1.9662227    1.2683384  -0.69788431   0.15073781    11448.517     1000 
  448000   0.85369023   -1.9521615    1.2792548  -0.67290667   0.14137415    11537.747     1000 
  450000   0.82929479   -1.9440338    1.2426982  -0.70133555   0.12431581    11524.025     1000 
  452000   0.83107879   -1.8970762    1.2453716  -0.65170464   0.13019509    11582.471     1000 
  454000   0.85030418   -1.9223947    1.2741808  -0.64821385   0.12904664     11564.89     1000 
  456000   0.85414344    -2.000736    1.2799339  -0.72080203   0.12271875     11655.63     1000 
  458000   0.87995233     -1.92903    1.3186086  -0.61042146   0.13933212    11585.628     1000 
  460000   0.82936697   -1.9304353    1.2428064  -0.68762891   0.12505528    11750.592     1000 
  462000   0.84686737   -1.9263156    1.2690307  -0.65728484   0.13902199    11664.923     1000 
  464000   0.84933496    -1.880534    1.2727284  -0.60780555   0.11984494    11569.963     1000 
  466000   0.86215962   -1.8757589    1.2919462  -0.58381273   0.14783065    11602.788     1000 
  468000   0.85087626   -1.9124288    1.2750381  -0.63739069   0.12505655    11616.229     1000 
  470000   0.85620436   -1.8946013    1.2830222  -0.61157901   0.13085588    11578.024     1000 
  472000   0.84257196   -1.8938736    1.2625941  -0.63127957   0.11106586    11890.486     1000 
  474000   0.84442276   -1.9411523    1.2653675  -0.67578476   0.13276473    11575.166     1000 
  476000   0.81962495   -1.9414332     1.228208  -0.71322522   0.13185061    11594.624     1000 
  478000   0.84133376   -1.9566026    1.2607386  -0.69586395   0.13404444    11899.047     1000 
  480000   0.85517429   -1.9336962    1.2814787  -0.65221752   0.11413414    11797.913     1000 
  482000   0.84082945   -1.9764005    1.2599829  -0.71641757   0.12947095    11744.985     1000 
  484000   0.86618908   -1.9204484    1.2979843  -0.62246404   0.12756187     11506.02     1000 
  486000   0.81909182   -1.8751548    1.2274091  -0.64774572    0.1323762    11429.535     1000 
  488000   0.81507569   -1.8739206    1.2213909  -0.65252969   0.15262246    11401.923     1000 
  490000   0.85730598   -1.9483785     1.284673  -0.66370554   0.13633072    11641.942     1000 
  492000   0.86094722   -1.8947916    1.2901294   -0.6046622   0.14691848    11728.208     1000 
  494000   0.86128288   -1.8988258    1.2906324  -0.60819338   0.13042037    11789.824     1000 
  496000   0.85994079   -1.8983201    1.2886213  -0.60969884   0.12771577     11747.14     1000 
  498000   0.87311818   -1.9976842    1.3083676  -0.68931662   0.13553394    11572.784     1000 
  500000   0.86379646   -1.8694309     1.294399   -0.5750319   0.12573007    11762.082     1000 
  502000   0.83451517   -1.8918245     1.250521  -0.64130354   0.11958509    11857.252     1000 
  504000   0.82879896   -1.9469225    1.2419552  -0.70496726   0.12811857    11691.001     1000 
  506000   0.86171217   -1.8850809    1.2912757  -0.59380516   0.12995876    11562.385     1000 
  508000   0.85015301   -1.9090285    1.2739543  -0.63507422   0.13863283     11563.46     1000 
  510000   0.83625415    -1.918508    1.2531268  -0.66538119   0.12583791     11683.33     1000 
  512000    0.8433115   -1.9569103    1.2637023  -0.69320799   0.11733766    11828.936     1000 
  514000   0.83534451    -1.941945    1.2517637  -0.69018129   0.14323267     11472.72     1000 
  516000   0.83481305   -1.9834967    1.2509674  -0.73252929   0.10952465    11978.996     1000 
  518000   0.89900764   -1.9498091    1.3471629  -0.60264613   0.12027183    11835.386     1000 
  520000   0.87507309   -1.9407552     1.311297   -0.6294582   0.12116795    11783.954     1000 
  522000   0.82834456   -1.9212401    1.2412743  -0.67996578   0.13170837    11739.427     1000 
  524000   0.85705727   -1.9363948    1.2843003  -0.65209452   0.12276568    11749.209     1000 
  526000   0.84048643     -1.93025    1.2594689  -0.67078106    0.1252254    11663.603     1000 
  528000   0.82725357   -1.9573145    1.2396395  -0.71767504   0.13085768    11756.985     1000 
  530000   0.84667346   -1.8744926    1.2687402  -0.60575243   0.13194968    11574.172     1000 
  532000   0.85507051   -1.9343363    1.2813232  -0.65301316   0.12267353    11609.931     1000 
  534000    0.8596615   -1.8826062    1.2882028  -0.59440342     0.150226     11552.49     1000 
  536000   0.85601326   -1.9223873    1.2827359  -0.63965147   0.11110498    11968.574     1000 
  538000   0.85287595   -1.9256057    1.2780346  -0.64757113   0.12040045    11759.399     1000 
  540000   0.87818314   -1.8874679    1.3159574  -0.57151049   0.12954748    11523.674     1000 
  542000   0.84632529   -1.9684826    1.2682184  -0.70026418   0.13353797    11402.191     1000 
  544000   0.84610138   -1.9360286    1.2678829  -0.66814567   0.13457392    11501.072     1000 
  546000   0.84698814    -1.894421    1.2692117  -0.62520926   0.13763688    11527.848     1000 
  548000   0.84493128   -1.9162918    1.2661295  -0.65016227   0.12511477    11751.867     1000 
  550000   0.84208914   -1.9232509    1.2618706  -0.66138034    0.1250396    11655.453     1000 
  552000   0.88091528   -1.8920138    1.3200516  -0.57196229   0.14659438    11598.987     1000 
  554000   0.81971514   -1.9149701    1.2283431  -0.68662694    0.1217125    11692.966     1000 
  556000   0.82333891   -1.9784044    1.2337733  -0.74463109   0.12740089    11672.253     1000 
  558000   0.83797024   -1.9822468    1.2556984  -0.72654837    0.1264894    11606.271     1000 
  560000   0.85790761   -1.8916621    1.2855746  -0.60608755    0.1471423    11499.991     1000 
  562000   0.86302699   -1.9132852    1.2932459  -0.62003925   0.12963597    11751.539     1000 
  564000   0.85845556   -1.9069853    1.2863957  -0.62058964   0.13485913     11613.23     1000 
  566000   0.86556845   -1.8703739    1.2970543  -0.57331962   0.14514873    11673.686     1000 
  568000    0.8815968   -1.9270238    1.3210728  -0.60595101   0.13969574    11622.524     1000 
  570000   0.82550395   -1.9215075    1.2370177   -0.6844898   0.12795502    11817.568     1000 
  572000   0.87118458   -1.9153681    1.3054701  -0.60989797   0.13623143    11606.384     1000 
  574000   0.87921476   -1.9122756    1.3175033  -0.59477233   0.13885385    11656.952     1000 
  576000   0.81727347   -1.9706749    1.2246843  -0.74599059   0.11838515     11762.59     1000 
  578000   0.79733969   -1.9524531    1.1948135  -0.75763956   0.13440578    11669.313     1000 
  580000   0.82917807   -1.9243598    1.2425233  -0.68183642    0.1091658    11669.252     1000 
  582000   0.85031756   -1.9091363    1.2742009  -0.63493544   0.12273859    11630.019     1000 
  584000   0.83363781   -1.8936347    1.2492063  -0.64442846   0.12589001     11613.95     1000 
  586000   0.84215663   -1.9096471    1.2619717  -0.64767534   0.11332029    11689.237     1000 
  588000   0.87117688   -1.9500421    1.3054586  -0.64458354   0.12891476    11865.456     1000 
  590000   0.84832995   -1.9016135    1.2712224  -0.63039107   0.13900668    11618.438     1000 
  592000   0.84576625   -1.8832781    1.2673807  -0.61589732    0.1299577    12056.926     1000 
  594000   0.81961246   -1.9194607    1.2281893  -0.69127145   0.11661719    11701.857     1000 
  596000   0.81701046   -1.9723396    1.2242902  -0.74804942   0.11188914    11667.894     1000 
  598000   0.83662176   -1.8711367    1.2536777  -0.61745901   0.13610919    11442.218     1000 
  600000   0.83620256    -1.949173    1.2530495  -0.69612343   0.13321906    11702.811     1000 
  602000   0.82545942   -1.9297156    1.2369509  -0.69276462   0.10546872    11663.337     1000 
  604000   0.85611587   -1.8973679    1.2828896  -0.61447822   0.13760921    11692.031     1000 
  606000   0.86833135   -1.9183497    1.3011945  -0.61715522   0.12357147    11838.966     1000 
  608000   0.85465161   -1.9746588    1.2806954  -0.69396338   0.11918565    11830.243     1000 
  610000   0.87587168   -1.9396581    1.3124937  -0.62716441   0.13722345    11774.555     1000 
  612000    0.8368183   -1.9019168    1.2539722  -0.64794453   0.13041729    11716.153     1000 
  614000   0.83916407   -1.8698786    1.2574874  -0.61239125   0.13181022    11892.988     1000 
  616000   0.82493683   -1.9562642    1.2361678  -0.72009637   0.13204697    11827.112     1000 
  618000    0.8269404   -1.9724335    1.2391702  -0.73326326   0.13647503    11518.235     1000 
  620000   0.84833341    -1.932739    1.2712276   -0.6615114   0.14327615    11632.481     1000 
  622000   0.87121274   -1.9734537    1.3055123  -0.66794136   0.14646232    11627.322     1000 
  624000   0.85120847   -1.8943287    1.2755359  -0.61879279   0.12234797    11998.254     1000 
  626000   0.88915771   -1.8864356    1.3324028  -0.55403277   0.12431882     11566.29     1000 
  628000   0.84899452   -1.9497047    1.2722183  -0.67748642   0.10941743    11782.812     1000 
  630000   0.84256354   -1.8972091    1.2625815  -0.63462763   0.14091813    11419.137     1000 
  632000   0.83806237   -1.9434069    1.2558365  -0.68757042   0.12493087    11526.678     1000 
  634000   0.87989991   -1.9633536      1.31853  -0.64482356    0.1130838    11919.842     1000 
  636000   0.87325648   -1.9338083    1.3085748  -0.62523349   0.14504247    11675.952     1000 
  638000   0.84543732   -1.9479662    1.2668878  -0.68107839    0.1314879    11712.401     1000 
  640000   0.87266453   -1.9221825    1.3076878  -0.61449466   0.12254998    12016.255     1000 
  642000   0.87318365   -1.9181603    1.3084657  -0.60969465   0.13156977    11720.598     1000 
  644000   0.84976745   -1.9260205    1.2733765  -0.65264396   0.11465782    11728.421     1000 
  646000   0.83508633   -1.9238369    1.2513769  -0.67246003   0.13602427    11518.976     1000 
  648000   0.80952307   -1.9543616    1.2130703  -0.74129127   0.12333255    11800.657     1000 
  650000   0.90078427   -1.9467029    1.3498252   -0.5968777   0.13433727     11509.05     1000 
  652000   0.88792679   -1.9336301    1.3305583  -0.60307178   0.14346135    11510.122     1000 
  654000   0.85307457   -1.9432512    1.2783322  -0.66491892    0.1220128    11690.567     1000 
  656000   0.84198367   -1.9198613    1.2617125  -0.65814875   0.14721501    11221.534     1000 
  658000   0.84658745    -1.957228    1.2686113  -0.68861672   0.11809579    11618.833     1000 
  660000    0.8513183    -1.881888    1.2757005  -0.60618755   0.13808998    11581.674     1000 
  662000    0.8514196   -1.9238263    1.2758523  -0.64797408   0.13410379    11476.506     1000 
  664000   0.81708786   -1.9215974    1.2244062  -0.69719122   0.11784425    11864.635     1000 
  666000   0.83138835   -1.8902007    1.2458354  -0.64436528   0.12306338    11737.226     1000 
  668000   0.83904978   -1.8637536    1.2573161  -0.60643752   0.14491708    11688.426     1000 
  670000   0.84990064   -1.9422194    1.2735761  -0.66864328   0.11351816    11674.147     1000 
  672000   0.87715584   -1.9088509     1.314418  -0.59443283   0.12515971    11631.181     1000 
  674000   0.84484028   -1.9250121    1.2659932  -0.65901891   0.13984795    11615.883     1000 
  676000   0.86060019   -1.8653537    1.2896094  -0.57574433    0.1330152    11445.342     1000 
  678000   0.82004276   -1.9103375    1.2288341  -0.68150339   0.13597344    11436.972     1000 
  680000   0.85136957   -1.9167192    1.2757773  -0.64094188   0.13910119     11790.28     1000 
  682000   0.85032921   -1.9637907    1.2742183  -0.68957236   0.11529311    11760.555     1000 
  684000   0.81572137    -1.942575    1.2223585  -0.72021657   0.12978542    11889.707     1000 
  686000     0.878384   -1.9273343    1.3162584  -0.61107586   0.13887916    11657.186     1000 
  688000   0.85175475   -1.9695473    1.2763545  -0.69319284   0.12392051    11742.217     1000 
  690000   0.84789846   -1.8764074    1.2705758  -0.60583151   0.14552876    11532.554     1000 
  692000   0.87121918   -1.9120181    1.3055219  -0.60649611   0.11867162    11877.705     1000 
  694000   0.84664408   -1.8822828    1.2686962  -0.61358661   0.12972107    11734.944     1000 
  696000    0.8506076   -1.9282526    1.2746355  -0.65361708   0.14601185    11608.628     1000 
  698000   0.85356198   -1.9585234    1.2790626  -0.67946081   0.12550061    11750.591     1000 
  700000    0.8461039   -1.9363153    1.2678867  -0.66842857   0.14202581    11569.853     1000 
  702000   0.87123712   -1.9039436    1.3055488  -0.59839476   0.14126759    11754.766     1000 
  704000   0.90345321   -1.9201453    1.3538246  -0.56632066   0.12304232    11772.878     1000 
  706000   0.86087283   -1.9142921    1.2900179  -0.62427413   0.11953003    11677.448     1000 
  708000   0.85371888   -1.9045823    1.2792977  -0.62528455   0.12934677    11942.348     1000 
  710000   0.83514391   -1.9387126    1.2514631  -0.68724947   0.11475643    11629.049     1000 
  712000   0.82542499   -1.9204183    1.2368994  -0.68351891   0.15194415    11667.215     1000 
  714000   0.86982713   -1.9171426     1.303436  -0.61370662   0.14288558    11819.359     1000 
  716000   0.78704023   -1.9289489    1.1793798  -0.74956909   0.13302781    11693.186     1000 
  718000   0.89284305    -1.948817    1.3379253  -0.61089166   0.12961883    11531.622     1000 
  720000   0.85615174   -1.9441677    1.2829434  -0.66122429   0.12041499    11744.875     1000 
  722000   0.81998543   -1.9445662    1.2287482    -0.715818   0.14508889    11418.873     1000 
  724000   0.86846923   -1.9549282    1.3014011  -0.65352708   0.14004929    11751.534     1000 
  726000   0.85689773   -1.9249376    1.2840613  -0.64087635   0.13240938    11525.009     1000 
  728000   0.83434709   -1.9046945    1.2502691  -0.65442538   0.11971851    11759.409     1000 
  730000   0.86687696   -1.8824284    1.2990151  -0.58341324   0.13047089    11775.523     1000 
  732000   0.83593509   -1.8984186    1.2526487  -0.64576985   0.12160403    11778.929     1000 
  734000   0.84185768   -1.9725255    1.2615237   -0.7110018   0.11373774    12013.731     1000 
  736000   0.81568574   -1.9236661    1.2223051  -0.70136106   0.13450693    11724.126     1000 
  738000   0.84448809   -1.9128501    1.2654654  -0.64738473   0.11154773    11641.034     1000 
  740000   0.85897706   -1.9375662    1.2871771  -0.65038912   0.13092071    11747.463     1000 
  742000   0.84776086   -1.9008492    1.2703696  -0.63047957   0.13887984    11779.492     1000 
  744000    0.8633158   -1.8992908    1.2936787  -0.60561211   0.13749835    11527.579     1000 
  746000   0.85902873   -1.9926746    1.2872546  -0.70542008   0.10776321    11992.506     1000 
  748000   0.88481665   -1.8915699    1.3258977  -0.56567215   0.12161791    11656.323     1000 
  750000   0.86704101   -1.9452658    1.2992609   -0.6460049     0.146301    11503.573     1000 
  752000    0.8467443   -1.9785741    1.2688463   -0.7097278   0.13460088    11817.243     1000 
  754000    0.8409216   -1.9332361     1.260121  -0.67311504    0.1321945    11490.278     1000 
  756000   0.85607744   -1.9026979     1.282832  -0.61986587   0.11816704    11861.809     1000 
  758000   0.84323877   -1.9458428    1.2635933  -0.68224947   0.12177528    11640.326     1000 
  760000    0.8465765   -1.8953171    1.2685949  -0.62672218    0.1236831    11832.459     1000 
  762000   0.88299069   -1.9048758    1.3231615  -0.58171424   0.12846693    11609.182     1000 
  764000   0.84736146   -1.9087527    1.2697711  -0.63898158   0.10593618     11983.18     1000 
  766000   0.89171418   -1.9489321    1.3362337   -0.6126984   0.14115264    11553.743     1000 
  768000   0.86092424   -1.9435719     1.290095   -0.6534769   0.13134034    11581.394     1000 
  770000   0.84171428    -1.889986    1.2613088  -0.62867718   0.12896508    11719.977     1000 
  772000   0.86853406   -1.9422153    1.3014983  -0.64071704   0.13258388    11816.672     1000 
  774000   0.87271316    -1.977109    1.3077607  -0.66934835   0.14199533    11739.625     1000 
  776000   0.92086214   -1.9307979    1.3799119  -0.55088596   0.13811242    11825.166     1000 
  778000   0.86258606   -1.9425168    1.2925852  -0.64993163   0.12222754    11815.948     1000 
  780000   0.85776999   -1.8848788    1.2853683  -0.59951045   0.13439184     11534.24     1000 
  782000   0.85997564   -1.9186669    1.2886735  -0.62999338   0.13657742    11538.505     1000 
  784000   0.85724218    -1.917383    1.2845774  -0.63280562    0.1205174    11740.085     1000 
  786000   0.85945422   -1.9532368    1.2878921  -0.66534469   0.12970559    11887.826     1000 
  788000   0.83816188   -1.9370826    1.2559856  -0.68109705   0.13194934    11560.885     1000 
  790000   0.87962797   -1.9010413    1.3181225  -0.58291881   0.12069051     11709.01     1000 
  792000   0.84901437   -1.8595148     1.272248  -0.58726676   0.12122492    11650.705     1000 
  794000   0.87373312    -1.924902    1.3092891  -0.61561297   0.13600309    11602.111     1000 
  796000   0.82831663   -1.8830695    1.2412325    -0.641837   0.11637908    11824.196     1000 
  798000   0.82755488   -1.9617694     1.240091  -0.72167838   0.12044967    11639.624     1000 
  800000   0.85066974   -1.9398604    1.2747286  -0.66513176   0.13771708    11827.501     1000 
  802000   0.84406145   -1.9722558    1.2648261  -0.70742971   0.12819662    11699.478     1000 
  804000   0.86074679   -1.9432694    1.2898291  -0.65344031   0.13096888    11602.758     1000 
  806000   0.82195522   -1.9209673    1.2316999  -0.68926736   0.12611003    11750.273     1000 
  808000   0.84956958   -1.9011976      1.27308  -0.62811755   0.13487019     11706.42     1000 
  810000   0.86134322   -1.9377402    1.2907228  -0.64701741   0.14526643    11644.253     1000 
  812000   0.83935086   -1.9019059    1.2577673   -0.6441386   0.13557999    11379.305     1000 
  814000    0.8747096   -1.9318666    1.3107523  -0.62111429   0.12826121    11621.287     1000 
  816000   0.85379495   -1.8879335    1.2794117  -0.60852173   0.14468068    11589.817     1000 
  818000   0.85427568   -1.9596428    1.2801321  -0.67951069   0.12372923    11866.597     1000 
  820000   0.88801271   -1.9063947     1.330687  -0.57570763   0.13277007     11765.56     1000 
  822000   0.84501445   -1.9245023    1.2662542  -0.65824812    0.1356567    11791.732     1000 
  824000   0.88842655   -1.9513486    1.3313072  -0.62004141   0.13005504    11815.829     1000 
  826000   0.83876129   -1.9127402    1.2568838  -0.65585644   0.14140703    11397.186     1000 
  828000   0.86137713   -1.9609847    1.2907736  -0.67021106   0.12503817    11694.501     1000 
  830000   0.87850335   -1.9097899    1.3164373  -0.59335268   0.13882518      11778.4     1000 
  832000   0.84993426   -1.8910894    1.2736265  -0.61746294   0.11698299    11753.142     1000 
  834000   0.83707477   -1.8931525    1.2543565    -0.638796   0.12960711    11589.865     1000 
  836000   0.81900107   -1.9836951    1.2272731  -0.75642201   0.13859941    11651.391     1000 
  838000   0.85441891   -1.8925951    1.2803467  -0.61224837   0.12641147     11809.51     1000 
  840000   0.85144522   -1.9480203    1.2758907  -0.67212967   0.11891652    11591.557     1000 
  842000   0.86130559   -1.9290889    1.2906664  -0.63842251   0.11783001    11893.436     1000 
  844000   0.87842254   -1.8777467    1.3163162  -0.56143057    0.1332997    11609.052     1000 
  846000   0.84843164   -1.9585222    1.2713748   -0.6871474   0.12297494     11701.78     1000 
  848000   0.80426868   -1.8864404    1.2051966  -0.68124377   0.12806468    11552.467     1000 
  850000   0.86656084   -1.9414728    1.2985414  -0.64293139   0.13432098    11885.977     1000 
  852000   0.82276946   -1.8682075      1.23292  -0.63528745   0.12529567    11942.928     1000 
  854000   0.88384245   -1.8999341    1.3244379  -0.57549624   0.13670567    11640.474     1000 
  856000   0.86100271   -1.9643638    1.2902126  -0.67415126   0.13679437    11460.466     1000 
  858000   0.81399114   -1.9198292    1.2197657  -0.70006343   0.11465713    11878.539     1000 
  860000   0.87825022   -1.9922932     1.316058  -0.67623527   0.14214818    11594.206     1000 
  862000   0.80643171    -1.885311    1.2084379  -0.67687305   0.12724181    11705.573     1000 
  864000   0.83719203   -1.9212767    1.2545323  -0.66674444   0.11349222    11952.288     1000 
  866000    0.8606291   -1.9659629    1.2896527  -0.67631017   0.11695125    11857.774     1000 
  868000   0.81231475   -1.8750376    1.2172537  -0.65778392   0.15053958    11361.404     1000 
  870000   0.84731585   -1.9405312    1.2697028  -0.67082845   0.13298411    11576.253     1000 
  872000   0.87462112   -1.9445315    1.3106198  -0.63391178   0.13974474    11796.348     1000 
  874000   0.86213574    -1.898775    1.2919104  -0.60686459   0.14358265    11625.115     1000 
  876000   0.85025493   -1.9277127     1.274107  -0.65360569   0.12950765    11597.392     1000 
  878000   0.85913338   -1.8642621    1.2874114  -0.57685069   0.13749412    11711.173     1000 
  880000   0.86409663   -1.8802042    1.2948488  -0.58535543   0.13200453    11606.501     1000 
  882000   0.88676832   -1.8595939    1.3288223  -0.53077153   0.13355126    11722.757     1000 
  884000   0.85834191    -1.894714    1.2862254   -0.6084886   0.13804937    11534.925     1000 
  886000   0.89604042   -1.8911436    1.3427166  -0.54842702   0.14962368    11395.536     1000 
  888000   0.85151835   -1.9192686    1.2760002  -0.64326836   0.12161156    11729.739     1000 
  890000   0.82248976   -1.9459182    1.2325009  -0.71341735   0.13424457    11554.163     1000 
  892000   0.86570236    -1.931391     1.297255  -0.63413601   0.14049082     11635.69     1000 
  894000   0.84438975   -1.8959479     1.265318  -0.63062985   0.12287526    11780.143     1000 
  896000   0.87551701   -1.8981969    1.3119622   -0.5862347   0.13376729    11754.924     1000 
  898000   0.82139967   -2.0044852    1.2308674  -0.77361782   0.12808999    11873.965     1000 
  900000   0.87750899   -1.9211968    1.3149472  -0.60624956    0.1255965    11918.814     1000 
  902000   0.84705923   -1.8648492    1.2693183  -0.59553094   0.11706657     11799.85     1000 
  904000     0.838351   -1.9115529     1.256269  -0.65528396   0.13135283    11432.436     1000 
  906000   0.80751426   -1.8711652    1.2100601  -0.66110512   0.14167956    11440.298     1000 
  908000    0.8432834   -1.9163606    1.2636602  -0.65270046   0.12734898    11459.875     1000 
  910000   0.84628472   -1.9122223    1.2681577  -0.64406466   0.13518585    11649.941     1000 
  912000   0.89943415     -1.89002    1.3478021  -0.54221796   0.14810634    11469.209     1000 
  914000   0.85143337   -1.9112407    1.2758729  -0.63536784   0.12725385    11680.782     1000 
  916000    0.8443249   -1.9546529    1.2652209  -0.68943205   0.12382958    11747.957     1000 
  918000   0.85273209    -1.872043     1.277819  -0.59422395   0.11622928    11819.626     1000 
  920000   0.81896069   -1.8625749    1.2272126  -0.63536232   0.14078347    11593.013     1000 
  922000   0.81678655   -1.9531887    1.2239546  -0.72923409   0.13701152    11505.958     1000 
  924000   0.82378102   -1.9674691    1.2344359  -0.73303322   0.11487024    11788.692     1000 
  926000   0.87969269   -1.9299411    1.3182195  -0.61172165   0.13965837    11719.019     1000 
  928000   0.86981169   -1.9416097    1.3034128  -0.63819686   0.12609481    11872.855     1000 
  930000   0.88284105   -1.9271231    1.3229373  -0.60418576    0.1327898    11550.599     1000 
  932000   0.89113395   -1.9135111    1.3353642  -0.57814683   0.13116463    11780.955     1000 
  934000   0.84622015   -1.9353259    1.2680609  -0.66726501   0.14777106    11421.627     1000 
  936000   0.85441648   -1.9044474    1.2803431   -0.6241043    0.1307728    11468.496     1000 
  938000   0.89848925   -1.9493028    1.3463861  -0.60291666   0.12586484    11761.458     1000 
  940000   0.83039282   -1.9968384    1.2443436  -0.75249476    0.1208641    11906.336     1000 
  942000   0.86787899   -1.9093366    1.3005167  -0.60881995    0.1560081    11721.259     1000 
  944000   0.87376128   -1.9531473    1.3093313  -0.64381601   0.14112185    11601.603     1000 
  946000   0.82989407   -1.9573462    1.2435963  -0.71374998   0.11455938    11942.154     1000 
  948000   0.84585456   -1.9643988    1.2675131  -0.69688579   0.14461116     11598.14     1000 
  950000   0.82352027    -1.945892    1.2340451  -0.71184687   0.12294116    11949.718     1000 
  952000    0.8192029   -1.9203224    1.2275755  -0.69274686   0.13693663    11481.269     1000 
  954000   0.81614126   -1.9716206    1.2229877  -0.74863294     0.134829    11740.944     1000 
  956000   0.85656376   -1.9927892    1.2835608  -0.70922842   0.13611868    11852.237     1000 
  958000   0.86067446   -1.9429219    1.2897207  -0.65320121   0.13662774    11899.909     1000 
  960000   0.87796248    -1.933173    1.3156268  -0.61754627   0.12702345    11884.804     1000 
  962000   0.84005444   -1.8454196    1.2588216  -0.58659801   0.15441691    11399.001     1000 
  964000   0.88066281   -1.9126914    1.3196732  -0.59301813   0.12344963    11727.276     1000 
  966000   0.84313037   -1.9158939    1.2634309  -0.65246304   0.12386684    11713.338     1000 
  968000   0.81441922   -1.9394787    1.2204072  -0.71907145   0.12723224    11889.079     1000 
  970000   0.85822767   -1.9624341    1.2860542  -0.67637993   0.13323236    11554.026     1000 
  972000   0.82769637   -1.8938351     1.240303  -0.65353213   0.12785034    11610.534     1000 
  974000    0.8662111   -1.8789765    1.2980173  -0.58095921    0.1309709    11446.067     1000 
  976000   0.89150259   -1.8718971    1.3359166  -0.53598043   0.15750821    11577.732     1000 
  978000   0.84577675   -1.9356759    1.2673965  -0.66827944   0.12406194    11736.973     1000 
  980000   0.85685503   -1.9181078    1.2839973  -0.63411051   0.13178492    11792.182     1000 
  982000    0.8454006   -1.9083599    1.2668328  -0.64152713    0.1203686     11997.33     1000 
  984000   0.85186474   -1.9649895    1.2765193  -0.68847018    0.1360038    11562.117     1000 
  986000   0.83705752   -1.9616917    1.2543307  -0.70736102   0.12487722    11727.791     1000 
  988000   0.86030021   -1.9067906    1.2891599  -0.61763075   0.11637573    11690.341     1000 
  990000   0.83837741   -1.8972091    1.2563085   -0.6409006   0.12214662     11696.86     1000 
  992000   0.89388562   -1.9146587    1.3394876  -0.57517107   0.14911919    11673.776     1000 
  994000   0.86213366   -1.9252628    1.2919073  -0.63335547   0.13076593    11743.494     1000 
  996000   0.84896868   -1.9358955    1.2721796   -0.6637159    0.1330095    11641.094     1000 
  998000   0.85426921   -2.0068919    1.2801224  -0.72676949   0.12208457    11739.623     1000 
 1000000    0.8547906   -1.8967659    1.2809037  -0.61586217   0.11974982    11773.764     1000 
 1002000   0.86120873    -1.862499    1.2905213  -0.57197769   0.13742917    11827.508     1000 
 1004000   0.84791326   -1.9112509     1.270598  -0.64065287   0.12287517    11809.292     1000 
 1006000   0.84951402   -1.9346165    1.2729968  -0.66161978    0.1097527    12034.037     1000 
 1008000   0.82501888     -1.96043    1.2362908  -0.72413917   0.11397993    11686.471     1000 
 1010000   0.83654239   -1.9208227    1.2535588  -0.66726398   0.12781242    11681.961     1000 
 1012000   0.85241948   -1.9349877    1.2773506  -0.65763711   0.11486506    11946.657     1000 
 1014000   0.89485903   -1.9200702    1.3409463  -0.57912394    0.1324234    11563.163     1000 
 1016000   0.84355534   -1.9516445    1.2640677  -0.68757681   0.13387225    11277.602     1000 
 1018000   0.84082211   -1.9441326    1.2599719  -0.68416069   0.13256491    11470.127     1000 
 1020000   0.83268593   -1.9718506    1.2477799  -0.72407073   0.12338523    11694.652     1000 
 1022000    0.8746065   -1.9729604    1.3105978   -0.6623626   0.14048795    11439.896     1000 
 1024000   0.82656872   -1.9500963    1.2386132  -0.71148305   0.11649095    11681.808     1000 
 1026000   0.82604437   -1.8767318    1.2378275  -0.63890429   0.12191141    11784.888     1000 
 1028000   0.83604348   -1.9273307    1.2528112  -0.67451956    0.1262746    11774.649     1000 
 1030000   0.87443776   -1.9206465     1.310345  -0.61030151    0.1212923     11480.58     1000 
 1032000   0.84583703   -1.9297247    1.2674868  -0.66223788   0.14867924    11281.595     1000 
 1034000   0.84916619   -1.8797175    1.2724755  -0.60724199   0.15227729    11348.037     1000 
 1036000   0.86079945   -1.9195762     1.289908  -0.62966825   0.12947693    11894.798     1000 
 1038000   0.83460094    -1.932546    1.2506495  -0.68189649   0.13836379    11610.175     1000 
 1040000   0.83382993     -1.87738    1.2494941  -0.62788585   0.13212511    11618.801     1000 
 1042000   0.86255702   -1.9144487    1.2925417    -0.621907   0.12436163    11787.048     1000 
 1044000   0.85742653   -1.9982049    1.2848537  -0.71335127   0.12729957    11713.957     1000 
 1046000   0.86307224    -1.928436    1.2933138  -0.63512221   0.14027101    11628.061     1000 
 1048000   0.82374441   -1.8628524     1.234381  -0.62847142   0.14210166    11564.805     1000 
 1050000   0.81482956   -1.9235666    1.2210221  -0.70254451   0.12081796     11658.53     1000 
 1052000   0.81217307   -1.9667386    1.2170413  -0.74969721   0.13669711    11643.699     1000 
 1054000   0.85436383   -1.8929983    1.2802642  -0.61273413    0.1336762    11556.546     1000 
 1056000   0.86463926   -1.9242549    1.2956619  -0.62859297   0.13217286    11528.448     1000 
 1058000   0.86952018    -1.937532     1.302976  -0.63455602   0.13350709    11679.176     1000 
 1060000   0.85986431   -1.9217853    1.2885067  -0.63327861   0.12579753    11618.463     1000 
 1062000   0.81298029   -1.9599198     1.218251  -0.74166886   0.13347662    11772.586     1000 
 1064000   0.88448376   -1.9013366    1.3253989  -0.57593769   0.13916055    11567.059     1000 
 1066000    0.8364372   -1.9259196    1.2534011  -0.67251845   0.13778026    11921.289     1000 
 1068000   0.83340363   -1.8833608    1.2488553   -0.6345055   0.14112049    11696.259     1000 
 1070000    0.8737528   -1.9354169    1.3093186  -0.62609838   0.12333624    11615.121     1000 
 1072000   0.80601256     -1.94007    1.2078098  -0.73226019   0.10462011    11874.422     1000 
 1074000   0.87055686   -1.8855323    1.3045295   -0.5810028    0.1261915     11739.53     1000 
 1076000   0.85297183   -1.9004817    1.2781783  -0.62230344   0.13406957    11823.485     1000 
 1078000   0.86931693   -1.9172586    1.3026714  -0.61458723   0.13084527    11687.103     1000 
 1080000   0.86423191   -1.8744047    1.2950515  -0.57935321   0.15205826    11603.835     1000 
 1082000   0.85725808   -1.8942224    1.2846012  -0.60962115   0.12960416    11758.133     1000 
 1084000   0.83922494   -1.9427866    1.2575786  -0.68520802   0.12529466     11729.95     1000 
 1086000   0.82682325   -1.9320162    1.2389946  -0.69302158   0.12411998    11888.505     1000 
 1088000   0.85588091   -1.8922392    1.2825376  -0.60970167   0.14271044    11577.918     1000 
 1090000   0.85077901   -1.9087159    1.2748924  -0.63382355   0.13900414    11688.657     1000 
 1092000   0.85653588   -1.9701063     1.283519  -0.68658725   0.12318098    11857.414     1000 
 1094000   0.83048089   -1.8777175    1.2444756  -0.63324184   0.13119047    11593.678     1000 
 1096000   0.86394317   -1.9215389    1.2946188  -0.62692002   0.11325207     11946.26     1000 
 1098000   0.84075988   -1.9018854    1.2598787  -0.64200671   0.13358746    11802.804     1000 
 1100000    0.8820549   -1.9328926    1.3217593  -0.61113337   0.14105429    11680.208     1000 
 1102000   0.84628272    -1.915656    1.2681547  -0.64750135   0.11784896    11699.472     1000 
 1104000   0.83394258   -1.9187856     1.249663  -0.66912259   0.13409048    11445.296     1000 
 1106000   0.87534806   -1.8958653    1.3117091  -0.58415621   0.14013264    11593.322     1000 
 1108000   0.85315453    -1.883482    1.2784521   -0.6050299   0.13092863    11857.386     1000 
 1110000   0.86835361   -1.9385185    1.3012279   -0.6372906    0.1189512    11681.191     1000 
 1112000   0.86634398   -1.9329017    1.2982165  -0.63468522   0.13265019    11685.358     1000 
 1114000   0.84430028   -1.9696904     1.265184   -0.7045064   0.11731908     11741.67     1000 
 1116000   0.84598405   -1.9330585    1.2677071  -0.66535136   0.14317512    11658.374     1000 
 1118000   0.84161779   -1.9409057    1.2611643  -0.67974142   0.13362833    11426.703     1000 
 1120000   0.86252344   -1.8939619    1.2924914  -0.60147051   0.12393779    11767.244     1000 
 1122000   0.84681495   -1.9012544    1.2689522  -0.63230218   0.13596555    11733.997     1000 
 1124000   0.86079007   -1.9558729    1.2898939  -0.66597902    0.1327043    11729.412     1000 
 1126000   0.81865564   -1.9131511    1.2267555  -0.68639565   0.11130334     11732.25     1000 
 1128000   0.80210545   -1.9161731     1.201955   -0.7142181   0.13995997    11609.034     1000 
 1130000   0.83908429   -1.9519352    1.2573678  -0.69456736   0.11073771     11902.94     1000 
 1132000   0.86508096   -1.9169266    1.2963238  -0.62060278   0.14234267    11480.865     1000 
 1134000   0.79841414   -1.9094351    1.1964236  -0.71301156   0.11772936    11697.782     1000 
 1136000   0.89443176   -1.8799732     1.340306  -0.53966725   0.15023131    11812.147     1000 
 1138000   0.82172326   -1.9909624    1.2313523  -0.75961012   0.14736695    11536.095     1000 
 1140000   0.82994544   -1.8841945    1.2436732  -0.64052123   0.12718756    11814.928     1000 
 1142000   0.81852798   -1.9221195    1.2265642  -0.69555531   0.14163739    11626.507     1000 
 1144000   0.85122413   -1.9094705    1.2755594  -0.63391113   0.13160426    11789.673     1000 
 1146000   0.84622668   -1.9344869    1.2680707  -0.66641618    0.1222751    11550.284     1000 
 1148000   0.85949749   -1.9261607     1.287957  -0.63820369   0.13195727    11709.211     1000 
 1150000   0.85196255   -1.9075125    1.2766659  -0.63084666   0.14896274    11469.146     1000 
 1152000   0.84904758   -1.8919152    1.2722978   -0.6196174   0.12046734    11629.975     1000 
 1154000   0.84983771   -1.8884893    1.2734818  -0.61500749   0.13880312    11785.199     1000 
 1156000   0.86943613   -1.9152334      1.30285  -0.61238336   0.14334654    11619.986     1000 
 1158000   0.85143466   -1.9109611    1.2758748  -0.63508629   0.13719062    11580.469     1000 
 1160000    0.8604409   -1.9580484    1.2893707  -0.66867766   0.13446378    11833.528     1000 
 1162000   0.85584521   -1.9476349     1.282484  -0.66515081   0.10648888    12022.034     1000 
 1164000    0.8868043    -1.930969    1.3288762  -0.60209273    0.1327455     11806.23     1000 
 1166000   0.85676037   -1.9404508    1.2838554  -0.65659541   0.14596477    11601.391     1000 
 1168000   0.85693372   -1.9031684    1.2841152  -0.61905325   0.13813982    11388.374     1000 
 1170000   0.87046525   -1.9050123    1.3043922  -0.60062013   0.10998506    11857.901     1000 
 1172000   0.82736139    -1.831069     1.239801  -0.59126792   0.12956506     11426.03     1000 
 1174000   0.84179045   -1.9395066     1.261423  -0.67808358    0.1331825    11432.412     1000 
 1176000   0.84221303   -1.8993758    1.2620562   -0.6373196   0.12046368    12116.081     1000 
 1178000   0.82079706   -1.9227152    1.2299644  -0.69275083   0.13706566    11655.949     1000 
 1180000   0.82961188   -1.9536669    1.2431734  -0.71049349   0.13268284    11709.721     1000 
 1182000   0.83104664   -1.9062418    1.2453234  -0.66091843   0.11439411    12078.027     1000 
 1184000   0.83333644   -1.8877242    1.2487547  -0.63896955   0.13878868    11626.783     1000 
 1186000   0.85929727   -1.9227634     1.287657  -0.63510646   0.12149122    11910.675     1000 
 1188000   0.86035922   -1.9510041    1.2892483  -0.66175585   0.14596239    11572.781     1000 
 1190000   0.84717985   -1.8721936     1.269499  -0.60269464   0.13086883     11826.26     1000 
 1192000   0.87149038   -1.8716941    1.3059283   -0.5657658   0.13015198    11704.975     1000 
 1194000   0.83731814   -1.9297815    1.2547212   -0.6750603   0.10117694    11996.889     1000 
 1196000   0.83747755   -1.9422531    1.2549601  -0.68729297   0.13110259    11747.022     1000 
 1198000   0.82545904   -1.9771525    1.2369504  -0.74020211    0.1064844    11813.466     1000 
 1200000   0.86218862   -1.8597906    1.2919896  -0.56780095   0.13937385     11232.74     1000 
 1202000   0.88486258   -1.8912044    1.3259666  -0.56523782   0.13779968    11273.797     1000 
 1204000   0.89890745   -1.9665133    1.3470128  -0.61950049   0.13765565    11728.859     1000 
 1206000   0.85401331    -1.941858    1.2797389  -0.66211911   0.12929203    11561.506     1000 
 1208000   0.87282767   -2.0139681    1.3079323  -0.70603586   0.14240613    11490.484     1000 
 1210000   0.85310405   -1.9318618    1.2783764  -0.65348535   0.13626853     11589.13     1000 
 1212000   0.81546104    -1.864695    1.2219684  -0.64272663    0.1256111    11666.216     1000 
 1214000   0.86725529   -1.9197854    1.2995821  -0.62020335   0.11475274    11996.318     1000 
 1216000   0.82463505   -1.9149029    1.2357156  -0.67918732   0.13025022    11655.519     1000 
 1218000   0.87145747   -1.9369529     1.305879  -0.63107385   0.13279373    11594.688     1000 
 1220000    0.8121211   -1.9746179    1.2169635   -0.7576544   0.11135216     11746.64     1000 
 1222000   0.87767999   -1.9478609    1.3152035  -0.63265742   0.13162217    11695.528     1000 
 1224000    0.8036864   -1.9313944    1.2043241  -0.72707028   0.13268403     11688.75     1000 
 1226000   0.80710879    -1.925657    1.2094525   -0.7162045   0.13222711    11615.781     1000 
 1228000   0.84965001   -1.9136175    1.2732005  -0.64041693   0.13545095    11615.274     1000 
 1230000   0.85913695   -1.9515992    1.2874167  -0.66418244   0.14077554    11660.917     1000 
 1232000   0.85158512   -1.9496924    1.2761003  -0.67359205   0.13244317    11569.334     1000 
 1234000   0.83679514   -2.0086868    1.2539375  -0.75474924   0.10617724    11844.868     1000 
 1236000   0.83879611   -1.9091546     1.256936  -0.65221866   0.13092425    11804.015     1000 
 1238000   0.82873866   -1.8870694    1.2418649  -0.64520452   0.11971456    11768.645     1000 
 1240000   0.87707014   -1.9572845    1.3142896  -0.64299493   0.12309728     11901.76     1000 
 1242000   0.81381078   -1.9419318    1.2194954  -0.72243639   0.14728527    11475.866     1000 
 1244000   0.81410351   -1.8824005    1.2199341  -0.66246638   0.12600368    11680.588     1000 
 1246000   0.88287123   -1.8738965    1.3229825  -0.55091394   0.14156342    11427.711     1000 
 1248000   0.84281301   -1.9066407    1.2629553  -0.64368539   0.10961121    11944.219     1000 
 1250000    0.8893604   -1.9468694    1.3327066  -0.61416285   0.12596239    11943.073     1000 
 1252000   0.84996529   -1.9169889     1.273673  -0.64331589    0.1328895    11512.616     1000 
 1254000   0.84735348   -1.9817454    1.2697592  -0.71198624   0.13808549    11517.179     1000 
 1256000   0.81379608   -1.9073218    1.2194734  -0.68784832   0.12226063    11500.061     1000 
 1258000   0.84241785   -2.0070096    1.2623632   -0.7446464   0.13376263    11746.689     1000 
 1260000   0.85479955   -1.9158128    1.2809171  -0.63489566   0.12183025    11725.585     1000 
 1262000   0.85473348   -1.9028491    1.2808181  -0.62203094   0.14142776    11565.504     1000 
 1264000   0.82223142   -1.9058575    1.2321138  -0.67374372   0.12239662    11638.209     1000 
 1266000   0.86257331   -1.9355049    1.2925661   -0.6429388   0.13275702    11597.308     1000 
 1268000   0.82884247   -1.9717922    1.2420204  -0.72977178   0.11609816    11851.995     1000 
 1270000    0.8367336   -1.9465142    1.2538453  -0.69266887   0.12282488    11824.282     1000 
 1272000   0.83364599   -1.9315771    1.2492185  -0.68235854   0.13116561    11613.473     1000 
 1274000   0.86182289    -1.955626    1.2914416  -0.66418441   0.13234604    11616.796     1000 
 1276000   0.82514299   -2.0008456    1.2364768  -0.76436886   0.12781264    11616.827     1000 
 1278000   0.81723945   -1.9574499    1.2246333  -0.73281655   0.10932196    11986.977     1000 
 1280000   0.82846865   -1.9555858    1.2414603  -0.71412549   0.12931092    11568.682     1000 
 1282000   0.85118879   -1.9758456    1.2755064  -0.70033924   0.13836632     11675.94     1000 
 1284000   0.84724641   -1.9641904    1.2695987  -0.69459161   0.12361557    12025.515     1000 
 1286000   0.84348565   -1.9944763    1.2639632  -0.73051304   0.12406107    11810.957     1000 
 1288000   0.87694473   -1.9277718    1.3141017  -0.61367012   0.13292344    11606.342     1000 
 1290000   0.88584363   -1.9063142    1.3274367  -0.57887752   0.14042968     11676.66     1000 
 1292000   0.83431793   -1.9368842    1.2502254   -0.6866588    0.1191291    12000.541     1000 
 1294000   0.87205126   -1.9653613    1.3067688   -0.6585925   0.13369509    11729.458     1000 
 1296000   0.89356548   -1.9405662    1.3390079  -0.60155833    0.1356129    11559.655     1000 
 1298000   0.83761382   -1.9194229    1.2551643  -0.66425861   0.13401169    11647.663     1000 
 1300000   0.85320617   -1.9066868    1.2785294  -0.62815737   0.14970906    11362.325     1000 
 1302000   0.86501686   -1.9452355    1.2962278  -0.64900771   0.14123443    11724.212     1000 
 1304000   0.86283664   -1.8761217    1.2929607  -0.58316097   0.12687183    11875.104     1000 
 1306000   0.83601496   -1.9438745    1.2527684  -0.69110611    0.1247993     11665.56     1000 
 1308000   0.86915829   -1.9175644    1.3024337   -0.6151307   0.11738945    11913.761     1000 
 1310000   0.82544689   -1.9006002    1.2369322  -0.66366804   0.11379884    11699.693     1000 
 1312000     0.857809   -1.9388529    1.2854268  -0.65342611   0.12560475    11698.021     1000 
 1314000   0.84157966   -1.8480056    1.2611071  -0.58689851   0.13349298    11815.949     1000 
 1316000   0.86597192   -1.9331387    1.2976589  -0.63547979   0.12652858    11738.686     1000 
 1318000   0.84809585   -1.8970258    1.2708716  -0.62615418   0.13651052    11842.518     1000 
 1320000   0.85385817    -1.897025    1.2795065  -0.61751858   0.12703543    11794.325     1000 
 1322000   0.82626214    -2.008991    1.2381538  -0.77083718   0.12566188    11694.976     1000 
 1324000   0.81456483   -1.9762719    1.2206254   -0.7556465   0.10544806    11832.394     1000 
 1326000   0.82896749   -1.9333138    1.2422078  -0.69110598    0.1278842    11639.509     1000 
 1328000   0.86766967   -1.9593979     1.300203  -0.65919487   0.12983186    11814.889     1000 
 1330000   0.84013392   -1.9154358    1.2589407  -0.65649515   0.12315412    11728.602     1000 
 1332000   0.79683828   -1.9333791    1.1940622   -0.7393169   0.12404226    11839.257     1000 
 1334000   0.86340885   -1.9215707    1.2938182  -0.62775253   0.14189016    11728.401     1000 
 1336000    0.8278198   -1.9407455     1.240488  -0.70025753   0.13556051     11579.58     1000 
 1338000   0.86801214   -1.8649764    1.3007162   -0.5642602   0.14108788    11625.836     1000 
 1340000   0.81857057   -1.9297078     1.226628  -0.70307978    0.1142133    11653.143     1000 
 1342000   0.83901834   -1.9411546     1.257269  -0.68388564   0.13167011    11392.495     1000 
 1344000   0.82655592   -1.9789109    1.2385941  -0.74031685   0.12530357    11740.285     1000 
 1346000   0.88669027   -1.9326818    1.3287054  -0.60397645   0.14314483    11649.291     1000 
 1348000   0.90648776    -1.862108    1.3583719  -0.50373608    0.1216326    11704.075     1000 
 1350000   0.82551676   -1.9119712    1.2370369  -0.67493431   0.13942225    11697.515     1000 
 1352000   0.82960161   -1.9391288     1.243158  -0.69597076   0.13002224    11529.759     1000 
 1354000   0.84369095   -1.9546322    1.2642709  -0.69036133   0.13705405    11848.182     1000 
 1356000   0.83327183    -1.915366    1.2486578  -0.66670814   0.12325527    11742.632     1000 
 1358000   0.85827606   -1.8793804    1.2861267  -0.59325375   0.12785347    11604.521     1000 
 1360000     0.857921   -1.9277203    1.2855946  -0.64212568   0.12206154    11558.116     1000 
 1362000   0.85121487   -1.9278328    1.2755455  -0.65228733   0.13242793     11446.32     1000 
 1364000   0.83863237   -1.9003577    1.2566906  -0.64366711   0.12130251    11826.502     1000 
 1366000    0.8682806   -1.9537561    1.3011185  -0.65263765   0.14708465     11482.78     1000 
 1368000   0.87468007    -1.896623    1.3107081  -0.58591494   0.13866625    11726.322     1000 
 1370000   0.84003148   -1.8706403    1.2587872  -0.61185308   0.13354856    11485.219     1000 
 1372000   0.84496213   -1.9532199    1.2661758  -0.68704417   0.12705016     11696.44     1000 
 1374000    0.8849408   -1.9664868    1.3260838  -0.64040299   0.14011203    11576.306     1000 
 1376000   0.84734544   -1.9130796    1.2697471  -0.64333244   0.12950751    11720.879     1000 
 1378000   0.83259413   -1.9415689    1.2476423  -0.69392659   0.12997253     11605.01     1000 
 1380000   0.84303778   -1.9362378    1.2632921  -0.67294565   0.14459863    11634.333     1000 
 1382000   0.83350943   -2.0072862    1.2490139   -0.7582723   0.12861637    11784.388     1000 
 1384000   0.82974622   -1.9534082    1.2433747  -0.71003353   0.13182992    11736.486     1000 
 1386000    0.8045664   -1.9036133    1.2056427  -0.69797051   0.14524554    11723.098     1000 
 1388000   0.86791904   -1.9338987    1.3005767  -0.63332206   0.11960729    11942.927     1000 
 1390000   0.84907062   -1.8898196    1.2723323  -0.61748726   0.14201335    11476.224     1000 
 1392000   0.83812791   -1.9394255    1.2559347  -0.68349081   0.12812539    11733.034     1000 
 1394000   0.85564228   -1.9233093      1.28218  -0.64112932   0.13310159    11673.648     1000 
 1396000   0.88065208   -1.9835926    1.3196571  -0.66393546   0.13442476    11901.159     1000 
 1398000   0.85987021   -1.9051942    1.2885155  -0.61667869   0.11160342     11839.39     1000 
 1400000    0.8308499   -1.9606248    1.2450286  -0.71559623   0.14090368    11605.548     1000 
 1402000   0.84596886   -1.9133052    1.2676843  -0.64562089   0.11658138    12144.839     1000 
 1404000   0.81574364   -1.9685168    1.2223918  -0.74612492   0.13260795    11607.932     1000 
 1406000   0.88198257   -1.8660807    1.3216509  -0.54442979   0.13840375    11706.151     1000 
 1408000   0.83030036   -1.9033549    1.2442051  -0.65914985   0.14297998    11480.798     1000 
 1410000   0.83984355   -1.9241425    1.2585056  -0.66563689   0.12075577    11786.217     1000 
 1412000   0.86970013    -1.962175    1.3032457  -0.65892935   0.11326366    11822.142     1000 
 1414000   0.84668315   -1.9513194    1.2687547  -0.68256473   0.10741244    11684.341     1000 
 1416000   0.84780434   -2.0159064    1.2704348  -0.74547161   0.11860617    11952.912     1000 
 1418000   0.88588049   -1.9389616    1.3274919  -0.61146965   0.10918051    11665.108     1000 
 1420000     0.875318   -1.9154681     1.311664  -0.60380412   0.12963318    11726.154     1000 
 1422000   0.85271778   -1.8772646    1.2777976  -0.59946696   0.13926022    11767.009     1000 
 1424000   0.80367565   -1.9460328     1.204308  -0.74172479   0.12524753    11697.895     1000 
 1426000   0.84015545   -1.8945894    1.2589729  -0.63561648   0.14599882    11345.131     1000 
 1428000    0.8572567   -1.9059066    1.2845992  -0.62130738   0.12415248    11730.433     1000 
 1430000   0.84168423   -1.8868565    1.2612638  -0.62559268     0.144768    11731.728     1000 
 1432000   0.88094404   -1.9532819    1.3200946  -0.63318722   0.13985693     11292.89     1000 
 1434000   0.88101132   -1.9020417    1.3201955  -0.58184628   0.12401896    11740.801     1000 
 1436000   0.84796463    -1.929632     1.270675  -0.65895701   0.12363148    11524.315     1000 
 1438000   0.84960963   -1.9011677      1.27314  -0.62802771   0.13299246    11553.656     1000 
 1440000   0.84904246   -1.9247642    1.2722901  -0.65247405   0.13032995    11602.458     1000 
 1442000   0.85593163   -1.8962387    1.2826135  -0.61362516   0.14815178    11438.708     1000 
 1444000   0.87847465   -1.9364838    1.3163943  -0.62008958   0.12637107    11754.631     1000 
 1446000   0.86493353   -1.9640318    1.2961029  -0.66792894   0.12930396    11677.803     1000 
 1448000   0.83516566   -1.9161989    1.2514957  -0.66470318   0.13437631    11867.986     1000 
 1450000   0.84038373   -1.8616323     1.259315  -0.60231729   0.13941424    11555.844     1000 
 1452000   0.81438862   -1.9915492    1.2203614  -0.77118789   0.11993954    11833.536     1000 
 1454000   0.84192352   -1.9216565    1.2616224  -0.66003411   0.13333609    11803.515     1000 
 1456000    0.8458072   -1.9039454    1.2674421  -0.63650334   0.10396765    12238.836     1000 
 1458000   0.85497196     -1.88574    1.2811755  -0.60456451   0.12502741    11694.537     1000 
 1460000   0.82205462   -1.9087987    1.2318489  -0.67694987   0.12967622     11569.13     1000 
 1462000   0.84424238   -1.9172233    1.2650972  -0.65212605   0.10856729     11942.52     1000 
 1464000    0.8435811   -1.9204435    1.2641063  -0.65633721   0.12519274    11779.259     1000 
 1466000   0.89051999   -1.9254736    1.3344442  -0.59102938   0.14563378     11623.64     1000 
 1468000   0.80522919   -1.9120487    1.2066359  -0.70541281   0.12579901    11972.557     1000 
 1470000   0.84692625   -1.9274855     1.269119   -0.6583665    0.1258447    11505.701     1000 
 1472000   0.84046384   -1.9232417    1.2594351  -0.66380665   0.13226515    11334.804     1000 
 1474000   0.84973832   -1.8932868    1.2733329  -0.61995391   0.13077147    11676.541     1000 
 1476000   0.84437546   -1.9397783    1.2652966  -0.67448165    0.1262521    11705.775     1000 
 1478000   0.86372392   -1.9098297    1.2942903  -0.61553936   0.13670346    11798.538     1000 
 1480000   0.84588235   -1.9206128    1.2675547  -0.65305815   0.13495296    11763.315     1000 
 1482000    0.8571404   -1.9490429    1.2844249  -0.66461798   0.13197998    11890.402     1000 
 1484000   0.84293056   -1.9473918    1.2631314  -0.68426039   0.13365237    11427.289     1000 
 1486000   0.82989066   -1.9604238    1.2435912  -0.71683263   0.12081747    11594.403     1000 
 1488000   0.85618241   -1.9024451    1.2829893  -0.61945573   0.12385794    11828.387     1000 
 1490000   0.89164988   -1.8996921    1.3361374  -0.56355474   0.13856794    11942.575     1000 
 1492000   0.90879784   -1.9164711    1.3618336  -0.55463749   0.12931132    11752.394     1000 
 1494000   0.80184415   -1.8823511    1.2015635  -0.68078766   0.13594226    11573.467     1000 
 1496000   0.84044212   -1.9151402    1.2594025  -0.65573769   0.12302209    11633.582     1000 
 1498000   0.85884714   -1.8840271    1.2869824  -0.59704463   0.12200103    11779.505     1000 
 1500000   0.84767236   -1.8902831     1.270237  -0.62004605   0.12575457    11702.532     1000 
 1502000   0.88128528   -1.8993036     1.320606  -0.57869762   0.12840145    11837.869     1000 
 1504000   0.87543087   -1.9612838    1.3118332  -0.64945066   0.11945805      11888.6     1000 
 1506000   0.87944344    -1.954851     1.317846  -0.63700496   0.14967997    11735.817     1000 
 1508000   0.82855642   -1.9199429    1.2415918  -0.67835108   0.14275707    11431.205     1000 
 1510000   0.86137597   -1.9399888    1.2907719  -0.64921695   0.12477617     11766.43     1000 
 1512000   0.85736639   -1.8981374    1.2847635  -0.61337388   0.12419672    11855.036     1000 
 1514000   0.86585147   -1.9285104    1.2974784  -0.63103198   0.13705633    11779.526     1000 
 1516000   0.86003608   -1.9599865    1.2887641  -0.67122241    0.1303828    11627.365     1000 
 1518000   0.83856807   -1.9485036    1.2565943  -0.69190934   0.11877112    11776.097     1000 
 1520000   0.84020765   -1.9379271    1.2590512  -0.67887596   0.13792208    11430.568     1000 
 1522000   0.87520084   -1.8627536    1.3114885  -0.55126512   0.12980006    12021.104     1000 
 1524000   0.84343661    -1.885332    1.2638898  -0.62144228   0.11863492    11907.823     1000 
 1526000   0.86312426    -1.912125    1.2933917   -0.6187333   0.13031487    11673.529     1000 
 1528000   0.86182556   -1.9771407    1.2914456  -0.68569514   0.13627735    11470.887     1000 
 1530000   0.86553896   -1.9591077    1.2970101  -0.66209757   0.13023635     11727.85     1000 
 1532000   0.86518004   -1.9949692    1.2964723  -0.69849694   0.12487633    11924.629     1000 
 1534000   0.83403484   -1.9173798    1.2498012  -0.66757857   0.13233352    11590.453     1000 
 1536000   0.83937087   -1.9509516    1.2577973  -0.69315432     0.123731    11509.293     1000 
 1538000   0.84488396   -1.9131451    1.2660586  -0.64708645   0.13957144    11669.786     1000 
 1540000   0.83338441   -1.9108142    1.2488265  -0.66198761   0.13212579    11417.015     1000 
 1542000    0.8198731   -1.9035659    1.2285798   -0.6749861    0.1186367    11752.386     1000 
 1544000   0.85678739    -1.888758    1.2838959  -0.60486214    0.1248917    11719.811     1000 
 1546000   0.85430955   -1.9205533    1.2801829  -0.64037044   0.12114733    11499.161     1000 
 1548000   0.83377041    -1.881829     1.249405  -0.63242402   0.13584538     11563.99     1000 
 1550000   0.80189597   -1.8922642    1.2016411  -0.69062308   0.13263815    11627.782     1000 
 1552000   0.89336626   -1.9067018    1.3387093  -0.56799244   0.12944151    11819.925     1000 
 1554000   0.88607013   -1.9007805    1.3277761  -0.57300443   0.12363385    11762.266     1000 
 1556000   0.88211323   -1.8850722    1.3218467   -0.5632255   0.12968709    11831.012     1000 
 1558000   0.82240537   -1.9309694    1.2323745  -0.69859498   0.11998854    11783.866     1000 
 1560000   0.82992977   -1.9527569    1.2436498  -0.70910716   0.13048851    11510.756     1000 
 1562000   0.85664586   -1.9510241    1.2836838  -0.66734026   0.12908405     11555.82     1000 
 1564000   0.85722922   -1.8899439     1.284558  -0.60538592   0.15114435    11601.139     1000 
 1566000   0.85362717   -1.8885249    1.2791603  -0.60936456   0.13142544    11667.633     1000 
 1568000   0.86658631   -1.9864337    1.2985796  -0.68785412    0.1422898    11730.717     1000 
 1570000   0.82347915   -1.9448055    1.2339835  -0.71082195   0.12972716    11574.685     1000 
 1572000    0.8591289   -1.9253935    1.2874047  -0.63798886   0.14190546    11696.774     1000 
 1574000    0.8707844   -1.9607925    1.3048704  -0.65592207   0.13387614    11630.828     1000 
 1576000   0.88265071   -1.9156276    1.3226521  -0.59297548   0.12639325    11658.311     1000 
 1578000   0.83467489   -1.9287695    1.2507603  -0.67800913    0.1268371    11593.932     1000 
 1580000   0.87171681   -1.9263279    1.3062676   -0.6200603   0.14658529    11491.993     1000 
 1582000   0.85199741    -1.927355    1.2767181  -0.65063692   0.11678976    11632.748     1000 
 1584000   0.84947962   -1.9377293    1.2729452  -0.66478413   0.14080213    11644.295     1000 
 1586000   0.84489842   -1.9078038    1.2660803   -0.6417235   0.13478665    11599.463     1000 
 1588000   0.88139091   -1.9124058    1.3207643  -0.59164152   0.12711352    11564.895     1000 
 1590000   0.83014039   -1.9838249    1.2439654   -0.7398595   0.12607213    11808.417     1000 
 1592000   0.85953733   -1.9546225    1.2880167  -0.66660578   0.12935841     11722.93     1000 
 1594000   0.84570636   -1.9018401     1.267291  -0.63454916   0.13420521    11294.337     1000 
 1596000    0.8358209   -1.9792898    1.2524776   -0.7268122   0.11841171     11732.61     1000 
[...]
 2612000   0.83467861   -1.9269148    1.2507659  -0.67614886   0.11173465    11932.045     1000 
 2614000   0.84955182   -1.8856052    1.2730534  -0.61255183   0.13995932    11599.084     1000 
 2616000   0.84460864   -1.9326222     1.265646  -0.66697618   0.12713736    11614.633     1000 
 2618000   0.83616242   -1.9159435    1.2529894  -0.66295408   0.12372603    11803.272     1000 
 2620000   0.84202333   -1.8909393     1.261772  -0.62916732   0.13051527     11813.88     1000 
 2622000   0.85022315   -1.9378148    1.2740594  -0.66375541   0.13321362    11604.014     1000 
 2624000   0.86592878   -1.8879108    1.2975943  -0.59031652   0.15040127    11527.328     1000 
 2626000   0.87571014   -1.9253158    1.3122516  -0.61306414   0.13093016    11840.452     1000 
 2628000   0.88416176   -1.9539553    1.3249164  -0.62903891   0.13824531    11766.242     1000 
 2630000   0.85496717    -1.941026    1.2811683  -0.65985767   0.12216677    11630.356     1000 
 2632000   0.85359623   -1.9357748    1.2791139  -0.65666085   0.12484541    11676.089     1000 
 2634000   0.83234502   -1.8872767     1.247269  -0.64000767   0.11449266    11520.125     1000 
 2636000   0.82408062   -1.9172328    1.2348848  -0.68234801   0.11491638    11605.258     1000 
 2638000   0.84219844   -1.9457558    1.2620344  -0.68372139   0.12891913    11574.295     1000 
 2640000   0.87633617   -1.9022611    1.3131898  -0.58907134    0.1299961    11686.702     1000 
 2642000   0.83736079   -1.9399852    1.2547851  -0.68520006   0.12249194    11768.761     1000 
 2644000   0.85287228   -1.9462463    1.2780291  -0.66821722   0.13533358    11720.804     1000 
 2646000   0.85450351   -1.9809139    1.2804735  -0.70044042   0.13218112    11789.728     1000 
 2648000   0.83852794   -1.9532993    1.2565341   -0.6967652   0.13466832    11749.613     1000 
 2650000   0.85383505   -1.9163757    1.2794718  -0.63690386    0.1473262     11643.14     1000 
 2652000   0.85601338   -1.9373982    1.2827361   -0.6546621   0.13244597    11667.583     1000 
 2654000   0.81697904   -1.9090615    1.2242431  -0.68481843   0.12674458    11545.238     1000 
 2656000   0.84161604    -1.919994    1.2611616  -0.65883234    0.1610526    11444.775     1000 
 2658000   0.87197819   -1.9306182    1.3066593  -0.62395886   0.14346122    11678.082     1000 
 2660000   0.84208278   -1.9080357     1.261861   -0.6461747   0.12560596    11557.144     1000 
 2662000   0.82905121   -1.9030905    1.2423332  -0.66075729   0.15541985    11456.822     1000 
 2664000   0.86297066   -1.8992171    1.2931615  -0.60605553    0.1338201    11687.574     1000 
 2666000   0.85677182   -1.9262634    1.2838726  -0.64239083   0.13711431    11275.968     1000 
 2668000   0.87002847   -1.8576638    1.3037377   -0.5539261   0.14785652     11586.09     1000 
 2670000   0.85412685    -1.913352    1.2799091  -0.63344287   0.12958705    11762.352     1000 
 2672000   0.88900974   -1.9478577    1.3321811  -0.61567661   0.12388294     11635.03     1000 
 2674000   0.87147187   -1.9040312    1.3059006  -0.59813062   0.12134004    11777.067     1000 
 2676000   0.85169044   -1.9623041    1.2762581  -0.68604593   0.13178358    11682.975     1000 
 2678000    0.8733971   -1.8740183    1.3087856  -0.56523279    0.1460736    11334.505     1000 
 2680000   0.82916582   -1.9405691     1.242505  -0.69806415   0.12724735    11570.975     1000 
 2682000   0.84153766   -1.9457667    1.2610442  -0.68472249   0.12326369    11512.538     1000 
 2684000   0.83655805   -1.9538419    1.2535822  -0.70025961   0.12964638     11531.48     1000 
 2686000   0.84819977    -1.926214    1.2710274  -0.65518659   0.12348817    11785.585     1000 
 2688000   0.85584642   -1.9356962    1.2824859   -0.6532103   0.14771182    11437.451     1000 
 2690000   0.85764856     -1.93433    1.2851864  -0.64914362   0.14355336    11581.581     1000 
 2692000   0.85069062   -1.9205224    1.2747599  -0.64576252   0.13629633    11648.123     1000 
 2694000    0.8216673   -1.9109483    1.2312684  -0.67967984   0.13213367    11664.055     1000 
 2696000   0.84153524   -1.9379151    1.2610405  -0.67687451   0.12811037     11731.11     1000 
 2698000   0.85353139   -1.9116857    1.2790168  -0.63266889    0.1196396    11825.884     1000 
 2700000   0.85699465   -1.9330066    1.2842065  -0.64880014   0.12403599    11694.708     1000 
 2702000   0.88008146    -1.931672    1.3188021  -0.61286995   0.12092423    11873.505     1000 
 2704000   0.83868095   -1.9155536    1.2567634  -0.65879018   0.14137581    11615.853     1000 
 2706000    0.8658758    -1.968667    1.2975149  -0.67115207   0.12112532    11896.966     1000 
 2708000   0.83953873     -1.88853    1.2580488  -0.63048121   0.13669062    11776.089     1000 
 2710000   0.88569123   -1.9005986    1.3272083  -0.57339032   0.12893548    11691.324     1000 
 2712000   0.87099679   -1.9224274    1.3051887  -0.61723872    0.1247366    11939.811     1000 
 2714000   0.84770004   -1.9134867    1.2702785  -0.64320816   0.11663216    11676.265     1000 
 2716000   0.86793454   -1.9523536    1.3005999  -0.65175374   0.14397953    11480.849     1000 
 2718000    0.8213689   -2.0333773    1.2308213  -0.80255598   0.13177132     11890.48     1000 
 2720000   0.82790557   -1.9213146    1.2406165   -0.6806981    0.1410593    11500.211     1000 
 2722000   0.84204577   -1.8881995    1.2618056  -0.62639396   0.13522619    11380.698     1000 
 2724000    0.8821831   -2.0104675    1.3219514  -0.68851613   0.13761104    11733.713     1000 
 2726000   0.83730737   -1.9028327    1.2547051  -0.64812763   0.13944159     11425.04     1000 
 2728000   0.85848942   -1.9039534    1.2864464    -0.617507    0.1125477     11884.08     1000 
 2730000   0.86491099   -1.8280649    1.2960691  -0.53199577   0.13782179    11497.681     1000 
 2732000   0.79444001   -1.9508734    1.1904684  -0.76040504   0.11704319    11918.773     1000 
 2734000   0.82293957   -1.9759733    1.2331749  -0.74279834   0.12890267    11832.658     1000 
 2736000   0.86117798   -1.9090991    1.2904752  -0.61862388   0.13376894    11746.337     1000 
 2738000   0.83624083   -1.8971793    1.2531069  -0.64407237   0.13234968    11796.516     1000 
 2740000   0.86745043   -1.8921858    1.2998745  -0.59231128   0.13829627    11530.407     1000 
 2742000   0.86909485   -1.9222978    1.3023386  -0.61995912   0.13111512     11674.79     1000 
 2744000    0.8759575   -1.9726893    1.3126223  -0.66006694   0.12730714    11584.742     1000 
 2746000   0.79888092   -1.8704945    1.1971231  -0.67337144    0.1347413    11551.133     1000 
 2748000   0.86993965   -1.8854111    1.3036046  -0.58180654   0.12996416    11855.118     1000 
 2750000   0.85870303   -1.9273173    1.2867665  -0.64055078   0.12588641    11529.159     1000 
 2752000   0.83927903   -1.9246205    1.2576596  -0.66696088   0.11791377    11895.161     1000 
 2754000   0.86568222   -1.9132797    1.2972248  -0.61605492   0.13250162    11815.093     1000 
 2756000   0.86331123   -1.9590856    1.2936719  -0.66541374   0.12685815     11708.37     1000 
 2758000   0.84527279   -1.8975907    1.2666413  -0.63094942   0.14027061    11435.354     1000 
 2760000   0.82798671   -1.9361132    1.2407381  -0.69537507   0.12080387    11886.141     1000 
 2762000   0.87983373   -1.9173344    1.3184308  -0.59890353   0.14376581    11642.728     1000 
 2764000   0.89163198    -1.937552    1.3361105  -0.60144145   0.11919013    11861.261     1000 
 2766000   0.79105082   -1.9094365    1.1853897  -0.72404682   0.12193945    11893.707     1000 
 2768000    0.8382831   -1.9590794    1.2561672  -0.70291214   0.13507042    11760.097     1000 
 2770000   0.88035395   -1.8960633    1.3192104  -0.57685291   0.15237688    11490.453     1000 
 2772000   0.85891448   -1.9719994    1.2870834  -0.68491602   0.13834082    11839.375     1000 
 2774000   0.86179307   -1.9316034    1.2913969  -0.64020653   0.12726278     11547.64     1000 
 2776000   0.84130118   -1.9272338    1.2606898  -0.66654396   0.12610271     11769.25     1000 
 2778000   0.82191356   -1.9136489    1.2316375  -0.68201143   0.14347174    11581.147     1000 
 2780000    0.8438823   -1.9138475    1.2645576  -0.64928982   0.13175013    11539.835     1000 
 2782000    0.8509188   -1.9517678    1.2751018  -0.67666596   0.13226049    11371.534     1000 
 2784000   0.84096423   -1.9113953    1.2601849   -0.6512104    0.1512431     11404.07     1000 
 2786000   0.85720746   -1.8775896    1.2845254   -0.5930642   0.12655597    11845.202     1000 
 2788000   0.83117805   -1.9654293    1.2455203  -0.71990896   0.11055066     11806.54     1000 
 2790000   0.86388431   -1.8882083    1.2945306   -0.5936777   0.13825274    11639.695     1000 
 2792000   0.83494853   -1.8958772    1.2511704  -0.64470677   0.14233212    11532.377     1000 
 2794000   0.83871747   -1.9077142    1.2568181  -0.65089607   0.13539421    11432.681     1000 
 2796000   0.86721962   -1.9314477    1.2995286  -0.63191911   0.11441188    11916.274     1000 
 2798000   0.86346996   -1.9286924    1.2939097  -0.63478268   0.14566521    11503.401     1000 
 2800000   0.83867559   -1.9425495    1.2567554   -0.6857941   0.12133052    11807.959     1000 
 2802000   0.87498141    -1.969153    1.3111596  -0.65799338   0.12539185    11928.512     1000 
 2804000   0.82723316   -1.9265642    1.2396089  -0.68695528   0.15340921    11294.769     1000 
 2806000   0.86812277    -1.929092     1.300882  -0.62821002   0.11482775    11945.162     1000 
 2808000   0.86614026   -1.8766717    1.2979112  -0.57876051   0.12197421    11825.899     1000 
 2810000    0.8388944   -1.9067111    1.2570833  -0.64962781   0.13099208    11663.023     1000 
 2812000   0.83648672   -1.9322634    1.2534754  -0.67878806   0.13328231    11553.169     1000 
 2814000   0.85312178   -1.8860829     1.278403  -0.60767995   0.12573518    11712.431     1000 
 2816000   0.87815478   -1.9623408    1.3159149  -0.64642582   0.16155859    11453.723     1000 
 2818000   0.79703464   -1.8742306    1.1943564  -0.67987415   0.11776091    11924.291     1000 
 2820000   0.89136767   -1.9258076    1.3357145  -0.59009311   0.14317963    11623.041     1000 
 2822000   0.88348117   -1.9915737    1.3238965  -0.66767716   0.13345994    11677.405     1000 
 2824000   0.87565048   -1.9195419    1.3121622  -0.60737966   0.14014292     11483.12     1000 
 2826000   0.84466679   -1.9757742    1.2657332  -0.71004098   0.11472013    12105.626     1000 
 2828000   0.86007291   -1.9205964    1.2888193  -0.63177716   0.13003115    11653.279     1000 
 2830000   0.80890141    -1.938701    1.2121388  -0.72656227    0.1342247    11636.559     1000 
 2832000    0.8586131   -1.9111543    1.2866317  -0.62452259   0.12591763    11903.189     1000 
 2834000   0.82837097   -1.9521889    1.2413139  -0.71087499   0.12646583    11730.645     1000 
 2836000    0.8445048   -1.9597662    1.2654904  -0.69427574   0.13017329    11718.378     1000 
 2838000   0.85269313   -1.9009245    1.2777606  -0.62316389   0.12904446     11646.36     1000 
 2840000   0.87684222   -1.8772692    1.3139481  -0.56332115    0.1320336    11600.475     1000 
 2842000   0.87484579   -1.9472534    1.3109564  -0.63629698   0.12894211    11752.706     1000 
 2844000   0.83264006   -1.9214955    1.2477111  -0.67378442   0.12868604    11469.562     1000 
 2846000   0.86727826    -1.944651    1.2996165  -0.64503456   0.11814546    11949.231     1000 
 2848000    0.8090694   -1.8979502    1.2123905  -0.68555975   0.13553542    11610.436     1000 
 2850000   0.82735497   -1.8864708    1.2397914  -0.64667937   0.13442491    11492.864     1000 
 2852000   0.86424578   -1.9460366    1.2950723  -0.65096433   0.12599634    11625.713     1000 
 2854000   0.84718096    -1.903182    1.2695007  -0.63368137   0.12784733    11689.817     1000 
 2856000   0.84397697   -1.9586094    1.2646995  -0.69390988   0.11318977    11859.768     1000 
 2858000   0.83657659   -1.9424205      1.25361  -0.68881048   0.12908707    11484.369     1000 
 2860000   0.89424218   -1.9101524    1.3400219  -0.57013051   0.12084276    11680.306     1000 
 2862000   0.89246176    -1.804986    1.3373539  -0.46763204   0.14184895    11577.621     1000 
 2864000   0.83121643   -1.9632251    1.2455778  -0.71764732   0.13311773    11556.894     1000 
 2866000   0.84458229   -1.9021396    1.2656066  -0.63653308   0.12895338    11562.502     1000 
 2868000   0.81249778   -1.9127026    1.2175279  -0.69517469   0.12136505    11506.115     1000 
 2870000   0.82815261   -1.9407563    1.2409867  -0.69976966   0.13531946    11458.999     1000 
 2872000   0.85142384   -1.9929138    1.2758586  -0.71705515   0.11490321    11956.822     1000 
 2874000   0.86898791   -1.9056434    1.3021784  -0.60346506   0.13498262    11570.115     1000 
 2876000   0.84260298   -1.8967252    1.2626406  -0.63408462    0.1311825    11593.251     1000 
 2878000   0.85780509   -1.9290207    1.2854209  -0.64359982   0.13278664    11486.048     1000 
 2880000    0.8337098   -1.9334307    1.2493141   -0.6841166   0.13318147    11826.264     1000 
 2882000   0.84832179   -1.8921361    1.2712102  -0.62092586   0.13692725    11607.486     1000 
 2884000   0.82066916   -1.8845695    1.2297727  -0.65479674   0.13244422    11328.755     1000 
 2886000   0.84821601   -1.9557432    1.2710517  -0.68469154    0.1381875    11618.477     1000 
 2888000   0.86143951   -1.9603722    1.2908671  -0.66950509   0.13385214     11706.91     1000 
 2890000   0.83914099   -1.8588486    1.2574528  -0.60139584    0.1247676    11869.089     1000 
 2892000   0.85877088   -1.9053074    1.2868682  -0.61843923   0.11729841    11832.257     1000 
 2894000   0.82710708   -1.9026295      1.23942  -0.66320951   0.12965502    11576.343     1000 
 2896000   0.87817241   -2.0156982    1.3159414  -0.69975688   0.11532146    11850.414     1000 
 2898000    0.8346037   -1.9054294    1.2506536  -0.65477578   0.12468576    11787.722     1000 
 2900000   0.87276599   -1.9042354    1.3078398  -0.59639558   0.14881239    11426.124     1000 
 2902000   0.84527016   -1.9304168    1.2666373  -0.66377945   0.12963764    11520.228     1000 
 2904000   0.82013309    -1.948458    1.2289694  -0.71948859   0.13995176    11450.745     1000 
 2906000     0.867322   -1.9054389     1.299682  -0.60575684   0.12822542    11681.664     1000 
 2908000   0.81699426   -1.9298385    1.2242659  -0.70557259   0.12852316    11656.893     1000 
 2910000   0.87156975   -1.9599696    1.3060473  -0.65392237   0.12335884    11796.514     1000 
 2912000   0.81964109    -1.914553    1.2282322  -0.68632079   0.11367485    11815.354     1000 
 2914000   0.81992951   -1.8667249    1.2286644  -0.63806058   0.13526841    11434.364     1000 
 2916000   0.81718586   -2.0136864     1.224553  -0.78913344   0.11091895    11816.188     1000 
 2918000   0.85262345   -1.9111281    1.2776562   -0.6334719   0.13776709    11622.099     1000 
 2920000   0.88614382   -1.8923301    1.3278865  -0.56444364   0.13130162    11639.813     1000 
 2922000   0.87730142   -1.8489782    1.3146362  -0.53434204   0.13828014    11609.057     1000 
 2924000    0.8278714   -1.9634275    1.2405653  -0.72286217   0.14180427    11568.757     1000 
 2926000   0.84289339   -1.8714171    1.2630757  -0.60834139    0.1323842    11762.852     1000 
 2928000   0.85444736   -1.9410685    1.2803894  -0.66067912   0.12350375    11566.869     1000 
 2930000   0.84465028   -1.9507312    1.2657084  -0.68502272   0.14375962    11731.863     1000 
 2932000   0.87342074   -1.9087756     1.308821  -0.59995459   0.13759605     11607.28     1000 
 2934000   0.84458423    -1.897769    1.2656095  -0.63215956   0.13650775    11469.764     1000 
 2936000   0.85524507   -1.9360944    1.2815847  -0.65450968   0.11749357    11444.999     1000 
 2938000   0.82715308   -1.8530325    1.2394889  -0.61354358   0.12464004    11514.918     1000 
 2940000   0.86778686   -1.9497397    1.3003786  -0.64936109   0.12468481    11722.623     1000 
 2942000   0.84973523   -1.9518757    1.2733282  -0.67854742   0.13239223    11621.047     1000 
 2944000    0.8361843    -1.923517    1.2530222  -0.67049486   0.14834549    11614.847     1000 
 2946000   0.89082362   -1.9467635    1.3348992  -0.61186428   0.12206114    11928.146     1000 
 2948000   0.86149899   -1.9164436    1.2909562  -0.62548741   0.13976303     11939.13     1000 
 2950000   0.86888139   -1.9651254    1.3020188  -0.66310665    0.1355336    11611.081     1000 
 2952000   0.87454343   -1.9505874    1.3105033  -0.64008408   0.12210318    11957.986     1000 
 2954000   0.82421013   -1.8720109    1.2350789  -0.63693204   0.11010227    11817.407     1000 
 2956000   0.85539904   -1.9214983    1.2818155  -0.63968285   0.12829426    11832.155     1000 
 2958000   0.85144111   -1.8833111    1.2758845   -0.6074266    0.1334311    11414.388     1000 
 2960000   0.86805866   -1.9352827    1.3007859  -0.63449683   0.13539433    11643.345     1000 
 2962000    0.8555783   -1.8479425    1.2820841  -0.56585846   0.13111658    11843.144     1000 
 2964000   0.84281999   -1.8563432    1.2629657  -0.59337747     0.127802    11958.899     1000 
 2966000   0.89206628   -1.9410337    1.3367613   -0.6042724   0.11843966     11865.03     1000 
 2968000   0.86149105   -1.8952373    1.2909443  -0.60429298   0.13199852     11675.22     1000 
 2970000   0.82798401   -1.9452344     1.240734  -0.70450038   0.11620192    11849.756     1000 
 2972000   0.87196299   -1.9617686    1.3066365  -0.65513204   0.12214955    11834.465     1000 
 2974000    0.8448847   -1.8937952    1.2660597  -0.62773545    0.1252496    11752.387     1000 
 2976000   0.85684109   -2.0086809    1.2839764  -0.72470451   0.12656441    11707.113     1000 
 2978000   0.88205241   -1.9709912    1.3217555  -0.64923572   0.12659901    11590.771     1000 
 2980000   0.86278517   -1.9435677    1.2928836  -0.65068415   0.12611406    11683.524     1000 
 2982000   0.87670041   -1.9635371    1.3137356  -0.64980151   0.13767941    11559.203     1000 
 2984000   0.83100709   -1.9467471    1.2452641  -0.70148294   0.12161802    11883.156     1000 
 2986000   0.87619036   -1.9364763    1.3129713  -0.62350508   0.15183394    11528.942     1000 
 2988000   0.89414431   -1.9327431    1.3398752  -0.59286788   0.14200358    11644.141     1000 
 2990000   0.82893164    -1.915921    1.2421541  -0.67376692   0.10996418    11814.443     1000 
 2992000   0.87589545   -1.9222924    1.3125293  -0.60976308   0.13861831    11725.016     1000 
 2994000   0.84710363    -1.914022    1.2693848  -0.64463723   0.12785573    11752.997     1000 
 2996000     0.864281    -1.878305    1.2951251  -0.58317989   0.13041675    11802.503     1000 
 2998000   0.87346469   -1.9373397    1.3088868  -0.62845283   0.13505926    11822.992     1000 
 3000000   0.87266057    -1.932346    1.3076819  -0.62466418   0.14479242    11604.884     1000 
Loop time of 1955.36 on 4 procs for 3000000 steps with 1000 atoms

Performance: 662792.840 tau/day, 1534.243 timesteps/s
96.7% CPU use with 4 MPI tasks x no OpenMP threads

MPI task timing breakdown:
Section |  min time  |  avg time  |  max time  |%varavg| %total
---------------------------------------------------------------
Pair    | 1456.8     | 1528.3     | 1599.9     | 146.5 | 78.16
Neigh   | 115.84     | 117.69     | 119.37     |  12.1 |  6.02
Comm    | 180.41     | 253.8      | 327.26     | 367.7 | 12.98
Output  | 0.02702    | 0.030148   | 0.039227   |   3.0 |  0.00
Modify  | 46.292     | 46.437     | 46.583     |   1.7 |  2.37
Other   |            | 9.066      |            |       |  0.46

Nlocal:    250 ave 260 max 243 min
Histogram: 1 0 1 1 0 0 0 0 0 1
Nghost:    2375.25 ave 2399 max 2351 min
Histogram: 1 1 0 0 0 0 0 0 1 1
Neighs:    25644 ave 27358 max 24019 min
Histogram: 1 0 0 1 0 0 1 0 0 1

Total # of neighbors = 102576
Ave neighs/atom = 102.576
Neighbor list builds = 150000
Dangerous builds not checked

Total wall time: 0:32:35
