LAMMPS (3 Mar 2020)
# ----------------------- Inicialização -----------------------

units			lj
atom_style 		atomic
dimension 		3
boundary 		p p p

# -------------------- Criação dos Átomos ---------------------

read_data 		topologia.txt
  orthogonal box = (0 0 0) to (21.54 21.54 21.54)
  1 by 2 by 2 MPI processor grid
  reading atoms ...
  1000 atoms
  read_data CPU = 0.00136961 secs

velocity 		all create ${temp} 87287 rot yes dist gaussian
velocity 		all create 0.56 87287 rot yes dist gaussian

# ------------------ Interação Interatômica -------------------

pair_style		table linear 1600
pair_coeff		1 1 force.table AA 8.0
WARNING: 3 of 1600 force values in table are inconsistent with -dE/dr.
  Should only be flagged at inflection points (src/pair_table.cpp:483)
pair_coeff		1 2 force.table AB 8.0
WARNING: 1 of 1600 force values in table are inconsistent with -dE/dr.
  Should only be flagged at inflection points (src/pair_table.cpp:483)
pair_coeff		2 2 force.table BB 8.0
pair_write		1 1 1600 r 0.008 8.0 table.check AA
Neighbor list info ...
  update every 1 steps, delay 10 steps, check yes
  max neighbors/atom: 2000, page size: 100000
  master list distance cutoff = 8.3
  ghost atom cutoff = 8.3
  binsize = 4.15, bins = 6 6 6
  1 neighbor lists, perpetual/occasional/extra = 1 0 0
  (1) pair table, perpetual
      attributes: half, newton on
      pair build: half/bin/atomonly/newton
      stencil: half/bin/3d/newton
      bin: standard
pair_write		1 2 1600 r 0.008 8.0 table.check AB
pair_write		2 2 1600 r 0.008 8.0 table.check BB

neighbor 		0.3 bin
neigh_modify		every 20 delay 0 check no

# ------------------------- Ensemble --------------------------------------

fix 1			all npt temp ${temp} ${temp} 0.5 iso ${press} ${press} 5
fix 1			all npt temp 0.56 ${temp} 0.5 iso ${press} ${press} 5
fix 1			all npt temp 0.56 0.56 0.5 iso ${press} ${press} 5
fix 1			all npt temp 0.56 0.56 0.5 iso 0.13 ${press} 5
fix 1			all npt temp 0.56 0.56 0.5 iso 0.13 0.13 5

# ---------------------- Função de Distribuição Radial -----------------------

#compute RDF 		all rdf 2000 1 1 1 2 2 2
#fix 2 			all ave/time 1 2000 2000 c_RDF[*] file rdf.data mode vector

# ------------------------- Execução ---------------------------

timestep 		0.005
thermo_style		custom step temp pe ke etotal press vol atoms
thermo			2000
run			3000000
Per MPI rank memory allocation (min/avg/max) = 2.675 | 2.675 | 2.675 Mbytes
Step Temp PotEng KinEng TotEng Press Volume Atoms 
       0         0.56   0.73901277      0.83916    1.5781728    1.1879861    9993.9483     1000 
    2000   0.56965886   -2.1437347   0.85363381   -1.2901009   0.13423293    11441.207     1000 
    4000   0.54899371   -2.1119948   0.82266707   -1.2893277   0.12756002     11410.57     1000 
    6000   0.58049709   -2.1369504   0.86987489   -1.2670755    0.1335132    11404.556     1000 
    8000    0.5635229   -2.1772826   0.84443906   -1.3328435   0.13050541    11328.879     1000 
   10000   0.54438503   -2.1634995   0.81576097   -1.3477385   0.12382221    11319.757     1000 
   12000   0.56176785   -2.1326807   0.84180913   -1.2908716   0.13293974    11292.132     1000 
   14000   0.54683584   -2.1983112    0.8194335   -1.3788776   0.12524762    11495.596     1000 
   16000   0.56695343   -2.1426161   0.84957972   -1.2930364   0.12622394    11450.191     1000 
   18000   0.57614275   -2.2350968    0.8633499   -1.3717469   0.11334224    11713.034     1000 
   20000   0.56596348   -2.1086406   0.84809628   -1.2605443   0.11840193    11204.096     1000 
   22000   0.56295622   -2.1805961    0.8435899   -1.3370062   0.12636576    11505.206     1000 
   24000   0.57179974   -2.1033645   0.85684191   -1.2465226   0.14624457    11291.595     1000 
   26000   0.55634116   -2.1813014   0.83367722   -1.3476242   0.11142321    11350.522     1000 
   28000   0.55620809   -2.1423458   0.83347782    -1.308868   0.14073274    11146.825     1000 
   30000   0.54759884   -2.1657193   0.82057686   -1.3451425   0.12662049    11358.148     1000 
   32000   0.54525686   -2.0979958    0.8170674   -1.2809284   0.12953832      11153.1     1000 
   34000   0.55309782   -2.1452488   0.82881708   -1.3164317   0.13229769    11312.789     1000 
   36000   0.57567694   -2.1674819   0.86265189     -1.30483   0.11888033    11517.283     1000 
   38000   0.56443051   -2.1489672   0.84579912   -1.3031681   0.13253218    11326.405     1000 
   40000   0.56876821   -2.1625044   0.85229916   -1.3102052   0.13103449    11293.826     1000 
   42000   0.54056524   -2.1533955   0.81003702   -1.3433585   0.12768757    11282.289     1000 
   44000    0.5555662   -2.1482931   0.83251595   -1.3157771   0.13670255     11359.12     1000 
   46000   0.55348172   -2.2070851   0.82939235   -1.3776927   0.12578006     11286.16     1000 
   48000   0.55838654   -2.1717399   0.83674223   -1.3349976    0.1279787    11401.152     1000 
   50000   0.57308594   -2.1237292   0.85876928   -1.2649599   0.12577343     11279.01     1000 
   52000   0.55502452   -2.1763143   0.83170425     -1.34461   0.12545201    11291.902     1000 
   54000   0.55215067   -2.1025741   0.82739778   -1.2751763   0.13019023    11251.652     1000 
   56000   0.59302559   -2.1222848   0.88864884    -1.233636   0.12742851    11377.478     1000 
   58000   0.60120694   -2.1868268   0.90090859   -1.2859182   0.12948857    11422.223     1000 
   60000   0.56663491   -2.1155249   0.84910241   -1.2664225   0.14801014    11079.262     1000 
   62000   0.55480176   -2.1777903   0.83137044   -1.3464199   0.13931656    11316.779     1000 
   64000   0.55713102   -2.0920136   0.83486083   -1.2571528   0.12837015    11337.211     1000 
   66000   0.55166478   -2.1867461   0.82666968   -1.3600764   0.11804811    11543.324     1000 
   68000     0.557075   -2.1462239   0.83477689    -1.311447   0.13043954    11328.864     1000 
   70000   0.55482166   -2.1533013   0.83140025   -1.3219011   0.12767455    11256.286     1000 
   72000   0.55246379   -2.2586851   0.82786699   -1.4308182    0.1279272    11447.667     1000 
   74000   0.54493338   -2.1651621   0.81658267   -1.3485794   0.12155237    11231.828     1000 
   76000   0.56710707    -2.144677   0.84980995    -1.294867   0.13802781    11211.451     1000 
   78000   0.56390285   -2.1669097   0.84500842   -1.3219013   0.12769605    11202.503     1000 
   80000    0.5745977   -2.1568104   0.86103465   -1.2957758   0.13617717    11284.638     1000 
   82000   0.54521739   -2.1781953   0.81700825   -1.3611871   0.13332907    11468.944     1000 
   84000   0.56217739   -2.1629573   0.84242282   -1.3205344    0.1273295    11371.859     1000 
   86000   0.55680065   -2.1234948   0.83436577   -1.2891291   0.13509531    11247.997     1000 
   88000   0.54535761   -2.1699758   0.81721838   -1.3527574   0.11951312    11452.375     1000 
   90000    0.5659577   -2.1559198   0.84808761   -1.3078322   0.13406599    11274.997     1000 
   92000   0.53733397   -2.2124154   0.80519495   -1.4072205   0.13545338    11321.238     1000 
   94000   0.56128099   -2.1399984   0.84107956   -1.2989188   0.13408969    11320.753     1000 
   96000   0.56151386   -2.1748168   0.84142853   -1.3333883   0.13452399    11330.168     1000 
   98000   0.57098973   -2.1146544   0.85562811   -1.2590263   0.13346913    11282.471     1000 
  100000   0.56181424    -2.166918   0.84187865   -1.3250394   0.12913439    11378.192     1000 
  102000   0.59644287   -2.1271742   0.89376965   -1.2334045    0.1353258    11308.671     1000 
  104000   0.56331768   -2.1505838   0.84413154   -1.3064523   0.12806583    11330.142     1000 
  106000    0.5426159   -2.1266714   0.81310993   -1.3135615   0.12658512    11273.031     1000 
  108000   0.56371421   -2.1728497   0.84472574    -1.328124   0.14241506    11327.549     1000 
  110000   0.54479503   -2.1617621   0.81637535   -1.3453868   0.12060146    11467.314     1000 
  112000   0.55723294   -2.1585024   0.83501356   -1.3234888   0.12682137    11330.345     1000 
  114000   0.56418557   -2.1589823   0.84543207   -1.3135503    0.1385549    11332.859     1000 
  116000   0.54335141   -2.1656387   0.81421208   -1.3514266   0.14484352    11309.177     1000 
  118000   0.57744188   -2.1565777   0.86529666    -1.291281   0.11731751    11482.069     1000 
  120000   0.57083368   -2.1537625   0.85539427   -1.2983682   0.14079677    11365.738     1000 
  122000   0.54984771   -2.1352176   0.82394679   -1.3112708   0.12329714    11249.537     1000 
  124000   0.56822801   -2.1537162   0.85148967   -1.3022265   0.12379676    11400.235     1000 
  126000   0.55304152   -2.1487227   0.82873271     -1.31999   0.12555587    11286.216     1000 
  128000   0.57674098   -2.1867295   0.86424636   -1.3224831   0.12929806    11432.442     1000 
  130000   0.55150078   -2.1366359   0.82642392   -1.3102119    0.1304245    11360.069     1000 
  132000   0.53225754   -2.1301106   0.79758792   -1.3325227   0.12880143    11318.338     1000 
  134000   0.58636327   -2.1516746   0.87866536   -1.2730092   0.14076661    11395.203     1000 
  136000   0.54143783   -2.2425783   0.81134459   -1.4312337   0.11166831    11470.211     1000 
  138000   0.56014192   -2.1579052   0.83937267   -1.3185325   0.13359975    11331.275     1000 
  140000   0.54872774   -2.0742791   0.82226852   -1.2520106   0.13476273    11365.611     1000 
  142000   0.57774567   -2.1308565   0.86575189   -1.2651046   0.12110203    11390.494     1000 
  144000   0.54787571   -2.1651125   0.82099176   -1.3441208     0.130131    11353.778     1000 
  146000   0.55943747    -2.138568   0.83831705    -1.300251   0.13478388    11222.645     1000 
  148000   0.54187839   -2.1526542   0.81200476   -1.3406494   0.12442917    11507.133     1000 
  150000   0.56305238   -2.1753975   0.84373399   -1.3316635   0.10992557    11468.305     1000 
  152000   0.55526451   -2.1383589   0.83206387   -1.3062951   0.12339068    11258.867     1000 
  154000   0.56554294   -2.1930699    0.8474661   -1.3456038   0.13722541    11401.506     1000 
  156000   0.54916456   -2.1404001    0.8229231    -1.317477   0.12426297    11366.581     1000 
  158000   0.57575584   -2.1761128   0.86277013   -1.3133427    0.1111296     11506.47     1000 
  160000   0.55308473   -2.1469358   0.82879746   -1.3181384   0.12851138     11426.38     1000 
  162000   0.58588618   -2.2054361   0.87795043   -1.3274856   0.13213143    11322.026     1000 
  164000   0.54827044   -2.1276129   0.82158325   -1.3060296    0.1364858    11139.967     1000 
  166000   0.55224783   -2.1527233   0.82754337   -1.3251799   0.13337205    11340.338     1000 
  168000   0.57499971   -2.1433914   0.86163706   -1.2817543   0.13379526    11170.146     1000 
  170000    0.5642495   -2.1773411   0.84552787   -1.3318132   0.12537911    11477.348     1000 
  172000   0.54144374   -2.1021136   0.81135344   -1.2907602   0.12164287    11306.218     1000 
  174000   0.56326782   -2.2020431   0.84405683   -1.3579863   0.12791253    11485.659     1000 
  176000   0.57204251   -2.1841398   0.85720571   -1.3269341   0.13572824    11362.562     1000 
  178000   0.56766358    -2.104091   0.85064387   -1.2534472   0.12754015    11335.898     1000 
  180000   0.56856575   -2.1612557   0.85199578   -1.3092599   0.12666758    11296.451     1000 
  182000   0.57079282   -2.1836809   0.85533305   -1.3283479   0.13503236    11288.807     1000 
  184000   0.57232794    -2.202125   0.85763342   -1.3444916   0.11975684    11571.837     1000 
  186000   0.55888194   -2.1390965   0.83748459   -1.3016119   0.13509974    11336.959     1000 
  188000   0.55836077   -2.1018392   0.83670361   -1.2651356   0.12806924    11291.506     1000 
  190000   0.55102302   -2.1879021     0.825708   -1.3621941   0.13458327    11235.953     1000 
  192000   0.57883649   -2.2238865   0.86738648      -1.3565   0.13027873    11278.478     1000 
  194000    0.5687431   -2.1220839   0.85226153   -1.2698224   0.13379585    11295.327     1000 
  196000   0.56294354   -2.1717263   0.84357089   -1.3281555   0.12537563    11361.177     1000 
  198000   0.54214701   -2.1678991   0.81240729   -1.3554918   0.12494251    11361.704     1000 
  200000   0.56275123   -2.1310459   0.84328271   -1.2877632   0.14456309    11188.556     1000 
  202000   0.57364334   -2.1505186   0.85960455    -1.290914   0.14115489    11229.863     1000 
  204000   0.54546194   -2.1183993   0.81737471   -1.3010246   0.11577522    11332.306     1000 
  206000   0.57295935   -2.1996461   0.85857959   -1.3410666   0.12770686    11445.778     1000 
  208000    0.5479372    -2.127417   0.82108389   -1.3063331    0.1355924    11272.538     1000 
  210000    0.5514482   -2.2052913   0.82634513   -1.3789462   0.12819564    11385.356     1000 
  212000   0.54998159   -2.2133954   0.82414742    -1.389248   0.12237017    11333.445     1000 
  214000   0.54953969   -2.1739398   0.82348523   -1.3504545   0.10618719     11705.25     1000 
  216000   0.56338052   -2.1655831   0.84422571   -1.3213573   0.13633705    11232.384     1000 
  218000   0.56678502   -2.1645051   0.84932735   -1.3151777   0.13338367    11400.279     1000 
  220000   0.54202655   -2.1704123   0.81222678   -1.3581855   0.12738605    11447.286     1000 
  222000   0.57502996   -2.1300971   0.86168239   -1.2684147   0.14244471    11217.592     1000 
  224000   0.55676507   -2.1574949   0.83431246   -1.3231824   0.13545077    11346.167     1000 
  226000    0.5733207   -2.1319516   0.85912107   -1.2728305   0.14142267    11170.128     1000 
  228000   0.57754765   -2.1210957   0.86545515   -1.2556406   0.12041661    11489.535     1000 
  230000   0.56762889   -2.1524301   0.85059189   -1.3018382   0.11940477     11382.34     1000 
  232000   0.55131953   -2.1799445   0.82615232   -1.3537921     0.119138    11393.686     1000 
  234000    0.5406137   -2.1868716   0.81010962    -1.376762   0.11823742    11349.721     1000 
  236000   0.53992993   -2.0895835   0.80908499   -1.2804985   0.13421836    11107.104     1000 
  238000   0.55412025   -2.1508144   0.83034919   -1.3204652   0.13556026    11206.327     1000 
  240000   0.55546328   -2.1301274   0.83236173   -1.2977657   0.11765185    11426.046     1000 
  242000   0.54204797    -2.111748   0.81225888   -1.2994891   0.13799845    11262.464     1000 
  244000   0.57479907   -2.1679509   0.86133641   -1.3066144    0.1297134    11196.772     1000 
  246000   0.56407699   -2.1369174   0.84526937    -1.291648   0.14259599    11268.705     1000 
  248000   0.55430578   -2.1885857   0.83062722   -1.3579585   0.12455076    11290.809     1000 
  250000   0.56511484   -2.1370209   0.84682459   -1.2901963    0.1328494    11328.682     1000 
  252000   0.56324375     -2.23402   0.84402075   -1.3899993   0.12940615    11431.839     1000 
  254000   0.55046584   -2.1367165   0.82487306   -1.3118434   0.12661737    11328.591     1000 
  256000   0.55248695   -2.1830877    0.8279017    -1.355186   0.13620202    11099.345     1000 
  258000   0.53217887   -2.2164703   0.79747004   -1.4190003   0.14393622    11107.121     1000 
  260000   0.57696363   -2.1579184      0.86458   -1.2933384   0.12726617    11241.231     1000 
  262000   0.59850321   -2.1539309   0.89685706   -1.2570739   0.13473791    11319.254     1000 
  264000    0.5540482   -2.1852693   0.83024123   -1.3550281   0.13049089    11327.286     1000 
  266000   0.56187984   -2.1285157   0.84197694   -1.2865387   0.14179668    11330.421     1000 
  268000   0.55406311   -2.1843897   0.83026357   -1.3541261   0.12302725    11488.657     1000 
  270000   0.55918632   -2.1765072   0.83794071   -1.3385665   0.13571619    11245.553     1000 
  272000   0.59293347   -2.1315783    0.8885108   -1.2430675   0.13492724    11335.946     1000 
  274000   0.56105321    -2.152018   0.84073824   -1.3112798   0.13441123    11346.219     1000 
  276000   0.57632926   -2.1446387    0.8636294   -1.2810093   0.13751785    11248.168     1000 
  278000   0.56410818   -2.1635166   0.84531611   -1.3182004   0.14315777    11219.629     1000 
  280000   0.55394888   -2.1481149    0.8300924   -1.3180225   0.13647272     11243.82     1000 
  282000   0.57408424   -2.1096273   0.86026523   -1.2493621   0.13687252    11060.951     1000 
  284000   0.55255176   -2.1597532   0.82799881   -1.3317544   0.13026505    11290.744     1000 
  286000   0.52623096   -2.1662432   0.78855709   -1.3776861   0.13691702     11181.07     1000 
  288000   0.56366767   -2.1487731   0.84465601   -1.3041171   0.13929459    11177.715     1000 
  290000   0.57830065   -2.1492996   0.86658352   -1.2827161   0.12969392    11247.301     1000 
  292000   0.54543336   -2.1394739    0.8173319    -1.322142   0.13104212    11266.213     1000 
  294000   0.52416098   -2.1301335   0.78545522   -1.3446782    0.1255918    11233.369     1000 
  296000    0.5498202   -2.1913173   0.82390556   -1.3674117   0.13293527    11402.486     1000 
  298000   0.54604923    -2.187254   0.81825477   -1.3689992   0.12938666    11301.259     1000 
  300000   0.54995834    -2.144549   0.82411257   -1.3204364   0.13117774    11379.352     1000 
  302000   0.55862044   -2.1385352   0.83709273   -1.3014425   0.13685971    11223.687     1000 
  304000   0.55220359   -2.1749123   0.82747708   -1.3474352   0.12607772    11337.652     1000 
  306000   0.57547426   -2.2048495   0.86234818   -1.3425013   0.12137275    11332.463     1000 
  308000   0.55500721   -2.1663994   0.83167831   -1.3347211   0.12930405    11472.267     1000 
  310000   0.56070526   -2.1867551   0.84021683   -1.3465383   0.13150439    11243.038     1000 
  312000   0.54175256   -2.1324676   0.81181621   -1.3206514   0.12370951    11150.258     1000 
  314000   0.55110137   -2.1559161   0.82582541   -1.3300907   0.12248915    11404.925     1000 
  316000   0.55128145   -2.1752958   0.82609526   -1.3492006   0.10754995    11475.471     1000 
  318000   0.54141918   -2.1792088   0.81131664   -1.3678921   0.12405722    11410.843     1000 
  320000   0.54271126    -2.151219   0.81325283   -1.3379662   0.12653951    11193.182     1000 
  322000   0.53893887    -2.148018    0.8075999   -1.3404181   0.14554445    11147.027     1000 
  324000   0.53581776   -2.1437527   0.80292291   -1.3408298   0.12159026    11296.788     1000 
  326000   0.55779198   -2.2011748   0.83585128   -1.3653235   0.12106816    11462.925     1000 
  328000    0.5368194   -2.1738453   0.80442387   -1.3694214   0.11656533     11352.68     1000 
  330000   0.56596876   -2.1189355   0.84810419   -1.2708313   0.11540503    11293.014     1000 
  332000   0.55483347   -2.1342166   0.83141796   -1.3027986   0.13218815    11266.958     1000 
  334000   0.58494685   -2.1234937   0.87654286   -1.2469508   0.13431963    11244.107     1000 
  336000   0.55821754   -2.1582469   0.83648898   -1.3217579    0.1281984    11276.449     1000 
  338000   0.56077923   -2.1946138   0.84032767   -1.3542861   0.13172485    11344.023     1000 
  340000    0.5582482   -2.1497529   0.83653493    -1.313218   0.12965803    11381.457     1000 
  342000   0.54493318   -2.1924333   0.81658238   -1.3758509   0.11724565      11633.2     1000 
  344000   0.56164215   -2.1418367   0.84162076   -1.3002159   0.13987028    11199.176     1000 
  346000   0.58712136   -2.1918225   0.87980136   -1.3120211   0.12655154    11387.952     1000 
  348000   0.57120701   -2.1398813   0.85595371   -1.2839276   0.13067979    11392.005     1000 
  350000   0.55859295   -2.1336845   0.83705154    -1.296633   0.12757515    11422.674     1000 
  352000   0.54369732   -2.1711434   0.81473043    -1.356413    0.1302455    11255.052     1000 
  354000   0.56738502    -2.211342   0.85022645   -1.3611156   0.12995234    11592.309     1000 
  356000   0.54955668   -2.1597423   0.82351069   -1.3362317    0.1236836    11359.088     1000 
  358000   0.55617777   -2.1826611   0.83343239   -1.3492288   0.12458214    11469.618     1000 
  360000   0.53537749   -2.1861318   0.80226317   -1.3838686   0.12390071    11276.517     1000 
  362000   0.58475987   -2.1586124   0.87626267   -1.2823497    0.1258591     11328.04     1000 
  364000   0.54564704    -2.213385    0.8176521   -1.3957329   0.11579488    11367.331     1000 
  366000   0.55258079   -2.1752426   0.82804231   -1.3472003   0.11107413    11406.645     1000 
  368000   0.57411705   -2.1079344    0.8603144     -1.24762   0.13291672    11322.008     1000 
  370000   0.56899851   -2.1573425   0.85264427   -1.3046983   0.13853605    11311.553     1000 
  372000   0.57480445   -2.1406054   0.86134447   -1.2792609   0.13856955    11160.855     1000 
  374000   0.54938566   -2.2002598   0.82325441   -1.3770054   0.12280978    11196.984     1000 
  376000    0.5504247   -2.1842274   0.82481141    -1.359416   0.13202927    11290.095     1000 
  378000    0.5608982   -2.0566239   0.84050595    -1.216118   0.14467987    11229.429     1000 
  380000   0.58533159   -2.1680291   0.87711939   -1.2909097   0.13487278    11403.208     1000 
  382000    0.5433142   -2.1794606   0.81415633   -1.3653043   0.12150742    11366.303     1000 
  384000    0.5781691    -2.127574   0.86638639   -1.2611876   0.12303672    11446.231     1000 
  386000   0.54369839   -2.1352881   0.81473203   -1.3205561   0.12695432    11287.787     1000 
  388000   0.56856474   -2.1421398   0.85199427   -1.2901455   0.13793237    11370.862     1000 
  390000   0.55881981   -2.2200406   0.83739148   -1.3826491   0.12359282    11493.039     1000 
  392000   0.55819925   -2.1496157   0.83646158   -1.3131542   0.12468023    11406.922     1000 
  394000   0.53441938   -2.1008171   0.80082745   -1.2999896   0.12821787    11134.473     1000 
  396000   0.54642868   -2.1945231   0.81882338   -1.3756997   0.13589999    11266.813     1000 
  398000    0.5596583   -2.1185513   0.83864796   -1.2799034   0.13795505    11140.826     1000 
  400000   0.56014974   -2.1764972   0.83938439   -1.3371128   0.13695927    11226.011     1000 
  402000   0.54790726    -2.189434   0.82103903   -1.3683949   0.11940264    11385.818     1000 
  404000   0.57909687   -2.1360344   0.86777666   -1.2682577   0.13814368    11359.536     1000 
  406000   0.57810589   -2.1386574   0.86629167   -1.2723658   0.14341186    11184.599     1000 
  408000   0.54809091   -2.1617143   0.82131422   -1.3404001   0.13446145    11324.322     1000 
  410000   0.56178356   -2.1611812   0.84183267   -1.3193485    0.1379934    11326.518     1000 
  412000   0.57548465    -2.158397   0.86236375   -1.2960332   0.13187386    11282.729     1000 
  414000   0.57376932    -2.192242   0.85979333   -1.3324487   0.12843654    11530.501     1000 
  416000   0.57903365   -2.2233194   0.86768192   -1.3556375   0.11917102    11399.177     1000 
  418000   0.56114198    -2.169241   0.84087125   -1.3283697   0.12747345    11414.025     1000 
  420000   0.55600945   -2.1956357   0.83318016   -1.3624556   0.13656709    11258.823     1000 
  422000   0.55767785   -2.1942449   0.83568025   -1.3585646    0.1238562    11280.409     1000 
  424000   0.56201655   -2.1669064   0.84218179   -1.3247246   0.12492396    11455.708     1000 
  426000   0.56906148   -2.1054518   0.85273863   -1.2527132   0.14560534    11094.848     1000 
  428000   0.57381559   -2.1156853   0.85986266   -1.2558226   0.13905625    11194.557     1000 
  430000   0.55744962   -2.1280219   0.83533825   -1.2926836   0.12733263    11209.225     1000 
  432000   0.56462933   -2.1925122   0.84609705   -1.3464151   0.13056579    11340.184     1000 
  434000   0.56084777   -2.1590545   0.84043039   -1.3186241   0.12124042    11334.331     1000 
  436000   0.55751365   -2.1486184   0.83543421   -1.3131841   0.13452991    11347.587     1000 
  438000   0.54787726   -2.1163659   0.82099407   -1.2953718   0.12605999    11436.903     1000 
  440000    0.5706166   -2.1478067   0.85506898   -1.2927377   0.13618911     11490.66     1000 
  442000     0.549723   -2.1659237   0.82375992   -1.3421638    0.1156997     11580.05     1000 
  444000   0.55753742    -2.119987   0.83546982   -1.2845172   0.14449006    11094.051     1000 
  446000   0.53966658   -2.1600656   0.80869037   -1.3513752   0.12341617     11278.33     1000 
  448000   0.54194725   -2.1657563   0.81210796   -1.3536483   0.13381172    11356.543     1000 
  450000    0.5656053   -2.1356249   0.84755954   -1.2880654   0.13275127    11312.237     1000 
  452000   0.55231554   -2.1812687   0.82764483   -1.3536239   0.13710821    11242.565     1000 
  454000   0.57047435   -2.1633983   0.85485581   -1.3085425   0.12517409    11263.726     1000 
  456000   0.57387051   -2.1798822   0.85994496   -1.3199372   0.13260631    11296.303     1000 
  458000   0.53825239   -2.2239502   0.80657121    -1.417379    0.1282061    11387.154     1000 
  460000   0.53218024    -2.193655   0.79747209    -1.396183   0.10478787     11513.11     1000 
  462000   0.54388896    -2.154295    0.8150176   -1.3392774   0.14781642    11256.789     1000 
  464000   0.58777922   -2.1435709   0.88078716   -1.2627837   0.11675178    11370.648     1000 
  466000   0.54621421   -2.2226446     0.818502   -1.4041426   0.14010282     11354.28     1000 
  468000   0.55257279   -2.2040796   0.82803033   -1.3760493   0.11877724    11607.464     1000 
  470000   0.53502208   -2.1998711   0.80173059   -1.3981405   0.12927639    11443.432     1000 
  472000    0.5660171   -2.1617333   0.84817663   -1.3135567   0.12611134    11331.369     1000 
  474000    0.5478159   -2.1807504   0.82090212   -1.3598483   0.10916872    11455.818     1000 
  476000   0.55368246   -2.1706136   0.82969316   -1.3409204   0.13502139    11302.559     1000 
  478000   0.57370604   -2.1844749    0.8596985   -1.3247764   0.13460714    11209.304     1000 
  480000   0.55150971    -2.179958    0.8264373   -1.3535207   0.13545116    11500.395     1000 
  482000   0.55995776   -2.1150113    0.8390967   -1.2759146   0.12932617    11306.878     1000 
  484000   0.57594012   -2.1349031   0.86304627   -1.2718569   0.13278281    11371.374     1000 
  486000   0.55752877   -2.1287818   0.83545686    -1.293325   0.13072447    11296.788     1000 
  488000   0.54992538   -2.1344082   0.82406319    -1.310345   0.13419321    11315.719     1000 
  490000   0.56330423   -2.1423932   0.84411139   -1.2982818   0.13890635    11319.484     1000 
  492000      0.56614   -2.1396509   0.84836078   -1.2912902    0.1294686    11314.149     1000 
  494000   0.56739093   -2.1825677   0.85023531   -1.3323324   0.13718211    11374.017     1000 
  496000   0.55987348    -2.104533   0.83897041   -1.2655626     0.144005    11175.681     1000 
  498000   0.55881705   -2.1803737   0.83738735   -1.3429864   0.12159435    11475.108     1000 
  500000   0.53425175   -2.1387388   0.80057625   -1.3381625   0.13343618    11374.433     1000 
  502000   0.57080468   -2.2096071   0.85535082   -1.3542563   0.13992919    11391.121     1000 
  504000   0.58569832   -2.1610844   0.87766894   -1.2834154   0.13684505     11314.61     1000 
  506000   0.55473957   -2.1963875   0.83127725   -1.3651102   0.14033957    11324.627     1000 
  508000   0.54591895   -2.1566823   0.81805955   -1.3386228   0.11441923    11441.259     1000 
  510000   0.57701963   -2.1613358   0.86466391   -1.2966719   0.13043726    11337.549     1000 
  512000   0.58503435    -2.183076   0.87667398    -1.306402   0.14856746     11213.81     1000 
  514000   0.58168567   -2.2335202   0.87165598   -1.3618642   0.14004713    11304.011     1000 
  516000   0.55810793   -2.2007742   0.83632473   -1.3644495   0.13291235    11342.063     1000 
  518000   0.56222109   -2.0881298   0.84248831   -1.2456415   0.11004369    11363.599     1000 
  520000   0.57972665   -2.1415418   0.86872039   -1.2728214   0.12570804    11363.331     1000 
  522000   0.56356744    -2.118562   0.84450581   -1.2740562   0.14396545    11190.871     1000 
  524000   0.53023688   -2.1697913   0.79455996   -1.3752313   0.11618292    11424.397     1000 
  526000    0.5699167   -2.1756086   0.85402018   -1.3215884   0.13293397    11512.584     1000 
  528000   0.56204051   -2.1433478   0.84221771     -1.30113   0.12652808    11332.163     1000 
  530000   0.57388657   -2.1515619   0.85996902   -1.2915929   0.12134022    11319.549     1000 
  532000   0.55947036   -2.1639665   0.83836633   -1.3256001   0.13366453    11388.443     1000 
  534000   0.56556907   -2.1330006   0.84750526   -1.2854954   0.13714658    11163.367     1000 
  536000   0.55658518   -2.1727831   0.83404289   -1.3387402   0.13006333    11437.835     1000 
  538000   0.56549243   -2.1972338    0.8473904   -1.3498434   0.12803076    11499.766     1000 
  540000   0.55335146   -2.1067311   0.82919717   -1.2775339    0.1286706    11125.798     1000 
  542000   0.57525383   -2.1433221   0.86201786   -1.2813042   0.12716521    11418.633     1000 
  544000   0.58282272   -2.1498044   0.87335985   -1.2764445   0.14532091    11060.399     1000 
  546000   0.54544682   -2.1501711   0.81735206    -1.332819   0.13349289    11465.442     1000 
  548000   0.53004106   -2.1631202   0.79426654   -1.3688536   0.13426042    11330.226     1000 
  550000   0.57362809   -2.1565615   0.85958169   -1.2969798   0.12594157    11339.982     1000 
  552000   0.54525259    -2.116362     0.817061    -1.299301   0.12575959    11332.061     1000 
  554000   0.56773932   -2.1371185   0.85075737   -1.2863611   0.12476424    11448.276     1000 
  556000   0.56002965   -2.1774607   0.83920442   -1.3382563   0.13863397    11211.746     1000 
  558000   0.56810284   -2.1913252   0.85130211   -1.3400231    0.1246077    11435.989     1000 
  560000   0.55400299    -2.163757   0.83017348   -1.3335835   0.12383302    11384.876     1000 
  562000   0.53960832   -2.1353904   0.80860307   -1.3267873   0.13695308    11285.778     1000 
  564000   0.54676483   -2.1764336    0.8193271   -1.3571065   0.13010401    11359.491     1000 
  566000   0.56104571   -2.1532058   0.84072699   -1.3124788   0.11335198    11415.827     1000 
  568000   0.56234012   -2.1211229   0.84266667   -1.2784563   0.15028086    11150.725     1000 
  570000   0.54262814   -2.1696061   0.81312827   -1.3564778   0.13365417    11547.609     1000 
  572000   0.55931448   -2.1911391   0.83813275   -1.3530063    0.1024201     11578.68     1000 
  574000   0.54478785   -2.1646269   0.81636459   -1.3482623   0.14319489    11234.238     1000 
  576000   0.57563518   -2.1604002   0.86258932   -1.2978108   0.11740977    11394.764     1000 
  578000   0.57753573    -2.139951   0.86543729   -1.2745137   0.12424027     11334.77     1000 
  580000   0.55408133   -2.1262371   0.83029087   -1.2959462   0.12430967    11320.342     1000 
  582000   0.55256281   -2.1737326   0.82801537   -1.3457172    0.1222308    11365.291     1000 
  584000   0.58859198   -2.1273172   0.88200508   -1.2453121   0.14154027    11299.766     1000 
  586000   0.55634504   -2.1403144   0.83368304   -1.3066313    0.1252038    11308.461     1000 
  588000     0.546937   -2.2368682    0.8195851   -1.4172831   0.12278056    11458.954     1000 
  590000   0.55879001   -2.1410218   0.83734683    -1.303675   0.14008343    11202.425     1000 
  592000   0.54037131   -2.1906967   0.80974641   -1.3809503   0.14338614    11364.729     1000 
  594000   0.55946712   -2.1419467   0.83836147   -1.3035852   0.11014453    11416.911     1000 
  596000   0.54017601   -2.1592128   0.80945375   -1.3497591   0.13046734    11502.017     1000 
  598000   0.58151574    -2.136992   0.87140134   -1.2655907   0.12074863    11487.571     1000 
  600000   0.57616282   -2.2216614   0.86337998   -1.3582814   0.13196088    11465.976     1000 
  602000   0.55065105   -2.1816122    0.8251506   -1.3564616   0.12734983    11244.861     1000 
  604000   0.56607212   -2.1639272   0.84825907   -1.3156681   0.13116543    11394.553     1000 
  606000   0.54400497   -2.2016915   0.81519144   -1.3865001   0.13188018    11207.385     1000 
  608000   0.54777123   -2.1646543   0.82083518   -1.3438191   0.12026598    11433.238     1000 
  610000   0.56709856   -2.1435744   0.84979719   -1.2937772   0.12950537    11240.503     1000 
  612000    0.5538573   -2.1079595   0.82995516   -1.2780044   0.14370116    11177.498     1000 
  614000   0.54023401   -2.1439307   0.80954066     -1.33439   0.13094914    11232.347     1000 
  616000   0.55940612   -2.1797416   0.83827006   -1.3414715   0.12583176    11418.459     1000 
  618000   0.54859462   -2.1846197   0.82206904   -1.3625507   0.12922534    11254.107     1000 
  620000   0.54483762   -2.1779872   0.81643917   -1.3615481   0.13459754    11241.183     1000 
  622000   0.57403633    -2.115427   0.86019344   -1.2552336   0.14417068     11097.13     1000 
  624000   0.54264003   -2.1596002   0.81314608   -1.3464541   0.11640499    11475.489     1000 
  626000   0.58905551   -2.1755819   0.88269968   -1.2928822   0.13553697    11208.646     1000 
  628000   0.56001199   -2.1146542   0.83917797   -1.2754762    0.1343222    11215.354     1000 
  630000   0.55024951   -2.0937917   0.82454889   -1.2692428   0.13678351    11302.241     1000 
  632000   0.54499048   -2.1584965   0.81666823   -1.3418283   0.12751811    11263.689     1000 
  634000   0.55608921   -2.1600745   0.83329969   -1.3267748   0.13150295    11358.855     1000 
  636000   0.53940413    -2.120773   0.80829708   -1.3124759   0.12518775    11229.277     1000 
  638000   0.53935679   -2.1428665   0.80822614   -1.3346404   0.13643531    11253.349     1000 
  640000   0.53140751   -2.1654683   0.79631415   -1.3691542   0.12802101    11213.712     1000 
  642000   0.54034917   -2.2119342   0.80971324    -1.402221   0.11966905    11432.495     1000 
  644000   0.54923567   -2.1556452   0.82302965   -1.3326156   0.13913993    11268.375     1000 
  646000   0.58363956   -2.1634107   0.87458388   -1.2888268   0.13303405    11453.684     1000 
  648000   0.58020741   -2.1677766    0.8694408   -1.2983358   0.12520683    11393.317     1000 
  650000   0.56050123   -2.1388946    0.8399111   -1.2989835   0.14027588    11353.014     1000 
  652000   0.56635099   -2.1899565   0.84867696   -1.3412795   0.14217768    11379.039     1000 
  654000   0.54839841   -2.1713434   0.82177501   -1.3495684   0.14188171    11302.315     1000 
  656000   0.56848422   -2.1323159   0.85187361   -1.2804423   0.12884284     11340.62     1000 
  658000   0.54903186     -2.21813   0.82272425   -1.3954057   0.13847208     11303.28     1000 
  660000   0.55777293    -2.158513   0.83582273   -1.3226902   0.13356186    11369.922     1000 
  662000   0.55140551   -2.1375444   0.82628116   -1.3112632   0.13553157    11220.182     1000 
  664000   0.54360414   -2.1803441   0.81459081   -1.3657533   0.12079364    11300.518     1000 
  666000    0.5561791   -2.1545952   0.83343438   -1.3211608   0.13078264    11216.897     1000 
  668000   0.56199833   -2.1101328    0.8421545   -1.2679783   0.13240648    11231.143     1000 
  670000   0.52604639   -2.1753508   0.78828051   -1.3870703   0.13662491    11378.376     1000 
  672000   0.55384287   -2.1677177   0.82993354   -1.3377842   0.12496398    11244.534     1000 
  674000   0.55791734   -2.1915347   0.83603914   -1.3554956   0.13670301    11282.914     1000 
  676000   0.56742335   -2.1567374   0.85028389   -1.3064535   0.12935917    11451.595     1000 
  678000   0.59779993   -2.1900916   0.89580319   -1.2942884    0.1322025    11501.585     1000 
  680000   0.54809557   -2.1202768   0.82132121   -1.2989556   0.12170239    11393.018     1000 
  682000   0.57002828   -2.1428017   0.85418738   -1.2886143   0.12750373    11487.209     1000 
  684000   0.55728232   -2.1532228   0.83508755   -1.3181353   0.13571545    11188.583     1000 
  686000   0.56792308   -2.1510083   0.85103273   -1.2999755   0.13634352    11115.401     1000 
  688000   0.55841198   -2.1489233   0.83678035    -1.312143   0.12198779    11521.784     1000 
  690000    0.5595648   -2.1855677   0.83850786   -1.3470598   0.13633274    11347.208     1000 
  692000   0.57154544   -2.1463658   0.85646085   -1.2899049   0.13870832    11260.763     1000 
  694000   0.55670834   -2.1652826   0.83422744   -1.3310551   0.12699767    11237.486     1000 
  696000   0.55417776   -2.1691889   0.83043538   -1.3387536   0.11619068    11497.396     1000 
  698000   0.55145717   -2.1539467   0.82635856   -1.3275882   0.13290613    11330.178     1000 
  700000   0.55542342   -2.1629616   0.83230199   -1.3306596   0.13687721    11227.285     1000 
  702000   0.59683879   -2.1644082   0.89436293   -1.2700453   0.11220491    11559.399     1000 
  704000   0.56060713   -2.1391282   0.84006978   -1.2990584   0.13615526    11155.094     1000 
  706000   0.55487715   -2.1710839   0.83148341   -1.3396005   0.13433113    11265.815     1000 
  708000    0.5568935    -2.132765   0.83450491   -1.2982601   0.12887406    11324.593     1000 
  710000   0.58348502   -2.1509079    0.8743523   -1.2765556    0.1298942     11300.27     1000 
  712000   0.58428288   -2.2015606   0.87554789   -1.3260128   0.12471267    11524.573     1000 
  714000   0.56082164   -2.2270549   0.84039122   -1.3866636   0.12376893      11453.3     1000 
  716000    0.5498715   -2.1559668   0.82398244   -1.3319844   0.12919121    11465.732     1000 
  718000    0.5516445   -2.1599966   0.82663928   -1.3333573   0.14371063    11045.251     1000 
  720000   0.56091067    -2.128203   0.84052464   -1.2876783   0.14835066    11242.419     1000 
  722000   0.55697779   -2.1769382   0.83463122    -1.342307   0.12244514    11420.573     1000 
  724000   0.55370373   -2.1541297   0.82972505   -1.3244046   0.12812021    11322.588     1000 
  726000   0.53716191   -2.1554386   0.80493713   -1.3505015   0.12266147    11223.257     1000 
  728000   0.54324801    -2.165496   0.81405714   -1.3514389   0.13643048    11219.774     1000 
  730000   0.60226503   -2.1280334   0.90249414   -1.2255392   0.12629058     11495.73     1000 
  732000   0.55414742   -2.1394119   0.83038991    -1.309022   0.12142924    11429.734     1000 
  734000   0.54674019   -2.1584629   0.81929018   -1.3391727   0.11828427    11455.521     1000 
  736000   0.54512446    -2.167827   0.81686901    -1.350958   0.12152659    11425.372     1000 
  738000   0.54593549   -2.1115499   0.81808433   -1.2934656    0.1284683    11174.703     1000 
  740000   0.56298864   -2.1479323   0.84363847   -1.3042938    0.1234898    11332.772     1000 
  742000   0.57931652   -2.1269334   0.86810581   -1.2588276   0.12411975    11463.748     1000 
  744000   0.54101169   -2.1724496   0.81070602   -1.3617436    0.1365396    11378.749     1000 
  746000   0.56597762   -2.1812092   0.84811747   -1.3330918   0.13799096    11182.869     1000 
  748000   0.57900351   -2.2123942   0.86763676   -1.3447574   0.11155755    11555.538     1000 
  750000    0.5503635   -2.1713399    0.8247197   -1.3466202   0.13386479    11296.454     1000 
  752000   0.56742508    -2.159162   0.85028649   -1.3088755   0.13467902    11288.766     1000 
  754000   0.55816422   -2.1601067   0.83640909   -1.3236976   0.11807408    11378.649     1000 
  756000   0.56562874    -2.191916   0.84759467   -1.3443213   0.13187883    11328.305     1000 
  758000   0.54367837   -2.1463507   0.81470204   -1.3316486   0.12404695     11177.88     1000 
  760000   0.53740994   -2.1340495   0.80530879   -1.3287407   0.12703657     11325.37     1000 
  762000   0.54230047   -2.1786739   0.81263726   -1.3660367    0.1342982    11270.715     1000 
  764000   0.55174648   -2.1740495    0.8267921   -1.3472574   0.12216743     11479.45     1000 
  766000   0.53118783   -2.1581855   0.79598496   -1.3622005   0.12384156     11413.91     1000 
  768000    0.5280226     -2.15689   0.79124187   -1.3656482   0.13157498    11315.855     1000 
  770000   0.54378108   -2.1357598   0.81485595   -1.3209038   0.12222303    11351.366     1000 
  772000   0.54886904   -2.1272039   0.82248025   -1.3047236   0.13121433    11217.736     1000 
  774000    0.5423302   -2.1406083    0.8126818   -1.3279265   0.11774631    11452.216     1000 
  776000   0.53776892   -2.1748439   0.80584673   -1.3689972   0.12538822    11417.071     1000 
  778000   0.57818345   -2.1140173    0.8664079   -1.2476094   0.13098436    11340.915     1000 
  780000   0.52702485   -2.1844829   0.78974674   -1.3947362   0.12185824     11511.22     1000 
  782000   0.54861486   -2.1275605   0.82209937   -1.3054611   0.13232113    11272.839     1000 
  784000   0.57067377   -2.1537211   0.85515465   -1.2985664   0.11745675    11445.888     1000 
  786000   0.58497289   -2.1358759   0.87658188    -1.259294   0.13721368    11324.583     1000 
  788000   0.55812554   -2.1359509   0.83635113   -1.2995998   0.13639213    11073.049     1000 
  790000   0.55829677    -2.157587   0.83660771   -1.3209793   0.13109375    11301.171     1000 
  792000   0.54078426   -2.1916193   0.81036522   -1.3812541   0.11849566    11523.951     1000 
  794000   0.57275931   -2.1599559   0.85827982   -1.3016761   0.14867683    11188.608     1000 
  796000   0.54649319   -2.1480959   0.81892005   -1.3291759   0.12615224    11456.516     1000 
  798000   0.57386746   -2.1919557   0.85994039   -1.3320153   0.14335931     11305.89     1000 
  800000   0.55135979   -2.1234273   0.82621264   -1.2972146   0.13870931    11250.639     1000 
  802000   0.56623648   -2.1759938   0.84850536   -1.3274885   0.12458582      11235.4     1000 
  804000   0.53855187   -2.1872344   0.80701997   -1.3802145   0.12743495    11421.905     1000 
  806000   0.52516999   -2.1321916   0.78696723   -1.3452244   0.12136115    11440.294     1000 
  808000   0.56656943   -2.1854176   0.84900429   -1.3364133   0.12016852    11323.201     1000 
  810000   0.57705278   -2.1947797   0.86471359   -1.3300661   0.12807764    11408.601     1000 
  812000   0.57138072   -2.1533071   0.85621401   -1.2970931   0.12378978    11425.988     1000 
  814000   0.54647365   -2.1181232   0.81889077   -1.2992325   0.14419963    11257.693     1000 
  816000   0.56066386    -2.150199   0.84015479   -1.3100442   0.12438922    11295.344     1000 
  818000   0.58979717   -2.2070833   0.88381106   -1.3232723   0.14183978    11241.889     1000 
  820000   0.55345825   -2.1626161   0.82935718   -1.3332589   0.13860595    11211.718     1000 
  822000   0.55533258   -2.1817798   0.83216587   -1.3496139   0.12366676      11273.6     1000 
  824000   0.55534812    -2.170176   0.83218917   -1.3379868   0.12305806    11409.657     1000 
  826000   0.54808079   -2.1517571   0.82129906    -1.330458   0.12371535    11538.501     1000 
  828000   0.54153575   -2.1799633   0.81149132    -1.368472   0.12696735    11435.425     1000 
  830000   0.55486843   -2.0799583   0.83147034   -1.2484879   0.13378673     11294.89     1000 
  832000   0.58197047   -2.1862077   0.87208275   -1.3141249   0.13430157    11369.181     1000 
  834000   0.59725193   -2.1364406   0.89498202   -1.2414586   0.13131423    11328.947     1000 
  836000    0.6004629   -2.1538262   0.89979365   -1.2540326    0.1230269     11469.11     1000 
  838000   0.55077165   -2.1597127   0.82533132   -1.3343814   0.12424323    11295.095     1000 
  840000   0.55533297   -2.2254795   0.83216646    -1.393313   0.12988288     11450.72     1000 
  842000   0.58004284   -2.1757977    0.8691942   -1.3066035   0.13359595    11284.598     1000 
  844000   0.54250687   -2.1565359   0.81294655   -1.3435894    0.1298029    11303.884     1000 
  846000    0.5646303   -2.1440474   0.84609851   -1.2979489   0.11150453     11464.13     1000 
  848000   0.55074992    -2.197357   0.82529875   -1.3720583   0.12105307    11435.946     1000 
  850000   0.56717814   -2.1538223   0.84991644   -1.3039058   0.12767427     11426.73     1000 
  852000   0.54470136   -2.1661966     0.816235   -1.3499616   0.12951438    11554.435     1000 
  854000   0.54476319   -2.1576045   0.81632764   -1.3412768   0.13026057    11356.742     1000 
  856000   0.58438533   -2.1458849   0.87570142   -1.2701834   0.13657726    11317.075     1000 
  858000   0.56119911   -2.1661428   0.84095687    -1.325186   0.13500722    11270.069     1000 
  860000    0.5548104   -2.1344725   0.83138339   -1.3030891   0.12348939    11511.411     1000 
  862000    0.5706627   -2.1801589   0.85513806   -1.3250208   0.12778619    11355.049     1000 
  864000   0.55541706   -2.1808987   0.83229246   -1.3486062   0.13328311    11180.491     1000 
  866000   0.57546102   -2.1830203   0.86232834   -1.3206919   0.13099045    11240.087     1000 
  868000   0.55107506   -2.1569781   0.82578597   -1.3311921   0.13764267    11274.967     1000 
  870000     0.540457   -2.1479112   0.80987481   -1.3380364   0.13261643    11357.519     1000 
  872000   0.57016044   -2.1732629   0.85438543   -1.3188775   0.11399063    11411.709     1000 
  874000   0.58467661    -2.165487    0.8761379   -1.2893491   0.11196625    11403.007     1000 
  876000   0.54455976   -2.2279791   0.81602279   -1.4119563   0.12983389    11377.895     1000 
  878000   0.55224419   -2.1782261   0.82753792   -1.3506882   0.13130283    11354.063     1000 
  880000   0.56332375   -2.1892201   0.84414064   -1.3450794   0.12383942    11378.613     1000 
  882000   0.56473114    -2.154499   0.84624961   -1.3082493   0.14246536    11157.936     1000 
  884000    0.5586209     -2.20143   0.83709342   -1.3643366    0.1506511    11189.402     1000 
  886000   0.54460107   -2.1550938    0.8160847   -1.3390091   0.12915249    11308.601     1000 
  888000   0.54556155   -2.1448673   0.81752398   -1.3273433   0.12372434    11428.446     1000 
  890000   0.56828947   -2.1638878   0.85158177    -1.312306   0.12601999    11404.568     1000 
  892000    0.5617152    -2.100476   0.84173023   -1.2587458   0.14617563    11051.181     1000 
  894000     0.563193   -2.2067391   0.84394471   -1.3627944   0.13317492    11381.456     1000 
  896000   0.57797987    -2.124672   0.86610283   -1.2585692   0.14893789    11253.396     1000 
  898000   0.55936004   -2.1091401   0.83820102   -1.2709391   0.13830655    11387.183     1000 
  900000   0.56851975   -2.1792254   0.85192685   -1.3272986   0.14251981      11176.8     1000 
  902000   0.54987611   -2.1371736   0.82398936   -1.3131842   0.13162872    11299.402     1000 
  904000   0.55447889   -2.1761022   0.83088662   -1.3452155   0.14665812    11261.176     1000 
  906000   0.56302452   -2.1315411   0.84369224   -1.2878488   0.13106879     11247.46     1000 
  908000   0.55290402   -2.1937777   0.82852667    -1.365251   0.13160651    11319.262     1000 
  910000   0.55216907   -2.1303741   0.82742535   -1.3029487   0.13094893    11185.674     1000 
  912000    0.5443696   -2.2278909   0.81573784   -1.4121531   0.14279764    11255.807     1000 
  914000   0.55785754   -2.1315256   0.83594953   -1.2955761   0.11491213     11553.92     1000 
  916000   0.57385518    -2.172066   0.85992198    -1.312144   0.13757293     11415.77     1000 
  918000   0.53245285   -2.1481816   0.79788059    -1.350301   0.13249423    11392.473     1000 
  920000   0.56464713   -2.1713264   0.84612372   -1.3252027   0.14452691    11304.838     1000 
  922000   0.56359528   -2.1558758   0.84454753   -1.3113283   0.13270106    11449.683     1000 
  924000   0.56934593   -2.1644238   0.85316487   -1.3112589   0.13691884     11340.75     1000 
  926000   0.56070589   -2.1865407   0.84021777   -1.3463229   0.12941025    11228.839     1000 
  928000   0.57879214   -2.0929287   0.86732003   -1.2256087   0.13654508    11298.777     1000 
  930000   0.55191166   -2.1402272   0.82703963   -1.3131876   0.11937944    11305.093     1000 
  932000   0.58421396   -2.1136248   0.87544462   -1.2381802   0.13996992    11183.809     1000 
  934000   0.54530464    -2.192196     0.817139    -1.375057   0.12105503    11389.208     1000 
  936000   0.56956242   -2.2286348   0.85348928   -1.3751455   0.13110602    11358.408     1000 
  938000   0.55932552   -2.1458787   0.83814929   -1.3077294   0.14111269    11257.778     1000 
  940000   0.57763981   -2.1390413   0.86559326    -1.273448   0.11914985    11339.864     1000 
  942000   0.55132262   -2.1562234   0.82615695   -1.3300664   0.12356728    11416.911     1000 
  944000   0.55138709   -2.1427079   0.82625355   -1.3164544   0.12879377    11265.262     1000 
  946000   0.54809165   -2.1517525   0.82131533   -1.3304371   0.12042566    11486.068     1000 
  948000   0.58071419   -2.1348817   0.87020021   -1.2646815   0.12693369    11426.818     1000 
  950000   0.54669456   -2.2090334   0.81922179   -1.3898116    0.1240097    11409.221     1000 
  952000   0.55342778    -2.205159   0.82931153   -1.3758475   0.11892242    11345.926     1000 
  954000   0.57406528   -2.1619442   0.86023682   -1.3017073    0.1344998    11331.529     1000 
  956000   0.55270718   -2.1550803   0.82823171   -1.3268486   0.14146516    11158.819     1000 
  958000   0.54462358   -2.1551857   0.81611843   -1.3390673   0.13051967    11360.774     1000 
  960000   0.54981269   -2.1704543   0.82389432     -1.34656   0.12995885    11437.882     1000 
  962000   0.56961273    -2.166694   0.85356467   -1.3131294    0.1390749    11312.387     1000 
  964000   0.56335502   -2.1253295   0.84418749    -1.281142   0.12729022    11316.456     1000 
  966000   0.56039033   -2.1740571   0.83974491   -1.3343122   0.13495476    11394.718     1000 
  968000   0.54323388   -2.1566094   0.81403597   -1.3425734   0.12949886     11328.78     1000 
  970000   0.53808031   -2.2179336   0.80631334   -1.4116202   0.13500662    11298.995     1000 
  972000   0.54788272   -2.1713235   0.82100225   -1.3503212    0.1348358    11297.642     1000 
  974000   0.56956008   -2.1957828   0.85348578   -1.3422971   0.12082097    11338.612     1000 
  976000   0.55763756   -2.1235912   0.83561989   -1.2879713    0.1322703    11364.134     1000 
  978000   0.57150162   -2.1632521   0.85639518    -1.306857   0.13059465    11313.354     1000 
  980000   0.55053446   -2.1708503   0.82497589   -1.3458744   0.12645222    11309.274     1000 
  982000    0.5706707   -2.1534239   0.85515005   -1.2982738    0.1290035    11327.014     1000 
  984000   0.56470488   -2.1682262   0.84621027   -1.3220159   0.13196534    11292.171     1000 
  986000   0.52768736   -2.2131403   0.79073952   -1.4224008   0.13740886    11410.421     1000 
  988000   0.54842568   -2.1534425   0.82181587   -1.3316266   0.12642271    11406.466     1000 
  990000   0.57871138   -2.1712712     0.867199   -1.3040722   0.12560714     11302.71     1000 
  992000   0.58229705   -2.1526955   0.87257213   -1.2801233   0.13605212    11344.902     1000 
  994000   0.57433023   -2.0852778   0.86063386    -1.224644   0.14643549    10957.773     1000 
  996000   0.58425326   -2.1332391   0.87550352   -1.2577356   0.12340509    11380.848     1000 
  998000   0.56491009   -2.1692132   0.84651776   -1.3226954   0.12632639    11391.413     1000 
 1000000    0.5789804   -2.1056811   0.86760213   -1.2380789   0.13583763    11317.736     1000 
 1002000   0.56651155   -2.0976293   0.84891756   -1.2487118   0.14519616    11215.787     1000 
 1004000   0.57502542   -2.1211617   0.86167559   -1.2594862   0.12996131      11127.6     1000 
 1006000   0.54732387     -2.16182   0.82016482   -1.3416552   0.11131833    11421.921     1000 
 1008000   0.55226282   -2.1307965   0.82756584   -1.3032307   0.14610257    11043.287     1000 
 1010000   0.57618591   -2.1491879   0.86341458   -1.2857733   0.13241538    11337.266     1000 
 1012000   0.54082093   -2.1292954   0.81042017   -1.3188752   0.14124692    11130.924     1000 
 1014000   0.56786814   -2.1666461    0.8509504   -1.3156957    0.1244622    11295.637     1000 
 1016000   0.54035862   -2.1649908   0.80972739   -1.3552634   0.13222915    11199.011     1000 
 1018000   0.57958709   -2.1683764   0.86851125   -1.2998652    0.1254207    11411.422     1000 
 1020000   0.58188757   -2.1853745   0.87195852    -1.313416    0.1314072    11385.981     1000 
 1022000   0.55143382   -2.1747583   0.82632358   -1.3484347   0.13751638    11367.752     1000 
 1024000    0.5608542   -2.1466964   0.84044003   -1.3062564   0.11752383    11599.038     1000 
 1026000   0.55003983   -2.2014589   0.82423469   -1.3772242   0.13426938    11361.459     1000 
 1028000   0.53889337   -2.1664246   0.80753172   -1.3588928      0.12571     11268.11     1000 
 1030000   0.54515211   -2.0951593   0.81691044   -1.2782489   0.13509205    11238.673     1000 
 1032000   0.55330924   -2.1643099    0.8291339    -1.335176   0.13452924      11379.4     1000 
 1034000   0.57488611   -2.2212371   0.86146684   -1.3597703   0.12975346    11334.278     1000 
 1036000   0.56277681   -2.0843234   0.84332105   -1.2410024   0.12166662    11369.806     1000 
 1038000   0.55004442   -2.1741971   0.82424157   -1.3499555   0.12231222    11499.622     1000 
 1040000   0.56427726   -2.0969505   0.84556948   -1.2513811   0.11988802    11310.833     1000 
 1042000   0.56434259    -2.156598   0.84566737   -1.3109306   0.13302683    11358.285     1000 
 1044000   0.56783043    -2.170634    0.8508939   -1.3197401   0.13438088    11301.352     1000 
 1046000   0.55542387    -2.180925   0.83230266   -1.3486223   0.13101257    11297.942     1000 
 1048000   0.57386195   -2.1519822   0.85993213   -1.2920501   0.13550396    11358.205     1000 
 1050000   0.57015185   -2.1466258   0.85437255   -1.2922533   0.13785074    11228.917     1000 
 1052000    0.5515689   -2.1460098     0.826526   -1.3194838   0.12461697    11329.136     1000 
 1054000   0.56045279   -2.1637602   0.83983851   -1.3239217    0.1152574     11433.97     1000 
 1056000   0.52708421   -2.2178668   0.78983568   -1.4280311   0.12509809    11364.768     1000 
 1058000   0.54553572   -2.1658156   0.81748528   -1.3483304   0.12429629    11369.495     1000 
 1060000   0.56930566   -2.1926927   0.85310454   -1.3395882   0.13964789    11329.652     1000 
 1062000   0.58436974   -2.0966399   0.87567805   -1.2209619   0.14739207     11151.68     1000 
 1064000   0.53045057   -2.1612114   0.79488018   -1.3663313    0.1165055    11465.776     1000 
 1066000   0.58060934   -2.2101612    0.8700431   -1.3401181   0.12518603    11442.532     1000 
 1068000   0.55160384   -2.1953277   0.82657835   -1.3687493   0.12361946     11486.12     1000 
 1070000   0.55756228   -2.1689817   0.83550708   -1.3334746   0.12276238    11390.147     1000 
 1072000   0.55229049   -2.1258564   0.82760729   -1.2982491   0.13341724    11155.143     1000 
 1074000   0.56985575   -2.1672579   0.85392884    -1.313329   0.13484154    11238.021     1000 
 1076000   0.57690154   -2.1797306   0.86448696   -1.3152437    0.1169036    11386.936     1000 
 1078000   0.55281768   -2.1538607    0.8283973   -1.3254634   0.12817806    11244.406     1000 
 1080000   0.57706852    -2.172292   0.86473718   -1.3075548   0.11800371     11401.41     1000 
 1082000   0.55781238   -2.1464289   0.83588185   -1.3105471   0.12904302    11345.436     1000 
 1084000   0.56091475   -2.1560123   0.84053075   -1.3154816   0.14032957    11304.073     1000 
 1086000   0.57129284    -2.127996   0.85608232   -1.2719137   0.12411938    11324.633     1000 
 1088000   0.58123032   -2.1874544   0.87097363   -1.3164808   0.12538072    11591.192     1000 
 1090000   0.57115485    -2.156904   0.85587554   -1.3010284   0.11720714    11429.186     1000 
 1092000   0.56689121   -2.1450382   0.84948648   -1.2955517   0.13543189    11138.209     1000 
 1094000    0.5549896   -2.1914397   0.83165192   -1.3597878   0.13210839    11309.559     1000 
 1096000   0.57922564   -2.1919775   0.86796963   -1.3240078   0.12702626    11322.694     1000 
 1098000   0.53719511   -2.1974138   0.80498687    -1.392427   0.11971163    11433.404     1000 
 1100000   0.57739438    -2.129923   0.86522548   -1.2646975   0.13152067    11221.683     1000 
 1102000   0.57636487   -2.1748904   0.86368276   -1.3112077   0.12025301    11392.449     1000 
 1104000   0.56580163   -2.1822659   0.84785375   -1.3344121   0.13162628    11423.808     1000 
 1106000   0.56185389   -2.2004413   0.84193806   -1.3585033   0.12957219    11446.725     1000 
 1108000   0.55929345   -2.1841972   0.83810123    -1.346096   0.12071456    11443.392     1000 
 1110000     0.561715   -2.1645772   0.84172992   -1.3228473   0.14195784    11273.144     1000 
 1112000   0.54659726   -2.1282532     0.819076   -1.3091772   0.13993467    11263.217     1000 
 1114000   0.57092374   -2.1727774   0.85552922   -1.3172482   0.13018677    11456.261     1000 
 1116000   0.58539756   -2.1590384   0.87721825   -1.2818201    0.1327256    11498.146     1000 
 1118000   0.56608352   -2.1916845   0.84827616   -1.3434083   0.10966996    11327.834     1000 
 1120000   0.57138612   -2.1813598   0.85622211   -1.3251377   0.13184016    11342.078     1000 
 1122000    0.5870435   -2.1287895   0.87968469   -1.2491048   0.12914293    11352.854     1000 
 1124000   0.57389147   -2.1726363   0.85997637   -1.3126599   0.13441898    11363.737     1000 
 1126000   0.53795129   -2.2076596   0.80612001   -1.4015395   0.12288728    11573.963     1000 
 1128000   0.55389417   -2.1943431   0.83001041   -1.3643327   0.13493348    11435.303     1000 
 1130000   0.57630923   -2.1884939   0.86359938   -1.3248945   0.12225078    11426.591     1000 
 1132000    0.5515827   -2.1763547   0.82654667   -1.3498081   0.12360917    11313.122     1000 
 1134000   0.56325563   -2.1585985   0.84403856   -1.3145599   0.14000735    11286.147     1000 
 1136000   0.57220245    -2.201275   0.85744537   -1.3438296   0.13541748     11392.27     1000 
 1138000   0.56420844   -2.1235794   0.84546635   -1.2781131   0.12517298    11199.248     1000 
 1140000   0.56921076   -2.1380254   0.85296232   -1.2850631   0.12562799    11478.736     1000 
 1142000   0.55946513   -2.1249488   0.83835849   -1.2865903   0.12716707     11300.53     1000 
 1144000   0.58302256   -2.2742545    0.8736593   -1.4005952   0.12547421    11428.375     1000 
 1146000   0.55077436   -2.1096684   0.82533538    -1.284333   0.12760244    11379.478     1000 
 1148000   0.59166042   -2.1562542   0.88660313   -1.2696511    0.1387709    11316.816     1000 
 1150000   0.53811064   -2.1355637    0.8063588   -1.3292049   0.13900868    11314.713     1000 
 1152000   0.55224916   -2.1600551   0.82754536   -1.3325097   0.13880894    11311.261     1000 
 1154000   0.55383479   -2.1620972   0.82992143   -1.3321758   0.13056079    11249.225     1000 
 1156000    0.5585243   -2.1352561   0.83694866   -1.2983075   0.14792405    11217.673     1000 
 1158000   0.59648579   -2.1515197   0.89383396   -1.2576857   0.13456398    11306.122     1000 
 1160000   0.57913793   -2.1683445   0.86783818   -1.3005064   0.13741623    11309.696     1000 
 1162000   0.57708698   -2.1695502   0.86476484   -1.3047854    0.1488151    11236.886     1000 
 1164000   0.54898753   -2.1691659   0.82265781   -1.3465081   0.13203483    11341.306     1000 
 1166000   0.57185981   -2.1531717   0.85693193   -1.2962398   0.12980893     11552.74     1000 
 1168000   0.52889741   -2.1556152   0.79255277   -1.3630624   0.12873272    11228.853     1000 
 1170000   0.55889371   -2.1921927   0.83750223   -1.3546904   0.11269491    11467.441     1000 
 1172000   0.58748624   -2.1457114   0.88034814   -1.2653633   0.13332693    11394.279     1000 
 1174000   0.56662345   -2.0975059   0.84908524   -1.2484207   0.13307899    11283.887     1000 
 1176000    0.5438509   -2.1727469   0.81496057   -1.3577863   0.13953368    11237.669     1000 
 1178000   0.56225417   -2.1533048   0.84253788   -1.3107669   0.13033094    11226.397     1000 
 1180000   0.55493449   -2.1638243   0.83156934   -1.3322549   0.12670603    11269.719     1000 
 1182000   0.56398268   -2.1762091   0.84512804    -1.331081    0.1316602    11495.822     1000 
 1184000   0.56737241    -2.142344   0.85020756   -1.2921364   0.12674447    11417.639     1000 
 1186000   0.56347681   -2.2293873      0.84437   -1.3850173   0.12297031    11429.634     1000 
 1188000   0.57089645   -2.1683008   0.85548833   -1.3128125   0.14262244    11199.977     1000 
 1190000    0.5515437   -2.1722974   0.82648824   -1.3458092   0.12510462    11298.359     1000 
 1192000   0.55940307   -2.1351129    0.8382655   -1.2968474   0.12962324    11333.617     1000 
 1194000   0.53012537   -2.1458818   0.79439287    -1.351489   0.13104119    11313.319     1000 
 1196000   0.57543145   -2.0920914   0.86228403   -1.2298074   0.14420189    11184.683     1000 
 1198000   0.53122168   -2.1926643   0.79603569   -1.3966286   0.11830728    11444.123     1000 
 1200000   0.56887268   -2.1092668   0.85245571   -1.2568111   0.12689663    11450.213     1000 
 1202000   0.57828177   -2.1786264   0.86655524   -1.3120712   0.13446241    11244.878     1000 
 1204000   0.56274749   -2.1461011   0.84327711    -1.302824   0.13147046    11292.442     1000 
 1206000   0.54096808   -2.1353356   0.81064067   -1.3246949   0.14014122    11240.226     1000 
 1208000   0.55788687   -2.1424096   0.83599347   -1.3064162   0.12162417    11343.646     1000 
 1210000   0.58672598   -2.1348463   0.87920888   -1.2556374   0.13758999    11219.893     1000 
 1212000   0.56683622   -2.1474465   0.84940408   -1.2980424    0.1323006    11411.358     1000 
 1214000   0.57456019   -2.1835286   0.86097844   -1.3225501   0.13213091    11298.108     1000 
 1216000   0.53409005   -2.1657375   0.80033394   -1.3654035   0.13068434    11272.249     1000 
 1218000    0.5672253   -2.1583968   0.84998711   -1.3084097   0.11908023    11414.852     1000 
 1220000    0.5606205   -2.0856601   0.84008982   -1.2455702   0.13439186    11165.787     1000 
 1222000   0.55115242   -2.1764967   0.82590191   -1.3505948   0.13451349    11244.904     1000 
 1224000   0.57152255    -2.133733   0.85642654   -1.2773065   0.13708394     11180.54     1000 
 1226000   0.59095715   -2.1812871   0.88554928   -1.2957378   0.13125091     11322.58     1000 
 1228000   0.56804139   -2.2263467   0.85121002   -1.3751367   0.11892492    11447.142     1000 
 1230000   0.55669822   -2.1648578   0.83421228   -1.3306455    0.1248785    11405.453     1000 
 1232000   0.55715849   -2.1566126   0.83490199   -1.3217106   0.14440868    11103.028     1000 
 1234000   0.54640178   -2.1366983   0.81878307   -1.3179153   0.12543108    11421.904     1000 
 1236000   0.57426245   -2.1719782   0.86053228   -1.3114459   0.13595699    11355.369     1000 
 1238000   0.56714736   -2.1588567   0.84987031   -1.3089864    0.1419585    11223.478     1000 
 1240000   0.55824471    -2.156163    0.8365297   -1.3196333     0.126658    11449.327     1000 
 1242000   0.55455066   -2.1480773   0.83099417   -1.3170831   0.13077101    11298.426     1000 
 1244000   0.54031708    -2.205249   0.80966515   -1.3955839   0.12789968    11313.805     1000 
 1246000   0.56482022    -2.175853    0.8463831   -1.3294699   0.13210935    11258.816     1000 
 1248000   0.53669841   -2.2020633   0.80424256   -1.3978208   0.13582951    11224.815     1000 
 1250000   0.60820877   -2.1543912   0.91140084   -1.2429903   0.11847789    11551.167     1000 
 1252000   0.54281666   -2.1943127   0.81341076    -1.380902   0.13756263    11219.887     1000 
 1254000    0.5568094   -2.1319024   0.83437888   -1.2975235   0.12993899     11355.83     1000 
 1256000   0.56108074   -2.1823988   0.84077948   -1.3416193   0.12918696    11398.392     1000 
 1258000   0.58681576   -2.1692602   0.87934342   -1.2899168   0.12160853    11306.672     1000 
 1260000   0.55011868   -2.1565951   0.82435285   -1.3322423   0.13145252    11315.463     1000 
 1262000   0.56481308   -2.2145794   0.84637241    -1.368207   0.12277714    11431.587     1000 
 1264000   0.53977188   -2.1133832   0.80884816   -1.3045351   0.13637597     11256.68     1000 
 1266000   0.56515722    -2.187614   0.84688809   -1.3407259   0.14147509     11207.24     1000 
 1268000   0.57892036   -2.1257627   0.86751217   -1.2582505   0.14161882    11349.777     1000 
 1270000   0.55070525   -2.1788654   0.82523182   -1.3536336   0.12626579    11403.711     1000 
 1272000   0.53856049   -2.1666855   0.80703289   -1.3596526   0.13395329    11156.884     1000 
 1274000   0.56315791   -2.1460191   0.84389213    -1.302127   0.13256821    11310.283     1000 
 1276000   0.54668879   -2.1443344   0.81921315   -1.3251212   0.13447625    11277.659     1000 
 1278000   0.54693803   -2.1651805   0.81958664   -1.3455939    0.1366566    11300.825     1000 
 1280000   0.56715055   -2.1766156    0.8498751   -1.3267405    0.1227484    11512.185     1000 
 1282000   0.56386642   -2.1998539   0.84495382   -1.3549001   0.12355699    11474.343     1000 
 1284000   0.57965646   -2.2388285   0.86861521   -1.3702133   0.11131794    11400.133     1000 
 1286000   0.56400679   -2.1464655   0.84516417   -1.3013013   0.11903941    11459.974     1000 
 1288000   0.56068226   -2.1502156   0.84018237   -1.3100332   0.11852062    11395.934     1000 
 1290000   0.55512676   -2.1130545   0.83185745    -1.281197   0.12465812    11394.168     1000 
 1292000   0.56415487   -2.1896972   0.84538608   -1.3443111   0.13459474    11251.268     1000 
 1294000   0.56969625   -2.2077154   0.85368982   -1.3540256   0.13260196    11417.222     1000 
 1296000   0.53590485   -2.2013947   0.80305342   -1.3983412   0.12747881    11353.909     1000 
 1298000   0.54698575   -2.1478504   0.81965815   -1.3281923     0.131599    11306.797     1000 
 1300000   0.54554793   -2.1512575   0.81750357    -1.333754   0.13031124    11330.734     1000 
 1302000   0.55419012   -2.1928613   0.83045389   -1.3624074   0.12942336    11420.128     1000 
 1304000   0.55462526   -2.1841445   0.83110595   -1.3530385   0.13611431    11478.542     1000 
 1306000   0.53870576   -2.1769555   0.80725058   -1.3697049   0.12759752    11484.199     1000 
 1308000   0.55242716   -2.1636365    0.8278121   -1.3358244   0.13369112    11387.511     1000 
 1310000   0.56124396   -2.1829021   0.84102407    -1.341878   0.13920335    11191.569     1000 
 1312000   0.56071901   -2.1794416   0.84023744   -1.3392042   0.12937011    11318.309     1000 
 1314000     0.570044   -2.1685936   0.85421093   -1.3143827   0.13234841    11343.369     1000 
 1316000   0.56467638   -2.1748983   0.84616756   -1.3287308   0.11710604    11379.892     1000 
 1318000   0.53476546   -2.2006397   0.80134604   -1.3992937    0.1029212     11479.31     1000 
 1320000   0.55289484   -2.1946769   0.82851292    -1.366164   0.11959268    11297.248     1000 
 1322000   0.55074693    -2.185008   0.82529428   -1.3597138   0.12830663    11380.985     1000 
 1324000   0.55069557   -2.1307872   0.82521731   -1.3055699   0.13103826     11388.99     1000 
 1326000    0.5586076   -2.1699937   0.83707349   -1.3329202   0.12859845    11257.472     1000 
 1328000    0.5659163   -2.1426404   0.84802557   -1.2946149   0.13618999    11217.302     1000 
 1330000   0.56491263   -2.1634068   0.84652157   -1.3168852   0.13746364    11175.313     1000 
 1332000   0.56842518   -2.1597664   0.85178513   -1.3079813   0.13201794    11394.195     1000 
 1334000   0.53463845   -2.1451417   0.80115572    -1.343986   0.13308945    11204.588     1000 
 1336000   0.56026165   -2.1705514   0.83955208   -1.3309993   0.13747472    11344.452     1000 
 1338000    0.5549312   -2.1225158    0.8315644   -1.2909514   0.15363935    11271.883     1000 
 1340000   0.56692974     -2.12933   0.84954422   -1.2797858   0.14398851    11203.945     1000 
 1342000   0.56609994   -2.1669303   0.84830077   -1.3186295   0.11891699    11302.394     1000 
 1344000   0.54346241   -2.2154492   0.81437843   -1.4010707   0.14229854    11432.632     1000 
 1346000   0.56686108   -2.1274031   0.84944133   -1.2779618   0.12371498    11225.076     1000 
 1348000   0.55803556   -2.1424917   0.83621629   -1.3062754   0.13125317    11257.644     1000 
 1350000   0.57000873   -2.1526568   0.85415809   -1.2984987   0.12190311    11283.611     1000 
 1352000   0.54951844   -2.1876132   0.82345338   -1.3641598   0.12787739    11334.583     1000 
 1354000   0.56544313   -2.1584775   0.84731654    -1.311161   0.12117129    11420.629     1000 
 1356000   0.54850108   -2.1462524   0.82192887   -1.3243235   0.13592462    11180.703     1000 
 1358000   0.54742191   -2.2245003   0.82031173   -1.4041886     0.124592    11340.702     1000 
 1360000   0.55787261   -2.1456924    0.8359721   -1.3097203   0.13450193    11299.764     1000 
 1362000   0.56336571   -2.1358518   0.84420351   -1.2916483   0.10848325    11459.181     1000 
 1364000     0.575481   -2.1798989   0.86235827   -1.3175406    0.1445153    11258.617     1000 
 1366000   0.54763246   -2.1484081   0.82062724   -1.3277809   0.12052592    11345.194     1000 
 1368000    0.5539239   -2.1340278   0.83005497   -1.3039729   0.13883749    11314.896     1000 
 1370000   0.55778102   -2.1126111   0.83583485   -1.2767763   0.14154721     11233.17     1000 
 1372000   0.52754125    -2.089017   0.79052057   -1.2984964   0.11974997     11431.52     1000 
 1374000   0.56424275   -2.1085554   0.84551777   -1.2630376   0.12343725    11434.482     1000 
 1376000    0.5539896   -2.1186264   0.83015341    -1.288473   0.13406362    11251.847     1000 
 1378000   0.53882747   -2.1393038   0.80743297   -1.3318708   0.13945252     11231.91     1000 
 1380000   0.56991252   -2.2026403   0.85401391   -1.3486264   0.11843325    11422.691     1000 
 1382000   0.57255365   -2.1815847   0.85797164   -1.3236131   0.12158656     11444.71     1000 
 1384000    0.5420605   -2.0831144   0.81227765   -1.2708367   0.12382341    11372.526     1000 
 1386000   0.56626393   -2.1265648    0.8485465   -1.2780183   0.14036751     11259.67     1000 
 1388000   0.54543109   -2.1738156   0.81732848   -1.3564872    0.1333182    11290.718     1000 
 1390000   0.54549381   -2.1541238   0.81742247   -1.3367013   0.13782069     11214.69     1000 
 1392000   0.57534907   -2.1586866   0.86216058    -1.296526   0.14839952    11209.374     1000 
 1394000   0.57465317   -2.1058226   0.86111777   -1.2447049   0.13822132    11251.725     1000 
 1396000   0.54695412   -2.1630071   0.81961074   -1.3433964   0.14019346    11258.627     1000 
 1398000   0.56692707    -2.175011   0.84954022   -1.3254708   0.11408301    11505.074     1000 
 1400000   0.57689777   -2.1199844    0.8644813    -1.255503   0.13142956    11277.422     1000 
 1402000   0.55462151   -2.1355116   0.83110034   -1.3044112   0.11453788    11457.248     1000 
 1404000   0.55610394   -2.1533235   0.83332176   -1.3200018   0.12240897     11407.88     1000 
 1406000    0.5873477   -2.1411719   0.88014052   -1.2610313   0.12880756    11360.906     1000 
 1408000   0.52120287   -2.1263466    0.7810225   -1.3453241   0.12211393    11301.408     1000 
 1410000   0.56938313   -2.1707256   0.85322063    -1.317505   0.13286222    11343.575     1000 
 1412000   0.55199382   -2.1263806   0.82716274   -1.2992179   0.12111244    11239.884     1000 
 1414000   0.53555007   -2.1514309   0.80252178   -1.3489092   0.12121981    11366.417     1000 
 1416000   0.55523907   -2.1477378   0.83202574   -1.3157121   0.11610855    11388.826     1000 
 1418000   0.55883208   -2.1715698   0.83740987   -1.3341599   0.12570125    11292.775     1000 
 1420000   0.57196167   -2.1678737   0.85708457   -1.3107892   0.12053488    11279.127     1000 
 1422000   0.57817998   -2.1787466    0.8664027   -1.3123439   0.12371949    11423.404     1000 
 1424000   0.56842322   -2.1384738    0.8517822   -1.2866916   0.12609807    11324.845     1000 
 1426000    0.5545867   -2.2073347   0.83104817   -1.3762866   0.12074426    11454.432     1000 
 1428000   0.54598722   -2.1739751   0.81816186   -1.3558133   0.13055889    11419.077     1000 
 1430000   0.56346732   -2.1316651   0.84435578   -1.2873093   0.13597127    11298.877     1000 
 1432000    0.5560004   -2.2176115    0.8331666   -1.3844449    0.1209601    11571.074     1000 
 1434000   0.55243026   -2.1552794   0.82781674   -1.3274626   0.12993548    11346.168     1000 
 1436000   0.56414658   -2.2208995   0.84537366   -1.3755258   0.13633589    11327.135     1000 
 1438000   0.55040217   -2.1939448   0.82477765   -1.3691672   0.13366483    11281.425     1000 
 1440000     0.559252   -2.1722089   0.83803913   -1.3341698   0.13669131    11428.672     1000 
 1442000   0.55388505   -2.1605742   0.82999674   -1.3305774   0.13758901    11435.999     1000 
 1444000   0.57298404   -2.1222564   0.85861658   -1.2636399   0.13225827    11378.566     1000 
 1446000   0.57259194   -2.1520916   0.85802902   -1.2940625   0.12866225    11388.628     1000 
 1448000   0.55859546   -2.2007846    0.8370553   -1.3637293   0.12669417    11362.338     1000 
 1450000   0.58871731   -2.1403348   0.88219289   -1.2581419   0.13926342     11319.21     1000 
 1452000   0.55463896   -2.1625555   0.83112648    -1.331429   0.13732679    11396.047     1000 
 1454000   0.56535002   -2.1388293   0.84717701   -1.2916523   0.14455705    11361.869     1000 
 1456000   0.54798477   -2.1223808   0.82115518   -1.3012256    0.1209641    11552.519     1000 
 1458000   0.55295867   -2.1510163   0.82860856   -1.3224077   0.12650573     11448.72     1000 
 1460000   0.58315492   -2.1121368   0.87385765   -1.2382792   0.12412497    11489.723     1000 
 1462000    0.5496638    -2.156569   0.82367121   -1.3328978   0.13683054    11335.812     1000 
 1464000   0.58663965   -2.1900163   0.87907952   -1.3109368   0.12462713     11471.44     1000 
 1466000   0.56167619   -2.1546248   0.84167177    -1.312953    0.1452314    11340.273     1000 
 1468000   0.54414878    -2.150271   0.81540695   -1.3348641   0.12664722    11485.518     1000 
 1470000   0.58483189   -2.1787336   0.87637059    -1.302363   0.11768064    11431.478     1000 
 1472000   0.55770758   -2.1905094    0.8357248   -1.3547846    0.1319222    11389.254     1000 
 1474000   0.54738641   -2.1505095   0.82025854   -1.3302509   0.12809489    11402.351     1000 
 1476000   0.55343622   -2.1495191   0.82932418   -1.3201949   0.12648092    11407.632     1000 
 1478000   0.57492465   -2.1618107   0.86152459   -1.3002861   0.13621364    11432.027     1000 
 1480000     0.548081   -2.1678244   0.82129938    -1.346525   0.14471808    11238.738     1000 
 1482000   0.58318398    -2.198352   0.87390119   -1.3244508   0.12845538    11420.913     1000 
 1484000    0.5723895   -2.1626196   0.85772566   -1.3048939   0.13558665    11279.099     1000 
 1486000   0.55217219   -2.1453465   0.82743002   -1.3179165   0.13282348    11372.249     1000 
 1488000   0.56028152   -2.1746601   0.83958186   -1.3350782   0.12999633    11380.928     1000 
 1490000   0.57782166   -2.1674302   0.86586575   -1.3015645   0.13504619    11307.301     1000 
 1492000   0.54956573   -2.1200923   0.82352424    -1.296568   0.12641729    11301.726     1000 
 1494000     0.543337   -2.1271957   0.81419049   -1.3130052   0.13459922    11251.627     1000 
 1496000   0.55434762    -2.142642    0.8306899   -1.3119521   0.12908176    11336.899     1000 
 1498000   0.53906694     -2.14693   0.80779181   -1.3391382   0.12232607     11418.22     1000 
 1500000   0.54671056   -2.1489846   0.81924577   -1.3297388    0.1240528    11345.818     1000 
 1502000   0.53257754   -2.1298318   0.79806744   -1.3317644   0.13901387    11265.285     1000 
 1504000   0.56149904   -2.0980052   0.84140632   -1.2565989   0.13762855    11176.891     1000 
 1506000   0.55989853   -2.1190508   0.83900795   -1.2800429   0.12728969    11308.977     1000 
 1508000    0.5532014   -2.1577005    0.8289723   -1.3287282   0.12777708    11304.494     1000 
 1510000   0.57878198    -2.186122    0.8673048   -1.3188172   0.14060915    11186.378     1000 
 1512000   0.52934488   -2.2159828   0.79322331   -1.4227595   0.10489977    11580.921     1000 
 1514000   0.57561888   -2.1641671   0.86256489   -1.3016022   0.13112319    11427.043     1000 
 1516000   0.53368984   -2.1554336   0.79973422   -1.3556994   0.11874699    11363.748     1000 
 1518000   0.56487629    -2.116594   0.84646711   -1.2701268   0.13944555    11248.474     1000 
 1520000   0.57340976   -2.1703732   0.85925453   -1.3111186   0.13943154    11313.027     1000 
 1522000   0.55942917   -2.1462964   0.83830461   -1.3079918   0.12907421     11310.21     1000 
 1524000   0.56057076   -2.2037891   0.84001528   -1.3637738   0.12880344    11494.763     1000 
 1526000   0.56027565   -2.1244982   0.83957306   -1.2849252   0.13360397    11222.748     1000 
 1528000   0.57892929   -2.1996546   0.86752555   -1.3321291   0.12180375    11438.538     1000 
 1530000   0.56159583   -2.1883536   0.84155136   -1.3468022   0.11442286    11583.465     1000 
 1532000   0.55036012   -2.2071546   0.82471465     -1.38244   0.11982387    11523.331     1000 
 1534000   0.56635538    -2.140634   0.84868354   -1.2919504   0.13916211    11199.879     1000 
 1536000   0.56778745   -2.2036193   0.85082949   -1.3527898   0.13651173    11301.211     1000 
 1538000   0.55105081   -2.1477189   0.82574963   -1.3219693   0.13632528    11198.268     1000 
 1540000    0.5622443   -2.1777984   0.84252308   -1.3352753   0.12669506    11345.655     1000 
 1542000   0.54620371   -2.1566941   0.81848626   -1.3382078   0.13960752    11157.588     1000 
 1544000   0.56882446   -2.1187503   0.85238345   -1.2663668   0.13325089    11215.315     1000 
 1546000   0.57272551   -2.1387078   0.85822918   -1.2804786    0.1326556    11462.537     1000 
 1548000   0.54952528   -2.1426696   0.82346364    -1.319206   0.13303387    11316.951     1000 
 1550000   0.54519766   -2.2208542   0.81697869   -1.4038756   0.13158555    11324.357     1000 
 1552000    0.5687835   -2.1559653   0.85232208   -1.3036432   0.13035222    11327.061     1000 
 1554000   0.56053579   -2.1821216   0.83996287   -1.3421588   0.12334884    11478.097     1000 
 1556000   0.55556418   -2.1459436   0.83251293   -1.3134306   0.13933481    11238.637     1000 
 1558000   0.55258147   -2.1029061   0.82804333   -1.2748628    0.1425688    11122.981     1000 
 1560000   0.55268869   -2.1283644     0.828204   -1.3001604     0.139771    11234.685     1000 
 1562000   0.55364727   -2.2003242   0.82964044   -1.3706837   0.12718549    11273.827     1000 
 1564000   0.57056566   -2.1861491   0.85499265   -1.3311564   0.14069601    11262.447     1000 
 1566000   0.54959173   -2.1672105   0.82356321   -1.3436473   0.11666783    11414.126     1000 
 1568000   0.56884826   -2.1566574   0.85241911   -1.3042383   0.12411064    11343.921     1000 
 1570000   0.54479645   -2.2211185   0.81637749    -1.404741   0.12276338     11294.42     1000 
 1572000   0.56313352   -2.1677879   0.84385558   -1.3239323   0.12400322    11379.657     1000 
 1574000   0.52973128    -2.137936   0.79380233   -1.3441337   0.13094174    11234.279     1000 
 1576000   0.56250314   -2.1731652   0.84291095   -1.3302542    0.1369369    11246.797     1000 
 1578000    0.5497271   -2.1971098   0.82376605   -1.3733437   0.12050519    11617.902     1000 
 1580000   0.59331821   -2.1940476   0.88908734   -1.3049602   0.11731526    11503.608     1000 
 1582000   0.55786624   -2.1857683   0.83596257   -1.3498058   0.12192259    11562.037     1000 
 1584000   0.59148507   -2.1436599   0.88634038   -1.2573195   0.13448166    11184.099     1000 
 1586000   0.54359213    -2.122659   0.81457281   -1.3080862   0.13489508    11282.001     1000 
 1588000   0.56357693   -2.1209099   0.84452003   -1.2763899   0.12142131     11293.17     1000 
 1590000   0.53487003   -2.1499787   0.80150274    -1.348476    0.1267578    11196.739     1000 
 1592000   0.55301902   -2.2399063     0.828699   -1.4112073   0.11035957        11643     1000 
 1594000   0.58441391   -2.1480411   0.87574425   -1.2722969   0.14770159    11222.115     1000 
 1596000   0.55776916    -2.146493   0.83581708   -1.3106759   0.14185932    11290.389     1000 
[...]
 2612000   0.56830655   -2.1903355   0.85160737   -1.3387281   0.13742957    11349.861     1000 
 2614000   0.56259088   -2.2051906   0.84304244   -1.3621481   0.12329674    11436.607     1000 
 2616000   0.54222411   -2.1287537   0.81252283   -1.3162309   0.14835672    11184.633     1000 
 2618000   0.54702927   -2.1948113   0.81972336   -1.3750879   0.11773503    11431.263     1000 
 2620000   0.56463291   -2.2393945   0.84610241   -1.3932921   0.12304744    11479.255     1000 
 2622000   0.56862832    -2.138028   0.85208954   -1.2859384   0.14332909    11205.482     1000 
 2624000   0.57652056   -2.1267452   0.86391607   -1.2628291   0.11864891    11303.023     1000 
 2626000   0.55962464   -2.1739793   0.83859753   -1.3353817   0.12804176     11405.22     1000 
 2628000   0.54806533   -2.1773502    0.8212759   -1.3560743   0.12986087    11350.615     1000 
 2630000    0.5543483   -2.2006419   0.83069093   -1.3699509   0.13785353    11234.511     1000 
 2632000   0.57967872   -2.1025433   0.86864857   -1.2338948   0.12234112    11327.789     1000 
 2634000    0.5625589   -2.1684322   0.84299451   -1.3254377   0.12618105    11362.678     1000 
 2636000   0.53130683   -2.1254667   0.79616329   -1.3293034   0.13270875    11175.212     1000 
 2638000   0.56928147   -2.1090271   0.85306828   -1.2559589   0.12833814    11238.351     1000 
 2640000   0.56806709   -2.1395013   0.85124853   -1.2882528   0.11897964    11482.731     1000 
 2642000   0.55893718   -2.1631904   0.83756736    -1.325623   0.12482694    11357.224     1000 
 2644000   0.57361134   -2.1795083   0.85955659   -1.3199517   0.12024439    11356.576     1000 
 2646000   0.53854916   -2.1054502   0.80701591   -1.2984343    0.1295907    11218.598     1000 
 2648000   0.54107905   -2.1192008   0.81080696   -1.3083938   0.13463203    11330.131     1000 
 2650000   0.56183114   -2.2015403   0.84190396   -1.3596364   0.12565128    11351.172     1000 
 2652000   0.54805847   -2.0833645   0.82126562   -1.2620988   0.12887404     11289.59     1000 
 2654000     0.566666   -2.1460982     0.849149   -1.2969492   0.12578277    11338.616     1000 
 2656000   0.54723077   -2.1499145   0.82002531   -1.3298892   0.12265762    11398.019     1000 
 2658000   0.53833288   -2.1928694   0.80669182   -1.3861776   0.11475044    11559.467     1000 
 2660000    0.5771012   -2.1602546   0.86478615   -1.2954685   0.13069473    11408.313     1000 
 2662000   0.55002589    -2.141489   0.82421379   -1.3172752   0.13909662    11263.929     1000 
 2664000   0.56530316   -2.1346645   0.84710678   -1.2875578   0.12230186    11288.815     1000 
 2666000   0.57819112   -2.1627229    0.8664194   -1.2963035    0.1338704    11301.866     1000 
 2668000   0.57060269   -2.1004171   0.85504813    -1.245369   0.13712366    11368.739     1000 
 2670000   0.53788799    -2.109062   0.80602515   -1.3030368   0.11809476     11317.58     1000 
 2672000   0.57427401   -2.1709167   0.86054961   -1.3103671   0.13456223    11379.759     1000 
 2674000   0.56689053   -2.1607728   0.84948546   -1.3112874    0.1305324    11266.485     1000 
 2676000   0.54504475   -2.1937293   0.81674956   -1.3769797   0.12041781    11397.261     1000 
 2678000    0.5586239   -2.1626574   0.83709791   -1.3255595   0.12751497    11459.377     1000 
 2680000   0.55695224   -2.1570213   0.83459294   -1.3224284    0.1206889     11319.71     1000 
 2682000   0.57711676   -2.1793037   0.86480947   -1.3144943   0.14255683    11249.304     1000 
 2684000   0.53777229   -2.1779053   0.80585178   -1.3720535   0.12866167    11298.413     1000 
 2686000   0.56517064   -2.2067395   0.84690821   -1.3598313   0.12656582    11422.415     1000 
 2688000   0.54546689    -2.160401   0.81738213   -1.3430189   0.13903015    11256.844     1000 
 2690000   0.55818536   -2.1523999   0.83644076   -1.3159591   0.13494383    11209.602     1000 
 2692000   0.54906005   -2.1762581   0.82276649   -1.3534916   0.13173335    11333.251     1000 
 2694000   0.55408121   -2.2170316   0.83029069    -1.386741   0.11868272    11515.791     1000 
 2696000   0.57542792    -2.206373   0.86227874   -1.3440943   0.13367255    11271.628     1000 
 2698000   0.54447423   -2.1859335   0.81589463   -1.3700389   0.13359076    11253.354     1000 
 2700000    0.5522874   -2.1880294   0.82760267   -1.3604268   0.12659706     11334.68     1000 
 2702000   0.56428325    -2.116953   0.84557844   -1.2713745   0.12692812    11421.996     1000 
 2704000   0.56264667   -2.1245142   0.84312603   -1.2813882   0.12876507    11356.111     1000 
 2706000   0.55739903   -2.1595336   0.83526244   -1.3242711   0.12255755    11327.315     1000 
 2708000   0.56206729   -2.1774915   0.84225783   -1.3352337     0.124363    11603.775     1000 
 2710000   0.55737471    -2.102972   0.83522601    -1.267746   0.14242102    11281.269     1000 
 2712000   0.54724844   -2.1712699   0.82005178   -1.3512182   0.13040599    11260.867     1000 
 2714000   0.55913495   -2.1173495   0.83786373   -1.2794858   0.14352803      11241.1     1000 
 2716000   0.56785078   -2.1900201   0.85092439   -1.3390957   0.14140206    11346.559     1000 
 2718000   0.57305621   -2.2030464   0.85872473   -1.3443216   0.13132868    11377.601     1000 
 2720000   0.56750626   -2.1421444   0.85040813   -1.2917363    0.1278787    11309.193     1000 
 2722000   0.57748047   -2.1815859   0.86535449   -1.3162314   0.12262735    11368.796     1000 
 2724000   0.55699028   -2.1782004   0.83464993   -1.3435505   0.14188406     11334.03     1000 
 2726000    0.5543517    -2.180169   0.83069602    -1.349473   0.13482962    11377.172     1000 
 2728000   0.56677107   -2.1525309   0.84930645   -1.3032244   0.13171584    11384.256     1000 
 2730000   0.57292689   -2.1841547   0.85853095   -1.3256237   0.13819011    11317.935     1000 
 2732000   0.59444683   -2.1797642   0.89077857   -1.2889856   0.11413062    11518.181     1000 
 2734000   0.57927286   -2.1582531   0.86804037   -1.2902127   0.13132169    11343.827     1000 
 2736000   0.55855642   -2.1646049   0.83699679   -1.3276081   0.12959967     11322.52     1000 
 2738000   0.53994318    -2.199943   0.80910485   -1.3908381    0.1351093    11309.148     1000 
 2740000   0.56620686   -2.1102013   0.84846098   -1.2617403   0.12907746    11344.048     1000 
 2742000   0.54033178   -2.1517292   0.80968717    -1.342042   0.12161069    11509.006     1000 
 2744000   0.56304059   -2.1729156   0.84371633   -1.3291993   0.11756771    11454.003     1000 
 2746000   0.55980955   -2.1260637   0.83887461   -1.2871891   0.14038751    11244.531     1000 
 2748000   0.55675388   -2.1967628   0.83429568   -1.3624672   0.12710879    11332.218     1000 
 2750000   0.56339309   -2.1792685   0.84424454    -1.335024   0.14272063    11330.357     1000 
 2752000   0.54651547   -2.1647927   0.81895343   -1.3458393   0.14040514    11217.242     1000 
 2754000   0.55571111   -2.0962487   0.83273309   -1.2635156   0.13957379    11240.574     1000 
 2756000   0.56745052    -2.110601   0.85032461   -1.2602764    0.1285012    11421.389     1000 
 2758000   0.55136744   -2.1463234    0.8262241   -1.3200993   0.12382654    11373.784     1000 
 2760000   0.60038085   -2.1313127    0.8996707    -1.231642   0.12740922    11324.114     1000 
 2762000   0.55756292   -2.1291127   0.83550804   -1.2936047   0.13115046     11277.89     1000 
 2764000    0.5674276   -2.1170228   0.85029026   -1.2667326   0.14084821    11293.661     1000 
 2766000   0.54134184   -2.1614271   0.81120075   -1.3502263   0.14231189    11323.666     1000 
 2768000   0.56256049    -2.188938    0.8429969   -1.3459411   0.15296078    11198.296     1000 
 2770000   0.58142035    -2.181046   0.87125839   -1.3097877   0.13960666    11339.295     1000 
 2772000   0.56858832   -2.1777921    0.8520296   -1.3257625    0.1364899    11346.802     1000 
 2774000   0.57112816   -2.1969345   0.85583554    -1.341099   0.13410112    11219.135     1000 
 2776000   0.53510009   -2.1073256   0.80184748   -1.3054781   0.13528503    11205.496     1000 
 2778000   0.56621619   -2.1495076   0.84847497   -1.3010326   0.13847968    11151.757     1000 
 2780000   0.57677553   -2.1669358   0.86429814   -1.3026377   0.13305278     11323.57     1000 
 2782000   0.55454772   -2.1526378   0.83098976   -1.3216481   0.13497549    11324.065     1000 
 2784000   0.57362038   -2.1953723   0.85957014   -1.3358022    0.1215236    11303.808     1000 
 2786000   0.56135702   -2.2031534    0.8411935   -1.3619599   0.12329703    11386.353     1000 
 2788000   0.55259536   -2.1512429   0.82806415   -1.3231787   0.13114347    11287.971     1000 
 2790000   0.56046839   -2.1888417   0.83986189   -1.3489798   0.10643089    11534.207     1000 
 2792000   0.54094553    -2.165777   0.81060688   -1.3551702   0.12677445    11358.204     1000 
 2794000   0.56995475   -2.2094514   0.85407719   -1.3553742   0.12077733    11344.761     1000 
 2796000    0.5554641   -2.1693116   0.83236296   -1.3369487   0.13175081    11286.119     1000 
 2798000    0.5499133    -2.177952   0.82404508    -1.353907   0.11898805    11336.018     1000 
 2800000   0.54934484   -2.1361182   0.82319324   -1.3129249   0.13820357    11132.646     1000 
 2802000   0.55882317    -2.190095   0.83739652   -1.3526985   0.12027098    11585.833     1000 
 2804000   0.55231904   -2.1274736   0.82765008   -1.2998235   0.14103807     11250.01     1000 
 2806000   0.54013862   -2.1848502   0.80939772   -1.3754525   0.13620838    11332.281     1000 
 2808000   0.55857215   -2.2079596   0.83702037   -1.3709392   0.12918696    11428.651     1000 
 2810000   0.58111809   -2.1875437   0.87080545   -1.3167382   0.12689023    11207.138     1000 
 2812000   0.53216902   -2.0906436   0.79745528   -1.2931883   0.12900994    11248.263     1000 
 2814000   0.54686134    -2.138656   0.81947172   -1.3191842   0.13163389    11305.065     1000 
 2816000   0.57031485   -2.1754698    0.8546168    -1.320853   0.13676366    11258.803     1000 
 2818000   0.55091238   -2.1795382   0.82554221    -1.353996   0.13717563    11293.375     1000 
 2820000   0.55885847   -2.1469624   0.83744941    -1.309513   0.13111715    11429.864     1000 
 2822000   0.56521013    -2.143679   0.84696738   -1.2967116   0.12247085    11326.214     1000 
 2824000   0.53408296   -2.1535697   0.80032331   -1.3532463   0.14697708     11207.26     1000 
 2826000   0.56166956   -2.1888975   0.84166184   -1.3472356   0.13684684    11292.652     1000 
 2828000    0.5578504   -2.1253001   0.83593883   -1.2893613   0.13837616    11119.823     1000 
 2830000   0.57390891   -2.1800207   0.86000251   -1.3200182   0.12762874    11250.528     1000 
 2832000   0.54590934    -2.177292   0.81804514   -1.3592469   0.11629142    11384.418     1000 
 2834000   0.56561042   -2.1334021   0.84756721   -1.2858348   0.13461971     11379.27     1000 
 2836000   0.58173803     -2.12265   0.87173444   -1.2509156   0.12780823    11350.083     1000 
 2838000    0.5687994   -2.1714883   0.85234591   -1.3191424   0.12041575    11647.447     1000 
 2840000    0.5356155   -2.1723482   0.80261983   -1.3697284   0.13147544    11350.653     1000 
 2842000   0.57476698   -2.1646155   0.86128832   -1.3033272   0.13427247    11192.544     1000 
 2844000   0.56662146   -2.1847608   0.84908225   -1.3356785    0.1285514    11518.897     1000 
 2846000   0.56325825   -2.1558206   0.84404249   -1.3117781   0.13244487    11466.585     1000 
 2848000   0.55105482   -2.1625847   0.82575565    -1.336829   0.14238514    11230.848     1000 
 2850000   0.55947112   -2.1029919   0.83836748   -1.2646244   0.12242055    11417.152     1000 
 2852000   0.57024969   -2.1314636   0.85451916   -1.2769445   0.13920525    11160.125     1000 
 2854000   0.53276111   -2.1488536   0.79834252   -1.3505111   0.12945694    11164.527     1000 
 2856000   0.56270388   -2.1974607   0.84321177   -1.3542489   0.11829739    11404.375     1000 
 2858000   0.53099148   -2.1354113   0.79569073   -1.3397205   0.12658478    11480.283     1000 
 2860000   0.55883845   -2.1403417   0.83741941   -1.3029223   0.14616879    11076.122     1000 
 2862000   0.57354118   -2.1903713   0.85945145   -1.3309198   0.11969123    11438.639     1000 
 2864000   0.56582605   -2.1785197   0.84789034   -1.3306294   0.13108469    11252.946     1000 
 2866000   0.59996095   -2.1121607   0.89904148   -1.2131192   0.12747423    11366.384     1000 
 2868000   0.57149628   -2.1486553   0.85638717   -1.2922681   0.14560116    11223.694     1000 
 2870000   0.55544823   -2.1865314   0.83233917   -1.3541922   0.12558707    11396.004     1000 
 2872000   0.56486537   -2.1726837   0.84645076   -1.3262329   0.13725709    11270.965     1000 
 2874000   0.56975699   -2.1251467   0.85378085   -1.2713658   0.13195925    11259.566     1000 
 2876000   0.53827247   -2.1893342    0.8066013   -1.3827329   0.12870629    11395.375     1000 
 2878000   0.57257155   -2.1744059   0.85799846   -1.3164074   0.13252463    11297.647     1000 
 2880000    0.5703184   -2.1951628   0.85462213   -1.3405407   0.12882627    11300.242     1000 
 2882000   0.56203988   -2.1795814   0.84221676   -1.3373646   0.11736289    11514.936     1000 
 2884000   0.59631294   -2.1829615   0.89357493   -1.2893866   0.13626135    11220.305     1000 
 2886000   0.55385033   -2.1414464   0.82994472   -1.3115017   0.13735899    11327.457     1000 
 2888000   0.56499824   -2.1644212   0.84664986   -1.3177713   0.12527867    11554.355     1000 
 2890000   0.58361229    -2.143893   0.87454302     -1.26935   0.13580922    11171.127     1000 
 2892000   0.53093795   -2.1284346   0.79561051   -1.3328241   0.13545606    11190.952     1000 
 2894000   0.56160669   -2.1004265   0.84156763   -1.2588589    0.1375216    11211.104     1000 
 2896000   0.55546591   -2.1556683   0.83236566   -1.3233026   0.12657304    11318.819     1000 
 2898000   0.55749915   -2.1033868   0.83541248   -1.2679743   0.13404697    11245.065     1000 
 2900000   0.55215585    -2.148893   0.82740554   -1.3214874   0.13141307    11259.089     1000 
 2902000   0.53079467    -2.157952   0.79539581   -1.3625562   0.14496404    11106.301     1000 
 2904000   0.56194656   -2.1798779   0.84207691   -1.3378009   0.12664266    11394.949     1000 
 2906000   0.54219132   -2.2095367   0.81247369    -1.397063   0.12856367     11290.72     1000 
 2908000   0.56238711   -2.1814813   0.84273709   -1.3387442   0.11907915    11459.134     1000 
 2910000   0.57594096   -2.1439489   0.86304753   -1.2809014   0.12573766    11349.002     1000 
 2912000   0.53892764   -2.1562458   0.80758306   -1.3486627   0.13457653    11338.939     1000 
 2914000   0.56914079   -2.1403571   0.85285748   -1.2874996   0.12133441    11490.267     1000 
 2916000   0.54970798   -2.2183853   0.82373741   -1.3946479   0.12930376    11431.339     1000 
 2918000   0.57222627   -2.1083068   0.85748106   -1.2508258    0.1438221    11125.939     1000 
 2920000   0.58753451   -2.1658158   0.88042046   -1.2853954   0.13651951    11426.746     1000 
 2922000   0.55470683   -2.1525846   0.83122819   -1.3213564   0.13673246    11218.538     1000 
 2924000   0.54110397   -2.1592181   0.81084429   -1.3483738   0.13114899    11275.902     1000 
 2926000   0.59199566   -2.2127981    0.8871055   -1.3256927   0.13927059    11323.876     1000 
 2928000   0.55800846   -2.1193629   0.83617568   -1.2831872   0.13833672      11115.4     1000 
 2930000   0.56658379   -2.1416611    0.8490258   -1.2926353   0.11569198    11500.098     1000 
 2932000   0.56829929   -2.2109262   0.85159649   -1.3593297   0.12847802    11328.719     1000 
 2934000   0.56542775   -2.1703655   0.84729348    -1.323072   0.13213623     11270.82     1000 
 2936000   0.57216221   -2.1348775   0.85738507   -1.2774925   0.13683654    11203.705     1000 
 2938000   0.56525375   -2.1693233   0.84703274   -1.3222906   0.12625302    11185.015     1000 
 2940000   0.53716706   -2.1378598   0.80494484    -1.332915     0.131398    11117.035     1000 
 2942000   0.56197144   -2.1617297    0.8421142   -1.3196155   0.12393953    11383.409     1000 
 2944000   0.56627865   -2.1738182   0.84856855   -1.3252497   0.12750391    11271.252     1000 
 2946000     0.544231   -2.1069464   0.81553015   -1.2914163   0.12687257    11212.108     1000 
 2948000   0.53838351   -2.1863531   0.80676769   -1.3795854   0.12035716    11227.343     1000 
 2950000   0.54834003   -2.1482495   0.82168754   -1.3265619   0.12957816    11276.083     1000 
 2952000   0.56747316   -2.1154294   0.85035852   -1.2650709   0.11835307    11430.537     1000 
 2954000    0.5642154    -2.173681   0.84547678   -1.3282042   0.12042387    11385.859     1000 
 2956000   0.56976553   -2.1881686   0.85379364   -1.3343749   0.13320376    11430.764     1000 
 2958000    0.5597435   -2.1411727   0.83877563   -1.3023971   0.13031781    11279.242     1000 
 2960000   0.57534559    -2.127311   0.86215537   -1.2651557   0.13292646    11199.386     1000 
 2962000   0.55766484   -2.0901763   0.83566076   -1.2545156   0.14620311    11203.326     1000 
 2964000   0.54064007   -2.1834174   0.81014915   -1.3732683   0.11752885    11329.755     1000 
 2966000   0.55973834   -2.2120008    0.8387679   -1.3732329    0.1235533    11465.781     1000 
 2968000   0.55560343   -2.1791231   0.83257174   -1.3465513    0.1342563    11368.542     1000 
 2970000   0.56452518   -2.1166555   0.84594098   -1.2707145   0.13770175    11198.265     1000 
 2972000   0.55294968   -2.2311759    0.8285951   -1.4025808   0.11366208    11525.501     1000 
 2974000   0.51828236   -2.1794699   0.77664612   -1.4028238   0.12428169    11486.998     1000 
 2976000   0.54832337   -2.1686098   0.82166257   -1.3469473   0.12775608    11382.203     1000 
 2978000   0.58729978   -2.1687863   0.88006872   -1.2887176   0.13666764    11284.501     1000 
 2980000   0.54800434   -2.1728262   0.82118451   -1.3516417   0.13817183    11267.206     1000 
 2982000   0.55385343   -2.1914635   0.82994937   -1.3615142   0.13104393    11317.314     1000 
 2984000   0.55577179   -2.1297461   0.83282403   -1.2969221   0.13742893    11194.739     1000 
 2986000   0.55712704   -2.1738469   0.83485487   -1.3389921   0.13972193    11124.306     1000 
 2988000    0.5449015   -2.1193222   0.81653489   -1.3027873   0.14499197    11094.703     1000 
 2990000   0.54318775   -2.1428221   0.81396684   -1.3288553   0.12084056    11322.472     1000 
 2992000   0.56159893   -2.1416664     0.841556   -1.3001104   0.12564668    11261.753     1000 
 2994000   0.55236893   -2.1167681   0.82772485   -1.2890433   0.14087605    11308.021     1000 
 2996000    0.5648413   -2.1645082   0.84641469   -1.3180935   0.12805804    11446.979     1000 
 2998000   0.55869742   -2.1509788   0.83720808   -1.3137707   0.13638542    11275.371     1000 
 3000000   0.56947521   -2.1429976    0.8533586    -1.289639   0.13303823    11274.906     1000 
Loop time of 1927.23 on 4 procs for 3000000 steps with 1000 atoms

Performance: 672468.027 tau/day, 1556.639 timesteps/s
96.8% CPU use with 4 MPI tasks x no OpenMP threads

MPI task timing breakdown:
Section |  min time  |  avg time  |  max time  |%varavg| %total
---------------------------------------------------------------
Pair    | 1492       | 1530.6     | 1585.4     | 100.4 | 79.42
Neigh   | 113.99     | 115.44     | 117.13     |  10.8 |  5.99
Comm    | 170.72     | 227.04     | 266.22     | 267.7 | 11.78
Output  | 0.026884   | 0.029952   | 0.038897   |   3.0 |  0.00
Modify  | 45.036     | 45.15      | 45.349     |   1.8 |  2.34
Other   |            | 8.949      |            |       |  0.46

Nlocal:    250 ave 262 max 245 min
Histogram: 2 1 0 0 0 0 0 0 0 1
Nghost:    2418.75 ave 2428 max 2407 min
Histogram: 1 0 0 0 1 0 0 1 0 1
Neighs:    26372.2 ave 28386 max 24872 min
Histogram: 2 0 0 0 0 0 1 0 0 1

Total # of neighbors = 105489
Ave neighs/atom = 105.489
Neighbor list builds = 150000
Dangerous builds not checked

Total wall time: 0:32:07
