LAMMPS (29 Sep 2021 - Update 2)
OMP_NUM_THREADS environment is not set. Defaulting to 1 thread. (src/comm.cpp:98)
  using 1 OpenMP thread(s) per MPI task
# ----------------------- Inicialização -----------------------

units			lj
atom_style 		atomic
dimension 		3
boundary 		p p p

# -------------------- Criação dos Átomos ---------------------

read_data 		topologia.txt
Reading data file ...
  orthogonal box = (0.0000000 0.0000000 0.0000000) to (21.540000 21.540000 21.540000)
  1 by 1 by 1 MPI processor grid
  reading atoms ...
  1000 atoms
  read_data CPU = 0.003 seconds

velocity 		all create ${temp} 87287 rot yes dist gaussian
velocity 		all create 0.50 87287 rot yes dist gaussian

# ------------------ Interação Interatômica -------------------

pair_style		table linear 1600
pair_coeff		1 1 force.table AA 8.0
WARNING: 3 of 1600 force values in table AA are inconsistent with -dE/dr.
WARNING:  Should only be flagged at inflection points (src/pair_table.cpp:465)
pair_coeff		1 2 force.table AB 8.0
WARNING: 1 of 1600 force values in table AB are inconsistent with -dE/dr.
WARNING:  Should only be flagged at inflection points (src/pair_table.cpp:465)
pair_coeff		2 2 force.table BB 8.0
pair_write		1 1 1600 r 0.008 8.0 table.check AA
Appending to table file table.check with DATE: 2023-07-05
Neighbor list info ...
  update every 1 steps, delay 10 steps, check yes
  max neighbors/atom: 2000, page size: 100000
  master list distance cutoff = 8.3
  ghost atom cutoff = 8.3
  binsize = 4.15, bins = 6 6 6
  1 neighbor lists, perpetual/occasional/extra = 1 0 0
  (1) pair table, perpetual
      attributes: half, newton on
      pair build: half/bin/atomonly/newton
      stencil: half/bin/3d
      bin: standard
pair_write		1 2 1600 r 0.008 8.0 table.check AB
Appending to table file table.check with DATE: 2023-07-05
pair_write		2 2 1600 r 0.008 8.0 table.check BB
Appending to table file table.check with DATE: 2023-07-05

neighbor 		0.3 bin
neigh_modify		every 20 delay 0 check no

# ------------------------- Ensemble --------------------------------------

fix 1			all npt temp ${temp} ${temp} 0.5 iso ${press} ${press} 5
fix 1			all npt temp 0.50 ${temp} 0.5 iso ${press} ${press} 5
fix 1			all npt temp 0.50 0.50 0.5 iso ${press} ${press} 5
fix 1			all npt temp 0.50 0.50 0.5 iso 0.13 ${press} 5
fix 1			all npt temp 0.50 0.50 0.5 iso 0.13 0.13 5

# ---------------------- Função de Distribuição Radial -----------------------

#compute RDF 		all rdf 2000 1 1 1 2 2 2
#fix 2 			all ave/time 1 2000 2000 c_RDF[*] file rdf.data mode vector

# ------------------------- Execução ---------------------------

timestep 		0.005
thermo_style		custom step temp pe ke etotal press vol atoms
thermo			2000
run			3000000
Per MPI rank memory allocation (min/avg/max) = 3.125 | 3.125 | 3.125 Mbytes
Step Temp PotEng KinEng TotEng Press Volume Atoms 
       0          0.5  -0.99524352      0.74925  -0.24599352    0.1181535    9993.9483     1000 
    2000   0.48495767   -1.8521213   0.72670907   -1.1254123   0.13224704    11220.889     1000 
    4000   0.48030185   -1.9057902   0.71973232   -1.1860579   0.13193252    11236.478     1000 
    6000   0.51663872   -1.9163874   0.77418312   -1.1422043   0.13133738    11436.938     1000 
    8000    0.5226578   -1.8987147   0.78320272    -1.115512   0.14385673    11201.783     1000 
   10000    0.5025475   -1.9020757   0.75306743   -1.1490082    0.1209194    11523.965     1000 
   12000   0.49085185   -1.9098504    0.7355415   -1.1743089   0.12898862    11326.283     1000 
   14000   0.51517764   -1.8769369   0.77199369   -1.1049432   0.13920094    11307.336     1000 
   16000   0.52148832   -1.8877616   0.78145025   -1.1063113   0.12136964    11338.113     1000 
   18000   0.49838099   -1.9364336   0.74682391   -1.1896097   0.13485583    11379.201     1000 
   20000   0.48962808   -1.9589162   0.73370768   -1.2252085   0.12555383    11365.703     1000 
   22000   0.49269852   -1.9298211   0.73830874   -1.1915123   0.12749636    11428.974     1000 
   24000   0.49569183   -1.9927351   0.74279421   -1.2499409   0.11707619    11598.946     1000 
   26000    0.4910598   -1.8916569   0.73585311   -1.1558038   0.13145292    11300.196     1000 
   28000   0.47948891   -1.8765606   0.71851413   -1.1580464   0.13031563    11334.274     1000 
   30000   0.50000588   -1.9193009   0.74925881   -1.1700421   0.12207082    11462.065     1000 
   32000   0.50342421   -1.9150595   0.75438117   -1.1606783   0.13734795    11328.781     1000 
   34000   0.48861486   -1.9380688   0.73218937   -1.2058794   0.11379279    11555.456     1000 
   36000   0.50203163   -1.9583938    0.7522944   -1.2060994   0.12464972    11512.894     1000 
   38000   0.48958674   -1.9800227   0.73364573    -1.246377   0.13275889     11417.59     1000 
   40000   0.50095179   -1.9440868   0.75067626   -1.1934106    0.1273043    11520.319     1000 
   42000     0.498688   -1.9081175   0.74728397   -1.1608336   0.12931382    11404.566     1000 
   44000   0.48287995   -1.9159917   0.72359561   -1.1923961   0.13171027    11446.863     1000 
   46000   0.50878635   -1.9165629   0.76241635   -1.1541466   0.12705986    11422.312     1000 
   48000   0.48500577   -1.9360436   0.72678115   -1.2092625   0.12981986    11333.287     1000 
   50000   0.51148384   -1.8981469   0.76645854   -1.1316884   0.13654844    11310.603     1000 
   52000   0.49100608   -1.9210568   0.73577261   -1.1852842   0.13298433    11395.828     1000 
   54000   0.51444507   -1.8530729   0.77089594   -1.0821769    0.1410339    11374.028     1000 
   56000   0.49900655   -1.9248055   0.74776132   -1.1770442   0.13435395    11286.008     1000 
   58000   0.48730291   -1.9524944   0.73022341    -1.222271   0.12121541    11344.137     1000 
   60000   0.49105603   -1.8874373   0.73584745   -1.1515899   0.14187333    11204.537     1000 
   62000     0.492033   -1.9086686   0.73731145   -1.1713572   0.13160794     11325.23     1000 
   64000   0.49851942   -1.8725457   0.74703135   -1.1255144   0.11840703    11559.555     1000 
   66000   0.49285304   -1.9026246   0.73854028   -1.1640843   0.12185594    11423.755     1000 
   68000   0.47925487   -1.9520156   0.71816342   -1.2338522   0.12659336    11506.147     1000 
   70000   0.51782972   -1.9229309   0.77596783   -1.1469631   0.13802217    11301.857     1000 
   72000   0.47484638   -1.9062733   0.71155729    -1.194716   0.12418245    11422.911     1000 
   74000   0.52737957   -1.8882113   0.79027828   -1.0979331    0.1311166    11314.627     1000 
   76000   0.50899604   -1.9095982   0.76273057   -1.1468676   0.13049852    11506.551     1000 
   78000   0.48923978   -1.9142957    0.7331258   -1.1811699   0.13629826    11242.163     1000 
   80000   0.47472176   -1.8946175   0.71137056    -1.183247   0.13368213     11368.16     1000 
   82000   0.49252784   -1.9321675   0.73805297   -1.1941146   0.12176683    11418.142     1000 
   84000   0.48208688   -1.8870863   0.72240719   -1.1646792   0.13578651    11357.436     1000 
   86000   0.48202727   -1.8962846   0.72231786   -1.1739667   0.13730093    11326.736     1000 
   88000   0.49791254   -1.8840447   0.74612194   -1.1379228   0.13225999     11313.05     1000 
   90000   0.50345484   -1.9280164   0.75442708   -1.1735893   0.12717843    11444.106     1000 
   92000   0.51615148   -1.8992007   0.77345299   -1.1257477   0.13562644    11319.082     1000 
   94000   0.49048314   -1.9082014   0.73498899   -1.1732124   0.13337615    11395.393     1000 
   96000   0.48660974   -1.9416727   0.72918469    -1.212488   0.12879487     11349.23     1000 
   98000   0.50906718   -1.9092431   0.76283717   -1.1464059   0.14217238    11277.217     1000 
  100000   0.49967991   -1.9503061   0.74877034   -1.2015358   0.13023336    11539.938     1000 
  102000   0.51888759   -1.9063669   0.77755305   -1.1288139   0.12933191    11378.339     1000 
  104000   0.48286764   -1.8556527   0.72357715   -1.1320755   0.14185555     11260.03     1000 
  106000   0.49429274   -1.9269161   0.74069767   -1.1862185   0.12832981    11458.925     1000 
  108000   0.52415201   -1.9426351   0.78544179   -1.1571933   0.12709306    11515.585     1000 
  110000   0.50167838   -1.9192116   0.75176505   -1.1674466   0.13245178    11325.283     1000 
  112000   0.49846249   -1.9249403   0.74694604   -1.1779943   0.13045568    11333.906     1000 
  114000   0.48980753   -1.8925164   0.73397658   -1.1585398   0.12540235    11326.654     1000 
  116000   0.50898387   -1.8974955   0.76271233   -1.1347832   0.13898031     11238.08     1000 
  118000   0.48073092   -1.9489219   0.72037528   -1.2285466   0.11729593    11482.273     1000 
  120000   0.51165056   -1.8848569   0.76670837   -1.1181485   0.13695017    11440.981     1000 
  122000   0.50065212   -1.8772646   0.75022721   -1.1270374   0.14026399    11287.444     1000 
  124000   0.50038728     -1.93517   0.74983033   -1.1853396   0.11676127    11562.175     1000 
  126000   0.49422274   -1.8662092   0.74059278   -1.1256164   0.13993974    11370.976     1000 
  128000   0.50436477   -1.9418845    0.7557906   -1.1860939   0.12915139    11480.252     1000 
  130000   0.48513819   -1.9708178   0.72697957   -1.2438383   0.12836142    11387.087     1000 
  132000   0.47925636   -1.9186331   0.71816565   -1.2004674   0.12361379    11429.071     1000 
  134000   0.49095764   -1.9083477   0.73570003   -1.1726477   0.13175406    11462.827     1000 
  136000   0.48702333   -1.9467046   0.72980446   -1.2169001   0.11405267    11543.323     1000 
  138000   0.49206648   -1.8949423   0.73736162   -1.1575807   0.13307709    11305.999     1000 
  140000   0.47441588   -1.9269753    0.7109122   -1.2160631   0.14023054    11256.835     1000 
  142000   0.49675504   -1.9054297   0.74438743   -1.1610422   0.13340374    11448.863     1000 
  144000   0.51211409   -1.9425904   0.76740297   -1.1751875   0.14081276    11274.603     1000 
  146000   0.50414547   -1.9331952   0.75546198   -1.1777332   0.12191544    11424.173     1000 
  148000   0.50021012   -1.8731541   0.74956486   -1.1235892    0.1318683    11254.236     1000 
  150000   0.52076241   -1.9040547   0.78036247   -1.1236923   0.13535344    11326.532     1000 
  152000   0.48216083    -1.928919   0.72251801    -1.206401   0.13230792    11298.547     1000 
  154000   0.49760009   -1.9611457   0.74565373    -1.215492   0.11807863    11651.322     1000 
  156000   0.50312282   -1.9579647   0.75392955   -1.2040351   0.13024718    11383.907     1000 
  158000   0.48521229    -1.954096   0.72709062   -1.2270054   0.11699142     11579.88     1000 
  160000   0.49451329    -1.929605   0.74102817   -1.1885769    0.1216169    11493.967     1000 
  162000   0.53726678   -1.9215347   0.80509427   -1.1164404   0.13007501    11393.568     1000 
  164000   0.51124414   -1.8608962   0.76609934   -1.0947969   0.14016947    11243.281     1000 
  166000   0.48960397   -1.9351267   0.73367155   -1.2014552   0.10896254    11590.302     1000 
  168000   0.50453391   -1.8996751   0.75604406    -1.143631    0.1320359    11416.581     1000 
  170000    0.4955311   -1.9194364   0.74255336    -1.176883   0.13094208     11455.62     1000 
  172000   0.50344256    -1.950633   0.75440868   -1.1962243   0.10955498    11550.346     1000 
  174000   0.49112105   -1.9531741    0.7359449   -1.2172292   0.14520033    11249.775     1000 
  176000   0.49968392   -1.9001835   0.74877636   -1.1514071   0.13096834    11287.019     1000 
  178000   0.52164238   -1.9804917    0.7816811   -1.1988106   0.12231987    11452.703     1000 
  180000   0.48069674   -1.9475598   0.72032407   -1.2272357   0.12549879    11526.726     1000 
  182000   0.47808442   -1.8771912    0.7164095   -1.1607817   0.12162919    11234.212     1000 
  184000   0.49633215   -1.8437056   0.74375373   -1.0999518   0.12039408    11480.085     1000 
  186000   0.50722681   -1.8504731   0.76007937   -1.0903937   0.14767578    11139.477     1000 
  188000   0.50008676   -1.9127141      0.74938   -1.1633341   0.12784957    11444.847     1000 
  190000   0.48520132   -1.8753489   0.72707418   -1.1482748   0.13752521    11249.357     1000 
  192000   0.50262364   -1.9321412   0.75318152   -1.1789597   0.12352734    11465.613     1000 
  194000   0.49611655   -1.8790752   0.74343066   -1.1356445   0.13769813    11321.774     1000 
  196000   0.48069403   -1.9357176      0.72032   -1.2153976   0.12715375    11488.999     1000 
  198000   0.51443339   -1.9068751   0.77087844   -1.1359967   0.12674111    11311.374     1000 
  200000   0.49564538    -1.926251    0.7427246   -1.1835264   0.12994485    11466.252     1000 
  202000   0.50100093   -1.8956654   0.75074989   -1.1449156    0.1429082    11149.919     1000 
  204000   0.53428834   -1.9021143   0.80063107   -1.1014833   0.13797251    11322.258     1000 
  206000   0.49393311   -1.9684712   0.74015876   -1.2283124   0.13100945     11471.14     1000 
  208000    0.5212582   -1.9531555   0.78110541   -1.1720501   0.12666432    11386.159     1000 
  210000   0.49708744   -1.9040557   0.74488553   -1.1591702   0.12880263    11551.054     1000 
  212000   0.49383413   -1.8887733   0.74001045   -1.1487628   0.11376914    11523.021     1000 
  214000   0.48696062   -1.8684353   0.72971049   -1.1387248   0.14091544    11264.903     1000 
  216000   0.50135513   -1.9139562   0.75128067   -1.1626755   0.13521777    11376.693     1000 
  218000   0.51979012   -1.9507112   0.77890549   -1.1718057   0.13674659    11322.213     1000 
  220000   0.50629866   -1.9183929   0.75868854   -1.1597043   0.12513037    11436.402     1000 
  222000     0.520196   -1.9288127   0.77951371    -1.149299   0.13471325    11415.012     1000 
  224000   0.49461858     -1.92221   0.74118595    -1.181024   0.14196223    11332.872     1000 
  226000   0.51311346   -1.9629851   0.76890053   -1.1940846   0.12400758    11555.429     1000 
  228000   0.50200819   -1.9030617   0.75225928   -1.1508025   0.11486001    11563.058     1000 
  230000   0.47780597   -1.8927812   0.71599225    -1.176789   0.13062391    11321.099     1000 
  232000   0.50480674    -1.937053    0.7564529   -1.1806001   0.13338254    11348.642     1000 
  234000    0.5045481   -1.9144994   0.75606533    -1.158434   0.12963763    11383.922     1000 
  236000   0.52155027   -1.9258573   0.78154308   -1.1443142   0.13762039    11258.753     1000 
  238000   0.48999709   -1.9384339   0.73426063   -1.2041733   0.11043957    11529.228     1000 
  240000   0.51105514   -1.8847924   0.76581613   -1.1189763   0.13065799    11427.166     1000 
  242000   0.49863835   -1.9450978   0.74720956   -1.1978882   0.14134305    11342.875     1000 
  244000   0.51501629   -1.9158095   0.77175191   -1.1440576   0.14064739     11327.18     1000 
  246000   0.51565607   -1.9169206   0.77271062     -1.14421   0.13642982    11364.691     1000 
  248000   0.51110028   -1.9562427   0.76588377   -1.1903589   0.11493245    11492.897     1000 
  250000   0.50572365   -1.9434024   0.75782689   -1.1855755   0.12612926    11488.318     1000 
  252000   0.49815283   -1.9715693   0.74648201   -1.2250873   0.13419153    11351.445     1000 
  254000   0.47113741   -1.8775136   0.70599941   -1.1715141   0.12665324    11315.757     1000 
  256000   0.47622703   -1.9204758   0.71362621   -1.2068495   0.12411242    11475.373     1000 
  258000   0.47904293   -1.9172586   0.71784584   -1.1994128    0.1171939    11385.235     1000 
  260000   0.51914496    -1.917265   0.77793872   -1.1393262   0.14507664     11349.69     1000 
  262000   0.50092581   -1.9351942   0.75063733   -1.1845569   0.13221852    11493.957     1000 
  264000   0.49939191   -1.8818625   0.74833878   -1.1335237   0.13117355     11206.69     1000 
  266000   0.49613554   -1.9117597    0.7434591   -1.1683006    0.1196647    11570.561     1000 
  268000   0.50234778    -1.943162   0.75276815   -1.1903939   0.13639519    11398.555     1000 
  270000   0.49001431   -1.8820317   0.73428645   -1.1477452   0.10965042    11475.035     1000 
  272000   0.47239642   -1.9578013   0.70788604   -1.2499152   0.13441566    11291.826     1000 
  274000   0.49786941   -1.9229049   0.74605731   -1.1768476   0.12655969    11309.911     1000 
  276000   0.47810631   -1.9166667   0.71644231   -1.2002243   0.13006012    11278.423     1000 
  278000   0.50101792   -1.9216849   0.75077535   -1.1709096   0.13217649    11467.577     1000 
  280000   0.49893973    -1.905967   0.74766119   -1.1583058    0.1282676    11305.298     1000 
  282000   0.47833598   -1.9713658   0.71678646   -1.2545794   0.12668461    11543.384     1000 
  284000   0.50048448   -1.9250917   0.74997599   -1.1751157   0.15686291    11296.501     1000 
  286000   0.50598998   -1.9028353   0.75822599   -1.1446093   0.13183728    11437.715     1000 
  288000   0.50581603     -1.89556   0.75796533   -1.1375947   0.13312418    11270.761     1000 
  290000   0.48385651   -1.9538434   0.72505898   -1.2287844   0.14960306    11223.744     1000 
  292000   0.50141338   -1.8990005   0.75136795   -1.1476326   0.11860372    11356.152     1000 
  294000   0.49636906    -1.946457   0.74380904   -1.2026479   0.12937226    11451.304     1000 
  296000   0.51163148   -2.0199694   0.76667977   -1.2532897    0.1151568    11624.635     1000 
  298000   0.47321533   -1.9151841   0.70911317   -1.2060709   0.13805377    11339.045     1000 
  300000   0.48594846   -1.9271576   0.72819376   -1.1989639   0.14012923    11364.243     1000 
  302000   0.47832431   -1.9717783   0.71676898   -1.2550094   0.12939826    11412.012     1000 
  304000   0.51485657   -1.9718934   0.77151257   -1.2003808   0.14335093    11329.423     1000 
  306000   0.49892888   -1.9324025   0.74764492   -1.1847576   0.13062453    11423.794     1000 
  308000   0.46932656   -1.9752504   0.70328585   -1.2719645   0.12390449    11491.924     1000 
  310000   0.51292139   -1.8774186   0.76861271   -1.1088059    0.1352356    11275.709     1000 
  312000   0.52039478   -1.9239053   0.77981158   -1.1440937   0.13174779     11393.27     1000 
  314000   0.49374188   -1.9027505   0.73987221   -1.1628783   0.11588694    11508.373     1000 
  316000   0.49149325   -1.9282722   0.73650263   -1.1917696   0.13098105    11308.021     1000 
  318000   0.48506629   -1.9423685   0.72687184   -1.2154967   0.13660882     11431.42     1000 
  320000   0.49795448   -1.9296903   0.74618479   -1.1835055    0.1317625    11386.292     1000 
  322000   0.52147843   -1.9163057   0.78143543   -1.1348703   0.13338736    11329.195     1000 
  324000   0.48238608   -1.9570912   0.72285554   -1.2342357   0.12515846    11528.077     1000 
  326000    0.5138689   -1.9703155   0.77003255    -1.200283   0.12119656    11601.337     1000 
  328000   0.48026078   -1.9418862   0.71967078   -1.2222154   0.13968354    11372.096     1000 
  330000   0.51193315   -1.9260302   0.76713183   -1.1588984   0.13364116    11406.064     1000 
  332000   0.52098717   -1.8869086   0.78069928   -1.1062094   0.12645981    11354.366     1000 
  334000   0.49853694   -1.9213047    0.7470576   -1.1742471     0.137042    11241.639     1000 
  336000   0.51288418   -1.9097028   0.76855694   -1.1411459    0.1245596    11449.914     1000 
  338000   0.49191623   -1.8905201   0.73713647   -1.1533836   0.13883635    11276.662     1000 
  340000   0.48355937   -1.8977429   0.72461371   -1.1731292   0.13409391    11224.915     1000 
  342000   0.50690337   -1.9098343   0.75959469   -1.1502396   0.13675962    11203.611     1000 
  344000   0.49574185   -1.9148016   0.74286916   -1.1719325   0.12999762    11360.926     1000 
  346000   0.49984324    -1.927594   0.74901509   -1.1785789   0.12906053    11415.746     1000 
  348000   0.51329061   -1.9531733   0.76916598   -1.1840074   0.11841159    11574.041     1000 
  350000   0.49315467   -1.8992985   0.73899227   -1.1603062   0.12477688    11453.767     1000 
  352000   0.49826648   -1.9570064   0.74665231   -1.2103541   0.12796407    11449.962     1000 
  354000   0.48563064   -1.9145846   0.72771752    -1.186867    0.1218186    11380.002     1000 
  356000   0.53238139   -1.9152401   0.79777352   -1.1174666    0.1330915    11355.654     1000 
  358000     0.481535   -1.9239228    0.7215802   -1.2023426   0.11430103    11438.123     1000 
  360000   0.48199549   -1.9630736   0.72227024   -1.2408034   0.13346232     11331.45     1000 
  362000   0.49552948    -1.860417   0.74255093   -1.1178661    0.1329513    11370.316     1000 
  364000   0.49321148   -1.9328702   0.73907741   -1.1937928   0.12224947    11459.708     1000 
  366000   0.51670367   -1.9055987   0.77428045   -1.1313182   0.13603224    11301.995     1000 
  368000   0.50632342   -1.9152411   0.75872565   -1.1565154   0.12790279    11365.891     1000 
  370000    0.4806686   -1.9288378   0.72028189   -1.2085559   0.13144838    11504.359     1000 
  372000   0.49484498   -1.9202904    0.7415252   -1.1787652   0.12997152    11351.789     1000 
  374000   0.48842497   -1.8715203   0.73190482   -1.1396155   0.12160477    11474.547     1000 
  376000   0.50681012   -1.9171675   0.75945497   -1.1577125    0.1303543    11318.506     1000 
  378000   0.48489631   -1.9299813   0.72661712   -1.2033642   0.12247827    11453.867     1000 
  380000   0.48376473   -1.8914938   0.72492144   -1.1665723    0.1263388    11511.375     1000 
  382000   0.50542658   -1.9360716   0.75738173   -1.1786899   0.12226936    11493.914     1000 
  384000   0.48325415   -1.9352263   0.72415634     -1.21107   0.12173346    11428.658     1000 
  386000   0.48411842   -1.9119394   0.72545145   -1.1864879   0.12428155    11401.926     1000 
  388000   0.49403166   -1.9132019   0.74030644   -1.1728955   0.11359069    11487.854     1000 
  390000   0.50180725   -1.9119767   0.75195817   -1.1600185   0.15475428    11174.329     1000 
  392000   0.49289683   -1.9140937   0.73860589   -1.1754878    0.1115254    11571.084     1000 
  394000   0.51456399   -1.9402056   0.77107414   -1.1691315   0.13869799    11396.451     1000 
  396000   0.51958672   -1.9481496    0.7786007   -1.1695489    0.1299079    11444.685     1000 
  398000   0.52205514    -1.835453   0.78229963   -1.0531533   0.13444925    11390.529     1000 
  400000   0.49612297    -1.956955   0.74344027   -1.2135148    0.1200731    11596.199     1000 
  402000   0.48021007   -1.8866781   0.71959479   -1.1670833   0.13245047    11341.188     1000 
  404000   0.50070591   -1.8907301    0.7503078   -1.1404223   0.12037344    11425.787     1000 
  406000   0.49318414    -1.927498   0.73903643   -1.1884615     0.130917    11345.033     1000 
  408000   0.50003851   -1.8894594    0.7493077   -1.1401517   0.14017749    11330.709     1000 
  410000   0.49916074   -1.9108472   0.74799238   -1.1628548   0.13170001    11396.617     1000 
  412000   0.48205025   -1.9334635    0.7223523   -1.2111112   0.14729688    11214.259     1000 
  414000   0.48440094   -1.9113803   0.72587481   -1.1855055   0.12275818    11454.293     1000 
  416000   0.47938186   -1.9138951   0.71835371   -1.1955414   0.12680775    11342.362     1000 
  418000   0.49218509   -1.8407382   0.73753936   -1.1031988   0.13350204    11398.351     1000 
  420000   0.51827984   -1.8976324   0.77664234     -1.12099   0.12811072    11425.866     1000 
  422000   0.51915366   -1.9677554   0.77795176   -1.1898036   0.11546559    11568.934     1000 
  424000   0.51823153   -1.8997789   0.77656994    -1.123209   0.12681093    11425.859     1000 
  426000   0.49599606   -1.9130865   0.74325009   -1.1698364   0.12651764    11478.957     1000 
  428000   0.50121544   -1.9550283   0.75107134    -1.203957   0.12400305    11552.805     1000 
  430000   0.50062726   -1.8594292   0.75018994   -1.1092392   0.12961501    11363.345     1000 
  432000   0.49437475   -1.8945091   0.74082056   -1.1536885   0.13328251    11219.665     1000 
  434000   0.52629777   -1.9647267   0.78865721   -1.1760695   0.12643552    11464.097     1000 
  436000   0.49573704   -1.9548435   0.74286195   -1.2119816   0.13114448    11385.708     1000 
  438000   0.49209283    -1.926825   0.73740111   -1.1894239   0.12376829    11430.479     1000 
  440000   0.50322171   -1.9396271   0.75407773   -1.1855494   0.12787062    11418.113     1000 
  442000   0.49564885   -1.8749541    0.7427298   -1.1322243   0.12240129    11439.655     1000 
  444000   0.48405232   -1.9747885    0.7253524   -1.2494361   0.13162795    11479.133     1000 
  446000    0.5355816   -1.9078496   0.80256903   -1.1052806   0.12760328    11416.525     1000 
  448000   0.50322819   -1.8970745   0.75408745    -1.142987   0.13547145    11273.395     1000 
  450000   0.49657468   -1.9121818   0.74411716   -1.1680647   0.13538892    11357.595     1000 
  452000   0.49610164   -1.8723136   0.74340831   -1.1289053   0.13316679    11247.539     1000 
  454000    0.5068297   -1.9502887    0.7594843   -1.1908044   0.12759828    11431.777     1000 
  456000    0.5084953   -1.9151689   0.76198021   -1.1531887   0.12928879     11341.23     1000 
  458000   0.50675136   -1.9143816   0.75936691   -1.1550147   0.13238141    11233.555     1000 
  460000   0.51999861   -1.9080188   0.77921791   -1.1288009   0.12855079    11293.806     1000 
  462000   0.48905502   -1.9113829   0.73284895   -1.1785339   0.12551432    11458.104     1000 
  464000   0.52001798   -1.9076886   0.77924695   -1.1284417   0.13220373     11336.26     1000 
  466000    0.4934214   -1.9093194   0.73939197   -1.1699274   0.12900386    11390.137     1000 
  468000   0.50027541   -1.9178586    0.7496627   -1.1681959   0.14672222    11333.566     1000 
  470000   0.50851748   -1.9361026   0.76201345   -1.1740892   0.13210413    11435.275     1000 
  472000   0.48540231   -1.9746146   0.72737537   -1.2472392   0.12704112    11485.487     1000 
  474000   0.51231582   -1.9173354   0.76770526   -1.1496301   0.12545795    11336.654     1000 
  476000   0.50473783   -1.9252134   0.75634963   -1.1688638   0.12689304    11430.474     1000 
  478000   0.50832239   -1.9367476   0.76172111   -1.1750264     0.123517    11396.039     1000 
  480000   0.51423062   -1.8899451   0.77057458   -1.1193705   0.13642464    11407.891     1000 
  482000   0.50678978   -1.8973514   0.75942449   -1.1379269   0.13422637    11285.402     1000 
  484000   0.50064888   -1.8916543   0.75022235    -1.141432    0.1318624    11205.049     1000 
  486000   0.51439064   -1.9121621   0.77081438   -1.1413477   0.12453334    11451.439     1000 
  488000   0.48722127   -1.9550749   0.73010107   -1.2249738   0.13043818    11411.094     1000 
  490000   0.50261019    -1.900654   0.75316137   -1.1474927   0.13531067    11291.559     1000 
  492000   0.49728901   -1.8668978   0.74518759   -1.1217102   0.13531326    11192.397     1000 
  494000   0.48334166   -1.8784625   0.72428748    -1.154175   0.13159283    11343.285     1000 
  496000   0.51930564   -1.8953551   0.77817951   -1.1171756   0.13012584    11390.596     1000 
  498000    0.4975466   -1.9097132   0.74557358   -1.1641396   0.14130524     11319.75     1000 
  500000   0.48684828   -1.9233274   0.72954215   -1.1937853   0.11961815    11411.719     1000 
  502000   0.50145934   -1.9269835   0.75143683   -1.1755467   0.11944714     11438.87     1000 
  504000   0.51978752   -1.9031498    0.7789016   -1.1242482   0.13298996    11312.437     1000 
  506000   0.46699015   -1.9617001   0.69978474   -1.2619153   0.11674379    11526.105     1000 
  508000   0.48836882   -1.9039407   0.73182068     -1.17212    0.1207648    11450.578     1000 
  510000   0.49307089   -1.9273091   0.73886673   -1.1884424   0.12212557    11445.013     1000 
  512000   0.50574427   -1.8891779   0.75785779   -1.1313201   0.13946061    11328.549     1000 
  514000   0.48432141   -1.9567441   0.72575563   -1.2309885   0.13611626    11417.505     1000 
  516000    0.4905155   -1.9409256   0.73503748   -1.2058882   0.12849787     11379.16     1000 
  518000   0.50967828   -1.9173213    0.7637529   -1.1535684   0.12877706    11381.565     1000 
  520000   0.49887157   -1.9288472   0.74755905   -1.1812881   0.13925305    11239.268     1000 
  522000   0.51473884   -1.9474623   0.77133615   -1.1761262   0.13876819    11439.231     1000 
  524000   0.46916847   -1.9475743   0.70304895   -1.2445254   0.12473271     11280.09     1000 
  526000   0.50052791   -1.9522788   0.75004108   -1.2022377    0.1320432    11300.786     1000 
  528000   0.51392404   -1.9010993   0.77011517   -1.1309841   0.13923138    11427.737     1000 
  530000    0.5134093   -1.9061219   0.76934383   -1.1367781   0.12178974    11486.956     1000 
  532000   0.51600431   -1.9149653   0.77323246   -1.1417328   0.13362249    11338.308     1000 
  534000   0.51257304   -1.9187223   0.76809071   -1.1506316   0.12969523    11439.098     1000 
  536000   0.50639252   -1.9377357   0.75882919   -1.1789065   0.13340565    11422.287     1000 
  538000   0.47617857   -1.8572203   0.71355358   -1.1436668   0.14440559    11181.916     1000 
  540000   0.48909059   -1.8942658   0.73290224   -1.1613636   0.12903886     11349.18     1000 
  542000   0.50277084   -1.9352894   0.75340211   -1.1818873   0.12313356    11499.657     1000 
  544000   0.52585023   -1.8904041   0.78798657   -1.1024176   0.12759389    11430.638     1000 
  546000    0.4943823   -1.9129015   0.74083188   -1.1720696   0.13733635    11394.128     1000 
  548000    0.5012725   -1.9491084   0.75115684   -1.1979516   0.11906468    11501.843     1000 
  550000   0.51018447   -1.9401923   0.76451143   -1.1756809   0.13027263    11507.112     1000 
  552000   0.48104307   -1.9438077   0.72084303   -1.2229647   0.12613416    11357.098     1000 
  554000   0.52178721    -1.863729   0.78189813   -1.0818309   0.13953125    11295.449     1000 
  556000   0.51099219   -1.9338217    0.7657218   -1.1680999   0.11680274    11458.263     1000 
  558000   0.47788229    -1.912024    0.7161066   -1.1959173   0.13276204    11328.058     1000 
  560000   0.47440193    -1.926639   0.71089129   -1.2157477   0.12437393    11304.463     1000 
  562000   0.49967276   -1.9669632   0.74875963   -1.2182036   0.11550239    11542.116     1000 
  564000   0.50402106   -1.8848399   0.75527556   -1.1295643   0.12458857    11445.352     1000 
  566000   0.49646535   -1.9160859   0.74395333   -1.1721326   0.12992357    11328.044     1000 
  568000   0.47894607   -1.9241553   0.71770068   -1.2064546   0.12860792    11412.277     1000 
  570000   0.49153446   -1.9394443   0.73656439   -1.2028799   0.13510592    11489.133     1000 
  572000   0.49483347   -1.8803119   0.74150795   -1.1388039   0.13544943    11284.427     1000 
  574000   0.49278065   -1.9882247    0.7384318   -1.2497929   0.11991707    11427.993     1000 
  576000   0.49849981   -1.9460178   0.74700196   -1.1990158   0.13405225    11282.137     1000 
  578000   0.48316356   -1.9026227   0.72402059   -1.1786021   0.13415092    11394.111     1000 
  580000   0.50298369   -1.9309509   0.75372106   -1.1772299    0.1335587    11235.146     1000 
  582000   0.47198401   -1.8836371   0.70726804   -1.1763691   0.11798852    11448.533     1000 
  584000   0.45956839   -1.9408377   0.68866323   -1.2521745   0.13276226    11372.175     1000 
  586000   0.49787948   -1.9310315    0.7460724   -1.1849591    0.1154161    11558.679     1000 
  588000   0.49023774   -1.8601737   0.73462125   -1.1255524   0.13391111    11292.677     1000 
  590000   0.49063723   -1.9146606   0.73521989   -1.1794407    0.1233349     11445.72     1000 
  592000   0.48384161   -1.8814473   0.72503665   -1.1564107   0.11757832     11480.31     1000 
  594000   0.51521564   -1.8699929   0.77205064   -1.0979423   0.12360207    11608.094     1000 
  596000   0.49336683   -1.9106514   0.73931019   -1.1713413   0.13121362    11346.541     1000 
  598000   0.49264313   -1.9106012   0.73822574   -1.1723754   0.13414367    11356.884     1000 
  600000   0.49365421   -1.9505931   0.73974083   -1.2108523   0.12076707    11592.555     1000 
  602000   0.50653788   -1.8858727   0.75904701   -1.1268257   0.13266303    11367.356     1000 
  604000   0.48276988   -1.9123329   0.72343067   -1.1889022   0.12069658    11303.267     1000 
  606000   0.48087862   -1.9598138   0.72059661   -1.2392172   0.12853644    11317.795     1000 
  608000   0.51333061   -1.9511146   0.76922591   -1.1818887     0.143262    11279.094     1000 
  610000   0.50645043   -1.9538461   0.75891598   -1.1949301   0.12326209     11419.46     1000 
  612000   0.48568611   -1.9568963   0.72780063   -1.2290957   0.12592984     11559.15     1000 
  614000   0.50846334   -1.9124887   0.76193232   -1.1505563   0.12296451    11385.709     1000 
  616000   0.49389084   -1.8697328   0.74009542   -1.1296374   0.12534912    11385.502     1000 
  618000   0.49717319   -1.9070967   0.74501402   -1.1620826   0.12163055    11391.037     1000 
  620000   0.50896451    -1.887687   0.76268332   -1.1250037   0.12773047     11367.74     1000 
  622000   0.50201745   -1.9373087   0.75227314   -1.1850355   0.14130757    11278.828     1000 
  624000   0.47960426   -1.9060493   0.71868699   -1.1873623   0.12605635    11413.175     1000 
  626000   0.50221391   -1.9227849   0.75256754   -1.1702174   0.12378153    11485.744     1000 
  628000     0.495365   -1.8506157   0.74230446   -1.1083113   0.13301989    11094.006     1000 
  630000   0.47788728   -1.9257918   0.71611409   -1.2096777   0.12204004    11493.679     1000 
  632000   0.49158976   -1.9221411   0.73664725   -1.1854939    0.1315089    11411.518     1000 
  634000   0.51249413   -1.9180117   0.76797245   -1.1500392   0.14343317    11267.704     1000 
  636000   0.49803392   -1.8700096   0.74630384   -1.1237058   0.13579561     11245.11     1000 
  638000   0.49255886     -1.94949   0.73809945   -1.2113906    0.1309316    11328.595     1000 
  640000   0.47604421   -1.9089609   0.71335225   -1.1956086   0.12774583    11281.166     1000 
  642000   0.51053237   -1.8954821   0.76503276   -1.1304493   0.11854895     11421.33     1000 
  644000   0.49615101    -1.916288   0.74348229   -1.1728057   0.13302813    11418.489     1000 
  646000   0.49047897   -1.9448741   0.73498273   -1.2098913   0.11743458    11446.112     1000 
  648000   0.49213772   -1.8980984   0.73746837     -1.16063   0.12925353    11470.029     1000 
  650000   0.50104743   -1.9161472   0.75081957   -1.1653276   0.13279344    11250.482     1000 
  652000   0.52450646   -1.8651952   0.78597293   -1.0792222   0.12552098    11379.872     1000 
  654000   0.51085319   -1.9099449    0.7655135   -1.1444314   0.13147752    11352.914     1000 
  656000   0.49766454   -1.8473863   0.74575032    -1.101636   0.13471898     11287.66     1000 
  658000   0.49399951   -1.8904725   0.74025827   -1.1502143   0.12126901    11412.547     1000 
  660000   0.51746629   -1.9083428   0.77542323   -1.1329196    0.1335384    11276.456     1000 
  662000   0.50607629   -1.9222017   0.75835531   -1.1638463   0.12491125    11383.235     1000 
  664000   0.48763097   -1.8432123   0.73071501   -1.1124973   0.12668664    11407.356     1000 
  666000    0.5054552   -1.8935858   0.75742462   -1.1361612   0.13429032    11345.762     1000 
  668000   0.50527542   -1.8956166   0.75715522   -1.1384614   0.13002226    11273.472     1000 
  670000   0.50244658   -1.9000172   0.75291621    -1.147101   0.12680509    11319.098     1000 
  672000   0.49020969   -1.9762053   0.73457921   -1.2416261   0.13227936    11341.015     1000 
  674000   0.50631167   -1.9117972   0.75870804   -1.1530892   0.14936971    11135.099     1000 
  676000   0.49535487   -1.9383377   0.74228928   -1.1960484    0.1285914    11316.877     1000 
  678000   0.49662371   -1.9852155   0.74419063   -1.2410249   0.12482876    11564.479     1000 
  680000   0.50193183   -1.9381991   0.75214485   -1.1860542   0.12365328    11378.619     1000 
  682000   0.51551044   -1.9246155    0.7724924   -1.1521231   0.12257964      11480.9     1000 
  684000    0.4787294   -1.9109528   0.71737601   -1.1935768   0.13162056    11369.555     1000 
  686000    0.5016893   -1.9418392   0.75178141   -1.1900577   0.12539063    11474.853     1000 
  688000    0.4976182   -1.9014864   0.74568087   -1.1558055   0.12632013    11329.253     1000 
  690000   0.50820052   -1.9123576   0.76153848   -1.1508192   0.12830525     11441.56     1000 
  692000   0.50130278   -1.9134866   0.75120222   -1.1622843   0.13478224    11441.494     1000 
  694000   0.49917977   -1.9701163   0.74802088   -1.2220955   0.11552357    11529.084     1000 
  696000   0.50060047   -1.8797393   0.75014981   -1.1295895   0.13491719    11276.959     1000 
  698000   0.49333519   -1.9141435   0.73926278   -1.1748807   0.13162675    11343.822     1000 
  700000   0.51356138   -1.9003347   0.76957173    -1.130763   0.13013554    11383.913     1000 
  702000   0.49247206   -1.9256572   0.73796937   -1.1876878   0.12752018    11455.878     1000 
  704000   0.50055339   -1.9195448   0.75007926   -1.1694656   0.12329954    11492.664     1000 
  706000   0.47423579   -1.9623019   0.71064234   -1.2516596   0.12515394    11552.712     1000 
  708000   0.48842947   -1.9133223   0.73191156   -1.1814107   0.13348231    11393.088     1000 
  710000   0.49134205   -1.9415206   0.73627607   -1.2052445   0.11988978    11404.795     1000 
  712000   0.50654709   -1.9266014   0.75906081   -1.1675406   0.13375273    11527.781     1000 
  714000   0.50129445   -1.8827404   0.75118974   -1.1315507   0.13848767    11325.741     1000 
  716000   0.49280441   -1.8930893    0.7384674   -1.1546219   0.13607004    11282.846     1000 
  718000   0.53281431   -1.9245806   0.79842224   -1.1261584   0.13680657    11351.183     1000 
  720000   0.49179598   -1.9161618   0.73695628   -1.1792055   0.12938027    11409.691     1000 
  722000   0.50878617    -1.923388   0.76241607   -1.1609719   0.13635695    11313.798     1000 
  724000   0.49863455   -1.9354229   0.74720388    -1.188219   0.11944493    11498.026     1000 
  726000   0.51679855   -1.8866765   0.77442263   -1.1122539   0.12968154    11489.209     1000 
  728000   0.50488949   -1.8706485    0.7565769   -1.1140716   0.12633662    11427.959     1000 
  730000   0.49696691   -1.9064554   0.74470492   -1.1617505   0.13087283    11350.143     1000 
  732000   0.49636215   -1.9319355   0.74379868   -1.1881369   0.12283928    11569.928     1000 
  734000   0.47765784   -1.8823305   0.71577027   -1.1665602   0.15011136    11128.565     1000 
  736000   0.50304187   -1.9135821   0.75380824   -1.1597739   0.13992264    11207.509     1000 
  738000   0.46556937   -1.9438348    0.6976557   -1.2461791    0.1329288    11440.543     1000 
  740000   0.49335787   -1.9571073   0.73929677   -1.2178105   0.12226606    11596.095     1000 
  742000   0.50775139   -1.9260849   0.76086545   -1.1652194   0.13272285    11343.186     1000 
  744000   0.50169601   -1.9166647   0.75179148   -1.1648732   0.13522797    11409.589     1000 
  746000   0.49737456   -1.9089389   0.74531577   -1.1636231   0.13344424    11384.101     1000 
  748000   0.49021292    -1.953842   0.73458407    -1.219258   0.12743557    11344.614     1000 
  750000   0.51252415   -1.8953582   0.76801744   -1.1273407   0.14153158    11302.538     1000 
  752000   0.50265375   -1.8615499   0.75322665   -1.1083232   0.13147815    11325.723     1000 
  754000   0.50924482   -1.8816063   0.76310337   -1.1185029   0.13420778    11200.589     1000 
  756000   0.52267358   -1.9609804   0.78322636    -1.177754   0.12885958    11511.557     1000 
  758000   0.50204117   -1.9469911    0.7523087   -1.1946825   0.13298372    11448.452     1000 
  760000   0.48211987   -1.9617499   0.72245662   -1.2392933   0.12556661    11433.984     1000 
  762000   0.51306628   -1.8899182   0.76882982   -1.1210884   0.12892528    11300.659     1000 
  764000   0.51023648   -1.9298356   0.76458936   -1.1652462   0.12107875    11581.838     1000 
  766000   0.48975859   -1.9341485   0.73390324   -1.2002452   0.11590017    11560.942     1000 
  768000   0.49824164   -1.9765077    0.7466151   -1.2298926   0.12224064    11467.492     1000 
  770000   0.49178458   -1.8832924   0.73693919   -1.1463532   0.12619431    11377.886     1000 
  772000   0.50245788   -1.9568816   0.75293314   -1.2039485   0.11891937    11523.497     1000 
  774000   0.48028471   -1.9299672   0.71970663   -1.2102606   0.13241074    11410.243     1000 
  776000   0.52184295   -1.9347574   0.78198166   -1.1527757   0.12438956    11334.552     1000 
  778000   0.50531142   -1.9195906   0.75720916   -1.1623814    0.1306386    11392.275     1000 
  780000   0.48045754    -1.908997   0.71996563   -1.1890313   0.13318764    11444.361     1000 
  782000   0.46435805    -1.921493   0.69584054   -1.2256525   0.12992108    11305.523     1000 
  784000   0.48646239   -1.9124328   0.72896389   -1.1834689   0.12405833    11449.994     1000 
  786000   0.48945498   -1.9387113   0.73344829    -1.205263   0.12783687    11398.835     1000 
  788000   0.47737371   -1.9304088    0.7153445   -1.2150643   0.13674364    11375.238     1000 
  790000   0.48276911   -1.9218391   0.72342951   -1.1984096   0.12331564    11477.285     1000 
  792000   0.47410725   -1.9677373   0.71044972   -1.2572876   0.12890604    11435.637     1000 
  794000   0.50061804   -1.9202467   0.75017613   -1.1700706   0.13464417    11472.324     1000 
  796000   0.50782642   -1.8799714   0.76097789   -1.1189935   0.13391227     11345.07     1000 
  798000   0.50040932    -1.893554   0.74986336   -1.1436906    0.1501749     11160.74     1000 
  800000   0.46805338    -1.937971   0.70137799    -1.236593   0.11097411    11514.911     1000 
  802000   0.49175605   -1.9347385   0.73689644   -1.1978421   0.12385316    11366.929     1000 
  804000   0.49960534   -1.9491092    0.7486586   -1.2004506   0.12065951    11514.601     1000 
  806000   0.48910835    -1.958718   0.73292886   -1.2257891   0.13547297    11478.269     1000 
  808000   0.50397245   -1.8872229   0.75520272   -1.1320202    0.1282504    11439.699     1000 
  810000   0.51274251   -1.9614844   0.76834465   -1.1931397   0.11648347    11681.597     1000 
  812000   0.52201685   -1.9373046   0.78224225   -1.1550624   0.13293991    11366.573     1000 
  814000   0.52696031   -1.9558327   0.78965003   -1.1661827   0.13098378     11380.66     1000 
  816000   0.48783154   -1.9355489   0.73101557   -1.2045333   0.13791453    11335.246     1000 
  818000   0.49806696   -1.9123095   0.74635334   -1.1659562   0.12778934    11336.321     1000 
  820000   0.48873389   -1.9913683   0.73236773   -1.2590005   0.12749583    11519.698     1000 
  822000     0.493922   -1.8600057   0.74014212   -1.1198636   0.14198322    11299.533     1000 
  824000   0.49201687   -1.8871199   0.73728728   -1.1498326    0.1364221    11264.136     1000 
  826000   0.49176074   -1.9185476   0.73690347   -1.1816442   0.14311365    11294.834     1000 
  828000   0.49078816   -1.9350582   0.73544606   -1.1996122   0.13076546    11367.098     1000 
  830000   0.51162635   -1.9306457   0.76667209   -1.1639736   0.13516351    11458.464     1000 
  832000    0.4923554    -1.944406   0.73779456   -1.2066114   0.11707419    11488.779     1000 
  834000   0.49905133   -1.9215067   0.74782841   -1.1736782   0.13049222    11241.531     1000 
  836000   0.50729185   -1.9466105   0.76017684   -1.1864337   0.11804154    11666.944     1000 
  838000   0.49085834   -1.9428403   0.73555122   -1.2072891   0.12624758    11429.372     1000 
  840000   0.50155448    -1.966932   0.75157938   -1.2153526   0.12521049    11417.223     1000 
  842000   0.50850153   -1.9556791   0.76198954   -1.1936896     0.134773    11411.816     1000 
  844000   0.51027945   -1.8868285   0.76465375   -1.1221748   0.13583113    11379.432     1000 
  846000   0.51463654   -1.8830039   0.77118285   -1.1118211    0.1330328    11348.875     1000 
  848000   0.50227445   -1.9164439   0.75265826   -1.1637856   0.12914016    11321.136     1000 
  850000   0.50314949   -1.9177556   0.75396951   -1.1637861   0.12880689     11426.34     1000 
  852000   0.51964097   -1.9223741   0.77868199   -1.1436921   0.12824202     11485.61     1000 
  854000   0.50859224   -1.9123014   0.76212548   -1.1501759   0.14117614     11289.34     1000 
  856000   0.50765348   -1.9156645   0.76071874   -1.1549457   0.12866779     11424.94     1000 
  858000   0.50729903    -1.891716    0.7601876   -1.1315284   0.13487028    11325.295     1000 
  860000   0.49941507   -1.9881994   0.74837348   -1.2398259   0.13655503    11418.504     1000 
  862000   0.50698003   -1.9349794   0.75970958   -1.1752698   0.14561015    11298.007     1000 
  864000   0.47451846   -1.9430183   0.71106591   -1.2319524   0.12204092    11569.239     1000 
  866000   0.50428651   -1.9019021   0.75567334   -1.1462288   0.12637999    11556.533     1000 
  868000   0.48792281   -1.9028508   0.73115233   -1.1716985   0.13093344    11456.123     1000 
  870000   0.49497403   -1.9497942   0.74171859   -1.2080756   0.12755325    11395.922     1000 
  872000   0.47784844    -1.965475   0.71605588   -1.2494191   0.12344967    11375.009     1000 
  874000   0.48586216    -1.919289   0.72806445   -1.1912246   0.13962575    11305.521     1000 
  876000   0.47822398   -1.8912105   0.71661863   -1.1745919   0.12357829    11378.457     1000 
  878000   0.49603307   -1.9041553   0.74330555   -1.1608497   0.12852443     11377.74     1000 
  880000   0.49377112   -1.8973354   0.73991602   -1.1574194   0.12712058     11508.76     1000 
  882000    0.4995586   -1.8506143   0.74858856   -1.1020257   0.12800255    11359.308     1000 
  884000   0.51641658   -1.8762448   0.77385024   -1.1023945   0.12961898    11357.815     1000 
  886000   0.50703747   -1.8960308   0.75979564   -1.1362351   0.12781599    11344.015     1000 
  888000   0.50365652   -1.9220684    0.7547293   -1.1673391   0.11849153    11500.878     1000 
  890000   0.49655278   -1.9728299   0.74408434   -1.2287455   0.12691063    11536.838     1000 
  892000   0.49271813   -1.9093797   0.73833811   -1.1710415   0.13027074    11291.948     1000 
  894000   0.50777271   -1.9625605   0.76089741   -1.2016631   0.12877999    11425.983     1000 
  896000   0.51264258   -1.9139247   0.76819491   -1.1457298   0.12384438    11482.319     1000 
  898000   0.47863773   -1.9162651   0.71723864   -1.1990265   0.13699348    11286.255     1000 
  900000   0.51848057   -1.8786692   0.77694313    -1.101726   0.12795757    11271.846     1000 
  902000    0.4999816     -1.91975   0.74922242   -1.1705276   0.12863746     11378.44     1000 
  904000   0.50068907   -1.9329271   0.75028257   -1.1826445   0.11810919    11426.363     1000 
  906000   0.49132647   -1.9735869   0.73625272   -1.2373342   0.13520299    11405.112     1000 
  908000   0.51133443   -1.8918045   0.76623464   -1.1255698   0.11457598    11541.249     1000 
  910000   0.49657156   -1.9187619   0.74411248   -1.1746494   0.13381545    11296.365     1000 
  912000   0.50948245   -1.9526257   0.76345945   -1.1891662   0.12425589    11458.014     1000 
  914000   0.48677305   -1.8955887   0.72942941   -1.1661593   0.12456227    11314.516     1000 
  916000   0.51168067   -1.9699996   0.76675349   -1.2032461   0.13194499    11403.543     1000 
  918000   0.49490216   -1.9083108   0.74161089      -1.1667   0.12777967     11382.86     1000 
  920000   0.50994565   -1.9677794   0.76415356   -1.2036258   0.12538114    11477.892     1000 
  922000    0.4919354   -1.9150456    0.7371652   -1.1778804   0.12502404    11381.894     1000 
  924000   0.50408297   -1.8264839   0.75536834   -1.0711156   0.13649728    11165.736     1000 
  926000   0.49870594   -1.9285035   0.74731085   -1.1811927   0.12039018    11531.702     1000 
  928000   0.50481923   -1.9215967   0.75647162    -1.165125   0.13745027    11336.782     1000 
  930000   0.51097069   -1.9209083   0.76568958   -1.1552187   0.13042909    11473.643     1000 
  932000   0.49243818   -1.8798443   0.73791862   -1.1419257    0.1268184    11421.363     1000 
  934000   0.49929898   -1.9116695   0.74819952     -1.16347   0.12463615    11372.721     1000 
  936000   0.50474292   -1.8957653   0.75635727   -1.1394081   0.13877216    11259.861     1000 
  938000   0.48565854   -1.8869249   0.72775932   -1.1591655   0.12605471    11384.481     1000 
  940000   0.51529848   -1.8549711   0.77217477   -1.0827963   0.14640308    11256.512     1000 
  942000   0.49764267   -1.8740616   0.74571753    -1.128344   0.12912903    11352.324     1000 
  944000   0.49773995   -1.8914925   0.74586332   -1.1456292   0.12430084    11418.033     1000 
  946000   0.46696027   -1.9338677   0.69973996   -1.2341277   0.13783589    11370.128     1000 
  948000   0.50338151   -1.8997628   0.75431719   -1.1454456    0.1491333    11212.356     1000 
  950000   0.49894131   -1.9771013   0.74766356   -1.2294378    0.1288093    11455.328     1000 
  952000   0.50696773   -1.9581152   0.75969115   -1.1984241   0.13244869    11525.595     1000 
  954000   0.49595767   -1.8786023   0.74319258   -1.1354097   0.12462763    11544.633     1000 
  956000   0.52611991   -1.9621067   0.78839068    -1.173716   0.13934677    11340.788     1000 
  958000   0.50017865   -1.8586957   0.74951771    -1.109178     0.141972    11151.668     1000 
  960000    0.5024491   -1.9265827   0.75291998   -1.1736627   0.12749704    11343.694     1000 
  962000   0.48387525   -1.9471937   0.72508707   -1.2221066   0.12148016     11383.04     1000 
  964000   0.50938742   -1.9067859   0.76331706   -1.1434688   0.12447548    11536.438     1000 
  966000   0.47973053   -1.9313825    0.7188762   -1.2125063   0.12983833    11310.806     1000 
  968000   0.50822013   -1.9238967   0.76156787   -1.1623288   0.13239046    11346.163     1000 
  970000   0.49430936   -1.9427238   0.74072258   -1.2020012   0.13652559    11226.344     1000 
  972000   0.49362276   -1.8879543   0.73969371   -1.1482606   0.12483114    11517.392     1000 
  974000   0.49921483   -1.9086005   0.74807343   -1.1605271   0.13769679    11309.165     1000 
  976000   0.49628804   -1.9681211   0.74368763   -1.2244334   0.10592579    11676.146     1000 
  978000   0.49029202   -1.9070562   0.73470259   -1.1723536   0.13760433    11181.742     1000 
  980000   0.51124189   -1.9555016   0.76609597   -1.1894057   0.13648938    11343.754     1000 
  982000   0.50498006   -1.9274967   0.75671262   -1.1707841   0.13485006     11367.16     1000 
  984000   0.49901635   -1.9050844     0.747776   -1.1573084   0.13744066    11356.308     1000 
  986000   0.49297721   -1.8952814   0.73872635    -1.156555   0.12396383    11383.523     1000 
  988000   0.51383158   -1.8862693   0.76997663   -1.1162927   0.12177964    11414.245     1000 
  990000   0.49609899   -1.8974926   0.74340433   -1.1540883   0.13562119    11372.234     1000 
  992000   0.49972046   -1.9036333    0.7488311   -1.1548022   0.13678204    11329.626     1000 
  994000   0.50136965   -1.9408925   0.75130242     -1.18959   0.13680571    11257.467     1000 
  996000   0.49732223   -1.9238294   0.74523736    -1.178592   0.12882862    11416.313     1000 
  998000   0.48584302   -1.9052717   0.72803577    -1.177236   0.14332092    11313.125     1000 
 1000000   0.48322756   -1.8796047   0.72411649   -1.1554882   0.12749277    11286.778     1000 
 1002000   0.50146691   -1.9491701   0.75144816    -1.197722   0.11601496    11441.649     1000 
 1004000   0.50027408   -1.9334525   0.74966071   -1.1837918   0.12596537    11333.953     1000 
 1006000    0.4992984   -1.8810083   0.74819865   -1.1328097   0.14590042     11250.74     1000 
 1008000   0.51342461   -1.8594869   0.76936678   -1.0901201    0.1184699    11315.268     1000 
 1010000   0.49091165   -1.9007163   0.73563111   -1.1650852   0.12790993    11366.733     1000 
 1012000   0.51285683   -1.9602966   0.76851596   -1.1917806   0.13236419    11315.346     1000 
 1014000   0.50617949   -1.9616979   0.75850996    -1.203188   0.12781752    11416.051     1000 
 1016000   0.51671362   -1.8959019   0.77429536   -1.1216066    0.1245586    11448.846     1000 
 1018000   0.51469067   -1.9301049   0.77126397    -1.158841   0.12790389    11443.327     1000 
 1020000   0.48628104   -1.9378596   0.72869214   -1.2091675   0.13575757    11287.161     1000 
 1022000   0.50589692   -1.9289296   0.75808654   -1.1708431   0.13949702    11310.108     1000 
 1024000   0.50166768    -1.892348   0.75174902    -1.140599   0.11964155    11608.902     1000 
 1026000   0.50547782   -1.9175549   0.75745851   -1.1600964   0.13281091    11354.361     1000 
 1028000   0.49365347   -1.8924339   0.73973973   -1.1526942   0.13386636    11374.636     1000 
 1030000   0.49005223   -1.9269885   0.73434327   -1.1926453   0.13783672    11351.826     1000 
 1032000   0.49551812   -1.9181994   0.74253391   -1.1756655   0.12181107     11522.49     1000 
 1034000   0.49544057   -1.9111965   0.74241769   -1.1687788   0.11644424    11576.546     1000 
 1036000   0.49557814   -1.8764436   0.74262384   -1.1338198   0.14230083    11302.978     1000 
 1038000     0.509582   -1.9060369   0.76360863   -1.1424283   0.13179221    11225.139     1000 
 1040000   0.51872512   -1.9125148   0.77730959   -1.1352052   0.13595548    11393.179     1000 
 1042000   0.48452224   -1.8717638   0.72605658   -1.1457072   0.12554829    11389.881     1000 
 1044000   0.50873869   -1.8695337   0.76234492   -1.1071888   0.14755961    11266.038     1000 
 1046000   0.49176546   -1.9150468   0.73691055   -1.1781363   0.13169334      11328.7     1000 
 1048000   0.52353968   -1.9215102   0.78452421    -1.136986   0.13261763    11340.572     1000 
 1050000   0.47822423   -1.9172845   0.71661901   -1.2006654   0.12961215    11308.611     1000 
 1052000   0.48257484   -1.8809238    0.7231384   -1.1577854   0.12617118    11388.524     1000 
 1054000   0.49698486   -1.8842992   0.74473181   -1.1395674   0.11540729    11476.754     1000 
 1056000   0.48877051   -1.9334219   0.73242261   -1.2009993   0.13089733    11268.809     1000 
 1058000   0.49028623   -1.9097442   0.73469392   -1.1750503   0.13334729    11393.377     1000 
 1060000    0.5186791   -1.9253119   0.77724063   -1.1480712   0.14120891    11289.752     1000 
 1062000    0.5037657   -1.8686145   0.75489291   -1.1137216   0.13280715    11384.335     1000 
 1064000   0.49549565   -1.9373303   0.74250023     -1.19483   0.13383855    11431.842     1000 
 1066000   0.48157038   -1.9148823   0.72163322   -1.1932491   0.12905316    11433.347     1000 
 1068000   0.49876458   -1.9442292   0.74739872   -1.1968305   0.12743106    11405.905     1000 
 1070000   0.49699386   -1.8665459    0.7447453   -1.1218006   0.12868059    11409.592     1000 
 1072000   0.51466875   -1.8872438   0.77123112   -1.1160127   0.11866316    11427.102     1000 
 1074000   0.50638843    -1.927419   0.75882306    -1.168596   0.11950451    11555.956     1000 
 1076000   0.48890939   -1.9518872   0.73263073   -1.2192564   0.12906707    11397.112     1000 
 1078000   0.50420128   -1.9049622   0.75554562   -1.1494166   0.12471273    11381.053     1000 
 1080000    0.5290957    -1.923955   0.79284991   -1.1311051   0.13128325    11474.367     1000 
 1082000    0.4743215   -1.9237191   0.71077076   -1.2129483   0.13249853    11335.717     1000 
 1084000   0.48871633   -1.8700782   0.73234141   -1.1377368   0.12605319    11397.297     1000 
 1086000   0.49469742   -1.8864161   0.74130409    -1.145112   0.11708473    11541.924     1000 
 1088000   0.50227633   -1.9836886   0.75266108   -1.2310275   0.13834497    11411.238     1000 
 1090000    0.5018435   -1.8950472   0.75201249   -1.1430347    0.1267533     11553.84     1000 
 1092000   0.50274565   -1.9087786   0.75336436   -1.1554143   0.13771866    11303.696     1000 
 1094000   0.51023775   -1.9240584   0.76459126   -1.1594672   0.12664945    11220.122     1000 
 1096000   0.48847311   -1.9613988   0.73197695   -1.2294219   0.12429006    11455.938     1000 
 1098000   0.49601089   -1.9739273   0.74327232    -1.230655   0.11510219    11435.546     1000 
 1100000   0.49589804   -1.9074275   0.74310321   -1.1643242   0.12846854    11430.688     1000 
 1102000   0.50158252   -1.9311468   0.75162141   -1.1795254   0.12977954     11382.34     1000 
 1104000   0.49476198   -1.9130844   0.74140082   -1.1716836   0.12481984    11417.365     1000 
 1106000   0.49099534   -1.9383316   0.73575652   -1.2025751   0.13229087    11312.482     1000 
 1108000   0.51927986     -1.92481   0.77814087   -1.1466691    0.1444348    11241.708     1000 
 1110000   0.48899825   -1.9413434   0.73276388   -1.2085795   0.14056864    11228.461     1000 
 1112000   0.47337013   -1.9174247   0.70934514   -1.2080796   0.13820272    11301.646     1000 
 1114000   0.49994337   -1.9392486   0.74916514   -1.1900835   0.12304018     11513.56     1000 
 1116000   0.50407438    -1.860945   0.75535546   -1.1055895   0.13514946    11312.391     1000 
 1118000   0.48433061   -1.9120275   0.72576943   -1.1862581   0.13288629    11349.131     1000 
 1120000    0.5143817   -1.9519184   0.77080097   -1.1811174   0.13433823     11306.78     1000 
 1122000   0.49782818   -1.9456737   0.74599553   -1.1996781   0.13170931    11397.152     1000 
 1124000   0.49797458   -1.9223468   0.74621491   -1.1761318    0.1246329    11460.198     1000 
 1126000   0.50503849   -1.9476541   0.75680018    -1.190854   0.12149922    11430.693     1000 
 1128000   0.49793806   -1.9244387   0.74616019   -1.1782785   0.12594012    11434.892     1000 
 1130000   0.47498234    -1.963595   0.71176103    -1.251834   0.11681422    11529.998     1000 
 1132000   0.50501376   -1.9831477   0.75676312   -1.2263846   0.12529865    11488.178     1000 
 1134000   0.49666219   -1.9219367   0.74424829   -1.1776884   0.13747515    11403.358     1000 
 1136000   0.50584824   -1.9315354   0.75801359   -1.1735218   0.12813506    11469.355     1000 
 1138000   0.52098893   -1.9551438   0.78070192   -1.1744419   0.11797417     11666.91     1000 
 1140000    0.4901562   -1.8943693   0.73449906   -1.1598702   0.12972007    11370.956     1000 
 1142000   0.49052849   -1.8990575   0.73505694   -1.1640006   0.13051862    11347.079     1000 
 1144000   0.49489375   -1.8909695   0.74159829   -1.1493712   0.12740183    11329.283     1000 
 1146000   0.47948985   -1.9338303   0.71851553   -1.2153148   0.13108522     11396.41     1000 
 1148000   0.50658922   -1.9023593   0.75912394   -1.1432354    0.1355738     11421.51     1000 
 1150000    0.5048962   -1.9423192   0.75658696   -1.1857323   0.12754817    11429.741     1000 
 1152000   0.50946808    -1.885357   0.76343792    -1.121919   0.12894701    11378.575     1000 
 1154000   0.49150466   -1.9015735   0.73651973   -1.1650538   0.14364689    11341.258     1000 
 1156000   0.49682459    -1.884349   0.74449165   -1.1398574   0.13786223    11288.319     1000 
 1158000   0.48487207   -1.8988634    0.7265808   -1.1722826   0.12922738    11405.174     1000 
 1160000   0.50471555   -1.8966369   0.75631625   -1.1403207   0.13128662    11288.455     1000 
 1162000   0.51142727   -1.9426357   0.76637376   -1.1762619   0.12663358    11531.872     1000 
 1164000   0.50340312   -1.8971096   0.75434958     -1.14276   0.10910512    11443.773     1000 
 1166000    0.4907312   -1.9112203    0.7353607   -1.1758596   0.12942049    11372.938     1000 
 1168000   0.50539931   -1.9307913   0.75734087   -1.1734504   0.12458975     11412.16     1000 
 1170000   0.50232012    -1.957766    0.7527267   -1.2050393   0.11900612    11571.997     1000 
 1172000   0.50113088    -1.940684   0.75094462   -1.1897394   0.12469057    11403.732     1000 
 1174000   0.49295981   -1.9483755   0.73870027   -1.2096752   0.14302259    11247.544     1000 
 1176000   0.49291441   -1.8858991   0.73863224   -1.1472669   0.14166096    11263.107     1000 
 1178000   0.50194054   -1.9346653    0.7521579   -1.1825074   0.13194325    11414.514     1000 
 1180000   0.51033577   -1.9128832   0.76473816   -1.1481451   0.12462168    11485.245     1000 
 1182000   0.52240122   -1.9359434   0.78281822   -1.1531251   0.13444196    11443.906     1000 
 1184000   0.49511396   -1.9278967   0.74192827   -1.1859684   0.12786692    11343.956     1000 
 1186000   0.49585352   -1.8836949   0.74303649   -1.1406584   0.12680389    11393.427     1000 
 1188000   0.49941019   -1.9147032   0.74836617   -1.1663371   0.13991429    11308.434     1000 
 1190000   0.49176674   -1.9136852   0.73691245   -1.1767727   0.12807709     11365.25     1000 
 1192000   0.50296883    -1.861181   0.75369879   -1.1074822    0.1318403    11359.854     1000 
 1194000   0.48679786   -1.9684955   0.72946659   -1.2390289   0.11806069    11484.963     1000 
 1196000   0.47747914   -1.9426059   0.71550249   -1.2271034   0.12649851    11446.485     1000 
 1198000   0.51288334   -1.8845836   0.76855568   -1.1160279   0.14095885     11299.85     1000 
 1200000    0.4811849   -1.9773999   0.72105557   -1.2563443   0.11901994    11411.233     1000 
 1202000    0.5226438   -1.8922181   0.78318173   -1.1090363   0.13410787    11405.001     1000 
 1204000   0.50987511   -1.9210024   0.76404786   -1.1569546   0.12574466    11435.465     1000 
 1206000   0.47331579    -1.885988   0.70926371   -1.1767243   0.12774779    11312.794     1000 
 1208000   0.50368416   -1.9223081   0.75477071   -1.1675374   0.13013312     11431.23     1000 
 1210000   0.49331231   -1.9362356    0.7392285   -1.1970071   0.12014949    11471.653     1000 
 1212000   0.50257338   -1.9526116    0.7531062   -1.1995054   0.13473987    11424.531     1000 
 1214000   0.49061293   -1.8972415   0.73518347    -1.162058   0.12420182      11480.8     1000 
 1216000   0.50458748   -1.8985599   0.75612434   -1.1424356   0.11849555    11482.892     1000 
 1218000   0.50698634   -1.9053214   0.75971903   -1.1456024   0.12431423    11389.372     1000 
 1220000   0.51333719   -1.9076995   0.76923578   -1.1384637   0.12979581    11360.456     1000 
 1222000   0.49775703   -1.8524706   0.74588891   -1.1065817   0.13052232    11313.074     1000 
 1224000   0.50235365   -1.8990456   0.75277695   -1.1462686   0.13670819    11306.794     1000 
 1226000   0.49166099   -1.8974396   0.73675399   -1.1606856    0.1291262     11385.79     1000 
 1228000   0.51024194   -1.9236757   0.76459755   -1.1590782   0.12898237    11463.075     1000 
 1230000   0.48223238    -1.882432   0.72262523   -1.1598068   0.12617734    11363.231     1000 
 1232000   0.50847192   -1.9514759   0.76194517   -1.1895308   0.12812455    11402.185     1000 
 1234000   0.48655194   -1.9430167   0.72909808   -1.2139186   0.13050903    11226.342     1000 
 1236000   0.50803538   -1.9087091   0.76129102   -1.1474181   0.12288157    11498.714     1000 
 1238000   0.49269195   -1.9278333   0.73829889   -1.1895344   0.13642468    11194.258     1000 
 1240000   0.47538977   -1.9406176   0.71237157    -1.228246   0.11230858    11491.795     1000 
 1242000    0.4885917   -1.9347764   0.73215466   -1.2026218   0.12865665    11413.185     1000 
 1244000   0.50488477   -1.8975405   0.75656983   -1.1409707   0.13668708    11435.919     1000 
 1246000   0.52326574   -1.9041033   0.78411371   -1.1199896   0.13218499     11407.07     1000 
 1248000   0.48175934   -1.8897053   0.72191637   -1.1677889   0.12291541    11461.745     1000 
 1250000   0.51625965   -1.8983242   0.77361508   -1.1247091   0.13556269    11197.028     1000 
 1252000   0.48773537   -1.9169085   0.73087145    -1.186037   0.12493455    11309.568     1000 
 1254000   0.51917776   -1.9220321   0.77798788   -1.1440442    0.1421596    11324.247     1000 
 1256000     0.482478   -1.8973231   0.72299329   -1.1743298   0.12916028    11389.293     1000 
 1258000   0.51648031   -1.9369816   0.77394575   -1.1630358   0.13152408    11306.849     1000 
 1260000   0.48444781   -1.9461426   0.72594505   -1.2201975   0.12619477    11335.324     1000 
 1262000   0.51598555   -1.9059888   0.77320434   -1.1327845   0.13527768    11410.026     1000 
 1264000   0.52030785   -1.8983512   0.77968131   -1.1186699   0.12559823    11373.663     1000 
 1266000   0.49401863    -1.938861   0.74028692   -1.1985741   0.12674041    11428.012     1000 
 1268000   0.48979587   -1.9413557   0.73395911   -1.2073966    0.1330346    11434.897     1000 
 1270000   0.49464845    -1.897233    0.7412307   -1.1560023   0.12443236    11408.619     1000 
 1272000   0.48487047   -1.9244302    0.7265784   -1.1978518   0.13225704    11368.213     1000 
 1274000   0.51248988   -1.9335699   0.76796608   -1.1656038    0.1287941    11365.229     1000 
 1276000     0.512023   -1.9064987   0.76726646   -1.1392322   0.12167229    11355.831     1000 
 1278000   0.50966632   -1.9043073   0.76373498   -1.1405723   0.11686063    11390.631     1000 
 1280000   0.50565574   -1.9690025   0.75772512   -1.2112773   0.13046613    11478.024     1000 
 1282000   0.49113581   -1.9272453   0.73596702   -1.1912783   0.12693827    11388.897     1000 
 1284000   0.49775599   -1.9500814   0.74588736    -1.204194   0.12510597     11470.87     1000 
 1286000   0.50837922   -1.8781954   0.76180626   -1.1163892   0.14198879    11187.903     1000 
 1288000   0.49643616   -1.9136046   0.74390959    -1.169695   0.12145936    11455.038     1000 
 1290000   0.48501185   -1.8750355   0.72679026   -1.1482453   0.13771955    11293.153     1000 
 1292000   0.49944592   -1.9304568   0.74841972   -1.1820371   0.11658855    11505.944     1000 
 1294000   0.50012387   -1.8914783   0.74943561   -1.1420427   0.12416788    11380.376     1000 
 1296000   0.50362065   -1.8411674   0.75467554   -1.0864919   0.13382556    11292.368     1000 
 1298000   0.51771308   -1.9057686   0.77579305   -1.1299755   0.12846289    11477.582     1000 
 1300000   0.49351865   -1.9171204    0.7395377   -1.1775827   0.14222649    11306.279     1000 
 1302000   0.48421135   -1.9397634   0.72559071   -1.2141727   0.13400936    11282.277     1000 
 1304000   0.48712613   -1.8966716   0.72995851   -1.1667131   0.12607892    11289.699     1000 
 1306000   0.51169302      -1.9248   0.76677199    -1.158028   0.13750878    11373.293     1000 
 1308000   0.48242778   -1.9149022   0.72291803   -1.1919841   0.13134175    11385.778     1000 
 1310000   0.49809433   -1.9371681   0.74639435   -1.1907738   0.13175873     11299.23     1000 
 1312000   0.51196195    -1.922338   0.76717499    -1.155163   0.14162305    11418.667     1000 
 1314000    0.5018838   -1.8573317   0.75207288   -1.1052588   0.13921269     11194.52     1000 
 1316000   0.50458109   -1.9054383   0.75611476   -1.1493235    0.1355295     11389.17     1000 
 1318000   0.48959501   -1.9154745   0.73365813   -1.1818164   0.12897897    11315.907     1000 
 1320000   0.51023939   -1.8907599   0.76459373   -1.1261661   0.14230754    11246.798     1000 
 1322000    0.4919347   -1.9793423   0.73716415   -1.2421782   0.12513148    11577.669     1000 
 1324000   0.49845307   -1.9079867   0.74693192   -1.1610547   0.13101519    11386.115     1000 
 1326000   0.49458824   -1.9291401   0.74114048   -1.1879997   0.11800719    11463.185     1000 
 1328000   0.51349386   -1.9135471   0.76947054   -1.1440766   0.12570091    11467.777     1000 
 1330000   0.51833519   -1.9443882   0.77672529   -1.1676629   0.12234017    11486.572     1000 
 1332000   0.48746886   -1.8905069   0.73047209   -1.1600348   0.12569091    11334.839     1000 
 1334000   0.47860411    -1.889962   0.71718825   -1.1727737   0.12420073    11410.387     1000 
 1336000   0.51290993   -1.9256126   0.76859553   -1.1570171   0.13618635    11475.082     1000 
 1338000   0.48767262   -1.9595335   0.73077742   -1.2287561   0.11523624    11528.508     1000 
 1340000   0.51642184   -1.9277704   0.77385813   -1.1539123   0.12808074    11417.815     1000 
 1342000   0.49196298   -1.9256542   0.73720653   -1.1884477   0.12977979    11499.539     1000 
 1344000   0.50868524   -1.9098767   0.76226484   -1.1476118   0.12881803    11376.722     1000 
 1346000   0.50640699   -1.9083184   0.75885088   -1.1494676   0.13110028    11465.489     1000 
 1348000   0.49930264   -1.9110721   0.74820501   -1.1628671   0.12443861    11367.205     1000 
 1350000   0.50010586   -1.9087762   0.74940863   -1.1593676   0.12896361    11360.658     1000 
 1352000   0.49298471   -1.9481649   0.73873758   -1.2094273   0.12296524    11521.782     1000 
 1354000   0.50520943   -1.9440431   0.75705633   -1.1869868   0.12851011    11446.411     1000 
 1356000   0.52830666   -1.9022728   0.79166754   -1.1106053   0.13459156    11440.355     1000 
 1358000    0.4980973   -1.9645243   0.74639881   -1.2181255    0.1247136    11526.353     1000 
 1360000   0.50742951   -1.8566308   0.76038312   -1.0962477   0.12778903    11377.466     1000 
 1362000   0.49499898   -1.9599285   0.74175596   -1.2181726   0.13204287    11425.911     1000 
 1364000   0.51289682   -1.9343362   0.76857588   -1.1657603   0.12874616    11463.707     1000 
 1366000   0.49207531    -1.926257   0.73737485   -1.1888821    0.1239089    11420.168     1000 
 1368000   0.49102197   -1.9177108   0.73579642   -1.1819144   0.11908671    11452.938     1000 
 1370000   0.49238654   -1.9525807   0.73784123   -1.2147395   0.12890776    11495.245     1000 
 1372000   0.51642594   -1.9155102   0.77386428   -1.1416459   0.12095667    11579.253     1000 
 1374000   0.50371252   -1.9434806   0.75481321   -1.1886674   0.12908744    11411.276     1000 
 1376000   0.49088451   -1.9149431   0.73559044   -1.1793526   0.13575912    11280.667     1000 
 1378000   0.48934722   -2.0295029   0.73328682   -1.2962161   0.12141337    11554.333     1000 
 1380000   0.50342725   -1.8815562   0.75438574   -1.1271704   0.14597364    11220.473     1000 
 1382000   0.50050076   -1.9131028   0.75000038   -1.1631024   0.13017487    11371.575     1000 
 1384000   0.49504456   -1.9141787   0.74182427   -1.1723544   0.13377679    11342.094     1000 
 1386000   0.49295487   -1.9433164   0.73869288   -1.2046235   0.11563952    11456.958     1000 
 1388000   0.49062564   -1.9292656   0.73520252   -1.1940631   0.12705822    11451.513     1000 
 1390000   0.49293964   -1.9005832   0.73867005   -1.1619131   0.13493612    11332.036     1000 
 1392000   0.50042677   -1.9400429   0.74988952   -1.1901534   0.12604873    11426.333     1000 
 1394000   0.51661706   -1.9165432   0.77415067   -1.1423925   0.13350932    11406.423     1000 
 1396000   0.49049813   -1.9129943   0.73501145   -1.1779828   0.11670648    11564.122     1000 
 1398000   0.49171871   -1.9250437   0.73684049   -1.1882032   0.11689961    11399.434     1000 
 1400000   0.48688742    -1.959768   0.72960079   -1.2301672   0.12702299    11352.421     1000 
 1402000   0.49565003   -1.8797012   0.74273157   -1.1369696    0.1328262    11208.738     1000 
 1404000    0.4823218   -1.8966001   0.72275922   -1.1738409   0.11912062    11377.411     1000 
 1406000   0.48063395   -1.9230525   0.72022997   -1.2028225   0.12871114    11339.244     1000 
 1408000   0.49714529   -1.9682372   0.74497222   -1.2232649   0.13277358    11460.142     1000 
 1410000   0.54262728   -1.9150459   0.81312698   -1.1019189   0.12890736    11420.566     1000 
 1412000   0.51253695   -1.9238895   0.76803662   -1.1558529   0.13538261    11366.655     1000 
 1414000   0.49174572   -1.9160673   0.73688097   -1.1791863   0.13295991    11321.404     1000 
 1416000   0.51706646   -1.9366831   0.77482408   -1.1618591   0.13016179    11467.068     1000 
 1418000   0.49748785    -1.861952   0.74548554   -1.1164665   0.13122364     11405.22     1000 
 1420000   0.52573769   -1.8810128   0.78781793   -1.0931948   0.13671967    11272.276     1000 
 1422000   0.48945963   -1.8807479   0.73345526   -1.1472926    0.1378899    11206.207     1000 
 1424000   0.48666225   -1.9368273   0.72926338   -1.2075639   0.11481717    11527.076     1000 
 1426000   0.51635008   -1.9753492    0.7737506   -1.2015986   0.12846819    11418.305     1000 
 1428000   0.49309543   -1.9465049   0.73890351   -1.2076014   0.12446136    11523.037     1000 
 1430000   0.50065634   -1.8863415   0.75023353   -1.1361079   0.12599126    11479.394     1000 
 1432000   0.47272091   -1.9351801   0.70837229   -1.2268078   0.12553777    11314.296     1000 
 1434000   0.51222375   -1.9630469   0.76756729   -1.1954796   0.12675832    11483.173     1000 
 1436000   0.52616109   -1.9031734    0.7884524    -1.114721   0.12004072    11478.084     1000 
 1438000   0.47931269    -1.936658   0.71825007    -1.218408   0.12782382    11293.697     1000 
 1440000   0.48579421   -1.9081546   0.72796262   -1.1801919   0.12970355    11367.387     1000 
 1442000   0.49019419   -1.8553035   0.73455599   -1.1207476   0.12764596    11391.354     1000 
 1444000   0.50488664   -1.9309486   0.75657263    -1.174376   0.12124241     11496.46     1000 
 1446000   0.47032664   -1.9015065   0.70478446   -1.1967221   0.12854568    11361.137     1000 
 1448000   0.52487644   -1.9135396   0.78652734   -1.1270122   0.13208452    11381.707     1000 
 1450000   0.49074357   -1.8787329   0.73537923   -1.1433536   0.13951068    11338.459     1000 
 1452000   0.49758432   -1.9034714   0.74563011   -1.1578413   0.14080665    11078.752     1000 
 1454000   0.50571584   -1.9321566   0.75781518   -1.1743414   0.13598014    11367.477     1000 
 1456000   0.50154462   -1.9441854   0.75156462   -1.1926208   0.13365674    11338.395     1000 
 1458000   0.48241141    -1.920144    0.7228935   -1.1972505   0.14489422     11199.05     1000 
 1460000   0.48487772   -1.8999322   0.72658927   -1.1733429   0.13449556    11347.288     1000 
 1462000    0.4955443   -1.9107067   0.74257314   -1.1681335   0.13782363    11265.841     1000 
 1464000   0.49887233    -1.937962   0.74756018   -1.1904019   0.11482983    11571.239     1000 
 1466000   0.48630733   -1.9494472   0.72873153   -1.2207157   0.12937608     11435.67     1000 
 1468000   0.51510091   -1.8705621   0.77187872   -1.0986833   0.13223747    11359.202     1000 
 1470000   0.50720812   -1.9192009   0.76005137   -1.1591495   0.13571924    11416.877     1000 
 1472000   0.51472155    -1.939338   0.77131024   -1.1680277   0.12929163    11522.281     1000 
 1474000   0.50111415   -1.9553996   0.75091956     -1.20448   0.11774089    11491.017     1000 
 1476000   0.48582071   -1.9261394   0.72800233   -1.1981371   0.12395484    11399.091     1000 
 1478000   0.50785152     -1.91187   0.76101551   -1.1508545   0.13976043    11179.179     1000 
 1480000   0.50317621   -1.9011625   0.75400955    -1.147153   0.12931582    11351.512     1000 
 1482000   0.50537626   -1.9315326   0.75730633   -1.1742262   0.12053751    11435.294     1000 
 1484000   0.52131183   -1.9196939   0.78118577   -1.1385081   0.13089148    11423.426     1000 
 1486000   0.50106946   -1.9371003   0.75085258   -1.1862477   0.11944609    11534.391     1000 
 1488000   0.49963469   -1.8595507   0.74870259   -1.1108481   0.13197111    11350.337     1000 
 1490000   0.49033711   -1.8935705   0.73477016   -1.1588003   0.12168862    11302.212     1000 
 1492000    0.5026566   -1.9220318   0.75323092   -1.1688009    0.1280295    11438.584     1000 
 1494000   0.50416135   -1.9240893   0.75548578   -1.1686035   0.13068691    11408.374     1000 
 1496000   0.49888465   -1.9615174   0.74757864   -1.2139388   0.12572777    11527.377     1000 
 1498000   0.50276307   -1.9109025   0.75339046   -1.1575121   0.12379358     11407.98     1000 
 1500000   0.50748369    -1.931846   0.76046431   -1.1713817   0.13586834    11442.182     1000 
 1502000   0.50358846   -1.8702331   0.75462731   -1.1156057   0.12596653    11443.168     1000 
 1504000   0.49000912   -1.9530151   0.73427866   -1.2187364   0.13134007    11310.242     1000 
 1506000   0.48705493   -1.8869326   0.72985181   -1.1570808   0.13050009    11384.383     1000 
 1508000   0.51170184   -1.9820504   0.76678521   -1.2152652   0.13843849    11448.722     1000 
 1510000   0.50100681   -1.9323745    0.7507587   -1.1816158   0.11952055    11466.248     1000 
 1512000   0.50337549   -1.8962907   0.75430817   -1.1419825   0.12935763    11547.808     1000 
 1514000    0.5244223    -1.957959   0.78584682   -1.1721121   0.14432337    11314.953     1000 
 1516000   0.52540516   -1.8591607   0.78731964   -1.0718411   0.12991335    11310.889     1000 
 1518000   0.51952092   -1.9433837    0.7785021   -1.1648816   0.12091405    11464.834     1000 
 1520000   0.49918507   -1.8749259   0.74802883   -1.1268971   0.12740791    11412.565     1000 
 1522000   0.49928615   -1.8779181    0.7481803   -1.1297378   0.12898464    11319.802     1000 
 1524000   0.49466134   -1.9206656   0.74125001   -1.1794156   0.12975402    11420.383     1000 
 1526000   0.52769018   -1.8926409   0.79074374   -1.1018972   0.12664064    11309.391     1000 
 1528000   0.49247277   -1.9228608   0.73797045   -1.1848904   0.12601943    11420.155     1000 
 1530000    0.4943443   -1.8852472   0.74077493   -1.1444722   0.12854456    11385.568     1000 
 1532000   0.50189302   -1.9578866   0.75208669   -1.2057999   0.13690416    11481.697     1000 
 1534000   0.50838659   -1.8925895    0.7618173   -1.1307722   0.14340089    11102.564     1000 
 1536000   0.48647515   -1.9053952   0.72898302   -1.1764122    0.1436569    11209.464     1000 
 1538000   0.49561104   -1.9197823   0.74267314   -1.1771092   0.11376066    11554.152     1000 
 1540000   0.50970812   -1.8864959   0.76379763   -1.1226982   0.13733895    11283.139     1000 
 1542000   0.46324766   -1.8893992   0.69417661   -1.1952226   0.13224757    11367.219     1000 
 1544000   0.47689016    -1.898922   0.71461991   -1.1843021   0.13207935    11354.616     1000 
 1546000   0.48628167   -1.8935103   0.72869308   -1.1648173   0.12320274    11367.926     1000 
 1548000    0.5222151   -1.9387433   0.78253933    -1.156204   0.13543175    11396.827     1000 
 1550000   0.51315157   -1.8940796   0.76895763    -1.125122   0.12530463    11406.959     1000 
 1552000   0.49043481   -1.8753873   0.73491656   -1.1404708    0.1418775     11255.64     1000 
 1554000   0.50700098   -1.8836852   0.75974098   -1.1239443   0.13069411    11247.793     1000 
 1556000   0.49136169   -1.9395988    0.7363055   -1.2032933   0.13093346    11440.946     1000 
 1558000   0.50396056   -1.8972353    0.7551849   -1.1420504   0.13760638    11340.038     1000 
 1560000   0.47720823   -1.9014505   0.71509653    -1.186354   0.13648218    11309.694     1000 
 1562000   0.50048728   -1.9273866   0.74998019   -1.1774064   0.13180563    11274.574     1000 
 1564000   0.50584888   -1.9541146   0.75801455   -1.1961001   0.12208971    11527.256     1000 
 1566000   0.50071756   -1.9301275   0.75032526   -1.1798022   0.12620592    11440.166     1000 
 1568000   0.48132788   -1.9088834   0.72126983   -1.1876136     0.130381    11391.777     1000 
 1570000   0.48188474   -1.9514494   0.72210428   -1.2293451   0.13090225    11304.561     1000 
 1572000   0.50212168   -1.9351559   0.75242934   -1.1827266     0.136604    11365.336     1000 
 1574000   0.49117164   -1.9087991    0.7360207   -1.1727784   0.12638991     11398.95     1000 
 1576000    0.4951616   -1.8966883   0.74199966   -1.1546887   0.12938564    11329.024     1000 
 1578000    0.4937113   -1.8867474   0.73982638    -1.146921    0.1344058    11252.331     1000 
 1580000   0.49973462   -1.9129074   0.74885233   -1.1640551   0.12113769    11564.582     1000 
 1582000   0.49497917   -1.8989482   0.74172628   -1.1572219   0.12595878    11301.153     1000 
 1584000   0.49416734   -1.9404925   0.74050975   -1.1999827   0.12682435    11371.561     1000 
 1586000   0.50652484    -1.929606   0.75902747   -1.1705785    0.1240808     11419.47     1000 
 1588000   0.50832031   -1.9325921   0.76171798   -1.1708741   0.13375135    11362.144     1000 
[...]
 2614000   0.51447192   -1.9494417   0.77093617   -1.1785055   0.12639091    11425.706     1000 
 2616000   0.48973955    -1.934151   0.73387472   -1.2002762   0.12408725    11371.148     1000 
 2618000   0.50051265   -1.9116457   0.75001821   -1.1616275   0.12536228     11524.76     1000 
 2620000   0.50028394   -1.9352887   0.74967548   -1.1856133   0.14140376    11352.955     1000 
 2622000   0.50394946    -1.889386   0.75516826   -1.1342178   0.13469545    11326.207     1000 
 2624000   0.50036003   -1.9762689   0.74978951   -1.2264794   0.12557957    11397.708     1000 
 2626000   0.48851755    -1.928487   0.73204355   -1.1964434   0.12667143    11403.442     1000 
 2628000    0.5146845    -1.916108   0.77125473   -1.1448533     0.138113    11414.784     1000 
 2630000   0.49999857   -1.9180089   0.74924785   -1.1687611   0.12030586    11368.982     1000 
 2632000    0.5040984   -1.8917083   0.75539146   -1.1363168   0.14462298    11267.671     1000 
 2634000   0.50581598   -1.8879825   0.75796525   -1.1300173   0.13071402    11490.165     1000 
 2636000   0.50386807   -1.9272329    0.7550463   -1.1721866   0.14474786    11305.642     1000 
 2638000    0.5019348   -1.9443209    0.7521493   -1.1921716   0.12626625    11406.763     1000 
 2640000   0.49447086   -1.9147013   0.74096459   -1.1737367   0.12049671    11611.933     1000 
 2642000   0.49656895   -1.9457207   0.74410857   -1.2016121   0.13402276    11369.596     1000 
 2644000   0.45960254   -1.8457911   0.68871441   -1.1570766    0.1306946    11359.173     1000 
 2646000   0.48428005   -1.9141149   0.72569365   -1.1884213   0.11727259    11520.442     1000 
 2648000   0.49811349   -1.8805843   0.74642307   -1.1341612   0.12113184    11383.393     1000 
 2650000   0.49861807    -1.981662   0.74717918   -1.2344828   0.13577082    11351.639     1000 
 2652000   0.49380043    -1.895601   0.73995995   -1.1556411   0.12610086    11391.672     1000 
 2654000   0.49431022    -1.942009   0.74072387   -1.2012852   0.12254564     11466.95     1000 
 2656000   0.48070498    -1.905784   0.72033641   -1.1854476   0.13390685    11308.983     1000 
 2658000   0.49212752   -1.8707327   0.73745309   -1.1332796    0.1244174    11436.894     1000 
 2660000   0.48952395   -1.8930238   0.73355163   -1.1594722   0.12099618    11560.328     1000 
 2662000   0.49081638   -1.9262177   0.73548834   -1.1907293   0.13298759    11292.556     1000 
 2664000   0.51835123   -1.8739957   0.77674932   -1.0972464   0.12289548    11466.556     1000 
 2666000   0.52042326   -1.8929926   0.77985426   -1.1131383   0.13957492     11475.73     1000 
 2668000   0.52311624   -1.9260516   0.78388969   -1.1421619   0.12292013    11467.964     1000 
 2670000   0.49761657   -1.9107556   0.74567844   -1.1650772   0.12202318    11440.916     1000 
 2672000   0.52403682   -1.9157898   0.78526917   -1.1305206   0.12706726    11309.545     1000 
 2674000   0.48437006    -1.939801   0.72582854   -1.2139724   0.12661837    11458.469     1000 
 2676000   0.51449831   -1.9441303   0.77097571   -1.1731546   0.13246971    11370.966     1000 
 2678000   0.49571849   -1.9204817   0.74283415   -1.1776476   0.13066693    11301.186     1000 
 2680000   0.50365063   -1.9204142   0.75472047   -1.1656937   0.12574578    11512.483     1000 
 2682000   0.48943795   -1.9173913   0.73342277   -1.1839685   0.13102094    11301.484     1000 
 2684000   0.48373634    -1.909046   0.72487891   -1.1841671   0.12667588    11298.711     1000 
 2686000   0.48599068    -1.918563   0.72825704    -1.190306   0.12244206    11414.508     1000 
 2688000   0.48444045   -1.8935112   0.72593401   -1.1675772   0.11854034    11393.517     1000 
 2690000   0.50384826   -1.8835864   0.75501662   -1.1285698   0.12599126    11334.449     1000 
 2692000   0.49927146    -1.950339   0.74815828   -1.2021807   0.13364619    11460.271     1000 
 2694000   0.49619859   -1.9713331   0.74355359   -1.2277795   0.12120588    11517.228     1000 
 2696000   0.46723541   -1.9764999   0.70015226   -1.2763477   0.13569168    11391.053     1000 
 2698000   0.49579546   -1.9251259    0.7429495   -1.1821764   0.12987047    11395.033     1000 
 2700000   0.49951081   -1.9488115   0.74851695   -1.2002946    0.1370223    11398.824     1000 
 2702000   0.50752922   -1.8848105   0.76053254   -1.1242779   0.12533017    11431.282     1000 
 2704000    0.5232741   -1.9542409   0.78412624   -1.1701146    0.1390927    11242.875     1000 
 2706000   0.49692099   -1.9118294   0.74463611   -1.1671933   0.12283759    11342.054     1000 
 2708000   0.49041914   -1.8730783   0.73489308   -1.1381852   0.13130414    11354.622     1000 
 2710000   0.50431035   -1.9477878   0.75570906   -1.1920787   0.11520743    11669.169     1000 
 2712000   0.50661746   -1.9032582   0.75916626    -1.144092   0.13821019     11293.93     1000 
 2714000   0.49796843    -1.916107    0.7462057   -1.1699013     0.133668    11262.884     1000 
 2716000   0.49702251   -1.8919041   0.74478822   -1.1471159   0.13843209     11321.93     1000 
 2718000   0.51487183   -1.9237844   0.77153544   -1.1522489    0.1388039    11340.009     1000 
 2720000   0.51991253   -1.8870046   0.77908892   -1.1079157   0.13511703    11193.908     1000 
 2722000   0.51646978   -1.9448882   0.77392997   -1.1709582   0.13030576    11563.099     1000 
 2724000   0.49492195   -1.9199139   0.74164054   -1.1782734   0.11206499    11558.049     1000 
 2726000    0.5249248   -1.9261964   0.78659981   -1.1395966   0.14139988    11322.286     1000 
 2728000   0.50534408   -1.9425447   0.75725811   -1.1852865   0.13792554    11296.892     1000 
 2730000    0.5066632   -1.9304835    0.7592348   -1.1712487   0.11990306    11377.466     1000 
 2732000   0.49507371   -1.9168749   0.74186796    -1.175007   0.12982427    11317.393     1000 
 2734000   0.47361831   -1.9792326   0.70971703   -1.2695156   0.13113799    11403.337     1000 
 2736000   0.50747992   -1.9415215   0.76045866   -1.1810628   0.12615328     11477.03     1000 
 2738000   0.51648579   -1.9546448   0.77395396   -1.1806908   0.12416572    11471.448     1000 
 2740000   0.52207526   -1.8868876   0.78232978   -1.1045578    0.1347681    11323.868     1000 
 2742000   0.49108841   -1.9467975   0.73589598   -1.2109016   0.13143441    11316.073     1000 
 2744000   0.49949139   -1.9016217   0.74848785   -1.1531338   0.12986773    11350.675     1000 
 2746000   0.50331102   -1.9014951   0.75421156   -1.1472835   0.13266667    11451.365     1000 
 2748000   0.49362353   -1.9540617   0.73969487   -1.2143668   0.11878041    11535.122     1000 
 2750000   0.50004943     -1.90535   0.74932407   -1.1560259   0.13464516    11411.797     1000 
 2752000   0.48823131   -1.8460285   0.73161462   -1.1144139   0.13418332    11287.203     1000 
 2754000   0.50368679   -1.9223678   0.75477465   -1.1675931   0.11396281    11582.342     1000 
 2756000   0.47671395   -1.9306504   0.71435585   -1.2162945   0.12011105      11472.4     1000 
 2758000   0.48768825    -1.932129   0.73080085   -1.2013282   0.13453338    11337.705     1000 
 2760000   0.51093894   -1.9047098     0.765642   -1.1390678   0.13190931    11467.877     1000 
 2762000    0.5096806   -1.9178832   0.76375638   -1.1541268   0.13679002    11377.609     1000 
 2764000   0.49061163   -1.8493216   0.73518153     -1.11414   0.14213353    11249.027     1000 
 2766000   0.47686508   -1.9294314   0.71458231   -1.2148491   0.12335513    11475.758     1000 
 2768000   0.48987946   -1.8910329   0.73408437   -1.1569485   0.13230163    11421.477     1000 
 2770000    0.5169749   -1.9457708   0.77468689    -1.171084   0.12585398    11516.128     1000 
 2772000   0.47328778   -1.8922666   0.70922174   -1.1830449   0.13423032    11402.251     1000 
 2774000    0.5052526   -1.9269041   0.75712102   -1.1697831   0.13644949    11265.358     1000 
 2776000   0.48529046   -1.9553781   0.72720776   -1.2281703     0.102027    11706.642     1000 
 2778000   0.50942564   -1.8970196   0.76337432   -1.1336453   0.12601408    11411.194     1000 
 2780000   0.47249417   -1.9045717   0.70803252   -1.1965392   0.14261076    11286.974     1000 
 2782000   0.52494716   -1.9135488   0.78663332   -1.1269155   0.14853817    11244.042     1000 
 2784000    0.4883959   -1.9290721   0.73186126   -1.1972109   0.13589754    11293.056     1000 
 2786000    0.4873377   -1.9187426   0.73027554    -1.188467   0.13023661    11272.667     1000 
 2788000   0.50251407   -1.8953658   0.75301734   -1.1423485   0.13341419    11340.974     1000 
 2790000   0.50446525   -1.9534388   0.75594118   -1.1974976   0.13648097    11394.041     1000 
 2792000   0.49312289    -1.843285   0.73894465   -1.1043403   0.13586981    11194.026     1000 
 2794000   0.48287146   -1.9103726   0.72358288   -1.1867897   0.13839835    11262.821     1000 
 2796000   0.49822631   -1.9261335   0.74659213   -1.1795414   0.14083047    11202.752     1000 
 2798000   0.47507483   -1.8799835   0.71189963   -1.1680839   0.11320845    11645.105     1000 
 2800000   0.51336213   -1.9072457   0.76927315   -1.1379726   0.13003722    11372.623     1000 
 2802000   0.50287085   -1.8670328   0.75355197   -1.1134809   0.12955153    11540.631     1000 
 2804000   0.51676758   -1.9403183   0.77437622   -1.1659421   0.13078769    11402.259     1000 
 2806000   0.51135838   -1.9240165   0.76627053    -1.157746   0.13673421    11209.673     1000 
 2808000   0.51301715   -1.9006337   0.76875619   -1.1318775   0.13525744    11270.116     1000 
 2810000   0.49686436   -1.8864966   0.74455124   -1.1419454   0.12121518    11471.721     1000 
 2812000   0.52234215    -1.887545   0.78272971   -1.1048153   0.12971386    11465.641     1000 
 2814000   0.51730256   -1.9006589   0.77517789    -1.125481   0.12550781    11484.627     1000 
 2816000   0.50064236   -1.9020948   0.75021258   -1.1518822   0.13651304    11503.832     1000 
 2818000   0.50281972   -1.9154866   0.75347535   -1.1620112     0.124661    11487.271     1000 
 2820000   0.48958302   -1.8920983   0.73364016   -1.1584581   0.11745921    11482.322     1000 
 2822000   0.46932173   -1.9042886   0.70327862     -1.20101   0.12655466    11521.102     1000 
 2824000   0.50775262   -1.9615098   0.76086731   -1.2006425   0.11533512     11590.53     1000 
 2826000   0.50292547   -1.9140142   0.75363382   -1.1603804   0.13758174    11305.329     1000 
 2828000   0.52442804   -1.9230507   0.78585542   -1.1371953   0.12818029    11444.778     1000 
 2830000   0.48797175   -1.9014959   0.73122567   -1.1702703    0.1192947    11458.172     1000 
 2832000   0.50922217   -1.9100808   0.76306942   -1.1470114   0.13664998     11288.64     1000 
 2834000   0.49911119   -1.8895463   0.74791812   -1.1416282   0.12851076    11367.413     1000 
 2836000   0.51339747   -1.8988826   0.76932611   -1.1295565   0.14145999    11276.874     1000 
 2838000   0.52237933   -1.9684439   0.78278542   -1.1856585   0.12474652    11460.248     1000 
 2840000   0.48794856   -1.9528689   0.73119091    -1.221678    0.1302772    11329.652     1000 
 2842000   0.52600268   -1.8669822   0.78821502   -1.0787672   0.12844994    11318.406     1000 
 2844000   0.49898732   -1.8970841    0.7477325   -1.1493516   0.14420569    11159.189     1000 
 2846000   0.50774897   -1.8951352   0.76086183   -1.1342734   0.12732736    11402.883     1000 
 2848000   0.48893428   -1.9813607   0.73266802   -1.2486927   0.12638556    11489.726     1000 
 2850000   0.49149339   -1.9059821   0.73650284   -1.1694792   0.12290776    11385.365     1000 
 2852000   0.51319258   -1.9547987   0.76901909   -1.1857796   0.13270445    11388.441     1000 
 2854000   0.51670356   -1.9018511   0.77428028   -1.1275708   0.12582752    11362.972     1000 
 2856000   0.49735427   -1.9077355   0.74528537   -1.1624501   0.13829333    11398.791     1000 
 2858000   0.52381655   -1.9811552    0.7849391   -1.1962161   0.13853957    11343.971     1000 
 2860000   0.51011151   -1.9062482    0.7644021   -1.1418461   0.12394417    11451.241     1000 
 2862000   0.51910992    -1.979326   0.77788622   -1.2014398   0.13174711    11298.489     1000 
 2864000   0.50174276   -1.8996858   0.75186153   -1.1478243   0.12131541    11431.981     1000 
 2866000   0.48811782   -1.9044414   0.73144455   -1.1729969   0.12132494    11435.529     1000 
 2868000   0.54010516   -1.9239051   0.80934758   -1.1145576   0.14470626    11238.772     1000 
 2870000   0.50642918   -1.8858124   0.75888413   -1.1269282   0.12605923    11543.829     1000 
 2872000   0.50631216   -1.9512599   0.75870878   -1.1925511   0.12238289     11471.56     1000 
 2874000   0.51079946   -1.9369249   0.76543299   -1.1714919   0.13202579    11448.538     1000 
 2876000    0.5011454   -1.9154899   0.75096638   -1.1645235   0.13333457    11427.683     1000 
 2878000   0.53306899   -1.8654302   0.79880388   -1.0666264   0.13127859    11376.745     1000 
 2880000   0.50515981   -1.9093575   0.75698197   -1.1523755    0.1353834    11269.789     1000 
 2882000   0.49382272   -1.9018002   0.73999335   -1.1618068   0.13152999    11289.992     1000 
 2884000   0.49123252   -1.8713421   0.73611193   -1.1352302   0.13951434    11301.944     1000 
 2886000   0.50098295   -1.8786896   0.75072295   -1.1279666   0.12050274    11469.033     1000 
 2888000   0.49348655   -1.9267087   0.73948959   -1.1872192   0.12933982    11476.306     1000 
 2890000   0.47695157   -1.9262456   0.71471193   -1.2115337   0.13227903    11326.716     1000 
 2892000   0.49882399   -1.9273584   0.74748775   -1.1798706   0.13153014    11374.444     1000 
 2894000   0.50443751   -1.9277352   0.75589961   -1.1718356   0.13080624    11496.423     1000 
 2896000   0.49685608   -1.9343402   0.74453883   -1.1898014   0.13064451    11388.725     1000 
 2898000    0.4874869   -1.9409259   0.73049912   -1.2104268   0.12872893    11312.275     1000 
 2900000   0.51674101   -1.9243526    0.7743364   -1.1500162    0.1354223    11433.217     1000 
 2902000   0.50274476   -1.8999239   0.75336303   -1.1465608   0.13823704    11353.108     1000 
 2904000   0.50517987    -1.894457   0.75701203    -1.137445   0.13404504    11321.964     1000 
 2906000   0.50509161   -1.8984393   0.75687977   -1.1415595   0.13685401    11354.173     1000 
 2908000   0.52895197   -1.9450281   0.79263453   -1.1523936   0.12698457    11418.527     1000 
 2910000    0.4896112   -1.8827617   0.73368238   -1.1490793   0.13597134    11301.938     1000 
 2912000   0.50649358   -1.9052496   0.75898063    -1.146269   0.13542434    11316.081     1000 
 2914000   0.51890739   -1.9222636   0.77758272   -1.1446809   0.14639782    11226.745     1000 
 2916000   0.49014462   -1.9127573   0.73448171   -1.1782756   0.14465412    11396.949     1000 
 2918000   0.48992849   -1.8920526   0.73415784   -1.1578948   0.12265956    11447.198     1000 
 2920000   0.51727282   -1.8900055   0.77513332   -1.1148722   0.13318225    11325.803     1000 
 2922000   0.47553243   -1.9312236   0.71258535   -1.2186382   0.12646069     11452.83     1000 
 2924000   0.50456863   -1.8900877   0.75609609   -1.1339916    0.1274425    11356.008     1000 
 2926000   0.48158674   -1.8925137   0.72165773    -1.170856   0.12504329     11380.78     1000 
 2928000   0.50047958   -1.8612035   0.74996865   -1.1112349   0.14706925    11284.028     1000 
 2930000    0.5026333   -1.9219214   0.75319601   -1.1687254    0.1316371    11436.897     1000 
 2932000   0.49559383   -1.9199749   0.74264735   -1.1773275   0.11986564    11418.734     1000 
 2934000   0.48536756   -1.8892721   0.72732329   -1.1619488   0.12580105    11432.728     1000 
 2936000   0.50488392   -1.9149748   0.75656855   -1.1584063   0.13419484    11372.632     1000 
 2938000   0.49821079   -1.8668983   0.74656887   -1.1203294   0.12887807    11400.907     1000 
 2940000    0.5239899   -1.8658148   0.78519887   -1.0806159   0.14016772    11336.669     1000 
 2942000   0.52375878   -1.9155033   0.78485254   -1.1306507   0.13790147    11362.858     1000 
 2944000   0.50430997   -1.9689855   0.75570849   -1.2132771    0.1280035    11570.063     1000 
 2946000   0.48156582   -1.9479362   0.72162637   -1.2263098   0.13717583    11386.537     1000 
 2948000   0.49339327   -1.9436471   0.73934982   -1.2042973   0.13081369    11396.189     1000 
 2950000   0.50772311   -1.9683553   0.76082307   -1.2075322   0.13178632    11542.545     1000 
 2952000   0.50580435   -1.8921176   0.75794782   -1.1341698   0.12930299     11381.67     1000 
 2954000   0.49107731   -1.9084012   0.73587935   -1.1725218   0.13729544    11272.447     1000 
 2956000     0.498525   -1.9592678   0.74703971   -1.2122281   0.12696696    11536.666     1000 
 2958000   0.49376251   -1.9323642   0.73990312   -1.1924611   0.14180968    11302.862     1000 
 2960000   0.50673517   -1.9154251   0.75934266   -1.1560825   0.12777236    11421.111     1000 
 2962000   0.51902649   -1.9404409   0.77776119   -1.1626797   0.13175719    11434.483     1000 
 2964000   0.50925743   -1.9698534   0.76312226   -1.2067311   0.12510331    11386.858     1000 
 2966000    0.4779516   -1.9154415   0.71621047   -1.1992311    0.1435601    11244.215     1000 
 2968000   0.49100598   -1.9118574   0.73577246   -1.1760849   0.13329824    11381.678     1000 
 2970000   0.51806794   -1.9787336   0.77632481   -1.2024088   0.13230872    11307.674     1000 
 2972000   0.49677226      -1.9278   0.74441323   -1.1833868   0.12605905    11481.026     1000 
 2974000   0.50546016   -1.8702773   0.75743205   -1.1128452   0.13295371    11251.628     1000 
 2976000   0.48902661    -1.899322   0.73280637   -1.1665156   0.12317852    11414.202     1000 
 2978000   0.49972882   -1.9521487   0.74884363   -1.2033051    0.1258246    11466.408     1000 
 2980000   0.50272721   -1.8621027   0.75333672    -1.108766   0.12807728    11457.643     1000 
 2982000   0.50866637   -1.9197373   0.76223655   -1.1575008   0.11249128    11734.986     1000 
 2984000   0.51375899    -1.911613   0.76986785   -1.1417451   0.12780191    11353.161     1000 
 2986000   0.49393424   -1.8904855   0.74016046    -1.150325   0.13264439    11355.618     1000 
 2988000   0.49535875   -1.9113335   0.74229509   -1.1690384   0.11891001    11502.162     1000 
 2990000   0.51479279   -1.9191608     0.771417   -1.1477438   0.12952322    11408.032     1000 
 2992000   0.50369495   -1.9319342   0.75478689   -1.1771473   0.11941663    11503.207     1000 
 2994000   0.51270127   -1.8741186   0.76828285   -1.1058357   0.13930794    11311.563     1000 
 2996000   0.51140872   -1.9327791   0.76634596   -1.1664332    0.1322615    11403.308     1000 
 2998000   0.50043305   -1.9084715   0.74989892   -1.1585726   0.13471267     11201.57     1000 
 3000000   0.49677485   -1.9874397   0.74441711   -1.2430226   0.13506668    11363.708     1000 
Loop time of 9574.83 on 1 procs for 3000000 steps with 1000 atoms

Performance: 135354.924 tau/day, 313.322 timesteps/s
100.0% CPU use with 1 MPI tasks x 1 OpenMP threads

MPI task timing breakdown:
Section |  min time  |  avg time  |  max time  |%varavg| %total
---------------------------------------------------------------
Pair    | 8627.7     | 8627.7     | 8627.7     |   0.0 | 90.11
Neigh   | 627.78     | 627.78     | 627.78     |   0.0 |  6.56
Comm    | 111.43     | 111.43     | 111.43     |   0.0 |  1.16
Output  | 0.044253   | 0.044253   | 0.044253   |   0.0 |  0.00
Modify  | 187.12     | 187.12     | 187.12     |   0.0 |  1.95
Other   |            | 20.73      |            |       |  0.22

Nlocal:        1000.00 ave        1000 max        1000 min
Histogram: 1 0 0 0 0 0 0 0 0 0
Nghost:        4238.00 ave        4238 max        4238 min
Histogram: 1 0 0 0 0 0 0 0 0 0
Neighs:        104236.0 ave      104236 max      104236 min
Histogram: 1 0 0 0 0 0 0 0 0 0

Total # of neighbors = 104236
Ave neighs/atom = 104.23600
Neighbor list builds = 150000
Dangerous builds not checked

Total wall time: 2:39:34
