LAMMPS (29 Sep 2021 - Update 2)
OMP_NUM_THREADS environment is not set. Defaulting to 1 thread. (src/comm.cpp:98)
  using 1 OpenMP thread(s) per MPI task
# ----------------------- Inicialização -----------------------

units			lj
atom_style 		atomic
dimension 		3
boundary 		p p p

# -------------------- Criação dos Átomos ---------------------

read_data 		topologia.txt
Reading data file ...
  orthogonal box = (0.0000000 0.0000000 0.0000000) to (21.540000 21.540000 21.540000)
  1 by 1 by 1 MPI processor grid
  reading atoms ...
  1000 atoms
  read_data CPU = 0.002 seconds

velocity 		all create ${temp} 87287 rot yes dist gaussian
velocity 		all create 0.53 87287 rot yes dist gaussian

# ------------------ Interação Interatômica -------------------

pair_style		table linear 1600
pair_coeff		1 1 force.table AA 8.0
WARNING: 3 of 1600 force values in table AA are inconsistent with -dE/dr.
WARNING:  Should only be flagged at inflection points (src/pair_table.cpp:465)
pair_coeff		1 2 force.table AB 8.0
WARNING: 1 of 1600 force values in table AB are inconsistent with -dE/dr.
WARNING:  Should only be flagged at inflection points (src/pair_table.cpp:465)
pair_coeff		2 2 force.table BB 8.0
pair_write		1 1 1600 r 0.008 8.0 table.check AA
Appending to table file table.check with DATE: 2023-07-05
Neighbor list info ...
  update every 1 steps, delay 10 steps, check yes
  max neighbors/atom: 2000, page size: 100000
  master list distance cutoff = 8.3
  ghost atom cutoff = 8.3
  binsize = 4.15, bins = 6 6 6
  1 neighbor lists, perpetual/occasional/extra = 1 0 0
  (1) pair table, perpetual
      attributes: half, newton on
      pair build: half/bin/atomonly/newton
      stencil: half/bin/3d
      bin: standard
pair_write		1 2 1600 r 0.008 8.0 table.check AB
Appending to table file table.check with DATE: 2023-07-05
pair_write		2 2 1600 r 0.008 8.0 table.check BB
Appending to table file table.check with DATE: 2023-07-05

neighbor 		0.3 bin
neigh_modify		every 20 delay 0 check no

# ------------------------- Ensemble --------------------------------------

fix 1			all npt temp ${temp} ${temp} 0.5 iso ${press} ${press} 5
fix 1			all npt temp 0.53 ${temp} 0.5 iso ${press} ${press} 5
fix 1			all npt temp 0.53 0.53 0.5 iso ${press} ${press} 5
fix 1			all npt temp 0.53 0.53 0.5 iso 0.13 ${press} 5
fix 1			all npt temp 0.53 0.53 0.5 iso 0.13 0.13 5

# ---------------------- Função de Distribuição Radial -----------------------

#compute RDF 		all rdf 2000 1 1 1 2 2 2
#fix 2 			all ave/time 1 2000 2000 c_RDF[*] file rdf.data mode vector

# ------------------------- Execução ---------------------------

timestep 		0.005
thermo_style		custom step temp pe ke etotal press vol atoms
thermo			2000
run			3000000
Per MPI rank memory allocation (min/avg/max) = 3.125 | 3.125 | 3.125 Mbytes
Step Temp PotEng KinEng TotEng Press Volume Atoms 
       0         0.53  -0.99524352     0.794205  -0.20103852   0.12115232    9993.9483     1000 
    2000     0.498719   -1.8426607   0.74733042   -1.0953303   0.11597517    11497.357     1000 
    4000   0.49641305   -1.8614468   0.74387496   -1.1175719   0.11667652    11371.163     1000 
    6000   0.53702526   -1.8282751   0.80473236   -1.0235427   0.13338892    11356.543     1000 
    8000   0.51837835   -1.8396426   0.77678996   -1.0628526   0.11977175    11458.922     1000 
   10000   0.53011094   -1.8955636   0.79437125   -1.1011923   0.14012576    11401.731     1000 
   12000   0.53497561   -1.8229856   0.80166096   -1.0213247   0.13588955    11311.775     1000 
   14000   0.53948169   -1.8032679   0.80841331  -0.99485458   0.12934773    11371.322     1000 
   16000   0.50761438   -1.8660941   0.76066014   -1.1054339   0.12991965    11584.733     1000 
   18000   0.55032417   -1.8597444   0.82466077   -1.0350836   0.12668202    11417.476     1000 
   20000   0.53435128   -1.8412161    0.8007254   -1.0404907   0.12760069     11436.07     1000 
   22000   0.55504849   -1.8552207   0.83174016   -1.0234805   0.13356471    11337.309     1000 
   24000   0.52540887    -1.854038   0.78732519   -1.0667128   0.12153505    11525.736     1000 
   26000   0.53336033   -1.8220706   0.79924046   -1.0228301    0.1346734    11332.831     1000 
   28000   0.55051383   -1.8308925   0.82494498   -1.0059475   0.12982898    11523.818     1000 
   30000   0.54412657   -1.8170831   0.81537366   -1.0017094    0.1152369    11534.341     1000 
   32000   0.53095507   -1.8027805   0.79563617   -1.0071443   0.14530242    11173.656     1000 
   34000   0.54918367   -1.8314246   0.82295173   -1.0084729   0.13186026    11410.439     1000 
   36000   0.54018938   -1.7731427   0.80947379  -0.96366891   0.14000218    11429.062     1000 
   38000   0.56045867   -1.8589867   0.83984731   -1.0191394   0.14728811    11170.392     1000 
   40000   0.51978456   -1.9048966   0.77889716   -1.1259994   0.12630032     11422.33     1000 
   42000   0.50419156   -1.7835206   0.75553105   -1.0279896   0.12447214    11519.655     1000 
   44000   0.50655297   -1.8338374   0.75906963   -1.0747678   0.13156709    11382.563     1000 
   46000   0.51345097   -1.8592837   0.76940628   -1.0898774   0.12634629    11447.453     1000 
   48000   0.51153871   -1.8718574   0.76654076   -1.1053167   0.13850706    11257.517     1000 
   50000   0.52692494   -1.8774048   0.78959702   -1.0878077    0.1280961     11384.97     1000 
   52000   0.51680921   -1.8736175   0.77443859   -1.0991789   0.13802346    11377.919     1000 
   54000   0.53405062   -1.8127626   0.80027486   -1.0124878   0.14132727    11327.152     1000 
   56000   0.52517917   -1.8292286   0.78698099   -1.0422476   0.11946282     11350.35     1000 
   58000   0.51598842   -1.8515064   0.77320865   -1.0782977   0.14044087    11351.548     1000 
   60000   0.52588225   -1.8289211   0.78803455   -1.0408866   0.12342468    11410.378     1000 
   62000   0.53419054   -1.7787526   0.80048452  -0.97826809   0.13269398    11408.495     1000 
   64000   0.51999371   -1.8646307   0.77921058   -1.0854201    0.1357697    11260.903     1000 
   66000   0.55994402   -1.9149808   0.83907612   -1.0759047   0.13319116    11385.608     1000 
   68000   0.53359085   -1.8116715   0.79958589   -1.0120857   0.12582515    11307.373     1000 
   70000   0.51547098   -1.8252363   0.77243326    -1.052803   0.13598491    11262.595     1000 
   72000   0.55427229   -1.8548037   0.83057703   -1.0242266    0.1342722    11432.903     1000 
   74000   0.53603477   -1.8042502    0.8032481   -1.0010021    0.1270398    11333.814     1000 
   76000   0.52847559   -1.8923907   0.79192067   -1.1004701   0.12987291    11519.772     1000 
   78000   0.55189588    -1.828044   0.82701598    -1.001028   0.12528352     11568.28     1000 
   80000   0.51182461    -1.778532   0.76696918   -1.0115629   0.12859349    11343.581     1000 
   82000   0.54203818   -1.8283877   0.81224421   -1.0161435   0.13212477    11376.311     1000 
   84000   0.53751801   -1.8329012   0.80547074   -1.0274305   0.13700276    11471.238     1000 
   86000   0.51852552   -1.8880827   0.77701049   -1.1110722   0.13292102    11514.796     1000 
   88000   0.52673938   -1.8398863   0.78931897   -1.0505673   0.12553166    11382.659     1000 
   90000   0.53858134   -1.8178299   0.80706414   -1.0107658   0.12228304    11377.776     1000 
   92000     0.565726    -1.808793   0.84774041  -0.96105259    0.1254742     11347.06     1000 
   94000   0.53229363   -1.7828733     0.797642  -0.98523128   0.11720771    11380.277     1000 
   96000   0.52857699   -1.8317061   0.79207262   -1.0396335    0.1280142    11570.404     1000 
   98000   0.52161917   -1.8567153   0.78164633    -1.075069   0.13643508    11454.307     1000 
  100000   0.52872399   -1.8521284   0.79229291   -1.0598355   0.13245689    11393.796     1000 
  102000   0.53546258   -1.8054026   0.80239068   -1.0030119   0.13363888    11288.944     1000 
  104000   0.55853892    -1.835577   0.83697057  -0.99860641   0.13544826    11354.833     1000 
  106000   0.53904866   -1.8780452   0.80776442   -1.0702808   0.11791724    11666.421     1000 
  108000   0.51133842   -1.8497486   0.76624062    -1.083508   0.13161679    11423.503     1000 
  110000   0.53444183    -1.839648   0.80086108   -1.0387869   0.12968507    11482.208     1000 
  112000   0.55896675   -1.8286134   0.83761167  -0.99100178   0.13236995    11377.847     1000 
  114000    0.5325501   -1.8221713   0.79802632    -1.024145   0.12976477    11408.657     1000 
  116000   0.52051112   -1.8506761   0.77998592   -1.0706902   0.13065941     11464.08     1000 
  118000   0.51764402   -1.8301643   0.77568956   -1.0544747   0.13413533    11363.267     1000 
  120000   0.53628866    -1.810642   0.80362856   -1.0070134   0.13797142    11339.003     1000 
  122000   0.53786668   -1.8378225   0.80599322   -1.0318292   0.12406954    11507.179     1000 
  124000   0.52519139    -1.900941    0.7869993   -1.1139417   0.12419779    11496.302     1000 
  126000   0.51765548    -1.851417   0.77570674   -1.0757103   0.12536586    11422.421     1000 
  128000   0.54205649   -1.8504285   0.81227165   -1.0381568   0.14288278    11251.334     1000 
  130000   0.54295411   -1.8722123   0.81361674   -1.0585955   0.13543545    11424.034     1000 
  132000   0.52599506   -1.8689036    0.7882036      -1.0807   0.12726832    11389.623     1000 
  134000   0.52427683   -1.8250646   0.78562882   -1.0394358   0.13132427    11435.304     1000 
  136000   0.52788054    -1.890828   0.79102898    -1.099799   0.11668343      11552.8     1000 
  138000   0.53065235   -1.7892298   0.79518255  -0.99404722   0.14966792    11374.018     1000 
  140000   0.54858149   -1.8404514   0.82204937   -1.0184021    0.1300659    11348.325     1000 
  142000   0.53200798   -1.8333608   0.79721395   -1.0361468   0.12458004    11422.038     1000 
  144000   0.52673896   -1.8378075   0.78931833   -1.0484892   0.12194745     11435.12     1000 
  146000   0.53438801   -1.8705728   0.80078044   -1.0697923    0.1262476    11518.411     1000 
  148000   0.51303313   -1.8279079   0.76878014   -1.0591277   0.12797633    11428.046     1000 
  150000   0.57469882   -1.7974512   0.86118619  -0.93626497   0.14227076    11294.248     1000 
  152000   0.55690818   -1.8046357   0.83452691  -0.97010881   0.13167884    11218.768     1000 
  154000   0.52204596   -1.8640016   0.78228587   -1.0817157   0.11600502     11542.68     1000 
  156000     0.536522   -1.8543381   0.80397822   -1.0503599   0.12613043    11477.129     1000 
  158000   0.51582715   -1.8892281   0.77296699   -1.1162611   0.12608812    11366.425     1000 
  160000   0.53431902   -1.8678745   0.80067705   -1.0671974   0.14249021    11385.779     1000 
  162000   0.53335427    -1.823642   0.79923137   -1.0244106   0.11750639    11440.735     1000 
  164000   0.50093998   -1.8685917   0.75065856   -1.1179332   0.13368746    11253.403     1000 
  166000   0.51554364   -1.8826529   0.77254215   -1.1101108   0.11172409     11600.86     1000 
  168000   0.53289414   -1.8596197   0.79854186   -1.0610778   0.12328741    11509.297     1000 
  170000   0.52607064   -1.8330707   0.78831685   -1.0447538   0.12758449    11351.179     1000 
  172000   0.55517833   -1.8423772   0.83193472   -1.0104425   0.12344287    11576.005     1000 
  174000   0.56073944   -1.7468253   0.84026805  -0.90655723   0.14457943    11155.916     1000 
  176000   0.52476488   -1.8599692   0.78636017   -1.0736091   0.11442607     11444.91     1000 
  178000   0.52432984   -1.8085346   0.78570827   -1.0228264   0.12821755    11385.871     1000 
  180000   0.53381879   -1.8094453   0.79992746   -1.0095178   0.12990008     11500.89     1000 
  182000   0.52115244     -1.85596   0.78094693    -1.075013   0.13884675    11499.483     1000 
  184000    0.5514711   -1.8875824   0.82637945   -1.0612029   0.12311128    11473.144     1000 
  186000   0.53353082   -1.8257885   0.79949594   -1.0262925   0.14130376    11161.852     1000 
  188000   0.51602037   -1.7932562   0.77325652   -1.0199997    0.1280169      11430.9     1000 
  190000   0.53724633   -1.8237828   0.80506362   -1.0187191   0.13429345    11403.081     1000 
  192000   0.53558396   -1.8739161   0.80257257   -1.0713436   0.12691764    11489.744     1000 
  194000   0.54612701   -1.8592219   0.81837133   -1.0408506   0.13152492    11591.707     1000 
  196000    0.5307859    -1.840866   0.79538267   -1.0454833   0.11815107     11466.01     1000 
  198000   0.56994758   -1.8510869   0.85406644  -0.99702042   0.13049666    11251.811     1000 
  200000   0.49364834   -1.8402768   0.73973204   -1.1005448   0.13921793    11285.511     1000 
  202000    0.5245397   -1.8670781   0.78602274   -1.0810554    0.1196089    11486.497     1000 
  204000   0.52760963   -1.8542097   0.79062303   -1.0635866   0.13870852    11441.198     1000 
  206000   0.50983847   -1.8157677   0.76399295   -1.0517748    0.1176621    11457.651     1000 
  208000   0.55312271   -1.8942678   0.82885439   -1.0654134   0.12100555    11614.808     1000 
  210000   0.52042521   -1.8602432   0.77985717   -1.0803861    0.1242178     11460.47     1000 
  212000   0.53904161   -1.8667789   0.80775385   -1.0590251   0.12014098    11348.452     1000 
  214000   0.53277644   -1.8513567    0.7983655   -1.0529912   0.14328728    11286.575     1000 
  216000   0.53950938   -1.8681069   0.80845481   -1.0596521   0.13166881    11463.672     1000 
  218000   0.53170557   -1.7964256   0.79676079  -0.99966486   0.13619119    11413.111     1000 
  220000   0.52918339   -1.8585058   0.79298131   -1.0655245   0.12719288    11452.379     1000 
  222000   0.51107811   -1.8042722   0.76585055   -1.0384216   0.13998434    11270.355     1000 
  224000   0.51704272   -1.8218889   0.77478851   -1.0471004   0.12105555    11482.276     1000 
  226000   0.54471176   -1.8310113   0.81625058   -1.0147607   0.12319393    11360.338     1000 
  228000   0.54035973    -1.779549   0.80972906  -0.96981998   0.12945328    11426.361     1000 
  230000   0.51761123   -1.8302417   0.77564043   -1.0546013   0.13981485    11340.235     1000 
  232000   0.51380178   -1.8702595   0.76993196   -1.1003275   0.12859879    11379.272     1000 
  234000   0.53280711   -1.8950456   0.79841146   -1.0966341    0.1364997    11453.972     1000 
  236000   0.53560487   -1.8162159    0.8026039    -1.013612   0.13380046    11353.842     1000 
  238000   0.50732059   -1.8717742    0.7602199   -1.1115543   0.12646367    11544.156     1000 
  240000   0.55038675   -1.8635052   0.82475455   -1.0387507   0.14415795    11276.184     1000 
  242000   0.55409237   -1.8548205   0.83030742   -1.0245131   0.12558191    11474.071     1000 
  244000   0.53447231   -1.8278098   0.80090676    -1.026903   0.14008416    11198.698     1000 
  246000   0.52538903   -1.8359702   0.78729546   -1.0486747   0.12447497    11513.979     1000 
  248000   0.54942123   -1.8609135   0.82330772   -1.0376058   0.12565994    11438.871     1000 
  250000     0.547049   -1.8490101   0.81975292   -1.0292571   0.12686413    11434.985     1000 
  252000   0.54191219   -1.8011987   0.81205542  -0.98914327   0.13382475    11413.341     1000 
  254000   0.51754813   -1.8562388   0.77554587   -1.0806929   0.12170939    11470.852     1000 
  256000   0.53698813   -1.8664558   0.80467672   -1.0617791   0.13812185    11430.769     1000 
  258000   0.55396139   -1.7610343   0.83011114  -0.93092319   0.14583252    11255.041     1000 
  260000   0.51280961   -1.8166026   0.76844519   -1.0481574   0.13380198    11268.043     1000 
  262000   0.52473241   -1.8746439   0.78631151   -1.0883324   0.13003044    11436.455     1000 
  264000   0.54316374   -1.8394314   0.81393086   -1.0255006     0.134367    11335.608     1000 
  266000   0.54804153    -1.817982   0.82124023  -0.99674173   0.13134865    11392.533     1000 
  268000   0.51717642   -1.8720715   0.77498886   -1.0970827   0.12955952    11450.229     1000 
  270000   0.54747703   -1.8895354   0.82039433   -1.0691411   0.14062162    11450.677     1000 
  272000   0.54297022   -1.8526105   0.81364087   -1.0389697   0.12585455    11442.568     1000 
  274000   0.52453534   -1.8405339   0.78601621   -1.0545177   0.12846574     11470.87     1000 
  276000   0.52732766    -1.801166   0.79020049   -1.0109655   0.13517972    11395.193     1000 
  278000   0.52882065   -1.8569136   0.79243775   -1.0644759   0.12431449    11559.505     1000 
  280000    0.5166096   -1.8062944   0.77413949   -1.0321549   0.14453701    11279.166     1000 
  282000   0.51411273   -1.8420671   0.77039792   -1.0716692   0.11733984    11636.296     1000 
  284000    0.5154326   -1.8628248   0.77237575   -1.0904491   0.11985235      11486.5     1000 
  286000   0.51364036   -1.8486927   0.76969008   -1.0790026   0.14277175    11353.015     1000 
  288000   0.53344099   -1.8376825   0.79936133   -1.0383212   0.11023963    11649.049     1000 
  290000   0.52268676   -1.8394842   0.78324611   -1.0562381    0.1128655    11577.993     1000 
  292000   0.52296671   -1.8476393   0.78366562   -1.0639737   0.12329944    11439.113     1000 
  294000   0.52022603   -1.8674529    0.7795587   -1.0878942   0.11953611    11630.724     1000 
  296000   0.52028096   -1.8592399   0.77964102   -1.0795989   0.13535249    11506.778     1000 
  298000   0.54844242   -1.8564236   0.82184097   -1.0345826   0.12004292    11558.422     1000 
  300000   0.53399654   -1.8449725   0.80019382   -1.0447787   0.13827696    11375.587     1000 
  302000   0.53087033   -1.8296149   0.79550919   -1.0341057   0.14785398    11375.321     1000 
  304000   0.53757372    -1.838097   0.80555422   -1.0325428   0.12668033    11471.815     1000 
  306000   0.54917901   -1.8256764   0.82294475   -1.0027317   0.12563337    11410.965     1000 
  308000   0.51211714    -1.889354   0.76740753   -1.1219465   0.11062196    11568.665     1000 
  310000   0.51821986   -1.8339921   0.77655246   -1.0574396   0.11848804    11546.088     1000 
  312000   0.54109888   -1.7904846   0.81083667  -0.97964796   0.14599413    11223.601     1000 
  314000   0.55358303   -1.8029822   0.82954416  -0.97343808   0.12571396    11337.534     1000 
  316000   0.51293417   -1.8341906   0.76863186   -1.0655587   0.12464043    11408.339     1000 
  318000   0.53705341    -1.809152   0.80477453   -1.0043775   0.12989594    11454.284     1000 
  320000   0.51295476    -1.848209   0.76866271   -1.0795463   0.12662605    11449.389     1000 
  322000   0.54552751   -1.8451075   0.81747298   -1.0276345   0.12100456    11406.633     1000 
  324000   0.54018475   -1.8467725   0.80946684   -1.0373056   0.13886756    11363.661     1000 
  326000   0.51036623   -1.8380269    0.7647838   -1.0732431    0.1355109    11296.781     1000 
  328000   0.52503122   -1.8549253   0.78675929    -1.068166   0.12069666    11578.029     1000 
  330000   0.54699791   -1.8057854   0.81967637  -0.98610904   0.13265764    11307.167     1000 
  332000   0.53946032   -1.8795762   0.80838129   -1.0711949   0.12322691    11432.756     1000 
  334000    0.5189135   -1.8661854   0.77759188   -1.0885935   0.11412853    11554.877     1000 
  336000   0.54311091   -1.8413484    0.8138517   -1.0274967   0.13502534    11392.662     1000 
  338000   0.52618438   -1.8157885    0.7884873   -1.0273012   0.13738636    11369.462     1000 
  340000   0.51856502   -1.8188951   0.77706968   -1.0418254   0.14281881    11316.326     1000 
  342000   0.52548187   -1.8570509   0.78743459   -1.0696163   0.12408769    11406.672     1000 
  344000   0.51644871   -1.8357571   0.77389839   -1.0618587   0.13850458    11315.564     1000 
  346000   0.54157323   -1.8359287   0.81154748   -1.0243812   0.13363748    11380.951     1000 
  348000   0.55001298   -1.8212865   0.82419444  -0.99709205   0.13704582    11332.895     1000 
  350000   0.53832646   -1.9101707    0.8066822   -1.1034885   0.12215822    11528.514     1000 
  352000    0.5392504   -1.8650546   0.80806673   -1.0569879   0.11832701    11686.396     1000 
  354000   0.52382618   -1.8464511   0.78495353   -1.0614975   0.13139068    11434.451     1000 
  356000   0.51013072   -1.8083322   0.76443089   -1.0439013   0.11605827    11645.148     1000 
  358000   0.54597339   -1.8530272   0.81814112    -1.034886    0.1371916    11261.533     1000 
  360000   0.55859645   -1.9034764   0.83705678   -1.0664197   0.14034779    11394.414     1000 
  362000   0.54494004   -1.8506599   0.81659265   -1.0340673   0.13135586    11277.751     1000 
  364000   0.51650382   -1.8044532   0.77398097   -1.0304723   0.13941176    11305.804     1000 
  366000   0.53306011   -1.8397017   0.79879058   -1.0409111   0.12482583    11456.303     1000 
  368000   0.51738733    -1.890748   0.77530492   -1.1154431   0.11517508    11462.023     1000 
  370000   0.55777758   -1.8152094   0.83582971  -0.97937974   0.13747047    11376.066     1000 
  372000   0.51819307   -1.7546827   0.77651231  -0.97817042    0.1359783    11231.518     1000 
  374000   0.51637831    -1.809651    0.7737929   -1.0358581   0.13475061    11452.393     1000 
  376000   0.52758858   -1.8960542   0.79059148   -1.1054627   0.12289323    11485.181     1000 
  378000   0.54173454   -1.7987218    0.8117892  -0.98693257   0.13471095     11124.88     1000 
  380000   0.54067974   -1.7905365   0.81020858   -0.9803279   0.13181666    11323.716     1000 
  382000   0.55519374   -1.8340028   0.83195782   -1.0020449   0.12119046    11554.999     1000 
  384000   0.52775763   -1.8260974    0.7908448   -1.0352526     0.133177    11398.118     1000 
  386000   0.51742151   -1.8724547   0.77535613   -1.0970986   0.13250206    11410.149     1000 
  388000    0.5426558   -1.8242573   0.81316972   -1.0110876    0.1342417    11374.519     1000 
  390000   0.53159674   -1.7886509   0.79659771  -0.99205323   0.13892919    11337.709     1000 
  392000   0.54618904   -1.8791381   0.81846428   -1.0606738   0.13594532     11343.03     1000 
  394000   0.52305107   -1.8103224   0.78379203   -1.0265304   0.12316012    11308.222     1000 
  396000   0.54487011   -1.8490773   0.81648786   -1.0325895   0.13257037    11391.272     1000 
  398000   0.55653698   -1.8215638   0.83397067  -0.98759312   0.13272952      11362.9     1000 
  400000   0.51824454    -1.871109   0.77658944   -1.0945196   0.12817679    11417.772     1000 
  402000   0.51272967   -1.8188873   0.76832542   -1.0505619   0.13100828    11358.668     1000 
  404000   0.53129527   -1.8104402   0.79614596   -1.0142943   0.13144427    11303.126     1000 
  406000   0.52662686   -1.8355959   0.78915035   -1.0464455   0.13296097    11397.227     1000 
  408000   0.52011763    -1.845093   0.77939627   -1.0656968   0.12700201    11560.611     1000 
  410000   0.52461634   -1.8635477   0.78613758   -1.0774101   0.12440291    11506.393     1000 
  412000   0.51424021   -1.8543065   0.77058896   -1.0837175   0.12834646     11505.97     1000 
  414000   0.52328578   -1.8090172   0.78414374   -1.0248734    0.1398894    11333.926     1000 
  416000   0.54647821   -1.8328987    0.8188976   -1.0140011   0.12488602    11475.282     1000 
  418000   0.55719974   -1.8302452   0.83496381  -0.99528144   0.11674833    11587.148     1000 
  420000   0.54782373   -1.8323954   0.82091386   -1.0114816   0.13271883    11531.817     1000 
  422000   0.51724429   -1.9123833   0.77509057   -1.1372927   0.12490146    11544.012     1000 
  424000   0.54468489   -1.8707292   0.81621031   -1.0545189    0.1329636    11432.238     1000 
  426000   0.50282157   -1.8736904   0.75347812   -1.1202122    0.1168347    11477.761     1000 
  428000   0.52910615   -1.8174357   0.79286556   -1.0245702    0.1315592    11274.448     1000 
  430000   0.52130792   -1.8426085   0.78117991   -1.0614286   0.12596194    11551.679     1000 
  432000   0.52275744   -1.8450741   0.78335202   -1.0617221   0.12778148    11468.235     1000 
  434000   0.52697903   -1.8169051   0.78967808    -1.027227   0.12912016    11326.236     1000 
  436000   0.52108603   -1.7941317   0.78084742   -1.0132843   0.12747371    11647.348     1000 
  438000   0.53013015    -1.847865   0.79440003   -1.0534649   0.12559666    11503.967     1000 
  440000   0.52174732   -1.8454171   0.78183836   -1.0635787   0.11937885    11589.589     1000 
  442000   0.54105794   -1.8477836   0.81077532   -1.0370083   0.12622474     11509.57     1000 
  444000   0.50153998   -1.8402216   0.75155766    -1.088664   0.13397867     11394.25     1000 
  446000   0.52782044   -1.7927204   0.79093893   -1.0017815    0.1360613    11252.842     1000 
  448000   0.50724121   -1.8885012   0.76010095   -1.1284002   0.12621197    11342.334     1000 
  450000    0.5314191   -1.8228096   0.79633152   -1.0264781   0.13211467    11432.347     1000 
  452000   0.54453424   -1.8313975   0.81598455   -1.0154129   0.12017671     11671.87     1000 
  454000   0.53047606     -1.79987   0.79491838   -1.0049516   0.12248135    11375.149     1000 
  456000   0.52445796   -1.8252179   0.78590025   -1.0393177     0.130829    11312.987     1000 
  458000    0.5342057   -1.8574929   0.80050724   -1.0569857   0.13497692    11379.397     1000 
  460000   0.52610733   -1.8048911   0.78837183   -1.0165192   0.12406588    11358.934     1000 
  462000    0.5324735   -1.8556565   0.79791154   -1.0577449   0.11616928    11556.739     1000 
  464000   0.55560156   -1.8377925   0.83256894   -1.0052236   0.13366466    11512.313     1000 
  466000   0.51731435   -1.8676627   0.77519555   -1.0924672   0.12982035    11503.543     1000 
  468000   0.53108479   -1.8342663   0.79583056   -1.0384358    0.1183164    11452.235     1000 
  470000   0.54530277    -1.853111    0.8171362   -1.0359748   0.12745847    11460.284     1000 
  472000   0.52308117   -1.8601685   0.78383713   -1.0763314   0.12189187    11390.399     1000 
  474000   0.52964145   -1.8573598   0.79366771   -1.0636921    0.1384797    11315.586     1000 
  476000   0.52499962   -1.8526339   0.78671193    -1.065922   0.13722458    11294.206     1000 
  478000   0.52887596   -1.8856222   0.79252063   -1.0931016   0.13173996      11452.3     1000 
  480000   0.53582731   -1.8220355   0.80293722   -1.0190983   0.12901016    11462.083     1000 
  482000   0.52111585    -1.836915    0.7808921   -1.0560229   0.12535812    11460.416     1000 
  484000   0.52861718   -1.8260601   0.79213285   -1.0339273   0.13691433    11356.952     1000 
  486000   0.53949117   -1.8894367   0.80842752   -1.0810092   0.13464456    11375.937     1000 
  488000   0.53093597   -1.8628619   0.79560755   -1.0672543   0.13412153    11415.625     1000 
  490000   0.50607023   -1.8585823   0.75834624   -1.1002361     0.146183    11336.349     1000 
  492000   0.54108158   -1.8105562   0.81081075  -0.99974549   0.13099009     11411.56     1000 
  494000   0.50051661   -1.8497598   0.75002414   -1.0997357   0.12104097    11576.398     1000 
  496000   0.54229471    -1.838769   0.81262862   -1.0261404   0.12091559    11416.353     1000 
  498000   0.53207521   -1.8222818    0.7973147   -1.0249671   0.14055532    11342.106     1000 
  500000   0.55800606   -1.8500246   0.83617208   -1.0138525   0.12723237    11465.207     1000 
  502000   0.52524761   -1.8184967   0.78708354   -1.0314132   0.12556571    11409.794     1000 
  504000    0.5319198   -1.8161444   0.79708182   -1.0190626   0.13577779    11408.868     1000 
  506000   0.53188333   -1.8067629   0.79702716   -1.0097357   0.12898734    11398.252     1000 
  508000   0.53329668   -1.8403053   0.79914508   -1.0411602   0.13297162    11460.949     1000 
  510000   0.52506501   -1.7940305   0.78680991   -1.0072206   0.14853539    11272.343     1000 
  512000   0.55165426   -1.8771219   0.82665391    -1.050468   0.13352635    11388.553     1000 
  514000   0.50837424   -1.7915772    0.7617988   -1.0297784   0.12340383    11372.829     1000 
  516000   0.50208033   -1.8169701   0.75236737   -1.0646028   0.12785555    11463.053     1000 
  518000   0.52717751   -1.8620815    0.7899755    -1.072106   0.13169734    11533.676     1000 
  520000   0.53843873   -1.8189607   0.80685043   -1.0121103   0.12655827    11488.578     1000 
  522000   0.53445566   -1.8501282    0.8008818   -1.0492464   0.12952737    11540.221     1000 
  524000   0.53546069   -1.8189731   0.80238785   -1.0165852   0.12915178    11357.143     1000 
  526000   0.52625793   -1.7846448    0.7885975   -0.9960473   0.13098429    11296.659     1000 
  528000   0.54197255   -1.8611405   0.81214586   -1.0489947   0.11186099    11733.219     1000 
  530000    0.5381278   -1.8486411    0.8063845   -1.0422566   0.14094872    11332.603     1000 
  532000   0.52194028   -1.8272581   0.78212751   -1.0451306   0.12521247    11453.169     1000 
  534000   0.51966313   -1.8189429    0.7787152   -1.0402277   0.12643279    11447.259     1000 
  536000   0.51264431   -1.8290081    0.7681975   -1.0608106   0.12979652     11340.05     1000 
  538000   0.51909602   -1.7908164   0.77786538   -1.0129511   0.13459076    11225.941     1000 
  540000   0.52087326   -1.8204889   0.78052858   -1.0399604   0.13152971    11323.612     1000 
  542000   0.53400431   -1.8090244   0.80020546   -1.0088189   0.13283202    11387.772     1000 
  544000   0.52656568   -1.8737464   0.78905867   -1.0846878   0.12067567    11585.307     1000 
  546000   0.55684537   -1.8002723   0.83443279  -0.96583949    0.1334486    11450.722     1000 
  548000   0.52583039   -1.8630658   0.78795683    -1.075109   0.12682736    11494.184     1000 
  550000   0.52404988   -1.8037469   0.78528874   -1.0184582   0.14248393    11305.476     1000 
  552000      0.53058   -1.8520781   0.79507413    -1.057004   0.13036228    11413.697     1000 
  554000   0.51311056    -1.832451   0.76889617   -1.0635549   0.13045395     11276.95     1000 
  556000   0.53087377   -1.8070091   0.79551434   -1.0114948   0.12257271    11477.513     1000 
  558000   0.53272192   -1.8605986    0.7982838   -1.0623148   0.12216454    11513.182     1000 
  560000   0.52164046    -1.829316   0.78167823   -1.0476377   0.13215167    11369.979     1000 
  562000   0.53092213   -1.8435041   0.79558681   -1.0479173   0.13060037    11429.966     1000 
  564000   0.52195499   -1.8870222   0.78214956   -1.1048727   0.12653078    11524.073     1000 
  566000   0.52342718   -1.8694839   0.78435563   -1.0851283   0.12752565    11553.012     1000 
  568000   0.52965615    -1.861478   0.79368974   -1.0677883   0.12963128    11462.751     1000 
  570000   0.53853634    -1.895156    0.8069967   -1.0881592   0.11834022    11643.775     1000 
  572000   0.54793501   -1.8055231   0.82108061  -0.98444251   0.13385247      11431.6     1000 
  574000   0.51578067   -1.8240059   0.77289733   -1.0511085   0.12472217    11527.195     1000 
  576000   0.49294802   -1.8594392   0.73868261   -1.1207566   0.12360682    11448.917     1000 
  578000   0.53532749    -1.803138   0.80218825   -1.0009498   0.13777479     11216.42     1000 
  580000   0.51787036   -1.8300494   0.77602874   -1.0540207   0.12752725    11405.486     1000 
  582000   0.53428643   -1.8637543   0.80062822   -1.0631261   0.13420377    11333.645     1000 
  584000   0.54565806   -1.8639433   0.81766861   -1.0462747   0.13757254    11349.386     1000 
  586000   0.51659916   -1.8381324   0.77412385   -1.0640086   0.12178529    11472.776     1000 
  588000   0.54955781    -1.824728   0.82351238   -1.0012157   0.13326099    11365.487     1000 
  590000   0.52608698   -1.8117158   0.78834134   -1.0233744    0.1410326    11306.858     1000 
  592000   0.53451937   -1.8297132   0.80097727    -1.028736   0.13592051    11432.007     1000 
  594000   0.52217048   -1.8179701   0.78247247   -1.0354976   0.12149903    11619.544     1000 
  596000   0.53489016   -1.7707297    0.8015329  -0.96919683   0.12938925    11353.784     1000 
  598000   0.51787243   -1.8147639   0.77603183   -1.0387321   0.12464402    11320.923     1000 
  600000   0.53668685   -1.8241738   0.80422524   -1.0199485   0.12924934    11357.731     1000 
  602000   0.52153766   -1.8508254   0.78152419   -1.0693012   0.13666907    11488.497     1000 
  604000   0.53704534   -1.8404773   0.80476244   -1.0357148   0.12803507    11395.624     1000 
  606000   0.55192629   -1.8260198   0.82706155   -0.9989582     0.130163    11415.813     1000 
  608000   0.52435412   -1.8264519   0.78574465   -1.0407072   0.12264354    11483.415     1000 
  610000   0.50999223   -1.8647531   0.76422336   -1.1005298   0.11427363    11490.246     1000 
  612000   0.51772404   -1.7941339   0.77580947   -1.0183244   0.13349523    11457.327     1000 
  614000   0.53180818   -1.8720101   0.79691456   -1.0750956   0.12852538    11488.894     1000 
  616000   0.54168068   -1.8452611   0.81170849   -1.0335526   0.12609682    11383.347     1000 
  618000   0.51755855   -1.8031267   0.77556148   -1.0275652   0.14065884    11249.518     1000 
  620000   0.54847968   -1.7938758    0.8218968  -0.97197905   0.12826279    11452.572     1000 
  622000    0.5163986   -1.8498327    0.7738233   -1.0760094   0.13592562    11317.767     1000 
  624000   0.53347094   -1.8574713    0.7994062   -1.0580651   0.13551589    11467.598     1000 
  626000   0.51191618   -1.8429769    0.7671064   -1.0758705   0.12172572    11379.968     1000 
  628000   0.51799004   -1.8348179   0.77620808   -1.0586098   0.13367275    11406.176     1000 
  630000   0.51042283   -1.8258905   0.76486861   -1.0610218   0.11233424    11406.176     1000 
  632000   0.54313554   -1.8798249   0.81388861   -1.0659363     0.128703    11446.046     1000 
  634000   0.54742527    -1.916726   0.82031677   -1.0964092   0.13067913    11527.348     1000 
  636000   0.54562774   -1.8530806   0.81762316   -1.0354575    0.1399227     11443.34     1000 
  638000   0.52216738   -1.8363692   0.78246782   -1.0539014   0.13094503    11464.853     1000 
  640000   0.53605692   -1.8446998    0.8032813   -1.0414185   0.12970495     11401.22     1000 
  642000   0.53331211   -1.7961177    0.7991682  -0.99694952   0.13601464    11315.585     1000 
  644000   0.50893796   -1.8211005   0.76264354    -1.058457   0.14227402    11198.012     1000 
  646000   0.53210631   -1.9202165    0.7973613   -1.1228552   0.11602311    11544.754     1000 
  648000    0.5329352   -1.8561118    0.7986034   -1.0575084    0.1372838    11396.561     1000 
  650000   0.50413641   -1.8518005   0.75544841   -1.0963521   0.12473447     11431.37     1000 
  652000   0.53869727   -1.7966923   0.80723786  -0.98945446   0.13311692    11413.251     1000 
  654000   0.49796887   -1.7713501   0.74620635   -1.0251437   0.13041601    11238.697     1000 
  656000   0.51186946    -1.835958   0.76703638   -1.0689216    0.1326305    11264.839     1000 
  658000   0.50281378   -1.8507717   0.75346645   -1.0973052   0.12262409    11487.833     1000 
  660000   0.51299659   -1.8401097   0.76872539   -1.0713843   0.13943679    11358.699     1000 
  662000   0.52848388   -1.8476309   0.79193309   -1.0556978   0.12704304    11487.412     1000 
  664000     0.539669   -1.8334193   0.80869399   -1.0247254   0.12753552    11487.344     1000 
  666000   0.52324409    -1.896441   0.78408128   -1.1123598   0.13458585    11423.739     1000 
  668000   0.51737422   -1.7356404   0.77528526  -0.96035513    0.1255237    11389.519     1000 
  670000   0.53218207   -1.8483713   0.79747483   -1.0508965   0.11728523    11708.256     1000 
  672000   0.54920931   -1.8831816   0.82299015   -1.0601914   0.13321605    11412.487     1000 
  674000   0.53963119   -1.8136307   0.80863734   -1.0049933   0.13743451    11420.033     1000 
  676000    0.5260776   -1.8691901   0.78832729   -1.0808629   0.13141074     11437.17     1000 
  678000   0.54070516    -1.837764   0.81024668   -1.0275173   0.12560415    11560.305     1000 
  680000   0.53471889   -1.8423292   0.80127625    -1.041053   0.14188254    11262.977     1000 
  682000   0.53218167   -1.8371483   0.79747424    -1.039674   0.12206227    11496.024     1000 
  684000   0.54625285   -1.8317682    0.8185599   -1.0132083   0.13181116    11470.654     1000 
  686000   0.53347467   -1.8370408   0.79941179   -1.0376291   0.12307905    11311.637     1000 
  688000   0.52801143   -1.8313198   0.79122513   -1.0400947   0.12779754    11448.565     1000 
  690000   0.54000313    -1.819523   0.80919469   -1.0103283   0.12747027    11476.029     1000 
  692000   0.51441046   -1.8555564   0.77084407   -1.0847123   0.12816642    11463.438     1000 
  694000   0.54629446   -1.8700824   0.81862225   -1.0514601   0.12843574    11561.611     1000 
  696000   0.52916964    -1.794305   0.79296071   -1.0013443   0.13374015    11394.275     1000 
  698000   0.53384655   -1.8606952   0.79996906   -1.0607261   0.11270233    11614.458     1000 
  700000   0.54437974   -1.8302561   0.81575304   -1.0145031   0.13206047    11346.802     1000 
  702000   0.52320334   -1.8347265    0.7840202   -1.0507063   0.12733495    11454.143     1000 
  704000   0.53868963   -1.8248123   0.80722641   -1.0175859   0.13838625    11146.299     1000 
  706000   0.50913491   -1.8056119   0.76293866   -1.0426732   0.13148697    11346.276     1000 
  708000   0.51376227   -1.8473566   0.76987277   -1.0774839   0.12977413    11286.155     1000 
  710000   0.52089289   -1.8121052     0.780558   -1.0315472   0.13962051    11206.924     1000 
  712000   0.53700159   -1.7881177   0.80469688  -0.98342087   0.13739338    11378.188     1000 
  714000    0.5382868   -1.8577298   0.80662277    -1.051107   0.13550345     11316.96     1000 
  716000   0.54459653   -1.8804671   0.81607789   -1.0643892   0.12659483    11571.859     1000 
  718000   0.50630461   -1.8192214   0.75869746   -1.0605239   0.12536105    11388.068     1000 
  720000   0.53919645   -1.8462916   0.80798588   -1.0383057   0.13090276    11491.627     1000 
  722000   0.54533532   -1.8340332   0.81718498   -1.0168482   0.13320885    11451.599     1000 
  724000   0.51016737   -1.8442512    0.7644858   -1.0797654   0.12974504    11336.298     1000 
  726000   0.53282944   -1.8306878   0.79844491   -1.0322429   0.13061518    11408.747     1000 
  728000   0.53531754   -1.8538459   0.80217333   -1.0516726   0.12712287    11452.285     1000 
  730000   0.51757923   -1.8757413   0.77559248   -1.1001488    0.1291442    11376.773     1000 
  732000   0.54737882   -1.8509288   0.82024716   -1.0306816   0.12594111    11568.058     1000 
  734000   0.52447606   -1.8225011   0.78592738   -1.0365737   0.12348143    11448.311     1000 
  736000   0.54175367   -1.8585899   0.81181787    -1.046772   0.11286748    11714.244     1000 
  738000   0.51876744   -1.7778407   0.77737301   -1.0004677    0.1426479    11210.632     1000 
  740000   0.55245494   -1.7882506   0.82785373  -0.96039691   0.13663698    11357.473     1000 
  742000   0.54899955   -1.8227374   0.82267582   -1.0000615   0.13320183    11472.824     1000 
  744000   0.53806071   -1.8535449   0.80628397    -1.047261   0.12199153    11564.261     1000 
  746000   0.54358492   -1.8650649     0.814562   -1.0505029   0.12134548    11525.969     1000 
  748000   0.56371873   -1.8082551   0.84473252   -0.9635226   0.13239308    11338.692     1000 
  750000   0.55005847   -1.8660762   0.82426261   -1.0418136   0.13881954    11363.931     1000 
  752000   0.53739914    -1.844564   0.80529261   -1.0392714   0.13662313    11184.581     1000 
  754000   0.53911168   -1.8140424   0.80785886   -1.0061836   0.13524308    11471.553     1000 
  756000   0.52213142   -1.8408135   0.78241394   -1.0583996     0.120731    11535.613     1000 
  758000   0.52987232   -1.8219278   0.79401367   -1.0279141   0.14213431    11220.282     1000 
  760000   0.54846822   -1.8328882   0.82187963   -1.0110085   0.12814835    11480.941     1000 
  762000   0.51860093   -1.8403398    0.7771235   -1.0632163   0.13141091     11461.73     1000 
  764000   0.53481535   -1.8234002    0.8014208   -1.0219794   0.13208137    11351.361     1000 
  766000   0.54858825   -1.8685623   0.82205949   -1.0465029   0.12765376    11580.714     1000 
  768000   0.51724543    -1.857491   0.77509228   -1.0823988   0.12944529    11477.553     1000 
  770000   0.52059585    -1.836412   0.78011288   -1.0562991   0.13554474    11429.799     1000 
  772000   0.53650346   -1.8185424   0.80395044    -1.014592   0.12254774    11531.866     1000 
  774000   0.51964581   -1.8655381   0.77868924   -1.0868489   0.12369488     11407.31     1000 
  776000   0.52438937   -1.8253724   0.78579747   -1.0395749    0.1338396    11366.716     1000 
  778000   0.52509109   -1.8283644     0.786849   -1.0415154   0.12924585    11347.643     1000 
  780000   0.52946587   -1.8386525    0.7934046   -1.0452479   0.12977093    11446.169     1000 
  782000    0.5419301   -1.8807613   0.81208225    -1.068679   0.12575148    11489.221     1000 
  784000   0.52015763   -1.8096251   0.77945621   -1.0301689   0.12635768    11373.345     1000 
  786000   0.54644855   -1.8551318   0.81885315   -1.0362787   0.12289414    11417.376     1000 
  788000   0.51078902   -1.8563657   0.76541735   -1.0909483   0.12777619    11317.875     1000 
  790000   0.54655719   -1.8958202   0.81901595   -1.0768043   0.12449091     11475.98     1000 
  792000   0.52684333   -1.9006376   0.78947474   -1.1111629    0.1394207    11344.798     1000 
  794000    0.5278013    -1.847524   0.79091024   -1.0566138   0.13391634    11370.678     1000 
  796000   0.48935669   -1.8855155     0.733301   -1.1522145   0.12220136    11500.204     1000 
  798000   0.53325873   -1.8188745    0.7990882   -1.0197863   0.12898672    11409.979     1000 
  800000   0.53472653   -1.8884047    0.8012877    -1.087117   0.13112251    11422.315     1000 
  802000   0.53918385   -1.8120017     0.807967   -1.0040347   0.13831675    11245.751     1000 
  804000   0.53615459   -1.8404139   0.80342765   -1.0369863   0.13563382     11364.48     1000 
  806000   0.55541028   -1.8430931    0.8322823   -1.0108108   0.11514583    11534.604     1000 
  808000   0.51968965   -1.8777326   0.77875494   -1.0989776   0.13052376    11393.271     1000 
  810000   0.54068944   -1.8626924   0.81022313   -1.0524692    0.1151695    11549.245     1000 
  812000   0.51470297   -1.8405447   0.77128239   -1.0692623   0.12649175    11359.155     1000 
  814000   0.52888996   -1.7871129    0.7925416  -0.99457134   0.13149831    11420.657     1000 
  816000   0.52404222    -1.800404   0.78527726   -1.0151268   0.13374527    11255.883     1000 
  818000   0.51848331   -1.8355858   0.77694724   -1.0586386   0.13495384    11222.962     1000 
  820000   0.49980457   -1.8535562   0.74895715    -1.104599   0.13238184    11347.842     1000 
  822000   0.53563885    -1.847392   0.80265481   -1.0447372   0.12664576    11489.654     1000 
  824000    0.5300543   -1.8307061   0.79428637   -1.0364198   0.13741569     11467.78     1000 
  826000   0.53627047   -1.8550991    0.8036013   -1.0514978   0.12240926    11539.587     1000 
  828000   0.54723513   -1.8705438   0.82003185   -1.0505119   0.12670388      11479.5     1000 
  830000   0.52151016    -1.834524   0.78148297    -1.053041   0.12709958    11341.193     1000 
  832000   0.53574259   -1.8390208   0.80281027   -1.0362106   0.11891647    11439.449     1000 
  834000   0.52582374   -1.7881174   0.78794688   -1.0001705   0.14160047    11279.805     1000 
  836000   0.54837696   -1.7829546   0.82174288  -0.96121171   0.13674356    11280.102     1000 
  838000     0.540512   -1.8364667   0.80995723   -1.0265095   0.13671737    11343.468     1000 
  840000   0.54599993   -1.8289989    0.8181809    -1.010818   0.13161758    11320.366     1000 
  842000   0.52494604   -1.8666926   0.78663164    -1.080061   0.13755937    11295.555     1000 
  844000   0.53183738   -1.8270108   0.79695831   -1.0300525   0.14190625    11331.435     1000 
  846000    0.5253034   -1.8680186   0.78716714   -1.0808514   0.12605266    11578.219     1000 
  848000   0.52135332   -1.8525093   0.78124795   -1.0712613   0.11755978     11567.17     1000 
  850000   0.51406837   -1.8185355   0.77033145   -1.0482041   0.13402481      11300.2     1000 
  852000   0.54599962    -1.845607   0.81818044   -1.0274266    0.1359498    11292.617     1000 
  854000   0.53263313   -1.8366086   0.79815074   -1.0384579   0.12101249    11511.982     1000 
  856000   0.55334959   -1.7860851   0.82919436  -0.95689074   0.13551878    11305.102     1000 
  858000   0.50786138   -1.8428576   0.76103028   -1.0818273   0.12202868    11464.702     1000 
  860000   0.52042292    -1.852442   0.77985374   -1.0725882   0.13016272    11446.021     1000 
  862000   0.53242203   -1.8274523   0.79783441   -1.0296179   0.13275587    11411.198     1000 
  864000   0.54920794   -1.8360372   0.82298809   -1.0130491   0.12691431    11452.028     1000 
  866000   0.50424819   -1.8681213   0.75561592   -1.1125054   0.11347865    11632.854     1000 
  868000   0.54605918   -1.8632253   0.81826968   -1.0449556   0.13341627    11451.972     1000 
  870000   0.53591245   -1.8334046   0.80306481   -1.0303398   0.13771554    11293.378     1000 
  872000   0.52974511   -1.8416446   0.79382305   -1.0478215   0.12546898    11510.264     1000 
  874000   0.53241171   -1.8236871   0.79781895   -1.0258682   0.12670062    11408.034     1000 
  876000   0.52091148   -1.8448601   0.78058586   -1.0642742   0.12578257    11454.368     1000 
  878000   0.53162835   -1.8465466   0.79664508   -1.0499015   0.11687952    11567.513     1000 
  880000   0.54175585   -1.8365749   0.81182114   -1.0247538   0.12954136    11493.043     1000 
  882000   0.54430369   -1.8583879   0.81563909   -1.0427489   0.12267255    11525.596     1000 
  884000   0.52781379   -1.8105593   0.79092896   -1.0196303   0.14597593    11263.748     1000 
  886000   0.54259749   -1.8135502   0.81308233   -1.0004679   0.14054658    11291.137     1000 
  888000   0.53551187   -1.7691713   0.80246454  -0.96670679    0.1392541    11285.367     1000 
  890000    0.5064816   -1.8165413   0.75896267   -1.0575786    0.1296146    11325.989     1000 
  892000   0.52015251   -1.8448915   0.77944854    -1.065443   0.13034879    11383.691     1000 
  894000   0.53644207    -1.821489   0.80385844   -1.0176306   0.13127212    11305.963     1000 
  896000   0.52596219   -1.8663776   0.78815434   -1.0782233   0.12894044    11444.113     1000 
  898000    0.5512511   -1.8376019   0.82604978   -1.0115521    0.1273811    11483.178     1000 
  900000   0.52167126   -1.8088376   0.78172439   -1.0271132   0.13664431    11371.857     1000 
  902000   0.51864415    -1.868713   0.77718825   -1.0915248   0.13239243    11421.368     1000 
  904000   0.51915381    -1.864697   0.77795199    -1.086745   0.13539554    11306.151     1000 
  906000   0.52336232   -1.8238772   0.78425843   -1.0396187   0.11823188    11556.176     1000 
  908000   0.53883388   -1.8392102   0.80744257   -1.0317677   0.13237673     11354.76     1000 
  910000   0.51201371   -1.8299983   0.76725255   -1.0627457   0.12113834    11499.911     1000 
  912000   0.53268124   -1.8285868   0.79822283   -1.0303639   0.13653467    11426.264     1000 
  914000   0.54267123   -1.8359785   0.81319284   -1.0227857   0.12864278    11437.249     1000 
  916000   0.52304124   -1.8520421   0.78377729   -1.0682648   0.11988588     11529.47     1000 
  918000   0.51549044   -1.8276152   0.77246242   -1.0551527   0.12563358    11368.029     1000 
  920000   0.53332915   -1.8275496   0.79919373   -1.0283559    0.1086642    11638.851     1000 
  922000   0.54807013   -1.8488529   0.82128309   -1.0275698   0.13017251     11511.72     1000 
  924000   0.51689792   -1.8615808   0.77457154   -1.0870092   0.11948743    11500.644     1000 
  926000   0.55131565   -1.8608577    0.8261465   -1.0347112    0.1324318     11431.42     1000 
  928000   0.51989634   -1.8686793   0.77906467   -1.0896147   0.12319672      11523.2     1000 
  930000   0.50150037   -1.8443745    0.7514983   -1.0928762   0.13761032    11212.581     1000 
  932000   0.52982636   -1.8095439    0.7939448   -1.0155991    0.1253515    11476.876     1000 
  934000   0.53466818   -1.8178517   0.80120027   -1.0166515   0.13609436    11295.716     1000 
  936000    0.5277157   -1.8259296   0.79078197   -1.0351477   0.12956354     11299.06     1000 
  938000   0.53915478   -1.8689097   0.80792344   -1.0609863   0.13715987    11391.405     1000 
  940000   0.52596019   -1.7782738   0.78815134  -0.99012245   0.13325637    11425.312     1000 
  942000   0.51890036   -1.8919547   0.77757218   -1.1143825   0.12584989    11521.241     1000 
  944000   0.53204341    -1.821101   0.79726705   -1.0238339   0.13417298    11375.239     1000 
  946000   0.52588545   -1.8096061   0.78803935   -1.0215667   0.14512085    11283.291     1000 
  948000   0.53119027   -1.8461101   0.79598862   -1.0501215   0.13019548    11347.351     1000 
  950000   0.52474771   -1.8579956   0.78633444   -1.0716611   0.13574922    11253.899     1000 
  952000   0.54672914   -1.8339379   0.81927361   -1.0146643   0.12944353    11372.385     1000 
  954000   0.53769072   -1.8395177   0.80572954   -1.0337881   0.13954664    11345.907     1000 
  956000   0.54395196   -1.8636367   0.81511201   -1.0485247   0.12315007     11523.82     1000 
  958000   0.54299803   -1.8365121   0.81368255   -1.0228295   0.13078884    11424.043     1000 
  960000   0.50598879   -1.8579178   0.75822421   -1.0996936     0.136923     11313.46     1000 
  962000   0.56130826   -1.8421719   0.84112043   -1.0010515   0.13613011    11477.772     1000 
  964000   0.52745377   -1.8169098   0.79038948   -1.0265204   0.13787895    11275.514     1000 
  966000   0.54695688   -1.8282695   0.81961488   -1.0086547   0.13206491    11423.933     1000 
  968000   0.52205901   -1.8344045   0.78230542   -1.0520991   0.12168716    11431.013     1000 
  970000   0.54283753   -1.8457383   0.81344204   -1.0322963   0.13664741    11225.301     1000 
  972000   0.54896334    -1.827174   0.82262157   -1.0045525   0.13672346    11282.864     1000 
  974000   0.52163055   -1.8215959   0.78166338   -1.0399325   0.12554042    11258.278     1000 
  976000   0.55223342   -1.8101609   0.82752178  -0.98263916   0.14733368    11267.217     1000 
  978000   0.53493627   -1.8644417   0.80160199   -1.0628397   0.13495529     11313.25     1000 
  980000   0.52757474   -1.7880675   0.79057076   -0.9974967   0.11751573    11532.377     1000 
  982000   0.54185023   -1.8217917   0.81196257   -1.0098291   0.13562896    11376.317     1000 
  984000   0.52315603   -1.8824475   0.78394932   -1.0984982   0.12622311    11507.823     1000 
  986000   0.51585676   -1.8080826   0.77301136   -1.0350713   0.11994271    11626.408     1000 
  988000   0.55051587   -1.8280923   0.82494804   -1.0031443   0.13560416    11315.341     1000 
  990000    0.5358578   -1.8302416   0.80298292   -1.0272587   0.13120559    11311.888     1000 
  992000    0.5273445   -1.7808038   0.79022573  -0.99057806   0.13066981      11322.7     1000 
  994000   0.53335685   -1.8261218   0.79923524   -1.0268866   0.11926792    11403.512     1000 
  996000   0.54104954   -1.8164075   0.81076273   -1.0056447   0.14530356    11148.543     1000 
  998000   0.53776981   -1.8297313   0.80584806   -1.0238832   0.11766807    11520.919     1000 
 1000000   0.52833373   -1.8347295    0.7917081   -1.0430214   0.13076479    11257.986     1000 
 1002000    0.5362768   -1.8244638   0.80361079    -1.020853   0.12449439    11361.227     1000 
 1004000   0.53329945   -1.8182627   0.79914923   -1.0191134   0.13711796    11273.317     1000 
 1006000   0.52786002   -1.8775288   0.79099823   -1.0865306   0.12577463    11518.571     1000 
 1008000   0.51971886   -1.8233159   0.77879871   -1.0445172   0.12377802    11376.887     1000 
 1010000   0.53158925   -1.7657906   0.79658649  -0.96920409   0.13185582     11276.76     1000 
 1012000   0.52811869   -1.8076057   0.79138586   -1.0162199     0.131084     11362.94     1000 
 1014000   0.54022767   -1.8354775   0.80953117   -1.0259463   0.14515594    11285.261     1000 
 1016000   0.51360513   -1.8575822   0.76963729   -1.0879449   0.11894344    11450.279     1000 
 1018000   0.50721836   -1.8431516   0.76006671   -1.0830848   0.12727452     11549.19     1000 
 1020000   0.52065868   -1.8105997   0.78020704   -1.0303926   0.12476373    11276.208     1000 
 1022000   0.51408642   -1.8594829   0.77035849   -1.0891244    0.1289676    11445.231     1000 
 1024000   0.52884393   -1.8728312   0.79247263   -1.0803586   0.12117595    11523.036     1000 
 1026000   0.53378429   -1.8496224   0.79987576   -1.0497467   0.13603645    11245.553     1000 
 1028000   0.52279014    -1.891472   0.78340102    -1.108071   0.12941331    11458.086     1000 
 1030000    0.5355011   -1.8544712   0.80244839   -1.0520228   0.13748549    11302.983     1000 
 1032000   0.56950978   -1.8428548   0.85341041  -0.98944435   0.13520318    11308.247     1000 
 1034000    0.5413855   -1.8016122   0.81126617  -0.99034607   0.13611151    11317.824     1000 
 1036000    0.5301487   -1.8116206   0.79442783   -1.0171927   0.13544488    11333.346     1000 
 1038000   0.53582983   -1.8116138   0.80294101   -1.0086728   0.13761196    11455.634     1000 
 1040000   0.52061245   -1.8347944   0.78013776   -1.0546566   0.12315262    11494.539     1000 
 1042000   0.54100326   -1.8237086   0.81069339   -1.0130152   0.11902207    11424.063     1000 
 1044000   0.54220006   -1.8510756   0.81248679   -1.0385888   0.12607672    11470.011     1000 
 1046000   0.54444377   -1.8151003   0.81584899  -0.99925135   0.13336471    11422.101     1000 
 1048000   0.52895155   -1.8070691    0.7926339   -1.0144352   0.13538785    11368.559     1000 
 1050000    0.5339813   -1.8026352   0.80017097   -1.0024642    0.1303701     11329.59     1000 
 1052000      0.53613   -1.8606121   0.80339081   -1.0572213   0.11509639    11621.385     1000 
 1054000   0.52448267   -1.8822276   0.78593728   -1.0962903   0.13677947    11409.378     1000 
 1056000   0.52799812   -1.8140133   0.79120518   -1.0228081   0.13450134    11369.882     1000 
 1058000   0.53338538   -1.8317675   0.79927799   -1.0324896   0.12944664    11157.934     1000 
 1060000   0.51500085   -1.8347732   0.77172877   -1.0630444   0.12811694     11358.23     1000 
 1062000   0.56023428   -1.8213742   0.83951107  -0.98186313   0.12617372    11343.544     1000 
 1064000   0.50041802    -1.848375    0.7498764   -1.0984986   0.12706006     11366.11     1000 
 1066000   0.51520445   -1.8715201   0.77203387   -1.0994863   0.12232116    11496.681     1000 
 1068000   0.54817001   -1.8537955   0.82143277   -1.0323627   0.11995165    11659.799     1000 
 1070000   0.51827867   -1.8140222   0.77664059   -1.0373816   0.13535133    11272.143     1000 
 1072000   0.50815962   -1.8178278   0.76147719   -1.0563506   0.11673299    11518.808     1000 
 1074000   0.53544635   -1.8682717   0.80236635   -1.0659054   0.12537787    11523.339     1000 
 1076000   0.54685353   -1.8768121   0.81946001   -1.0573521   0.13867263    11487.295     1000 
 1078000   0.51993483   -1.8492304   0.77912235    -1.070108    0.1291523    11493.552     1000 
 1080000   0.52578138   -1.8607469   0.78788339   -1.0728635   0.14245979     11259.36     1000 
 1082000   0.51992377   -1.8269621   0.77910578   -1.0478563   0.13366566    11396.841     1000 
 1084000    0.5529117    -1.860976   0.82853817   -1.0324378   0.13451607     11508.34     1000 
 1086000   0.52573195   -1.8052872   0.78780933   -1.0174778   0.11739602    11462.961     1000 
 1088000   0.53124038   -1.8771369   0.79606372   -1.0810732   0.12360984     11450.33     1000 
 1090000   0.52990906    -1.844709   0.79406873   -1.0506403   0.13266767    11259.055     1000 
 1092000   0.53802453   -1.9080782   0.80622976   -1.1018485   0.12779005    11496.636     1000 
 1094000   0.51758563   -1.8596577   0.77560207   -1.0840556   0.13147896    11433.036     1000 
 1096000   0.54411873   -1.8465418   0.81536191   -1.0311799   0.14292601    11238.365     1000 
 1098000   0.55808909   -1.8869261   0.83629651   -1.0506296   0.13742854     11421.57     1000 
 1100000   0.56733961   -1.7903274    0.8501584  -0.94016896   0.12938457    11422.032     1000 
 1102000   0.54992556    -1.836205   0.82406345   -1.0121415   0.13843602      11387.2     1000 
 1104000    0.5459863   -1.8393723   0.81816047   -1.0212118   0.13211777    11406.553     1000 
 1106000   0.53689185   -1.8489309   0.80453244   -1.0443985   0.14109616    11347.917     1000 
 1108000   0.51130386   -1.8597808   0.76618883   -1.0935919   0.12730622    11488.315     1000 
 1110000   0.53215131   -1.8313375   0.79742873   -1.0339088   0.13263862    11395.768     1000 
 1112000   0.53657241   -1.8286488   0.80405376    -1.024595   0.14653324    11183.224     1000 
 1114000   0.51270759   -1.8472892   0.76829233   -1.0789969   0.12767389    11437.085     1000 
 1116000   0.51788989   -1.8684422     0.776058   -1.0923842   0.11192915     11566.71     1000 
 1118000    0.5314133   -1.8454688   0.79632283    -1.049146   0.12200546     11501.92     1000 
 1120000    0.5268044   -1.8876149    0.7894164   -1.0981985   0.11338909    11726.841     1000 
 1122000   0.54211628   -1.8213857   0.81236124   -1.0090244   0.12712224    11523.349     1000 
 1124000   0.54494114   -1.7921365   0.81659429  -0.97554222   0.14709612    11208.006     1000 
 1126000   0.53731216   -1.8321975   0.80516227   -1.0270352   0.13446893    11475.852     1000 
 1128000   0.55811082   -1.8334451   0.83632907  -0.99711605    0.1456062    11299.768     1000 
 1130000   0.57225964   -1.8552041   0.85753106    -0.997673   0.12919443    11448.393     1000 
 1132000   0.52979047   -1.8243637   0.79389102   -1.0304726   0.13906249    11355.862     1000 
 1134000   0.53515105   -1.8369423   0.80192385   -1.0350184   0.12037903    11543.422     1000 
 1136000   0.51228414   -1.8244891   0.76765778   -1.0568313   0.12907293    11414.153     1000 
 1138000   0.51942657    -1.844821   0.77836071   -1.0664603   0.12171792    11488.999     1000 
 1140000   0.54506296   -1.8232027   0.81677684   -1.0064258   0.12771625    11336.023     1000 
 1142000   0.52491745   -1.8367125    0.7865888   -1.0501237   0.13595206    11395.787     1000 
 1144000   0.51427923   -1.8341745   0.77064743    -1.063527   0.12266869    11476.166     1000 
 1146000   0.51681448    -1.865436    0.7744465   -1.0909895   0.13198132    11238.012     1000 
 1148000   0.53069603    -1.796781     0.795248    -1.001533   0.14026489    11388.161     1000 
 1150000   0.52507516    -1.795879   0.78682512   -1.0090539   0.13221848    11527.245     1000 
 1152000   0.51132328   -1.8811543   0.76621793   -1.1149364   0.14252695    11294.062     1000 
 1154000   0.50898405   -1.8061202    0.7627126   -1.0434076   0.13765833    11277.015     1000 
 1156000   0.53945958   -1.7905218   0.80838018  -0.98214162   0.13459803        11354     1000 
 1158000    0.5278814    -1.840811   0.79103028   -1.0497807    0.1285126    11415.439     1000 
 1160000   0.56134064   -1.8488862   0.84116894   -1.0077173   0.13399286    11324.607     1000 
 1162000   0.54462604   -1.8546909   0.81612213   -1.0385688   0.13579354    11371.157     1000 
 1164000   0.53300704   -1.8463464   0.79871105   -1.0476353    0.1140812    11616.305     1000 
 1166000   0.51161583   -1.8457955   0.76665632   -1.0791392   0.12548836     11438.26     1000 
 1168000   0.53502891    -1.880577   0.80174082   -1.0788361    0.1189308    11405.362     1000 
 1170000   0.51369767   -1.8807077   0.76977596   -1.1109317   0.12824444    11520.023     1000 
 1172000   0.54045074   -1.8236896   0.80986544   -1.0138242   0.13801815    11357.367     1000 
 1174000   0.52651712   -1.8226384    0.7889859   -1.0336525   0.11025312    11643.039     1000 
 1176000   0.53102785   -1.8642973   0.79574524    -1.068552   0.13643081    11393.202     1000 
 1178000   0.52209299   -1.8698744   0.78235634    -1.087518   0.13578095     11422.42     1000 
 1180000   0.53377983   -1.8384966   0.79986907   -1.0386275   0.12641973    11558.612     1000 
 1182000   0.53511807   -1.8744537   0.80187442   -1.0725793   0.12489557    11408.101     1000 
 1184000   0.52563815   -1.8760051   0.78766876   -1.0883363   0.13871039    11361.973     1000 
 1186000   0.52588735    -1.910556   0.78804219   -1.1225138   0.12091733    11583.031     1000 
 1188000   0.50944056   -1.8101246   0.76339668   -1.0467279   0.13738775    11256.596     1000 
 1190000   0.53191352   -1.8527615   0.79707241   -1.0556891   0.12369111        11535     1000 
 1192000   0.52227455   -1.8658153   0.78262842   -1.0831869   0.12638071    11451.456     1000 
 1194000   0.53197369   -1.8345344   0.79716257   -1.0373718   0.12688038    11474.603     1000 
 1196000   0.53125156   -1.8562443   0.79608046   -1.0601638   0.13363537    11453.769     1000 
 1198000   0.52507747   -1.7955811   0.78682859   -1.0087525   0.13227604    11347.887     1000 
 1200000   0.52194575   -1.8503841   0.78213571   -1.0682484   0.12988051    11296.455     1000 
 1202000   0.52193551   -1.8703077   0.78212036   -1.0881873   0.12911879    11364.749     1000 
 1204000   0.52110647    -1.804523   0.78087805   -1.0236449    0.1475898    11165.145     1000 
 1206000   0.52703354   -1.8441046   0.78975975   -1.0543449   0.12372341    11410.562     1000 
 1208000   0.55149274     -1.89003   0.82641187   -1.0636181   0.14656274    11367.907     1000 
 1210000   0.53218504   -1.8199196   0.79747928   -1.0224404    0.1214315    11520.822     1000 
 1212000   0.55420148   -1.8438782   0.83047092   -1.0134073   0.13008857    11399.036     1000 
 1214000   0.52216985   -1.8095148   0.78247152   -1.0270433   0.14015917    11286.447     1000 
 1216000   0.53128104   -1.8019025   0.79612463   -1.0057779   0.14258965    11227.431     1000 
 1218000    0.5079179    -1.850732   0.76111498    -1.089617   0.12416417    11507.714     1000 
 1220000   0.52019627   -1.8256527   0.77951411   -1.0461385   0.12931319    11439.009     1000 
 1222000   0.52634848   -1.8351174    0.7887332   -1.0463842   0.12479643    11407.255     1000 
 1224000   0.52711565   -1.7715532    0.7898828  -0.98167039   0.13335765     11293.09     1000 
 1226000   0.53701946   -1.8269451   0.80472366   -1.0222215   0.13607818    11319.854     1000 
 1228000   0.53282213   -1.8754472   0.79843395   -1.0770132   0.13113845    11298.737     1000 
 1230000   0.52619799   -1.8016253   0.78850769   -1.0131176   0.11717834    11580.828     1000 
 1232000    0.5432659   -1.8133265   0.81408395  -0.99924253   0.14028442    11274.385     1000 
 1234000   0.53115335     -1.90609    0.7959333   -1.1101567   0.13592598    11448.393     1000 
 1236000   0.52203937   -1.8694291     0.782276   -1.0871531   0.12288826    11412.948     1000 
 1238000   0.52546294   -1.9087008   0.78740621   -1.1212945   0.12923066    11579.308     1000 
 1240000   0.53455631   -1.7979339   0.80103262  -0.99690123   0.11722366     11581.16     1000 
 1242000   0.55311704   -1.7771803   0.82884588   -0.9483344   0.13362274     11387.68     1000 
 1244000   0.52407756   -1.8232934   0.78533023   -1.0379632   0.11700287    11632.651     1000 
 1246000   0.52827624    -1.812344   0.79162195    -1.020722   0.14343307    11375.075     1000 
 1248000   0.53438442   -1.8259812   0.80077505   -1.0252061   0.13299169    11289.595     1000 
 1250000   0.53736291    -1.787495   0.80523833  -0.98225668   0.12715629    11297.864     1000 
 1252000    0.5161093   -1.8379897   0.77338979   -1.0645999   0.14062146    11273.458     1000 
 1254000   0.54398226   -1.8090632   0.81515742  -0.99390577   0.13187774    11405.179     1000 
 1256000   0.51002493   -1.8087769   0.76427236   -1.0445045   0.12636222    11385.899     1000 
 1258000   0.51263141   -1.8268033   0.76817817   -1.0586251   0.12742858    11476.391     1000 
 1260000   0.54102431    -1.858506   0.81072493    -1.047781   0.12975674    11444.394     1000 
 1262000   0.54104019   -1.8259145   0.81074872   -1.0151658   0.13022229    11527.973     1000 
 1264000   0.53695063   -1.8227366   0.80462052   -1.0181161   0.12768235     11482.45     1000 
 1266000   0.50966652   -1.8635644   0.76373528   -1.0998291   0.12640111    11562.788     1000 
 1268000   0.52348432   -1.8616352   0.78444126   -1.0771939   0.11721556    11634.339     1000 
 1270000   0.54535634    -1.859213   0.81721648   -1.0419965   0.12936616    11470.697     1000 
 1272000   0.53877666     -1.80952   0.80735683   -1.0021632   0.13879117    11337.217     1000 
 1274000   0.53330817   -1.8365742   0.79916229   -1.0374119    0.1406933    11270.131     1000 
 1276000    0.5284129   -1.8420937   0.79182673    -1.050267   0.12653361    11446.177     1000 
 1278000   0.54506322   -1.8411359   0.81677723   -1.0243587   0.13663457    11326.338     1000 
 1280000   0.53123728   -1.8003679   0.79605907   -1.0043089   0.14006688    11259.962     1000 
 1282000   0.53915724   -1.8032792   0.80792713  -0.99535209   0.13275567    11339.467     1000 
 1284000    0.5371365   -1.8378304   0.80489904   -1.0329314   0.13226649    11417.538     1000 
 1286000   0.53191265   -1.8422783    0.7970711   -1.0452072   0.13756487    11321.575     1000 
 1288000   0.52441732   -1.8121304   0.78583936    -1.026291   0.12682109    11332.176     1000 
 1290000   0.53808543   -1.8506077   0.80632102   -1.0442866    0.1291892    11397.521     1000 
 1292000   0.50966488   -1.8021558   0.76373282    -1.038423   0.13390324    11314.077     1000 
 1294000   0.52867263   -1.7922266   0.79221593   -1.0000106   0.13559753    11283.413     1000 
 1296000   0.53382952   -1.8285255   0.79994354    -1.028582   0.11902511    11481.806     1000 
 1298000   0.50950369   -1.8106233   0.76349127   -1.0471321   0.12786601    11492.307     1000 
 1300000   0.54222492   -1.8565483   0.81252404   -1.0440243   0.11774517    11499.197     1000 
 1302000   0.52482278   -1.8472335   0.78644694   -1.0607865   0.11460715    11632.334     1000 
 1304000   0.53332041   -1.8398735   0.79918064   -1.0406929   0.12503771    11553.295     1000 
 1306000   0.54186276   -1.8547445   0.81198135   -1.0427631   0.11979733    11514.376     1000 
 1308000   0.54977347   -1.8833085   0.82383554    -1.059473   0.14496256    11400.386     1000 
 1310000   0.52925262   -1.7907972   0.79308505  -0.99771211   0.13799883    11355.197     1000 
 1312000   0.52886195    -1.799855   0.79249963   -1.0073554   0.13312296     11380.74     1000 
 1314000   0.55174225   -1.8932326   0.82678576   -1.0664469   0.12227183    11562.141     1000 
 1316000   0.51487729   -1.9016141   0.77154362   -1.1300705   0.10452282    11836.027     1000 
 1318000   0.51492899   -1.8269427   0.77162109   -1.0553217   0.13565434    11357.773     1000 
 1320000   0.51153701   -1.8595868   0.76653821   -1.0930486   0.11833592    11486.155     1000 
 1322000   0.51572439    -1.871794     0.772813    -1.098981   0.12214002    11588.442     1000 
 1324000   0.54128689   -1.8644084   0.81111841   -1.0532899   0.13502504    11344.785     1000 
 1326000   0.51969332    -1.878792   0.77876043   -1.1000316   0.12213571     11437.65     1000 
 1328000   0.52857059   -1.8007579   0.79206303   -1.0086949   0.12273753    11462.774     1000 
 1330000   0.53239459   -1.7980074   0.79779329   -1.0002141    0.1263262     11578.61     1000 
 1332000   0.53375668   -1.9015686   0.79983438   -1.1017343    0.1190408    11670.293     1000 
 1334000   0.53050333   -1.8223426   0.79495924   -1.0273834   0.12833727    11359.735     1000 
 1336000   0.53998162    -1.850444   0.80916246   -1.0412815    0.1309128    11316.971     1000 
 1338000   0.52684504   -1.8433027   0.78947729   -1.0538254   0.13707644    11398.715     1000 
 1340000   0.51499101   -1.8827559   0.77171403   -1.1110419   0.14058342    11325.002     1000 
 1342000   0.52432742   -1.8020643   0.78570464   -1.0163596   0.11686151    11526.919     1000 
 1344000   0.52936577   -1.8549351   0.79325461   -1.0616805   0.11739259    11523.937     1000 
 1346000   0.52829612   -1.8270611   0.79165174   -1.0354094   0.12982703    11297.734     1000 
 1348000   0.52246985   -1.8040144   0.78292107   -1.0210933    0.1370706    11310.734     1000 
 1350000   0.53594079   -1.8501833   0.80310728    -1.047076   0.12344165    11466.053     1000 
 1352000   0.52592339   -1.8869903    0.7880962   -1.0988941    0.1340746    11384.993     1000 
 1354000    0.5351681   -1.8745922    0.8019494   -1.0726428   0.12350808    11518.945     1000 
 1356000   0.54774536   -1.8868467   0.82079642   -1.0660503   0.12594876    11556.608     1000 
 1358000   0.53921101   -1.8484091   0.80800769   -1.0404014   0.11796938    11570.389     1000 
 1360000   0.54815336   -1.8702091   0.82140781   -1.0488013   0.12874564    11383.993     1000 
 1362000   0.53199075   -1.8338465   0.79718814   -1.0366583   0.12680751    11247.206     1000 
 1364000   0.55021226    -1.874882   0.82449308   -1.0503889   0.12535279    11413.151     1000 
 1366000   0.53548239   -1.8401659   0.80242035   -1.0377455   0.13140513    11341.344     1000 
 1368000     0.542611   -1.7688699   0.81310259  -0.95576736   0.13479229    11284.938     1000 
 1370000    0.5075227   -1.8621952   0.76052277   -1.1016725   0.12729751    11310.064     1000 
 1372000   0.52641408   -1.7865512   0.78883149  -0.99771967   0.13666255    11296.894     1000 
 1374000   0.53672325   -1.8180265   0.80427979   -1.0137467    0.1280894    11409.156     1000 
 1376000   0.53168814   -1.7958632   0.79673468  -0.99912852   0.13711692    11266.728     1000 
 1378000   0.53311539   -1.8315716   0.79887341   -1.0326982   0.14263851    11344.704     1000 
 1380000   0.54060034   -1.8622273   0.81008961   -1.0521377   0.14840866     11215.14     1000 
 1382000   0.52538884   -1.8794023   0.78729518   -1.0921071   0.12894022    11484.757     1000 
 1384000   0.52584131   -1.8499089    0.7879732   -1.0619357   0.12362367    11567.454     1000 
 1386000   0.50003293   -1.8376703   0.74929934    -1.088371   0.14454096     11302.61     1000 
 1388000   0.53005967   -1.8500862   0.79429441   -1.0557918   0.12727796    11481.093     1000 
 1390000   0.53010901   -1.8645778   0.79436835   -1.0702094   0.13487502    11364.942     1000 
 1392000   0.53182741   -1.7837253   0.79694337  -0.98678192   0.12561611    11451.321     1000 
 1394000   0.54826492   -1.8656467   0.82157498   -1.0440717   0.13383203    11348.683     1000 
 1396000   0.55243962   -1.8297544   0.82783077   -1.0019237   0.12589885    11514.902     1000 
 1398000   0.52292488   -1.8427655   0.78360293   -1.0591626   0.12942747    11462.365     1000 
 1400000   0.51067825   -1.8601582   0.76525135   -1.0949069   0.12745205    11478.144     1000 
 1402000   0.53398398   -1.7856786   0.80017499   -0.9855036   0.13301099    11287.762     1000 
 1404000   0.53060944   -1.8045774   0.79511824   -1.0094591   0.12611131    11469.006     1000 
 1406000   0.51631668   -1.8644148   0.77370054   -1.0907143   0.11978811    11694.726     1000 
 1408000   0.52544331   -1.8234669   0.78737679   -1.0360901   0.12325458    11397.668     1000 
 1410000   0.50360155    -1.822723   0.75464693   -1.0680761   0.13300151     11384.13     1000 
 1412000   0.53795533   -1.8728855   0.80612606   -1.0667595   0.12988685     11470.47     1000 
 1414000   0.53204891   -1.8221218    0.7972753   -1.0248465   0.12636596      11390.6     1000 
 1416000   0.52886588   -1.8619462   0.79250552   -1.0694407   0.12852875    11485.871     1000 
 1418000     0.528131    -1.864012   0.79140431   -1.0726077   0.12362039    11502.492     1000 
 1420000   0.53402476   -1.8481609   0.80023611   -1.0479248   0.12339093    11507.536     1000 
 1422000   0.52010405   -1.8471079   0.77937592   -1.0677319   0.12358998    11438.361     1000 
 1424000   0.54135665   -1.8928429   0.81122294     -1.08162   0.13126653    11415.306     1000 
 1426000   0.52101943   -1.8483728   0.78074761   -1.0676252   0.13224201    11491.767     1000 
 1428000   0.51129004   -1.8154615   0.76616813   -1.0492934     0.126809    11419.253     1000 
 1430000   0.53732486   -1.8178318   0.80518131   -1.0126505    0.1259563    11489.985     1000 
 1432000   0.53666263   -1.8670811   0.80418896   -1.0628921   0.13957745    11410.449     1000 
 1434000    0.5236737   -1.8313101   0.78472504   -1.0465851   0.12826928    11383.611     1000 
 1436000   0.51728201   -1.8079617   0.77514709   -1.0328146   0.13480818    11278.403     1000 
 1438000   0.51639819     -1.85397   0.77382269   -1.0801473   0.13204873    11424.849     1000 
 1440000   0.53088013    -1.821241   0.79552387   -1.0257172   0.13056863    11460.749     1000 
 1442000   0.52476802   -1.8629955   0.78636488   -1.0766306   0.11616229    11617.955     1000 
 1444000    0.5374616   -1.8123403   0.80538621   -1.0069541   0.13297636    11455.363     1000 
 1446000    0.5146884   -1.8807066   0.77126057    -1.109446   0.12711664    11427.042     1000 
 1448000   0.53365797   -1.8921872   0.79968646   -1.0925008   0.12929895    11354.376     1000 
 1450000   0.52247517   -1.8385473   0.78292904   -1.0556183   0.12936353    11483.375     1000 
 1452000   0.52332579   -1.8726208   0.78420369   -1.0884171   0.12457532    11403.897     1000 
 1454000   0.51031662   -1.8346998   0.76470946   -1.0699903   0.12834051    11513.079     1000 
 1456000    0.5199079   -1.7964936   0.77908199   -1.0174116    0.1124064    11572.414     1000 
 1458000   0.52150968   -1.8466646   0.78148225   -1.0651824   0.12703782    11450.666     1000 
 1460000   0.54237063   -1.8353386   0.81274239   -1.0225962   0.13925404    11342.172     1000 
 1462000   0.55457957   -1.8666195   0.83103749    -1.035582   0.14006968    11336.268     1000 
 1464000     0.549543   -1.8529509   0.82349018   -1.0294607   0.11511172    11591.084     1000 
 1466000   0.52794263   -1.8211355   0.79112204   -1.0300134   0.12763697    11469.495     1000 
 1468000   0.51184986   -1.8395011   0.76700702   -1.0724941    0.1353266    11329.519     1000 
 1470000   0.53641439   -1.8371236   0.80381696   -1.0333066   0.13158353      11443.9     1000 
 1472000   0.53050771   -1.8297434   0.79496581   -1.0347776   0.14365501    11383.292     1000 
 1474000   0.54370326   -1.7846689   0.81473934  -0.96992961   0.13808094    11217.781     1000 
 1476000   0.54300805   -1.8373191   0.81369756   -1.0236215    0.1317774    11395.597     1000 
 1478000   0.52835775   -1.8632697   0.79174409   -1.0715257   0.12844943    11496.699     1000 
 1480000   0.51659374   -1.8625738   0.77411572   -1.0884581   0.12143826    11564.539     1000 
 1482000   0.50872458   -1.8395215   0.76232379   -1.0771977   0.13128355    11387.819     1000 
 1484000   0.52742727   -1.8415906   0.79034976   -1.0512409   0.13328175    11396.461     1000 
 1486000   0.53420755   -1.8833858   0.80051001   -1.0828758   0.13064095    11406.497     1000 
 1488000   0.53116184   -1.8803066   0.79594602   -1.0843606   0.11957281     11491.85     1000 
 1490000   0.52242813   -1.8840785   0.78285855   -1.1012199   0.12665977    11434.665     1000 
 1492000   0.53952143   -1.8010837   0.80847286  -0.99261083   0.14574359      11238.5     1000 
 1494000    0.5524414   -1.8126331   0.82783343  -0.98479964   0.13078235    11358.819     1000 
 1496000   0.52923805   -1.8210836   0.79306322   -1.0280204   0.13059134     11389.66     1000 
 1498000    0.5366163   -1.7318264   0.80411953  -0.92770687   0.13130115    11374.258     1000 
 1500000   0.52364532   -1.8492107   0.78468252   -1.0645281    0.1289402    11458.563     1000 
 1502000   0.55583294   -1.8302403   0.83291566  -0.99732468   0.12794705    11539.901     1000 
 1504000   0.50913736   -1.8601184   0.76294233   -1.0971761   0.12695357    11547.392     1000 
 1506000   0.51694963   -1.8713781   0.77464901   -1.0967291    0.1213228    11515.297     1000 
 1508000   0.52841649   -1.8756367   0.79183212   -1.0838046   0.13824256    11289.569     1000 
 1510000   0.52146543   -1.8383979   0.78141595    -1.056982   0.12058087    11458.332     1000 
 1512000   0.53392223   -1.8387635   0.80008246   -1.0386811   0.13010253    11300.261     1000 
 1514000   0.52394779   -1.8389032   0.78513576   -1.0537674   0.12899924    11555.813     1000 
 1516000   0.53033336   -1.8096791   0.79470454   -1.0149745   0.13284804    11254.538     1000 
 1518000   0.51337787   -1.8453072   0.76929673   -1.0760105   0.11858727    11606.691     1000 
 1520000   0.53911156   -1.8436886   0.80785867   -1.0358299   0.12837886    11491.761     1000 
 1522000   0.52678156   -1.8041455   0.78938216   -1.0147633   0.13853096    11240.426     1000 
 1524000   0.53487389   -1.9086393   0.80150853   -1.1071308   0.13965192    11432.329     1000 
 1526000   0.53177144   -1.8120798    0.7968595   -1.0152203   0.12894764    11434.197     1000 
 1528000   0.50070865    -1.869894   0.75031191   -1.1195821   0.11728849    11587.805     1000 
 1530000   0.55571553   -1.7926609   0.83273973  -0.95992121   0.12461135    11510.237     1000 
 1532000   0.55792576   -1.8590611   0.83605175   -1.0230093     0.125562    11480.353     1000 
 1534000   0.51922118   -1.8536142   0.77805294   -1.0755613     0.115539    11513.566     1000 
 1536000   0.51386978   -1.8129537   0.77003387   -1.0429198   0.13258086    11369.085     1000 
 1538000   0.51388141   -1.8481199    0.7700513   -1.0780686   0.11895337    11498.645     1000 
 1540000   0.52594201   -1.8660076   0.78812411   -1.0778835   0.14969851    11262.337     1000 
 1542000   0.53514062   -1.7940294   0.80190821  -0.99212118   0.12426495    11318.994     1000 
 1544000   0.54617463    -1.806887   0.81844268  -0.98844437   0.13173867    11402.511     1000 
 1546000   0.50910402   -1.8012966   0.76289237   -1.0384043   0.13946588    11312.827     1000 
 1548000   0.51865102   -1.8593517   0.77719855   -1.0821531   0.13722078    11277.051     1000 
 1550000   0.54135765   -1.8460241   0.81122444   -1.0347996   0.13033794    11478.321     1000 
 1552000   0.51129683   -1.9021526    0.7661783   -1.1359743   0.13426769    11435.645     1000 
 1554000   0.52849426   -1.8270972   0.79194865   -1.0351485   0.12577073    11440.316     1000 
 1556000   0.53362768   -1.8244619   0.79964108   -1.0248208   0.14699765    11327.887     1000 
 1558000   0.52228869   -1.8311232    0.7826496   -1.0484736   0.13301366    11331.964     1000 
 1560000   0.54264306   -1.8150665   0.81315063   -1.0019158   0.13260227    11397.912     1000 
 1562000   0.53965943   -1.8611826   0.80867966   -1.0525029   0.11896764    11437.158     1000 
 1564000   0.52950488   -1.8787574   0.79346307   -1.0852944   0.13799298     11412.85     1000 
 1566000   0.54245633   -1.8368283   0.81287082   -1.0239575   0.13410985     11371.74     1000 
 1568000   0.54879746    -1.824485     0.822373    -1.002112   0.12495131    11525.527     1000 
 1570000   0.51083349   -1.8418235   0.76548398   -1.0763395   0.12031002    11547.017     1000 
 1572000   0.52716784   -1.9112295   0.78996101   -1.1212685   0.13193805    11619.033     1000 
 1574000   0.52741903   -1.8172448   0.79033742   -1.0269074   0.13375499     11376.02     1000 
 1576000   0.54210401   -1.8323236   0.81234287   -1.0199807   0.12452321    11510.153     1000 
 1578000   0.52055837   -1.8213048   0.78005672   -1.0412481   0.12768081    11370.113     1000 
 1580000   0.52977364   -1.8345079    0.7938658   -1.0406421   0.14053339     11313.83     1000 
 1582000   0.54959205   -1.8416062   0.82356369   -1.0180425    0.1365017     11461.91     1000 
 1584000   0.52366329   -1.8123279   0.78470945   -1.0276185   0.13844891     11233.59     1000 
 1586000   0.54134962   -1.8313746   0.81121241   -1.0201622   0.14428652    11306.112     1000 
 1588000   0.52968827   -1.8611466   0.79373788   -1.0674087   0.13536916    11338.463     1000 
[...]
 2614000   0.55601463   -1.8014473   0.83318792  -0.96825937   0.13970856    11331.909     1000 
 2616000   0.53084178   -1.8826104    0.7954664    -1.087144   0.12603392     11600.36     1000 
 2618000   0.54247026     -1.82148   0.81289168   -1.0085883   0.15056482    11209.126     1000 
 2620000   0.53075084   -1.7598961   0.79533013  -0.96456595   0.13076038    11289.356     1000 
 2622000   0.52799725   -1.7998538   0.79120388   -1.0086499   0.12363653    11419.884     1000 
 2624000   0.55933305   -1.8392305   0.83816057   -1.0010699   0.13843832    11340.189     1000 
 2626000   0.54211142   -1.8696286   0.81235396   -1.0572746   0.11542608    11613.275     1000 
 2628000   0.52115846    -1.908271   0.78095595    -1.127315   0.11594833    11471.861     1000 
 2630000   0.50984623   -1.8218113   0.76400457   -1.0578068   0.13302828    11519.119     1000 
 2632000   0.52845428   -1.8320834   0.79188874   -1.0401946   0.13499886      11333.7     1000 
 2634000   0.53968295   -1.8105344   0.80871491   -1.0018195   0.12022208    11436.385     1000 
 2636000   0.52698841   -1.8413167   0.78969214   -1.0516246   0.12653386    11500.419     1000 
 2638000   0.52397583   -1.8209441   0.78517778   -1.0357663   0.13459294    11385.442     1000 
 2640000    0.5459967   -1.8291578   0.81817606   -1.0109817   0.14531007    11227.601     1000 
 2642000   0.52226346   -1.8504875   0.78261179   -1.0678757   0.12444843    11470.948     1000 
 2644000   0.54326535   -1.8512319   0.81408312   -1.0371488   0.12936126    11477.809     1000 
 2646000   0.52351817   -1.8538726   0.78449197   -1.0693807   0.13356748    11349.525     1000 
 2648000   0.52057979   -1.8031617   0.78008882   -1.0230729   0.13094648    11254.688     1000 
 2650000    0.5347468   -1.8582744   0.80131808   -1.0569563   0.12908696    11584.049     1000 
 2652000   0.53091318   -1.7941275    0.7955734  -0.99855406    0.1361385    11472.232     1000 
 2654000   0.52332713   -1.8710659   0.78420571   -1.0868602   0.12399309    11529.203     1000 
 2656000   0.52666514   -1.8028025   0.78920771   -1.0135948   0.13684157    11335.142     1000 
 2658000    0.5389425   -1.8291243   0.80760534    -1.021519   0.13139776    11452.293     1000 
 2660000   0.51493843   -1.8139459   0.77163524   -1.0423106   0.12355807    11468.196     1000 
 2662000   0.53373354   -1.8570617    0.7997997    -1.057262    0.1254972    11459.174     1000 
 2664000   0.52765481   -1.8491997   0.79069073    -1.058509   0.14584658    11229.983     1000 
 2666000   0.51377442    -1.782739   0.76989097    -1.012848   0.12312961    11334.603     1000 
 2668000   0.51796991   -1.8350504   0.77617791   -1.0588724   0.13399505    11382.181     1000 
 2670000   0.52425889    -1.827954   0.78560195    -1.042352   0.13817122    11340.845     1000 
 2672000   0.52806696   -1.8289844   0.79130835   -1.0376761   0.13979841    11404.041     1000 
 2674000   0.54512377   -1.8670526   0.81686797   -1.0501847   0.13135176     11400.95     1000 
 2676000   0.52210048    -1.841206   0.78236757   -1.0588385   0.13440511     11401.58     1000 
 2678000   0.50613198   -1.7824088   0.75843877     -1.02397   0.12080653    11456.017     1000 
 2680000   0.51670887   -1.9033452   0.77428824    -1.129057   0.13350519    11432.467     1000 
 2682000   0.51075917   -1.8128684   0.76537261   -1.0474958   0.13437327    11280.013     1000 
 2684000   0.50884823   -1.8400618   0.76250907   -1.0775527   0.12878136    11424.796     1000 
 2686000   0.54781029   -1.8458381   0.82089372   -1.0249444   0.13021438    11409.421     1000 
 2688000   0.54785496   -1.8386149   0.82096066   -1.0176542   0.13251355     11540.63     1000 
 2690000   0.52809138   -1.8067664   0.79134493   -1.0154215   0.12501377     11458.19     1000 
 2692000   0.50772267   -1.8341256   0.76082242   -1.0733031   0.12451037    11409.298     1000 
 2694000   0.56371933   -1.8518278   0.84473341   -1.0070944   0.13975378    11400.485     1000 
 2696000   0.54006802   -1.8538217   0.80929192   -1.0445298   0.12834513    11328.611     1000 
 2698000   0.52577738   -1.8235339    0.7878774   -1.0356565   0.15301486    11209.121     1000 
 2700000   0.52259388   -1.8142391   0.78310693   -1.0311322   0.12838236    11294.481     1000 
 2702000   0.54195181   -1.8453514   0.81211479   -1.0332366   0.14312918    11348.899     1000 
 2704000   0.52961307   -1.7940042   0.79362519    -1.000379    0.1331436    11370.909     1000 
 2706000   0.51670587   -1.8495896   0.77428374   -1.0753058   0.14000129    11486.263     1000 
 2708000   0.51684775   -1.8177232   0.77449635   -1.0432268   0.11993827    11479.752     1000 
 2710000   0.53712334   -1.8218368   0.80487932   -1.0169575   0.13484216    11421.889     1000 
 2712000   0.52031933   -1.8429891   0.77969852   -1.0632906   0.13623258    11389.746     1000 
 2714000   0.54168896   -1.8125555   0.81172091   -1.0008346   0.13161242    11361.768     1000 
 2716000   0.53639789   -1.8202382   0.80379224    -1.016446   0.12478824    11312.048     1000 
 2718000   0.52652047   -1.8691797   0.78899093   -1.0801888    0.1409022    11351.208     1000 
 2720000    0.5492132   -1.8746261   0.82299597   -1.0516301   0.12153054    11496.878     1000 
 2722000    0.5143848     -1.87287   0.77080563   -1.1020644   0.11981514    11441.434     1000 
 2724000   0.54703377   -1.8810409   0.81973011   -1.0613107   0.11791028    11551.032     1000 
 2726000   0.54197518   -1.8044115   0.81214981  -0.99226166    0.1329497    11368.547     1000 
 2728000   0.54754544   -1.8452547   0.82049684   -1.0247578   0.13966465    11254.843     1000 
 2730000   0.52307721    -1.891136    0.7838312   -1.1073048   0.13175763    11493.785     1000 
 2732000   0.52031299    -1.879097   0.77968901    -1.099408    0.1333474    11336.604     1000 
 2734000   0.49846441   -1.8288103   0.74694891   -1.0818613     0.117721     11526.48     1000 
 2736000    0.5321655   -1.8376256      0.79745   -1.0401756   0.12387619     11586.94     1000 
 2738000   0.51775958   -1.8118164   0.77586274   -1.0359536   0.10595701    11693.357     1000 
 2740000   0.51483478   -1.8824722   0.77147992   -1.1109923    0.1261707     11367.68     1000 
 2742000   0.50603751    -1.904044   0.75829721   -1.1457468   0.13805077    11284.505     1000 
 2744000    0.5106413   -1.8223888   0.76519599   -1.0571928   0.12876825    11333.728     1000 
 2746000   0.53804179   -1.8807632   0.80625562   -1.0745075     0.117937     11497.59     1000 
 2748000   0.52931856   -1.8318883   0.79318387   -1.0387044   0.13240854    11442.446     1000 
 2750000   0.51917667   -1.8976917   0.77798623   -1.1197054   0.12715741    11536.154     1000 
 2752000   0.53164527   -1.8466169   0.79667043   -1.0499465   0.12956632    11497.035     1000 
 2754000   0.53294801   -1.8519261   0.79862259   -1.0533035   0.12473054    11449.848     1000 
 2756000   0.55353359   -1.8932943   0.82947008   -1.0638242   0.12462463    11511.386     1000 
 2758000   0.53310908   -1.8448103   0.79886396   -1.0459464   0.13032492    11566.666     1000 
 2760000   0.53117638   -1.8362248    0.7959678    -1.040257   0.13958602    11487.077     1000 
 2762000   0.51329941   -1.8524205   0.76917916   -1.0832413   0.11296863    11541.418     1000 
 2764000     0.551287   -1.8508574   0.82610358   -1.0247538   0.13593462    11391.505     1000 
 2766000   0.52802216   -1.8452394    0.7912412   -1.0539982   0.12429922    11464.153     1000 
 2768000   0.52148845   -1.7986869   0.78145044   -1.0172364   0.13869623    11263.476     1000 
 2770000   0.54205166   -1.8377877   0.81226442   -1.0255233   0.13673324    11412.642     1000 
 2772000   0.52305322   -1.8349457   0.78379526   -1.0511504   0.12283227    11486.528     1000 
 2774000   0.52434561    -1.837802    0.7857319   -1.0520701   0.13525385    11428.852     1000 
 2776000   0.52805168   -1.8127202   0.79128545   -1.0214347     0.131861    11373.779     1000 
 2778000   0.55784753   -1.7677513   0.83593453  -0.93181678    0.1487375    11173.615     1000 
 2780000   0.52575509   -1.8034509     0.787844   -1.0156069   0.14161235     11208.44     1000 
 2782000    0.5319718     -1.81969   0.79715974   -1.0225303   0.13370359    11390.233     1000 
 2784000   0.54369544   -1.8778847   0.81472762    -1.063157   0.12037791    11494.205     1000 
 2786000   0.51860768   -1.8460866   0.77713361    -1.068953   0.12044177    11587.554     1000 
 2788000   0.53550629   -1.8538039   0.80245618   -1.0513477   0.13499395    11294.103     1000 
 2790000    0.5162413   -1.8465115   0.77358759   -1.0729239   0.12843215    11445.395     1000 
 2792000   0.53676888   -1.8496845   0.80434816   -1.0453363   0.11920873    11437.889     1000 
 2794000   0.53319522   -1.8071405   0.79899303   -1.0081475   0.13187216    11419.574     1000 
 2796000    0.5298303   -1.8218406   0.79395071   -1.0278899   0.13699622    11396.689     1000 
 2798000   0.54986673   -1.8953469   0.82397529   -1.0713716   0.11945008    11459.713     1000 
 2800000   0.50748586   -1.8446375   0.76046756   -1.0841699   0.14730392    11327.214     1000 
 2802000   0.53451757   -1.8694555   0.80097457    -1.068481   0.11704765    11578.043     1000 
 2804000   0.53566849   -1.8328377   0.80269923   -1.0301384   0.10950012    11524.483     1000 
 2806000   0.53351251   -1.8189497    0.7994685   -1.0194812   0.13186941    11403.699     1000 
 2808000   0.53981192   -1.8428571   0.80890816   -1.0339489   0.13377539    11386.573     1000 
 2810000    0.5268513   -1.8411412   0.78948667   -1.0516546   0.12437421    11320.316     1000 
 2812000   0.53124769   -1.8196298   0.79607466   -1.0235552   0.12785785    11309.458     1000 
 2814000   0.52385662   -1.8338475   0.78499914   -1.0488483   0.13404587    11458.876     1000 
 2816000   0.53142837   -1.8796305   0.79634541   -1.0832851   0.14093341    11253.883     1000 
 2818000   0.52652678   -1.8326091   0.78900039   -1.0436087   0.14191785    11399.076     1000 
 2820000   0.52026435   -1.8529613   0.77961613   -1.0733452   0.11789122     11496.36     1000 
 2822000   0.50314428    -1.845353    0.7539617   -1.0913912   0.12740147    11379.922     1000 
 2824000   0.54676635   -1.8795001   0.81932937   -1.0601708   0.13003761    11443.757     1000 
 2826000   0.52940771   -1.8248731   0.79331746   -1.0315557    0.1315583    11244.387     1000 
 2828000   0.56076468   -1.8259608   0.84030587  -0.98565491     0.138256    11390.634     1000 
 2830000   0.52456633   -1.8509687   0.78606264    -1.064906   0.13565036    11295.441     1000 
 2832000   0.53326283    -1.832636   0.79909436   -1.0335417   0.11843466    11568.086     1000 
 2834000   0.54095098   -1.8439917   0.81061504   -1.0333767   0.12375905    11490.441     1000 
 2836000    0.5638189   -1.8244221   0.84488262  -0.97953951   0.13392014    11525.787     1000 
 2838000   0.55026684    -1.879306   0.82457486   -1.0547312   0.13195836    11431.533     1000 
 2840000   0.53030789    -1.869595   0.79466637   -1.0749287   0.13298696     11373.53     1000 
 2842000   0.52706182   -1.8697147   0.78980213   -1.0799126   0.12384716    11559.704     1000 
 2844000   0.52606332   -1.8385272   0.78830588   -1.0502213   0.13455911    11427.728     1000 
 2846000   0.50412559   -1.8923162    0.7554322    -1.136884   0.12298859     11506.53     1000 
 2848000   0.54588529   -1.7942386   0.81800911  -0.97622948   0.14147071    11234.921     1000 
 2850000   0.52302913   -1.8367088   0.78375915   -1.0529496   0.12680592    11404.731     1000 
 2852000   0.52252833   -1.8306922   0.78300871   -1.0476835   0.13555898     11271.21     1000 
 2854000   0.52666009   -1.7929466   0.78920015   -1.0037465   0.12652089    11229.159     1000 
 2856000   0.55383351   -1.8758048   0.82991951   -1.0458853   0.13411285    11366.557     1000 
 2858000   0.52660921   -1.8822684   0.78912391   -1.0931444   0.12386509    11498.916     1000 
 2860000   0.51597255   -1.8341103   0.77318486   -1.0609254   0.14420918    11123.082     1000 
 2862000   0.53342558   -1.8782337   0.79933824   -1.0788955   0.13564005     11363.09     1000 
 2864000   0.52391544   -1.8024777   0.78508729   -1.0173904   0.12296938    11380.345     1000 
 2866000   0.54075722   -1.8113265   0.81032469   -1.0010018   0.13061208    11363.301     1000 
 2868000    0.5248986   -1.8078224   0.78656056   -1.0212619   0.11438244    11521.311     1000 
 2870000   0.53462285   -1.8085119   0.80113234   -1.0073796   0.13744857     11215.11     1000 
 2872000   0.51049539   -1.8652723   0.76497734   -1.1002949   0.13736683     11346.84     1000 
 2874000   0.53730885   -1.8642325   0.80515731   -1.0590752   0.11930604    11469.058     1000 
 2876000   0.52374716    -1.801104   0.78483512   -1.0162689   0.13107409    11386.666     1000 
 2878000   0.52693747   -1.9066368    0.7896158    -1.117021   0.12007634    11481.769     1000 
 2880000   0.51036048   -1.8235841   0.76477518    -1.058809   0.12933265    11466.056     1000 
 2882000   0.52597127   -1.8745295   0.78816795   -1.0863615      0.11938    11392.485     1000 
 2884000     0.520418   -1.8265769   0.77984638   -1.0467305   0.12653835    11417.852     1000 
 2886000   0.51229864    -1.785628   0.76767951   -1.0179485   0.11950973    11386.095     1000 
 2888000   0.52664543   -1.8653726   0.78917818   -1.0761945   0.11651662    11554.691     1000 
 2890000   0.52837456   -1.7823896   0.79176929  -0.99062028   0.13887125    11329.856     1000 
 2892000   0.52630776    -1.858213   0.78867218   -1.0695408   0.12607466    11411.258     1000 
 2894000   0.53787445   -1.8343461   0.80600487   -1.0283412   0.13401585    11338.955     1000 
 2896000   0.53657589    -1.802261   0.80405897  -0.99820206   0.14450358    11208.431     1000 
 2898000   0.53691972   -1.8719736    0.8045742   -1.0673994   0.14153263    11421.446     1000 
 2900000   0.52882283   -1.8870761     0.792441   -1.0946351   0.12605986    11514.699     1000 
 2902000   0.54119259   -1.8247787    0.8109771   -1.0138016   0.13406365     11358.42     1000 
 2904000   0.52901467   -1.8186539   0.79272849   -1.0259254   0.12228877    11537.009     1000 
 2906000   0.53732275   -1.8300728   0.80517814   -1.0248947    0.1232459    11406.952     1000 
 2908000   0.54553657   -1.8002765   0.81748655  -0.98278992   0.12304857    11529.029     1000 
 2910000   0.53067141   -1.8558668   0.79521111   -1.0606557   0.12343696     11640.75     1000 
 2912000   0.54704434   -1.8095686   0.81974595  -0.98982267   0.12894307    11356.839     1000 
 2914000   0.52859417   -1.8329717   0.79209837   -1.0408734   0.13843803     11413.43     1000 
 2916000   0.52543966   -1.8399669   0.78737133   -1.0525956   0.11740594    11365.362     1000 
 2918000   0.52220156   -1.7910674   0.78251904   -1.0085483   0.13166348     11497.48     1000 
 2920000   0.53235162   -1.8276387   0.79772891   -1.0299098   0.13869416    11328.737     1000 
 2922000   0.54906373   -1.8671095     0.822772   -1.0443375   0.13363683    11435.725     1000 
 2924000   0.52894531   -1.8680081   0.79262454   -1.0753835   0.11599897     11567.06     1000 
 2926000   0.53695851   -1.8716747   0.80463233   -1.0670424   0.13635947     11308.73     1000 
 2928000   0.54987486   -1.8649734   0.82398747   -1.0409859   0.12057325    11621.269     1000 
 2930000   0.53661301   -1.8762833   0.80411459   -1.0721687   0.11882329     11617.82     1000 
 2932000   0.51710538   -1.8427056   0.77488242   -1.0678232   0.12685393    11426.047     1000 
 2934000   0.54650605   -1.8541233   0.81893932    -1.035184   0.13908778    11388.894     1000 
 2936000   0.55573883   -1.8579766   0.83277463    -1.025202   0.11427947    11679.397     1000 
 2938000   0.51228667   -1.8016976   0.76766157    -1.034036   0.13416125    11227.524     1000 
 2940000   0.53593645   -1.8227165   0.80310078   -1.0196157   0.13557875    11370.844     1000 
 2942000   0.50738465   -1.8188055    0.7603159   -1.0584896   0.13021904    11454.206     1000 
 2944000   0.52643043   -1.8472378     0.788856   -1.0583818   0.12187426    11467.963     1000 
 2946000   0.51832358   -1.8827943   0.77670789   -1.1060864   0.13321684     11425.03     1000 
 2948000   0.52522276   -1.8509243   0.78704631    -1.063878   0.14238421    11233.132     1000 
 2950000   0.50478173   -1.8650399   0.75641543   -1.1086245   0.13561608    11437.865     1000 
 2952000   0.53631882   -1.8225671   0.80367375   -1.0188934   0.13432073    11390.026     1000 
 2954000   0.52129952   -1.8439898   0.78116733   -1.0628224    0.1281435    11563.588     1000 
 2956000   0.52763421   -1.8777877   0.79065987   -1.0871278    0.1209858    11553.641     1000 
 2958000   0.52429424   -1.8210527   0.78565491   -1.0353978   0.12212938    11481.467     1000 
 2960000   0.54536754   -1.8087093   0.81723326  -0.99147607   0.13317572    11329.475     1000 
 2962000   0.54719695   -1.8525521   0.81997463   -1.0325775   0.12374763    11510.793     1000 
 2964000   0.54547758   -1.8436475   0.81739816   -1.0262493   0.14121382    11446.037     1000 
 2966000   0.52814758   -1.8103582   0.79142916    -1.018929   0.13899807    11330.923     1000 
 2968000   0.53131093   -1.8417217   0.79616943   -1.0455522   0.14181054    11335.343     1000 
 2970000   0.52464632   -1.8502771   0.78618251   -1.0640946   0.13516163    11309.368     1000 
 2972000   0.53575976   -1.8628306     0.802836   -1.0599946   0.13143664    11425.258     1000 
 2974000   0.52571285    -1.878037    0.7877807   -1.0902563   0.12691231    11525.608     1000 
 2976000   0.50903258   -1.8674256   0.76278532   -1.1046402   0.13300822    11296.183     1000 
 2978000   0.54424545   -1.8938137   0.81555181   -1.0782619   0.13195531    11400.822     1000 
 2980000   0.53049275   -1.8677746   0.79494339   -1.0728312   0.12377403    11481.427     1000 
 2982000   0.53708829   -1.8640669   0.80482681   -1.0592401   0.12077981    11516.312     1000 
 2984000   0.53222094   -1.8505405   0.79753308   -1.0530075   0.13204339    11293.625     1000 
 2986000   0.52264228   -1.8014417   0.78317946   -1.0182622   0.13810449    11263.445     1000 
 2988000   0.54390537   -1.8163669    0.8150422   -1.0013247   0.13148026    11305.365     1000 
 2990000   0.52436148   -1.8687076   0.78575568   -1.0829519   0.13658397    11490.123     1000 
 2992000   0.51496086   -1.8155364   0.77166885   -1.0438675   0.13024896    11484.933     1000 
 2994000   0.50610417   -1.8672868    0.7583971   -1.1088897   0.12584283    11488.183     1000 
 2996000   0.53437808   -1.8621982   0.80076555   -1.0614327   0.12868986    11469.615     1000 
 2998000   0.52667806   -1.8488692   0.78922707   -1.0596421   0.12927411    11302.518     1000 
 3000000   0.55172305   -1.7825091   0.82675699  -0.95575213   0.13364838    11337.909     1000 
Loop time of 9564.83 on 1 procs for 3000000 steps with 1000 atoms

Performance: 135496.362 tau/day, 313.649 timesteps/s
100.0% CPU use with 1 MPI tasks x 1 OpenMP threads

MPI task timing breakdown:
Section |  min time  |  avg time  |  max time  |%varavg| %total
---------------------------------------------------------------
Pair    | 8614.9     | 8614.9     | 8614.9     |   0.0 | 90.07
Neigh   | 629.98     | 629.98     | 629.98     |   0.0 |  6.59
Comm    | 111.33     | 111.33     | 111.33     |   0.0 |  1.16
Output  | 0.045983   | 0.045983   | 0.045983   |   0.0 |  0.00
Modify  | 187.15     | 187.15     | 187.15     |   0.0 |  1.96
Other   |            | 21.47      |            |       |  0.22

Nlocal:        1000.00 ave        1000 max        1000 min
Histogram: 1 0 0 0 0 0 0 0 0 0
Nghost:        4250.00 ave        4250 max        4250 min
Histogram: 1 0 0 0 0 0 0 0 0 0
Neighs:        104787.0 ave      104787 max      104787 min
Histogram: 1 0 0 0 0 0 0 0 0 0

Total # of neighbors = 104787
Ave neighs/atom = 104.78700
Neighbor list builds = 150000
Dangerous builds not checked

Total wall time: 2:39:24
