LAMMPS (29 Sep 2021 - Update 2)
OMP_NUM_THREADS environment is not set. Defaulting to 1 thread. (src/comm.cpp:98)
  using 1 OpenMP thread(s) per MPI task
# ----------------------- Inicialização -----------------------

units			lj
atom_style 		atomic
dimension 		3
boundary 		p p p

# -------------------- Criação dos Átomos ---------------------

read_data 		topologia.txt
Reading data file ...
  orthogonal box = (0.0000000 0.0000000 0.0000000) to (21.540000 21.540000 21.540000)
  1 by 1 by 1 MPI processor grid
  reading atoms ...
  1000 atoms
  read_data CPU = 0.003 seconds

velocity 		all create ${temp} 87287 rot yes dist gaussian
velocity 		all create 0.54 87287 rot yes dist gaussian

# ------------------ Interação Interatômica -------------------

pair_style		table linear 1600
pair_coeff		1 1 force.table AA 8.0
WARNING: 3 of 1600 force values in table AA are inconsistent with -dE/dr.
WARNING:  Should only be flagged at inflection points (src/pair_table.cpp:465)
pair_coeff		1 2 force.table AB 8.0
WARNING: 1 of 1600 force values in table AB are inconsistent with -dE/dr.
WARNING:  Should only be flagged at inflection points (src/pair_table.cpp:465)
pair_coeff		2 2 force.table BB 8.0
pair_write		1 1 1600 r 0.008 8.0 table.check AA
Appending to table file table.check with DATE: 2023-07-05
Neighbor list info ...
  update every 1 steps, delay 10 steps, check yes
  max neighbors/atom: 2000, page size: 100000
  master list distance cutoff = 8.3
  ghost atom cutoff = 8.3
  binsize = 4.15, bins = 6 6 6
  1 neighbor lists, perpetual/occasional/extra = 1 0 0
  (1) pair table, perpetual
      attributes: half, newton on
      pair build: half/bin/atomonly/newton
      stencil: half/bin/3d
      bin: standard
pair_write		1 2 1600 r 0.008 8.0 table.check AB
Appending to table file table.check with DATE: 2023-07-05
pair_write		2 2 1600 r 0.008 8.0 table.check BB
Appending to table file table.check with DATE: 2023-07-05

neighbor 		0.3 bin
neigh_modify		every 20 delay 0 check no

# ------------------------- Ensemble --------------------------------------

fix 1			all npt temp ${temp} ${temp} 0.5 iso ${press} ${press} 5
fix 1			all npt temp 0.54 ${temp} 0.5 iso ${press} ${press} 5
fix 1			all npt temp 0.54 0.54 0.5 iso ${press} ${press} 5
fix 1			all npt temp 0.54 0.54 0.5 iso 0.13 ${press} 5
fix 1			all npt temp 0.54 0.54 0.5 iso 0.13 0.13 5

# ---------------------- Função de Distribuição Radial -----------------------

#compute RDF 		all rdf 2000 1 1 1 2 2 2
#fix 2 			all ave/time 1 2000 2000 c_RDF[*] file rdf.data mode vector

# ------------------------- Execução ---------------------------

timestep 		0.005
thermo_style		custom step temp pe ke etotal press vol atoms
thermo			2000
run			3000000
Per MPI rank memory allocation (min/avg/max) = 3.125 | 3.125 | 3.125 Mbytes
Step Temp PotEng KinEng TotEng Press Volume Atoms 
       0         0.54  -0.99524352      0.80919  -0.18605352   0.12215192    9993.9483     1000 
    2000    0.4966341   -1.7784625    0.7442062   -1.0342563   0.13535292     11291.36     1000 
    4000   0.55610286   -1.7918946   0.83332013  -0.95857444   0.14287554    11333.391     1000 
    6000   0.56326114   -1.8064669   0.84404682  -0.96242009   0.12914271    11416.573     1000 
    8000   0.54912167   -1.8683805   0.82285883   -1.0455217   0.13662812    11417.777     1000 
   10000   0.54918311   -1.8141976   0.82295089  -0.99124673   0.13427005    11304.711     1000 
   12000   0.52484092   -1.8423321   0.78647412    -1.055858   0.11018857    11592.077     1000 
   14000   0.55961298    -1.832868   0.83858005  -0.99428795   0.12984759    11461.605     1000 
   16000   0.55177568   -1.7805121   0.82683586  -0.95367621   0.13654308    11394.035     1000 
   18000   0.54851918   -1.7779705     0.821956  -0.95601455   0.13266213    11334.509     1000 
   20000   0.54696113   -1.8308724   0.81962125   -1.0112512   0.11850095    11594.014     1000 
   22000   0.52526726    -1.823261   0.78711298    -1.036148   0.12150154    11535.514     1000 
   24000   0.54944116   -1.8226941   0.82333757  -0.99935658   0.12317908    11539.672     1000 
   26000   0.55611198   -1.8149332    0.8333338  -0.98159937   0.12576673    11540.174     1000 
   28000   0.54414054   -1.8083358   0.81539461  -0.99294115    0.1277687    11376.019     1000 
   30000   0.55265841     -1.85366   0.82815863   -1.0255013   0.13624548    11349.467     1000 
   32000   0.53904011    -1.815801    0.8077516   -1.0080494   0.13604758    11312.309     1000 
   34000   0.55932316   -1.7876777   0.83814576  -0.94953192    0.1220627    11421.119     1000 
   36000   0.55090058   -1.8046884   0.82552452  -0.97916392   0.12407389    11526.732     1000 
   38000   0.53858025   -1.8169864    0.8070625   -1.0099239   0.13168491    11511.823     1000 
   40000   0.53057596   -1.7752481   0.79506807     -0.98018   0.13284925    11361.741     1000 
   42000   0.52297881   -1.8594069   0.78368374   -1.0757232   0.12223731    11435.425     1000 
   44000   0.56243646   -1.7691658   0.84281103  -0.92635474   0.12221454     11450.47     1000 
   46000   0.52960483   -1.7973057   0.79361283   -1.0036929   0.12535293    11431.313     1000 
   48000   0.54104832   -1.8369397    0.8107609   -1.0261788   0.12489439    11557.606     1000 
   50000    0.5256715   -1.7376241   0.78771874  -0.94990541    0.1379287    11300.305     1000 
   52000   0.56767651    -1.800319   0.85066325  -0.94965577   0.11934257      11510.9     1000 
   54000   0.55144861   -1.8004433   0.82634575  -0.97409759   0.12437502    11370.274     1000 
   56000   0.54149996   -1.8017836   0.81143769  -0.99034586   0.11447777    11544.351     1000 
   58000   0.52209903   -1.8317552    0.7823654   -1.0493898   0.13140503    11311.454     1000 
   60000    0.5436537   -1.7962718   0.81466507  -0.98160677   0.12658959    11414.527     1000 
   62000   0.55485286   -1.7583145   0.83144701   -0.9268675   0.12835622    11398.588     1000 
   64000   0.53361691   -1.8633573   0.79962494   -1.0637323   0.12455888     11445.52     1000 
   66000   0.51989563   -1.8080276   0.77906361    -1.028964   0.13311615    11409.244     1000 
   68000   0.52820583    -1.777149   0.79151644   -0.9856326   0.13489009    11476.822     1000 
   70000   0.54555401   -1.8375704   0.81751268   -1.0200577   0.12908902     11549.67     1000 
   72000   0.54746329   -1.8033171   0.82037375  -0.98294332   0.13553496    11349.123     1000 
   74000   0.53988904   -1.8405336   0.80902373   -1.0315099   0.13212302    11439.684     1000 
   76000   0.54892925   -1.8506563   0.82257048   -1.0280858    0.1211585    11540.805     1000 
   78000   0.55020885   -1.8360035   0.82448796   -1.0115156   0.12869113      11367.1     1000 
   80000   0.54771885   -1.8254308    0.8207567   -1.0046741   0.13773722    11371.484     1000 
   82000    0.5172384   -1.7601542   0.77508174  -0.98507245   0.14875839    11106.358     1000 
   84000   0.54543813   -1.8193159   0.81733904   -1.0019769   0.12923671    11412.106     1000 
   86000   0.54992555   -1.8294341   0.82406344   -1.0053707    0.1410701     11295.87     1000 
   88000    0.5075631   -1.8181322    0.7605833   -1.0575489   0.13148365    11394.658     1000 
   90000   0.53106623   -1.8347608   0.79580275    -1.038958   0.13569011    11415.376     1000 
   92000   0.55513687   -1.7963098    0.8318726  -0.96443718   0.13161344    11366.308     1000 
   94000   0.53792603   -1.8231013   0.80608215   -1.0170192   0.12272805    11362.674     1000 
   96000   0.52629661   -1.7831787   0.78865548  -0.99452321   0.13575681    11336.167     1000 
   98000   0.54602927   -1.8414022   0.81822485   -1.0231773   0.14366859    11310.115     1000 
  100000   0.53845101   -1.8082782   0.80686883   -1.0014094   0.13667858    11339.781     1000 
  102000   0.52311284   -1.7967171    0.7838846   -1.0128325   0.13206146    11409.597     1000 
  104000    0.5352378   -1.7665683   0.80205384  -0.96451444   0.12944828    11381.511     1000 
  106000   0.54000895   -1.8369292   0.80920341   -1.0277258   0.14603366    11374.984     1000 
  108000   0.53004418   -1.7940658   0.79427121  -0.99979458   0.12710585    11450.262     1000 
  110000   0.53013786     -1.82135   0.79441158   -1.0269385   0.13418287    11496.789     1000 
  112000   0.53600263   -1.8397948   0.80319994   -1.0365948   0.12814205    11546.743     1000 
  114000   0.52691542   -1.8062165   0.78958276   -1.0166337   0.12771433    11510.108     1000 
  116000   0.53626336   -1.8348729   0.80359064   -1.0312822   0.13067799    11495.906     1000 
  118000   0.55353002    -1.834171   0.82946474   -1.0047062   0.12493693    11492.994     1000 
  120000   0.52627909   -1.8414937   0.78862922   -1.0528645   0.11881366    11573.419     1000 
  122000   0.54330992   -1.8160934   0.81414992   -1.0019435   0.13909121    11310.906     1000 
  124000   0.53420948   -1.7733777   0.80051291  -0.97286475   0.13949572    11251.992     1000 
  126000   0.54249237   -1.8167655   0.81292481   -1.0038407   0.13490261    11368.694     1000 
  128000   0.51456705   -1.8311324   0.77107873   -1.0600536   0.13031881    11540.948     1000 
  130000   0.55589412    -1.795278   0.83300734  -0.96227062   0.14263451    11377.924     1000 
  132000   0.53254085   -1.8261155   0.79801246   -1.0281031   0.12630595    11510.233     1000 
  134000   0.52015481   -1.8232843   0.77945198   -1.0438323   0.13188922    11309.733     1000 
  136000   0.53763123   -1.8440524   0.80564039    -1.038412   0.13913497    11362.717     1000 
  138000   0.54698359   -1.8449815   0.81965491   -1.0253266   0.12237647    11387.866     1000 
  140000   0.54156778   -1.8656219   0.81153931   -1.0540826   0.12049205    11481.291     1000 
  142000   0.51920604    -1.791287   0.77803026   -1.0132567   0.13152267      11306.2     1000 
  144000   0.53650756   -1.8482257   0.80395658   -1.0442691   0.13227555    11363.183     1000 
  146000     0.536307   -1.8011766   0.80365603  -0.99752057   0.12903413    11457.958     1000 
  148000   0.54876349   -1.8305321   0.82232208     -1.00821     0.137203    11371.439     1000 
  150000   0.53895765   -1.7887468   0.80762804  -0.98111875    0.1469515    11196.809     1000 
  152000   0.53657675   -1.8212633   0.80406026   -1.0172031   0.13247263    11312.889     1000 
  154000   0.54243347   -1.8073643   0.81283655  -0.99452771   0.12042828    11544.233     1000 
  156000   0.54471824   -1.7693785   0.81626028  -0.95311826   0.12685673    11450.698     1000 
  158000   0.53866773      -1.7681    0.8071936  -0.96090644   0.13974221    11370.045     1000 
  160000   0.54008467   -1.8324832   0.80931688   -1.0231663   0.13062824    11380.201     1000 
  162000   0.53073664   -1.7778709   0.79530885    -0.982562   0.13501815     11384.52     1000 
  164000   0.53724684   -1.8574843   0.80506439   -1.0524199   0.12786061    11457.895     1000 
  166000   0.53313016   -1.8095578   0.79889554   -1.0106623   0.12359933    11328.447     1000 
  168000   0.53226015   -1.7889316   0.79759184  -0.99133973   0.13631971    11282.655     1000 
  170000   0.52091694   -1.8082209   0.78059404   -1.0276269   0.12947562    11285.199     1000 
  172000   0.56057226   -1.8206791   0.84001753   -0.9806616   0.13874656    11295.555     1000 
  174000   0.55451059   -1.8156562   0.83093412  -0.98472213   0.11998382    11659.376     1000 
  176000   0.54469512   -1.7807615   0.81622563  -0.96453589   0.13309225    11383.407     1000 
  178000   0.52928196    -1.806155   0.79312902    -1.013026    0.1301407    11470.615     1000 
  180000   0.54169397   -1.8185591   0.81172841   -1.0068307   0.12411139    11617.738     1000 
  182000    0.5346835   -1.8113745   0.80122322   -1.0101513   0.12674495    11319.216     1000 
  184000   0.54559344   -1.7349462   0.81757177   -0.9173744   0.13123662    11398.572     1000 
  186000   0.53907767   -1.8510086   0.80780788   -1.0432007   0.12116018    11463.374     1000 
  188000   0.52774006    -1.851792   0.79081849   -1.0609735   0.12855215    11519.325     1000 
  190000   0.54193216   -1.8248302   0.81208534   -1.0127449   0.12359859    11535.643     1000 
  192000   0.55641395   -1.8302551    0.8337863  -0.99646875   0.13428214    11514.024     1000 
  194000   0.55499217   -1.8102643   0.83165576   -0.9786085   0.12375789     11490.24     1000 
  196000   0.52378118   -1.8204078   0.78488611   -1.0355217   0.12702532    11550.592     1000 
  198000   0.53303445   -1.8254405   0.79875212   -1.0266884   0.12623735    11445.471     1000 
  200000   0.54110528   -1.8148301   0.81084626   -1.0039839   0.12418451    11333.928     1000 
  202000   0.55539854   -1.7897925   0.83226471  -0.95752774   0.13695844    11379.829     1000 
  204000   0.56736465   -1.8052275   0.85019593  -0.95503159   0.13801033     11456.85     1000 
  206000   0.55517368   -1.8714004   0.83192776   -1.0394727   0.12675032    11522.224     1000 
  208000   0.54351504   -1.7635338   0.81445729  -0.94907654   0.13056909    11533.061     1000 
  210000   0.54161544   -1.7549877   0.81161073  -0.94337695   0.12212058    11361.253     1000 
  212000     0.537249   -1.8527543   0.80506763   -1.0476866   0.12553306    11472.216     1000 
  214000   0.53269064   -1.7579418   0.79823692  -0.95970491   0.11361782    11455.718     1000 
  216000   0.51789266   -1.8095728   0.77606216   -1.0335106   0.13462982    11260.493     1000 
  218000    0.5290931   -1.8214754   0.79284601   -1.0286294   0.13721563    11389.826     1000 
  220000   0.56523388   -1.8582767   0.84700297   -1.0112737    0.1514323    11269.386     1000 
  222000   0.52952552   -1.8637308   0.79349399   -1.0702368   0.12717263    11488.681     1000 
  224000   0.56279121   -1.8084118   0.84334263  -0.96506915    0.1271219    11522.439     1000 
  226000   0.54419277   -1.8534103   0.81547287   -1.0379374   0.13025047    11504.782     1000 
  228000   0.55398869   -1.8017526   0.83015205  -0.97160059   0.12717717    11515.524     1000 
  230000    0.5745547   -1.8495696   0.86097021  -0.98859941   0.12573864    11463.978     1000 
  232000   0.54379173   -1.8423459   0.81487191   -1.0274739   0.12986558    11445.855     1000 
  234000   0.53928893   -1.8020153   0.80812446  -0.99389084   0.12752923    11452.984     1000 
  236000   0.54466694   -1.8433605    0.8161834   -1.0271771   0.14515379    11249.669     1000 
  238000   0.55498031   -1.7935282   0.83163799  -0.96189019   0.13116114      11529.5     1000 
  240000   0.54204565   -1.8057997    0.8122554  -0.99354425   0.12540334    11406.723     1000 
  242000   0.52437146   -1.7892279   0.78577063   -1.0034573   0.12678136    11398.887     1000 
  244000   0.55263191   -1.8426399   0.82811892    -1.014521   0.13952784    11335.273     1000 
  246000   0.55079494   -1.7824348   0.82536622  -0.95706856   0.13214468    11380.372     1000 
  248000   0.53013536    -1.879921   0.79440783   -1.0855132   0.12818052    11421.453     1000 
  250000    0.5412899   -1.7917811   0.81112292  -0.98065823   0.13611443    11404.653     1000 
  252000   0.56104132   -1.8062111   0.84072042  -0.96549065   0.12965913    11530.424     1000 
  254000   0.55675211   -1.7643934   0.83429303  -0.93010038   0.13140473    11310.272     1000 
  256000   0.52199057   -1.8167769   0.78220287    -1.034574    0.1213746    11396.136     1000 
  258000   0.54756186   -1.8456924   0.82052145   -1.0251709    0.1264393    11525.459     1000 
  260000   0.53301689   -1.8092141   0.79872581   -1.0104883   0.14203333    11327.983     1000 
  262000   0.52875893   -1.7693967   0.79234525  -0.97705147   0.13038989    11252.951     1000 
  264000   0.53641059   -1.8456129   0.80381127   -1.0418016    0.1293918    11484.992     1000 
  266000   0.53602393   -1.8011723   0.80323185  -0.99794045   0.12844305    11521.221     1000 
  268000   0.55853353   -1.8328057   0.83696249  -0.99584322   0.12473292     11577.65     1000 
  270000   0.53991829   -1.8210992   0.80906755   -1.0120316   0.13865511    11374.337     1000 
  272000    0.5508327   -1.7976231    0.8254228  -0.97220033   0.13658189    11442.302     1000 
  274000   0.53287701   -1.8096214    0.7985162   -1.0111052   0.13579691    11350.077     1000 
  276000   0.53964691   -1.8106635   0.80866089   -1.0020026   0.13107888    11540.554     1000 
  278000   0.52327786   -1.8485896   0.78413187   -1.0644577   0.12671657     11580.82     1000 
  280000   0.55223327   -1.8242361   0.82752155  -0.99671453   0.12056805    11570.243     1000 
  282000   0.53058531   -1.8428208   0.79508209   -1.0477387   0.14908277    11270.023     1000 
  284000   0.51267649   -1.8082454   0.76824572   -1.0399997   0.13786218    11267.232     1000 
  286000   0.52817947   -1.8352873   0.79147694   -1.0438103   0.11153258    11502.992     1000 
  288000     0.544796   -1.8091356    0.8163768  -0.99275884   0.13342064    11383.736     1000 
  290000   0.53694166   -1.8558248   0.80460708   -1.0512177   0.13690308    11381.822     1000 
  292000   0.54810456   -1.7535904   0.82133468  -0.93225577   0.14060412    11276.624     1000 
  294000   0.56027731   -1.8389579   0.83957555   -0.9993823   0.12357232    11496.607     1000 
  296000   0.52845247    -1.843188   0.79188602    -1.051302   0.12719334    11452.861     1000 
  298000   0.53413646    -1.781353   0.80040349  -0.98094947    0.1294623    11346.584     1000 
  300000   0.54726333   -1.8159461    0.8200741  -0.99587204   0.14108265    11285.039     1000 
  302000   0.56326187    -1.803692   0.84404792  -0.95964408   0.13037439    11561.128     1000 
  304000   0.55682342   -1.8229025   0.83439989  -0.98850263   0.13288613    11476.433     1000 
  306000   0.55096527   -1.8353965   0.82562146    -1.009775   0.13519251    11434.491     1000 
  308000   0.55883086   -1.7385374   0.83740804  -0.90112934   0.12823747    11234.731     1000 
  310000   0.53079269   -1.7917168   0.79539284  -0.99632393   0.12872023    11318.569     1000 
  312000   0.54365326   -1.8384371   0.81466441   -1.0237727   0.12156426    11583.417     1000 
  314000   0.53022839   -1.7849418   0.79454724  -0.99039453   0.13975755    11284.823     1000 
  316000   0.52112776    -1.837564   0.78090994    -1.056654   0.12475392    11460.898     1000 
  318000   0.49542178   -1.8113742   0.74238954   -1.0689846   0.13059062    11373.781     1000 
  320000   0.56546708   -1.8409904   0.84735242  -0.99363799   0.12150434    11503.107     1000 
  322000    0.5329106   -1.8193915   0.79856654    -1.020825   0.11522934    11696.007     1000 
  324000   0.53868935   -1.8244671   0.80722598   -1.0172412   0.12555451    11457.111     1000 
  326000   0.51730677    -1.838804    0.7751842   -1.0636198   0.13551299    11421.241     1000 
  328000   0.54249531   -1.8225088   0.81292922   -1.0095796   0.12440277    11566.429     1000 
  330000   0.52837872   -1.8020936   0.79177552   -1.0103181   0.12523722    11554.877     1000 
  332000   0.53460656   -1.8595601   0.80110793   -1.0584521   0.13089213        11522     1000 
  334000   0.54298947   -1.8515352   0.81366972   -1.0378655   0.13786622    11292.895     1000 
  336000    0.5393152   -1.7381603   0.80816382  -0.92999645   0.12754158    11319.757     1000 
  338000   0.53355722   -1.8195787   0.79953549   -1.0200432   0.11436023    11450.981     1000 
  340000   0.53202628   -1.8050849   0.79724139   -1.0078436   0.12904135    11365.997     1000 
  342000   0.55728232   -1.8241458   0.83508756  -0.98905819   0.12661697    11606.184     1000 
  344000   0.53975296   -1.8139971   0.80881981   -1.0051773   0.13440507    11404.273     1000 
  346000   0.55264586   -1.8302526   0.82813983   -1.0021128   0.12922365    11502.568     1000 
  348000    0.5607902   -1.8615226   0.84034412   -1.0211785   0.12987242    11594.936     1000 
  350000   0.52592529   -1.7902273   0.78809905   -1.0021282   0.12422845    11573.668     1000 
  352000   0.54892251   -1.8145049   0.82256038  -0.99194455   0.12796775    11559.409     1000 
  354000   0.57310758   -1.8168982   0.85880171  -0.95809652   0.12767928    11553.917     1000 
  356000   0.50854289   -1.8294907   0.76205152   -1.0674392   0.11928682     11430.15     1000 
  358000   0.54042659   -1.8246883   0.80982925    -1.014859   0.13591027    11342.475     1000 
  360000   0.55172288   -1.8027216   0.82675674  -0.97596488   0.13822601    11267.574     1000 
  362000   0.53808953   -1.7762028   0.80632715  -0.96987568   0.13296547    11370.851     1000 
  364000   0.51852505   -1.8525111   0.77700979   -1.0755014   0.12484505    11417.134     1000 
  366000   0.54430309   -1.8440464   0.81563818   -1.0284082   0.12744942    11464.974     1000 
  368000   0.54390111   -1.8168593   0.81503581   -1.0018235   0.13929787    11274.768     1000 
  370000   0.54027465   -1.8108157   0.80960157   -1.0012141   0.13171866    11386.644     1000 
  372000   0.56743857   -1.8269468   0.85030669  -0.97664013   0.14132656    11312.882     1000 
  374000   0.55583406   -1.8452769   0.83291734   -1.0123596   0.13167324    11547.707     1000 
  376000   0.55030304   -1.8411718   0.82462911   -1.0165427   0.12992359    11424.456     1000 
  378000   0.54601609   -1.7968208   0.81820511  -0.97861567   0.12736711    11431.752     1000 
  380000   0.52844793   -1.7836148   0.79187922  -0.99173555   0.12420354    11471.566     1000 
  382000   0.54863513   -1.8274542   0.82212974   -1.0053245   0.12004751    11544.704     1000 
  384000   0.55149832   -1.7960514   0.82642024  -0.96963114   0.13801866    11384.169     1000 
  386000   0.53388411   -1.7949278   0.80002534  -0.99490249     0.123059    11566.587     1000 
  388000   0.55327092   -1.7417909   0.82907647  -0.91271446    0.1436743    11287.055     1000 
  390000   0.53299722   -1.7487289   0.79869633  -0.95003253   0.13178774    11266.115     1000 
  392000   0.54155386   -1.8549233   0.81151845   -1.0434049   0.13204518     11510.15     1000 
  394000   0.55300715   -1.7681863   0.82868122  -0.93950511   0.12768736    11472.671     1000 
  396000   0.52504078   -1.8077931    0.7867736   -1.0210195   0.11847702    11454.504     1000 
  398000   0.56306575   -1.8074468   0.84375403  -0.96369276   0.13175233    11510.617     1000 
  400000    0.5397155   -1.8333299   0.80876367   -1.0245663   0.13291745    11437.441     1000 
  402000   0.54452232   -1.8573921   0.81596669   -1.0414254   0.12393852    11496.062     1000 
  404000   0.52987145    -1.839439   0.79401237   -1.0454267   0.13106637    11528.175     1000 
  406000   0.54280006   -1.8162365   0.81338589   -1.0028506   0.13033685    11478.944     1000 
  408000   0.52322884   -1.8008713   0.78405841   -1.0168129   0.11939298    11360.775     1000 
  410000   0.54826644   -1.8137179   0.82157725  -0.99214061   0.11917328    11571.807     1000 
  412000   0.53629277   -1.8221424   0.80363472   -1.0185077   0.12181261    11636.107     1000 
  414000   0.55570168   -1.8304544   0.83271896  -0.99773541   0.13638053    11484.253     1000 
  416000   0.52628014   -1.8070217   0.78863078   -1.0183909    0.1278013    11358.799     1000 
  418000   0.52268724   -1.8306403   0.78324682   -1.0473935   0.13030108    11339.148     1000 
  420000   0.53609048   -1.7805208   0.80333158  -0.97718917   0.14197691     11168.41     1000 
  422000   0.56030511    -1.846342   0.83961721   -1.0067248   0.12819304    11471.666     1000 
  424000   0.51253582   -1.8368272   0.76803493   -1.0687922     0.117625    11629.789     1000 
  426000   0.51112662   -1.8403905   0.76592323   -1.0744672   0.12462102    11522.243     1000 
  428000   0.53651352   -1.8329079   0.80396552   -1.0289424   0.13501917    11422.009     1000 
  430000   0.53429808   -1.7907883   0.80064567   -0.9901426   0.13446967    11476.565     1000 
  432000   0.53512682   -1.7948954   0.80188753  -0.99300787   0.13351287    11233.297     1000 
  434000   0.54185111   -1.8140163   0.81196388   -1.0020524    0.1210051    11538.834     1000 
  436000    0.5347746   -1.7951569   0.80135974  -0.99379717   0.13483856    11330.802     1000 
  438000   0.52813428   -1.8022813   0.79140922    -1.010872   0.13635422    11475.667     1000 
  440000   0.53928229   -1.7621686   0.80811451  -0.95405407   0.12909922    11439.726     1000 
  442000   0.51825142   -1.7360337   0.77659975  -0.95943393   0.12671628    11413.534     1000 
  444000    0.5355752   -1.7856581   0.80255943  -0.98309867   0.11750301    11567.613     1000 
  446000   0.51775962   -1.7665365   0.77586279  -0.99067374   0.14055797     11282.33     1000 
  448000   0.54983269     -1.85194   0.82392429   -1.0280157   0.13611986    11322.551     1000 
  450000   0.54908557   -1.8094438   0.82280473  -0.98663905   0.12358608    11452.881     1000 
  452000   0.55228804   -1.8157823   0.82760363  -0.98817868   0.12600763     11550.45     1000 
  454000   0.53076339   -1.8252483   0.79534894   -1.0298993    0.1209413    11504.961     1000 
  456000   0.53267068   -1.8006125   0.79820702   -1.0024055   0.13295032    11280.501     1000 
  458000   0.56691537     -1.79246   0.84952268  -0.94293735   0.13854906    11379.845     1000 
  460000   0.54126944   -1.8323078   0.81109225   -1.0212156   0.13134591    11455.116     1000 
  462000   0.52836384   -1.8261527   0.79175321   -1.0343995   0.12581636    11418.363     1000 
  464000    0.5229864   -1.8281714   0.78369512   -1.0444763   0.12312423    11420.238     1000 
  466000   0.54892471   -1.8238373   0.82256367   -1.0012736    0.1224057    11613.778     1000 
  468000   0.54369619   -1.8305828   0.81472874   -1.0158541   0.12810653    11499.194     1000 
  470000   0.55012094   -1.8249637   0.82435623   -1.0006075   0.13532686    11243.477     1000 
  472000   0.51975591   -1.8515538   0.77885423   -1.0726995   0.12426412    11428.511     1000 
  474000     0.547003   -1.8080466     0.819684   -0.9883626   0.12489764     11448.49     1000 
  476000   0.52721777    -1.824294   0.79003583   -1.0342581   0.12012473    11499.845     1000 
  478000   0.53769856   -1.7861486    0.8057413  -0.98040734   0.13204725    11291.477     1000 
  480000   0.54207085   -1.8231984   0.81229317   -1.0109052   0.11575009    11615.348     1000 
  482000   0.55478419   -1.8020633   0.83134411  -0.97071921   0.12393358    11429.211     1000 
  484000   0.53548055   -1.7463105   0.80241761  -0.94389294   0.12259963    11426.176     1000 
  486000   0.51812344   -1.7685346   0.77640798  -0.99212664   0.11669258    11586.676     1000 
  488000   0.52518569   -1.7884518   0.78699076    -1.001461   0.13635725    11313.244     1000 
  490000   0.51808434   -1.8345821   0.77634939   -1.0582327   0.11897994     11627.41     1000 
  492000    0.5245889   -1.7904731   0.78609646   -1.0043767   0.12526022    11439.167     1000 
  494000   0.54509673   -1.8498042   0.81682744   -1.0329768   0.14079211    11402.261     1000 
  496000   0.51387171   -1.8530836   0.77003676   -1.0830469   0.11845468    11550.236     1000 
  498000   0.53914219    -1.800713   0.80790458  -0.99280846   0.13153195    11383.158     1000 
  500000   0.52860799   -1.8093517   0.79211907   -1.0172327   0.13693571    11357.684     1000 
  502000   0.56617936   -1.8539388   0.84841978    -1.005519    0.1358765    11456.409     1000 
  504000   0.53609274   -1.8252099   0.80333497    -1.021875   0.12062063    11543.941     1000 
  506000   0.53430839   -1.7716425   0.80066112  -0.97098138   0.12176173    11471.819     1000 
  508000   0.51254982   -1.8290083    0.7680559   -1.0609524   0.13305725    11352.531     1000 
  510000   0.51358669   -1.8591649   0.76960965   -1.0895553   0.11904072    11569.141     1000 
  512000   0.54364612   -1.7895694    0.8146537  -0.97491573   0.12206839    11452.572     1000 
  514000   0.54376509   -1.8365366   0.81483198   -1.0217046   0.12775618    11525.652     1000 
  516000   0.53176148   -1.7733936   0.79684458  -0.97654901    0.1233135     11519.31     1000 
  518000   0.52151019    -1.774193   0.78148302  -0.99270999   0.13069163    11366.291     1000 
  520000   0.55339955   -1.7979658   0.82926922  -0.96869657   0.12827937    11357.749     1000 
  522000   0.53919772    -1.805566   0.80798779  -0.99757818   0.13793187    11285.577     1000 
  524000   0.51146141   -1.8364155   0.76642492   -1.0699906   0.12139835     11612.71     1000 
  526000   0.55496511   -1.8377884   0.83161522   -1.0061731   0.13004498    11454.062     1000 
  528000   0.55726232   -1.8405317   0.83505759   -1.0054742   0.12868286    11518.021     1000 
  530000   0.55463025   -1.8369081   0.83111342   -1.0057946   0.11864827    11520.227     1000 
  532000   0.53302024   -1.8155102   0.79873084   -1.0167793   0.13812037    11391.223     1000 
  534000   0.52788495   -1.8108553   0.79103559   -1.0198197   0.11762764    11544.495     1000 
  536000   0.53074897   -1.7840235   0.79532733  -0.98869615   0.12868939    11387.846     1000 
  538000   0.53981114   -1.7996803     0.808907  -0.99077325   0.12534889    11581.339     1000 
  540000   0.52294742   -1.8384826   0.78363671   -1.0548459   0.12970378    11426.369     1000 
  542000   0.56408493   -1.7905335   0.84528127  -0.94525222   0.13407834    11322.254     1000 
  544000   0.54239725   -1.7845399   0.81278228  -0.97175764   0.12497847    11476.931     1000 
  546000   0.52812002   -1.8252281   0.79138785   -1.0338403   0.12670445     11506.72     1000 
  548000   0.52016228   -1.8506643   0.77946317   -1.0712011   0.12753566    11464.998     1000 
  550000   0.53512296   -1.8543711   0.80188175   -1.0524894   0.14065386     11392.91     1000 
  552000   0.55515327   -1.8215617   0.83189718  -0.98966454   0.12965167    11460.873     1000 
  554000   0.54426603   -1.7946639   0.81558265  -0.97908122    0.1495126    11193.961     1000 
  556000   0.52437705   -1.8061539     0.785779   -1.0203749   0.11836527    11612.611     1000 
  558000   0.55638183   -1.8322435   0.83373818  -0.99850534   0.13029042    11447.604     1000 
  560000   0.52295125   -1.8092911   0.78364245   -1.0256486   0.12931292    11482.204     1000 
  562000   0.55046015   -1.7909907   0.82486454  -0.96612613   0.12067864    11568.113     1000 
  564000    0.5171961   -1.8460702   0.77501836   -1.0710519    0.1310985     11503.84     1000 
  566000   0.54105529   -1.8407734   0.81077135    -1.030002   0.12876401    11332.715     1000 
  568000   0.54600172   -1.7716016   0.81818357  -0.95341802    0.1116402    11544.241     1000 
  570000   0.55052508   -1.7992011   0.82496183  -0.97423925   0.13678131    11274.583     1000 
  572000   0.53478796   -1.8064093   0.80137976   -1.0050296   0.13379571    11370.705     1000 
  574000   0.55298484   -1.8244716   0.82864778  -0.99582384    0.1378273     11416.09     1000 
  576000   0.52180117   -1.8296238   0.78191905   -1.0477048   0.11556036    11501.728     1000 
  578000   0.54638435   -1.8502367   0.81875694   -1.0314797   0.12051008    11504.054     1000 
  580000   0.53422357   -1.8562548   0.80053402   -1.0557207   0.11111097    11458.582     1000 
  582000   0.53607853   -1.8165602   0.80331368   -1.0132465   0.14656455    11295.334     1000 
  584000   0.55416873   -1.7856761   0.83042184  -0.95525425    0.1283789    11396.481     1000 
  586000   0.52980965   -1.8177586   0.79391976   -1.0238389   0.12362113    11605.464     1000 
  588000   0.53897975   -1.7827362   0.80766115  -0.97507503   0.13723478    11164.223     1000 
  590000   0.53713204   -1.8246732   0.80489236   -1.0197809   0.14227234    11248.083     1000 
  592000   0.53648826   -1.8104268   0.80392766   -1.0064991    0.1375647    11303.955     1000 
  594000   0.55024458   -1.8190944   0.82454151   -0.9945529    0.1311572     11347.54     1000 
  596000    0.5449395   -1.7927357   0.81659184  -0.97614391   0.12668285    11528.222     1000 
  598000   0.54094455   -1.8470996   0.81060541   -1.0364942   0.12992034    11613.773     1000 
  600000   0.57596305   -1.8419495   0.86308063  -0.97886883   0.13256622    11387.217     1000 
  602000    0.5242251   -1.7954506   0.78555131   -1.0098993   0.12521774    11538.581     1000 
  604000   0.54225394   -1.8458827   0.81256752   -1.0333152   0.12520129    11517.271     1000 
  606000     0.543218   -1.8146925   0.81401217   -1.0006804   0.13652362     11395.58     1000 
  608000   0.52747037   -1.7947171   0.79041435   -1.0043027   0.12973442    11306.042     1000 
  610000   0.52796812   -1.8278089   0.79116023   -1.0366487   0.13581047    11288.605     1000 
  612000     0.551308   -1.8332055   0.82613504   -1.0070704   0.12301274    11488.925     1000 
  614000   0.53952535   -1.8796457   0.80847873   -1.0711669   0.12247679    11525.303     1000 
  616000   0.57051135   -1.8325057   0.85491126  -0.97759446   0.14893965    11276.143     1000 
  618000   0.52083475    -1.803406   0.78047088   -1.0229351   0.11366823    11634.671     1000 
  620000   0.51471961    -1.822961   0.77130734   -1.0516536   0.14234206    11191.223     1000 
  622000   0.53624738   -1.8007192    0.8035667  -0.99715248   0.13978462    11353.316     1000 
  624000   0.53340362   -1.8949957   0.79930532   -1.0956904   0.11472657    11518.703     1000 
  626000   0.51132239   -1.8060299   0.76621661   -1.0398133   0.12166796    11540.595     1000 
  628000   0.52163245   -1.8166398   0.78166623   -1.0349736   0.12065019    11503.232     1000 
  630000    0.5156183   -1.8196374   0.77265403   -1.0469834   0.13278549    11372.658     1000 
  632000   0.55180081    -1.825268   0.82687352  -0.99839446    0.1242062    11505.234     1000 
  634000   0.51779077   -1.7806091   0.77590946   -1.0046997   0.13166445    11409.233     1000 
  636000   0.53071304   -1.8016132   0.79527349   -1.0063397   0.12003393    11342.305     1000 
  638000   0.55987156   -1.8817987   0.83896754   -1.0428312   0.13924609    11421.969     1000 
  640000   0.52724499   -1.8721977   0.79007662   -1.0821211   0.11787737    11649.254     1000 
  642000   0.54906669   -1.8244792   0.82277643   -1.0017027   0.12924588    11380.218     1000 
  644000   0.54137509    -1.833283   0.81125058   -1.0220324   0.12569935    11453.216     1000 
  646000   0.55198707   -1.8368179   0.82715263   -1.0096653   0.13082132    11431.614     1000 
  648000   0.54436607   -1.7977905   0.81573256  -0.98205798   0.11667443    11645.171     1000 
  650000   0.52761875   -1.8440439   0.79063669   -1.0534072   0.13596649    11506.111     1000 
  652000   0.51961522    -1.816027   0.77864341   -1.0373836   0.13170163     11369.76     1000 
  654000   0.56291825   -1.7702028     0.843533  -0.92666984   0.12980697    11428.583     1000 
  656000   0.53507062   -1.8728663   0.80180332    -1.071063   0.11240627    11609.728     1000 
  658000   0.55901496   -1.8169891   0.83768392  -0.97930517   0.13230146    11376.844     1000 
  660000   0.54242726   -1.8164176   0.81282725   -1.0035903   0.13200506    11372.044     1000 
  662000   0.53874947   -1.8624739   0.80731609   -1.0551578   0.11907204    11451.183     1000 
  664000   0.53977681   -1.8232761   0.80885554   -1.0144205   0.11938217    11584.306     1000 
  666000   0.52388036    -1.757193   0.78503473  -0.97215832    0.1282399    11353.472     1000 
  668000   0.54091892    -1.820271   0.81056701    -1.009704     0.121856    11477.835     1000 
  670000   0.54532239   -1.8479087   0.81716561   -1.0307431   0.12481057    11452.734     1000 
  672000   0.51623271   -1.8463992   0.77357472   -1.0728244   0.13231061    11347.564     1000 
  674000   0.51318861   -1.8006021   0.76901314    -1.031589   0.13250082    11388.868     1000 
  676000   0.56061467   -1.8718107   0.84008108   -1.0317296   0.12868049    11530.305     1000 
  678000   0.52692447   -1.8178456   0.78959632   -1.0282493   0.13625503    11307.629     1000 
  680000   0.55523632   -1.7899338   0.83202162  -0.95791221   0.13051161    11343.102     1000 
  682000   0.55053861    -1.796895    0.8249821  -0.97191292    0.1228985    11465.243     1000 
  684000   0.52628063   -1.7971277   0.78863153   -1.0084962    0.1430005    11181.667     1000 
  686000   0.53012125   -1.8037391    0.7943867   -1.0093524   0.11555736    11587.472     1000 
  688000   0.54264665   -1.8275751   0.81315601    -1.014419   0.12107404    11505.021     1000 
  690000   0.55397441   -1.7920423   0.83013066  -0.96191169   0.13176966    11370.822     1000 
  692000   0.52862448   -1.8124954   0.79214379   -1.0203516   0.13267346    11343.433     1000 
  694000   0.53918076    -1.836239   0.80796236   -1.0282767   0.13553624    11293.523     1000 
  696000    0.5301394   -1.8140168   0.79441389   -1.0196029   0.13114264    11481.191     1000 
  698000   0.53978459   -1.8481936   0.80886721   -1.0393264   0.11967824    11472.202     1000 
  700000   0.56339382   -1.7652913   0.84424563  -0.92104564   0.13077059    11412.387     1000 
  702000   0.54236248   -1.8004354   0.81273018  -0.98770521   0.13104604    11467.617     1000 
  704000   0.54270636   -1.8108369   0.81324548  -0.99759147   0.13374122    11441.988     1000 
  706000   0.54134041   -1.8271524    0.8111986   -1.0159538   0.13452815    11392.139     1000 
  708000   0.53137516   -1.8382981   0.79626567   -1.0420324   0.13858047    11257.073     1000 
  710000   0.55014708   -1.8265527   0.82439541   -1.0021573   0.13166608    11457.437     1000 
  712000   0.55161777   -1.7925443   0.82659924  -0.96594503   0.12654391    11462.281     1000 
  714000    0.5728116   -1.8131803   0.85835818   -0.9548221   0.13465507    11415.627     1000 
  716000   0.54716071   -1.7446542   0.81992032   -0.9247339   0.15452189    11121.106     1000 
  718000   0.55800281   -1.7579235    0.8361672  -0.92175629   0.13166759    11357.286     1000 
  720000   0.52105561   -1.7703227   0.78080183  -0.98952085   0.14030451    11256.153     1000 
  722000   0.54107772   -1.9053475   0.81080496   -1.0945425   0.11653826    11723.618     1000 
  724000   0.52739355   -1.8233248   0.79029923   -1.0330256   0.11645967     11597.91     1000 
  726000   0.55984135   -1.8087703   0.83892226  -0.96984802   0.12929613    11529.597     1000 
  728000   0.52905646   -1.8003798   0.79279111   -1.0075887   0.13921357    11260.633     1000 
  730000   0.53419683    -1.825881   0.80049395   -1.0253871   0.14161966    11216.933     1000 
  732000   0.53409611   -1.7988148   0.80034302  -0.99847182   0.12306409    11470.187     1000 
  734000   0.57540613   -1.8156684   0.86224609  -0.95342232   0.13106064    11396.187     1000 
  736000   0.55628185   -1.7795531   0.83358835  -0.94596472   0.13108343     11436.65     1000 
  738000   0.53693757   -1.7908274   0.80460094  -0.98622651   0.12168966    11511.085     1000 
  740000   0.54483482   -1.8545704   0.81643497   -1.0381354   0.13160982     11501.95     1000 
  742000   0.53650821   -1.8552102   0.80395755   -1.0512527   0.14238913    11413.263     1000 
  744000   0.51768816   -1.7927081   0.77575571   -1.0169524    0.1348894    11320.041     1000 
  746000    0.5276785   -1.8209827   0.79072623   -1.0302564   0.12720341    11398.474     1000 
  748000   0.53052673   -1.8450187    0.7949943   -1.0500244   0.12518542    11568.508     1000 
  750000    0.5493912   -1.8547694   0.82326272   -1.0315067   0.12210261    11628.924     1000 
  752000   0.52921598   -1.7816196   0.79303014  -0.98858943   0.13083193     11267.49     1000 
  754000   0.54322271    -1.813905   0.81401924  -0.99988573   0.13802857    11326.028     1000 
  756000     0.561804   -1.8228511   0.84186329  -0.98098782   0.13424899    11477.614     1000 
  758000   0.52371182   -1.8495142   0.78478216   -1.0647321   0.12192168    11575.223     1000 
  760000   0.54809751   -1.7658825   0.82132411  -0.94455837    0.1193923    11652.915     1000 
  762000   0.51269316   -1.7929486    0.7682707   -1.0246779   0.12950724    11433.599     1000 
  764000   0.55165192   -1.7531176    0.8266504  -0.92646723   0.12868718    11372.134     1000 
  766000   0.53160414   -1.8244847   0.79660881   -1.0278759   0.15197471    11265.664     1000 
  768000   0.53063752   -1.8050529   0.79516032   -1.0098926   0.12569837    11443.696     1000 
  770000   0.54102087   -1.7970526   0.81071978  -0.98633285   0.14240777    11334.317     1000 
  772000   0.55131608    -1.762105   0.82614714  -0.93595786    0.1275186    11408.031     1000 
  774000   0.54224268   -1.8354628   0.81255066   -1.0229122   0.13705879    11446.828     1000 
  776000   0.57603863   -1.7761438   0.86319388  -0.91294993   0.14558875    11312.876     1000 
  778000   0.53676914   -1.8003099   0.80434856   -0.9959613   0.12451376    11440.779     1000 
  780000   0.55330429   -1.8275328   0.82912647   -0.9984063   0.14570093    11276.354     1000 
  782000   0.55726295   -1.8369581   0.83505853   -1.0018995   0.13587981    11364.966     1000 
  784000   0.53357308   -1.8141523   0.79955926   -1.0145931   0.12753671    11387.916     1000 
  786000    0.5215851   -1.8106785   0.78159527   -1.0290832    0.1370018    11316.916     1000 
  788000   0.53024206   -1.7874654   0.79456773  -0.99289763   0.12279827    11391.886     1000 
  790000   0.55493666   -1.8180583   0.83157259  -0.98648567   0.13617386    11457.887     1000 
  792000   0.54490235   -1.8188278   0.81653617   -1.0022917   0.12900237    11405.143     1000 
  794000   0.54599622   -1.8085688   0.81817534  -0.99039343   0.13526616    11462.761     1000 
  796000   0.53117424   -1.8077382    0.7959646   -1.0117736   0.14435599     11362.91     1000 
  798000   0.53191584   -1.7949823   0.79707589  -0.99790637   0.12954519    11265.814     1000 
  800000    0.5533693   -1.8247949   0.82922389  -0.99557096   0.13291217    11502.514     1000 
  802000    0.5311419   -1.8320756   0.79591613   -1.0361595   0.13213425    11414.456     1000 
  804000   0.52709573   -1.8410404   0.78985296   -1.0511874   0.14012251    11447.371     1000 
  806000   0.55301012   -1.8049338   0.82868567  -0.97624811   0.13847945    11256.723     1000 
  808000   0.52347859   -1.8221801   0.78443267   -1.0377474   0.12241974    11453.875     1000 
  810000   0.52123122   -1.7728851   0.78106498  -0.99182009   0.14025212    11343.198     1000 
  812000   0.53461986   -1.7836175   0.80112786  -0.98248962    0.1374829    11394.214     1000 
  814000   0.53758391   -1.7976967   0.80556949  -0.99212719   0.13534668    11305.034     1000 
  816000   0.54783647   -1.8192215   0.82093295  -0.99828857   0.12907291    11356.888     1000 
  818000   0.53312629   -1.8097033   0.79888975   -1.0108136   0.13927901     11434.52     1000 
  820000    0.5689792   -1.8170769   0.85261533  -0.96446153   0.13938395     11392.23     1000 
  822000   0.54516281    -1.787001   0.81692646  -0.97007449   0.14368289    11242.187     1000 
  824000   0.54196922   -1.8465309   0.81214087     -1.03439   0.13323603    11436.636     1000 
  826000   0.54791778   -1.8544665   0.82105479   -1.0334117   0.12246456    11530.579     1000 
  828000   0.55559443   -1.8599741   0.83255825   -1.0274159   0.14211568    11457.214     1000 
  830000   0.52473633   -1.8201215   0.78631739   -1.0338041   0.11835306    11621.861     1000 
  832000   0.55391398   -1.8236737   0.83004009  -0.99363359   0.12329875    11603.132     1000 
  834000   0.57061725   -1.8351127   0.85506995  -0.98004278   0.13955336    11473.731     1000 
  836000   0.56833992   -1.7688663   0.85165737  -0.91720894   0.14580527    11171.451     1000 
  838000   0.52308802   -1.8018808    0.7838474   -1.0180334    0.1299843    11403.888     1000 
  840000   0.51173818   -1.7851556   0.76683966   -1.0183159   0.12800282     11347.17     1000 
  842000   0.53300157   -1.7852611   0.79870285  -0.98655823   0.13168206    11331.473     1000 
  844000   0.52618101   -1.7806193   0.78848224  -0.99213701   0.13808786      11336.7     1000 
  846000    0.5440546   -1.8214668   0.81526582    -1.006201   0.12580955     11329.54     1000 
  848000   0.52677102   -1.8097826   0.78936637   -1.0204162   0.13427508    11321.356     1000 
  850000   0.52442501   -1.8019397   0.78585088   -1.0160889   0.12792068    11421.378     1000 
  852000    0.5355765    -1.781325   0.80256139  -0.97876364   0.14028801    11193.073     1000 
  854000    0.5319549   -1.8475189   0.79713442   -1.0503845    0.1149273    11620.643     1000 
  856000   0.53940527   -1.8105736    0.8082988   -1.0022748   0.13667699    11225.746     1000 
  858000   0.55655004   -1.7942545   0.83399024  -0.96026426   0.13002213    11405.877     1000 
  860000   0.51681559    -1.775025   0.77444815   -1.0005769   0.13628647    11240.835     1000 
  862000    0.5466496   -1.7940195   0.81915443  -0.97486503   0.14535095    11288.834     1000 
  864000   0.54922166   -1.7865546   0.82300866  -0.96354598   0.12370916    11520.029     1000 
  866000   0.54879197   -1.8633337   0.82236477   -1.0409689   0.12675389    11479.748     1000 
  868000   0.54664323    -1.849552   0.81914489   -1.0304072   0.11803047     11658.67     1000 
  870000   0.56329796   -1.8257288   0.84410199  -0.98162685   0.13573451    11458.976     1000 
  872000   0.51913513   -1.8173376   0.77792399   -1.0394136   0.11074156    11607.718     1000 
  874000   0.54874759   -1.7432058   0.82229826  -0.92090757   0.12922506    11374.926     1000 
  876000   0.52565439   -1.8017672   0.78769311   -1.0140741    0.1207634    11402.201     1000 
  878000   0.56383463   -1.8569019    0.8449062   -1.0119957   0.12170045    11559.574     1000 
  880000   0.53786241   -1.8267256   0.80598682   -1.0207387   0.13577697    11419.908     1000 
  882000   0.55451843   -1.8102766   0.83094586  -0.97933078   0.14059927    11369.166     1000 
  884000   0.53168245   -1.7878195   0.79672616  -0.99109335   0.13712345    11342.924     1000 
  886000   0.51891966    -1.805214   0.77760111   -1.0276129   0.12545849    11428.088     1000 
  888000     0.518944   -1.8085179   0.77763759   -1.0308803   0.13561234    11228.126     1000 
  890000   0.53808285   -1.7854054   0.80631715  -0.97908823     0.131879     11313.96     1000 
  892000   0.55072746   -1.8043181    0.8252651  -0.97905298   0.13232326    11432.768     1000 
  894000   0.53138748   -1.8083357   0.79628414   -1.0120516   0.13003964    11476.816     1000 
  896000   0.53038215   -1.7838244   0.79477765  -0.98904678   0.12254215    11491.829     1000 
  898000   0.53406269    -1.813806   0.80029294   -1.0135131   0.13175632    11490.736     1000 
  900000   0.52285171   -1.7820868   0.78349328  -0.99859356    0.1414359    11136.148     1000 
  902000   0.53723153    -1.821369   0.80504145   -1.0163275   0.13286728    11416.778     1000 
  904000   0.54364859   -1.8149523   0.81465742   -1.0002949   0.12799945    11324.174     1000 
  906000   0.51430004   -1.8306259    0.7706786   -1.0599473   0.12656595    11497.234     1000 
  908000   0.51242236   -1.8024311   0.76786491   -1.0345662   0.14209352    11176.856     1000 
  910000   0.55990068   -1.8156274   0.83901118  -0.97661624   0.12373867    11434.502     1000 
  912000    0.5553783   -1.7572119   0.83223438  -0.92497748   0.14450152    11343.879     1000 
  914000   0.54128789     -1.80208    0.8111199  -0.99096013   0.12174778    11394.455     1000 
  916000   0.53522107   -1.7981168   0.80202878  -0.99608805   0.14533774    11284.339     1000 
  918000   0.56571357   -1.7719988   0.84772179  -0.92427701   0.14089539    11224.889     1000 
  920000   0.52323043   -1.8083495    0.7840608   -1.0242887   0.12925384    11423.209     1000 
  922000   0.54918798   -1.8127226   0.82295819  -0.98976442   0.13750809    11369.371     1000 
  924000   0.53764464   -1.8058942   0.80566049   -1.0002337    0.1344402    11379.052     1000 
  926000   0.53510986   -1.7676219   0.80186213  -0.96575982   0.12749637    11385.859     1000 
  928000   0.52795499   -1.8213897   0.79114055   -1.0302491   0.11227945    11599.869     1000 
  930000   0.54489924   -1.8176606   0.81653151   -1.0011291   0.12541235    11460.558     1000 
  932000    0.5184216   -1.7959191   0.77685477   -1.0190643   0.11306531    11426.295     1000 
  934000     0.519655   -1.7670089   0.77870302  -0.98830592   0.13797816    11252.693     1000 
  936000   0.54444225    -1.775367   0.81584671  -0.95952028   0.12953877    11429.177     1000 
  938000   0.54961215   -1.8087498   0.82359381  -0.98515597   0.12966561    11500.265     1000 
  940000   0.54494401   -1.8419729    0.8165986   -1.0253743   0.13359432    11489.384     1000 
  942000   0.55783778   -1.7656335   0.83591991  -0.92971363   0.14007098    11293.931     1000 
  944000    0.5313241   -1.7825037   0.79618916  -0.98631459   0.12159756    11431.715     1000 
  946000   0.55279641   -1.8504222   0.82836542   -1.0220568    0.1246523    11597.313     1000 
  948000    0.5626261   -1.7833085   0.84309522  -0.94021329   0.13679166    11394.398     1000 
  950000   0.53314749   -1.8103992   0.79892152   -1.0114776   0.13578748    11375.567     1000 
  952000   0.53222624   -1.8070266   0.79754101   -1.0094856    0.1324677    11565.469     1000 
  954000   0.54192636   -1.7676981   0.81207665  -0.95562147   0.14141806     11395.48     1000 
  956000   0.56013642   -1.8189479   0.83936443  -0.97958351   0.14150829     11301.45     1000 
  958000   0.54722938   -1.7838369   0.82002322   -0.9638137   0.14813588     11342.43     1000 
  960000   0.57325764   -1.8133935   0.85902658  -0.95436695   0.13954819    11368.199     1000 
  962000    0.5456817   -1.7784832   0.81770403  -0.96077917   0.13486924    11399.029     1000 
  964000    0.5343383   -1.7633458   0.80070594   -0.9626399   0.13045017    11367.158     1000 
  966000   0.54541611   -1.8048229   0.81730605  -0.98751683   0.12896296    11551.553     1000 
  968000   0.53599327   -1.8032784   0.80318591   -1.0000925   0.13357703    11365.791     1000 
  970000   0.52370072   -1.7817827   0.78476553  -0.99701717   0.12717873    11302.385     1000 
  972000   0.56493999   -1.8276505   0.84656257  -0.98108791   0.14158326    11430.883     1000 
  974000   0.53260063   -1.7964127   0.79810204  -0.99831065   0.13970789    11266.289     1000 
  976000   0.56406161    -1.820403   0.84524632  -0.97515668   0.13822807    11337.309     1000 
  978000   0.56224827   -1.8182813   0.84252903  -0.97575227   0.13120404    11349.039     1000 
  980000   0.54796158   -1.8259792   0.82112043   -1.0048588   0.13912435    11492.082     1000 
  982000   0.51755465   -1.8217074   0.77555565   -1.0461517   0.12659182    11421.168     1000 
  984000   0.54603649   -1.8282623   0.81823568   -1.0100266   0.13035181    11316.039     1000 
  986000    0.5426961   -1.7920369    0.8132301  -0.97880681     0.137978    11391.572     1000 
  988000   0.50764187   -1.8391154   0.76070133   -1.0784141   0.12608118    11478.124     1000 
  990000   0.52706621   -1.7802337   0.78980872  -0.99042493   0.13247956    11488.266     1000 
  992000   0.52027943   -1.8337114   0.77963873   -1.0540726   0.11852889    11574.431     1000 
  994000   0.56935409   -1.7746097   0.85317711  -0.92143261   0.12356336    11603.695     1000 
  996000   0.53245072   -1.7930444    0.7978774    -0.995167    0.1355606    11307.181     1000 
  998000   0.55901058   -1.8652886   0.83767736   -1.0276112   0.13420269    11311.364     1000 
 1000000   0.54176837   -1.8295206    0.8118399   -1.0176807   0.12800282    11364.573     1000 
 1002000   0.53830536   -1.8426625   0.80665059   -1.0360119   0.12227652    11407.576     1000 
 1004000   0.54698168   -1.8211027   0.81965205   -1.0014507   0.12275746    11621.769     1000 
 1006000   0.53287598   -1.8343622   0.79851465   -1.0358475   0.13515733     11389.51     1000 
 1008000   0.55939558   -1.8515928   0.83825427   -1.0133385    0.1352066    11481.639     1000 
 1010000   0.53838124   -1.8065828   0.80676429  -0.99981854   0.13498814    11416.102     1000 
 1012000   0.54581418   -1.8279795   0.81790254   -1.0100769   0.14290786    11314.635     1000 
 1014000   0.54490328   -1.8120559   0.81653756  -0.99551838    0.1179789    11524.793     1000 
 1016000   0.52345014   -1.8328949   0.78439004   -1.0485048   0.13338281    11417.629     1000 
 1018000   0.55173004   -1.7922659   0.82676746  -0.96549843    0.1202437    11514.919     1000 
 1020000   0.55769726   -1.8294095   0.83570934  -0.99370014   0.13545664    11262.201     1000 
 1022000   0.55552423   -1.8022383   0.83245305  -0.96978525   0.13801614    11518.698     1000 
 1024000   0.54039028   -1.7947121   0.80977484   -0.9849373   0.12295561    11411.944     1000 
 1026000   0.53937759   -1.7996866   0.80825732  -0.99142925   0.13095081     11486.05     1000 
 1028000   0.54372622   -1.7968264   0.81477374   -0.9820527   0.12357651    11471.037     1000 
 1030000   0.55396789   -1.8075011   0.83012088  -0.97738021   0.12873144      11553.7     1000 
 1032000   0.56024327   -1.7883863   0.83952454  -0.94886178    0.1282445    11423.861     1000 
 1034000   0.52332139   -1.8954606    0.7841971   -1.1112635   0.12395219    11613.886     1000 
 1036000   0.54319941    -1.855073   0.81398431   -1.0410887   0.12188166     11526.21     1000 
 1038000   0.54467727   -1.7971931   0.81619889  -0.98099417    0.1254988    11454.862     1000 
 1040000   0.54475967   -1.8017559   0.81632236  -0.98543349   0.13139757     11421.63     1000 
 1042000   0.54153494   -1.7849899   0.81149011  -0.97349982   0.12731836    11378.836     1000 
 1044000   0.53359849   -1.7835309   0.79959733  -0.98393353   0.12371289    11415.726     1000 
 1046000    0.5289725   -1.8493196   0.79266529   -1.0566543   0.13112887    11436.821     1000 
 1048000   0.52209362   -1.8490675   0.78235729   -1.0667102   0.11860407    11487.962     1000 
 1050000    0.5263688   -1.8567683   0.78876365   -1.0680047   0.11756493    11553.834     1000 
 1052000   0.55466333   -1.7390588   0.83116301   -0.9078958   0.13428785    11312.704     1000 
 1054000    0.5529822   -1.8385779   0.82864383   -1.0099341   0.12752078    11430.907     1000 
 1056000   0.53108986   -1.8498188   0.79583815   -1.0539807   0.12877071    11469.853     1000 
 1058000   0.51635223   -1.8239287   0.77375381   -1.0501749   0.12295729    11480.818     1000 
 1060000   0.54734155   -1.8387043   0.82019131    -1.018513   0.13693746    11277.182     1000 
 1062000   0.52275518   -1.8502251   0.78334864   -1.0668764   0.13043149    11467.157     1000 
 1064000   0.54186526    -1.797064   0.81198509  -0.98507896   0.12100868    11557.409     1000 
 1066000   0.52175734   -1.8087902   0.78185337   -1.0269368   0.12162208    11494.846     1000 
 1068000   0.54642673   -1.8402022   0.81882045   -1.0213817    0.1324854    11443.731     1000 
 1070000   0.53417251    -1.814728    0.8004575   -1.0142705   0.12936141     11348.79     1000 
 1072000    0.5415351   -1.8465639   0.81149035   -1.0350736   0.12667033    11473.287     1000 
 1074000   0.53249783   -1.8315133   0.79794799   -1.0335653   0.12161404     11364.14     1000 
 1076000   0.53516517   -1.8208986   0.80194501   -1.0189536    0.1452411    11297.075     1000 
 1078000   0.53238251   -1.7809463   0.79777519  -0.98317107   0.12293896    11511.403     1000 
 1080000   0.56109129   -1.8331189    0.8407953  -0.99232362   0.11815734    11611.328     1000 
 1082000   0.53309236   -1.8379051    0.7988389   -1.0390662   0.12446733    11354.596     1000 
 1084000   0.55523936   -1.7806757   0.83202619  -0.94864954   0.14182146    11219.692     1000 
 1086000   0.56177506   -1.8460666   0.84181993   -1.0042467   0.12703864    11466.685     1000 
 1088000    0.5404751   -1.7783151   0.80990194  -0.96841319   0.12877283    11373.368     1000 
 1090000   0.53737982   -1.7925586   0.80526365  -0.98729496   0.13449155    11326.761     1000 
 1092000   0.55048988   -1.8053884   0.82490909  -0.98047935   0.13764187    11368.086     1000 
 1094000   0.54525333   -1.8441341   0.81706212    -1.027072   0.12150141    11637.554     1000 
 1096000   0.55092729   -1.7799793   0.82556454  -0.95441479   0.13749687     11332.11     1000 
 1098000   0.54937635   -1.8493562   0.82324046   -1.0261157   0.12509486    11506.543     1000 
 1100000    0.5285128   -1.8615872   0.79197644   -1.0696108   0.12434299     11423.74     1000 
 1102000   0.56088617     -1.81417   0.84048793  -0.97368204   0.13103884    11430.793     1000 
 1104000   0.55312883   -1.7837815   0.82886355  -0.95491798   0.12886189    11343.758     1000 
 1106000   0.53332613   -1.8268493   0.79918921   -1.0276601    0.1197862    11577.613     1000 
 1108000   0.56145583    -1.768914   0.84134157  -0.92757246    0.1338199    11418.914     1000 
 1110000   0.55067314   -1.7933457    0.8251837  -0.96816196    0.1393266    11368.293     1000 
 1112000   0.57135378   -1.7986952   0.85617363  -0.94252156   0.14306265    11310.394     1000 
 1114000    0.5516267   -1.8224211   0.82661261  -0.99580849   0.12425286     11438.09     1000 
 1116000    0.5589011   -1.8344434    0.8375133  -0.99693007   0.12875655    11489.419     1000 
 1118000   0.54572716   -1.7905639   0.81777215  -0.97279171   0.12357105    11518.718     1000 
 1120000   0.51755378   -1.7803414   0.77555434   -1.0047871   0.13193883    11348.505     1000 
 1122000   0.53077878    -1.813893     0.795372    -1.018521    0.1254873    11316.089     1000 
 1124000   0.52129435   -1.7600436   0.78115958  -0.97888403   0.13117993    11394.805     1000 
 1126000   0.54685325   -1.8410327   0.81945959   -1.0215731   0.11265442    11579.028     1000 
 1128000   0.51882047   -1.7758427   0.77745247  -0.99839025   0.13066449    11415.209     1000 
 1130000   0.51209039   -1.8299492   0.76736744   -1.0625818   0.13243244    11347.903     1000 
 1132000   0.53506794   -1.8198868    0.8017993   -1.0180875   0.12581848    11588.981     1000 
 1134000   0.53706215   -1.8430566   0.80478764    -1.038269   0.12986447    11397.154     1000 
 1136000   0.53309032    -1.826696   0.79883584   -1.0278602   0.12311265    11484.508     1000 
 1138000   0.53371743   -1.7891629   0.79977557  -0.98938733   0.11722403      11533.9     1000 
 1140000   0.54880978   -1.8173621   0.82239145  -0.99497065   0.13780697    11355.453     1000 
 1142000   0.54485513   -1.8521835   0.81646541   -1.0357181   0.11898318    11576.661     1000 
 1144000   0.52447118   -1.8044614   0.78592006   -1.0185413   0.12545525    11350.082     1000 
 1146000   0.54236205   -1.8527409   0.81272953   -1.0400114   0.12665344    11487.731     1000 
 1148000   0.57214791   -1.8733273   0.85736364   -1.0159637   0.14431319    11394.964     1000 
 1150000   0.53966276   -1.7679947   0.80868464  -0.95931008   0.12986707    11405.127     1000 
 1152000   0.52942224   -1.8315478   0.79333923   -1.0382086   0.12983593    11416.926     1000 
 1154000    0.4968588   -1.8382857   0.74454291   -1.0937428   0.11463323    11681.659     1000 
 1156000   0.50987581   -1.8244011    0.7640489   -1.0603522   0.11840687    11493.257     1000 
 1158000   0.54747133   -1.8029903   0.82038579  -0.98260451   0.11985507    11478.327     1000 
 1160000   0.54182074   -1.8444008   0.81191838   -1.0324824   0.12605475    11533.698     1000 
 1162000   0.56695171   -1.7774631   0.84957714  -0.92788595   0.13274519    11360.671     1000 
 1164000   0.51991298   -1.8266474    0.7790896   -1.0475578    0.1186195    11685.249     1000 
 1166000   0.53847062   -1.8300759   0.80689822   -1.0231777   0.11270057    11652.456     1000 
 1168000   0.54905716   -1.7952327   0.82276215  -0.97247056   0.12467013    11472.779     1000 
 1170000   0.54875347   -1.8460713   0.82230708   -1.0237643   0.14637383    11296.314     1000 
 1172000   0.53766248   -1.8220798   0.80568723   -1.0163926   0.11948387    11538.411     1000 
 1174000   0.54076543   -1.8030391     0.810337  -0.99270208   0.13651673    11369.574     1000 
 1176000    0.5248997   -1.8339011   0.78656219   -1.0473389   0.12942549    11381.695     1000 
 1178000   0.52778242   -1.7922426   0.79088195   -1.0013607   0.13997445    11219.937     1000 
 1180000   0.56744932   -1.7836931   0.85032281  -0.93337024   0.13831137    11408.242     1000 
 1182000   0.55348807   -1.8086651   0.82940187  -0.97926319   0.13428883    11308.621     1000 
 1184000   0.54846902   -1.8303531   0.82188082   -1.0084723   0.13571088    11503.846     1000 
 1186000   0.54245435   -1.7959847   0.81286785   -0.9831168   0.13441302    11340.175     1000 
 1188000   0.54709002   -1.7896478    0.8198144   -0.9698334   0.13205473    11356.642     1000 
 1190000   0.54263382    -1.805046   0.81313678  -0.99190921   0.13880278    11398.628     1000 
 1192000   0.57627868   -1.8384703    0.8635536  -0.97491669   0.12526744    11558.485     1000 
 1194000   0.56748078   -1.8198857   0.85036995   -0.9695158   0.13535208    11508.274     1000 
 1196000   0.54210083   -1.8197216   0.81233809   -1.0073835   0.12087981    11505.381     1000 
 1198000   0.52875543   -1.7799812   0.79234002  -0.98764119    0.1288188    11366.221     1000 
 1200000   0.54763725   -1.8352312   0.82063443   -1.0145968     0.119839    11557.596     1000 
 1202000   0.56533018   -1.8639376   0.84714727   -1.0167903   0.12407825     11504.68     1000 
 1204000   0.53248699   -1.8821053   0.79793175   -1.0841736   0.13353845    11500.924     1000 
 1206000   0.56472218   -1.7795887   0.84623618  -0.93335253   0.14404153    11253.694     1000 
 1208000   0.53444729   -1.8552969   0.80086927   -1.0544276   0.12947199    11427.621     1000 
 1210000   0.55405912   -1.8369186   0.83025759    -1.006661   0.13827101    11272.094     1000 
 1212000   0.54176188   -1.8054584   0.81183018  -0.99362822   0.14021606    11268.459     1000 
 1214000      0.53291   -1.8539353   0.79856564   -1.0553697   0.13092895    11476.564     1000 
 1216000   0.56449536   -1.8372928    0.8458963  -0.99139646   0.13309601    11441.242     1000 
 1218000   0.54756109   -1.8617914   0.82052029   -1.0412711   0.12784594    11439.222     1000 
 1220000   0.52930993   -1.8050801   0.79317093   -1.0119091   0.13205526    11443.319     1000 
 1222000   0.53490629   -1.8551322   0.80155708   -1.0535751   0.12777119    11611.863     1000 
 1224000    0.5032491   -1.8632394   0.75411877   -1.1091206   0.12242949    11426.922     1000 
 1226000   0.54009915   -1.8566523   0.80933857   -1.0473137   0.14170523    11294.575     1000 
 1228000   0.52820478   -1.8262764   0.79151487   -1.0347616   0.13088403    11543.934     1000 
 1230000   0.53816297   -1.8189266   0.80643721   -1.0124894   0.12061801    11520.451     1000 
 1232000   0.52813726    -1.771634   0.79141369  -0.98022032   0.13061207    11464.841     1000 
 1234000   0.52511613   -1.8188874   0.78688652   -1.0320009   0.13040189     11411.96     1000 
 1236000   0.54638913   -1.8597869   0.81876411   -1.0410228    0.1320226     11518.27     1000 
 1238000   0.53804318   -1.7875108   0.80625771  -0.98125308   0.13393112    11380.091     1000 
 1240000   0.53541496   -1.8276908   0.80231932   -1.0253715   0.12603677    11460.083     1000 
 1242000   0.52628423   -1.7723492   0.78863692  -0.98371224    0.1151283    11571.994     1000 
 1244000   0.54256402   -1.8478584   0.81303219   -1.0348262   0.12645462    11514.124     1000 
 1246000   0.54698806   -1.7999267   0.81966161  -0.98026513   0.12808511    11341.389     1000 
 1248000   0.53054853   -1.8088813   0.79502698   -1.0138543   0.13432256    11372.516     1000 
 1250000    0.5280877   -1.7894934   0.79133941  -0.99815399   0.13620506    11324.367     1000 
 1252000   0.53318998   -1.8127237   0.79898519   -1.0137385   0.13741434    11361.931     1000 
 1254000   0.55644902   -1.7806108   0.83383886  -0.94677198   0.13659236    11263.878     1000 
 1256000   0.52921145   -1.7814329   0.79302335  -0.98840955    0.1466216    11144.414     1000 
 1258000   0.54832552   -1.7543718   0.82166579  -0.93270603   0.12677607    11352.721     1000 
 1260000   0.52557279   -1.8136157   0.78757083   -1.0260449   0.13768452    11300.804     1000 
 1262000   0.54005034   -1.8220305   0.80926543   -1.0127651   0.13652504    11302.275     1000 
 1264000   0.54370656   -1.8216565   0.81474429   -1.0069122   0.12415778    11434.791     1000 
 1266000   0.53963525   -1.8332005   0.80864342    -1.024557   0.13938282    11328.218     1000 
 1268000   0.53722559   -1.7917974   0.80503255  -0.98676487   0.13796708    11216.419     1000 
 1270000   0.55624213   -1.8474543   0.83352884   -1.0139254   0.13134464    11507.862     1000 
 1272000   0.50644082   -1.7802634   0.75890158   -1.0213618   0.12474689    11476.923     1000 
 1274000   0.54740087   -1.8362481   0.82028021   -1.0159679   0.12881669    11376.754     1000 
 1276000   0.54760593   -1.7975034   0.82058749  -0.97691594    0.1294567    11468.625     1000 
 1278000    0.5583377   -1.7932832   0.83666904  -0.95661416   0.11812375    11364.218     1000 
 1280000   0.53302795   -1.8197457   0.79874238   -1.0210034   0.13762024    11315.641     1000 
 1282000   0.52750939    -1.835941   0.79047282   -1.0454682   0.12441705    11470.898     1000 
 1284000   0.54858997   -1.8116977   0.82206208  -0.98963564   0.13765544    11460.496     1000 
 1286000    0.5476324   -1.8055417   0.82062716  -0.98491449   0.13382375    11411.372     1000 
 1288000   0.53416432   -1.8287117   0.80044524   -1.0282665   0.12361458    11520.185     1000 
 1290000    0.5461602   -1.8119249   0.81842107  -0.99350384   0.14225585    11388.085     1000 
 1292000   0.53424751   -1.8248766   0.80056989   -1.0243067   0.12721923    11592.786     1000 
 1294000   0.52459357   -1.7922893   0.78610346   -1.0061859   0.14190117    11378.155     1000 
 1296000   0.52955436   -1.7560524   0.79353721  -0.96251517   0.12535197    11303.192     1000 
 1298000    0.5364076    -1.777474   0.80380679  -0.97366717   0.12798915    11409.899     1000 
 1300000   0.52655037   -1.8319325   0.78903573   -1.0428968   0.13395741    11407.129     1000 
 1302000   0.56178892   -1.7775066   0.84184069  -0.93566587   0.13757351    11358.739     1000 
 1304000   0.52248049   -1.8503425   0.78293701   -1.0674055   0.12111919    11595.131     1000 
 1306000    0.5535618   -1.8177438   0.82951235  -0.98823148   0.13565185    11446.906     1000 
 1308000   0.55905878   -1.8029862   0.83774958  -0.96523663   0.13631111    11478.419     1000 
 1310000   0.54855187   -1.8247709   0.82200498   -1.0027659   0.13159378    11449.347     1000 
 1312000   0.54348363   -1.8104739   0.81441023  -0.99606372   0.13925521    11302.497     1000 
 1314000   0.52168681   -1.7573704   0.78174768  -0.97562276   0.14267268    11239.024     1000 
 1316000    0.5737235   -1.8179638   0.85972467  -0.95823917   0.13346498    11478.556     1000 
 1318000   0.51175113   -1.7840104   0.76685907   -1.0171514   0.13782891    11362.342     1000 
 1320000   0.55172236   -1.8472729   0.82675595    -1.020517   0.12704669    11459.672     1000 
 1322000   0.55091206    -1.802835   0.82554173  -0.97729328    0.1428872    11185.031     1000 
 1324000   0.56230393   -1.8195531   0.84261244  -0.97694069   0.11613019    11596.971     1000 
 1326000   0.54647401    -1.794289    0.8188913  -0.97539768   0.12980281    11570.365     1000 
 1328000   0.54295298   -1.8381464   0.81361505   -1.0245314   0.12966793    11335.771     1000 
 1330000   0.52351097   -1.8058215   0.78448119   -1.0213403   0.12970106    11423.648     1000 
 1332000   0.55148687   -1.7437611   0.82640307  -0.91735806   0.13436781    11264.738     1000 
 1334000    0.5445208   -1.8067605   0.81596442  -0.99079611   0.13048691    11564.119     1000 
 1336000   0.53733895   -1.8307805   0.80520241   -1.0255781    0.1297435    11529.904     1000 
 1338000   0.52991624   -1.8555947   0.79407949   -1.0615152   0.13160352    11407.375     1000 
 1340000   0.53473273   -1.7909405   0.80129699  -0.98964349   0.13094433    11430.546     1000 
 1342000   0.53692174    -1.851384   0.80457723   -1.0468067   0.11463476    11545.171     1000 
 1344000    0.5484175   -1.8424034   0.82180363   -1.0205998   0.13105504    11453.041     1000 
 1346000   0.54273569   -1.8398128   0.81328944   -1.0265233   0.11171263    11585.969     1000 
 1348000   0.55057042   -1.8167088   0.82502978  -0.99167897   0.13399716    11399.669     1000 
 1350000   0.55651492   -1.8330227   0.83393761   -0.9990851   0.12767336    11473.333     1000 
 1352000   0.54413987   -1.8331602   0.81539359   -1.0177666   0.12875054    11503.533     1000 
 1354000   0.54255993   -1.8342228   0.81302606   -1.0211968   0.12693199    11422.717     1000 
 1356000   0.54073558   -1.7704017   0.81029226  -0.96010944   0.14044586    11273.096     1000 
 1358000   0.54042217   -1.8321564   0.80982262   -1.0223337   0.12745324    11462.479     1000 
 1360000   0.54814949   -1.8660277     0.821402   -1.0446257   0.11954753    11673.088     1000 
 1362000   0.57311787   -1.7901027   0.85881713  -0.93128554   0.13493719    11351.917     1000 
 1364000   0.53761783   -1.8825449   0.80562032   -1.0769245   0.11634498    11529.276     1000 
 1366000   0.54031783   -1.8369285   0.80966627   -1.0272622   0.11848503    11589.602     1000 
 1368000   0.54701295   -1.7887357   0.81969891   -0.9690368   0.12289524    11418.734     1000 
 1370000   0.52780639   -1.8565506   0.79091787   -1.0656327   0.12404139    11403.859     1000 
 1372000   0.53058698   -1.7939847   0.79508459  -0.99890009   0.13133001    11439.596     1000 
 1374000    0.5376296   -1.8133495   0.80563796   -1.0077115   0.12433006    11550.104     1000 
 1376000   0.54420535   -1.8132054   0.81549172  -0.99771367   0.13565694     11376.92     1000 
 1378000   0.53236208   -1.8008655   0.79774458   -1.0031209   0.11846949    11448.907     1000 
 1380000   0.51202022   -1.8413133    0.7672623    -1.074051   0.13436985    11314.359     1000 
 1382000   0.53697262   -1.7969066   0.80465347  -0.99225313   0.13482321    11505.174     1000 
 1384000   0.54509684   -1.8003262   0.81682761  -0.98349854   0.12546733     11412.24     1000 
 1386000   0.55189222   -1.8185494   0.82701049  -0.99153891   0.13207398     11378.54     1000 
 1388000   0.52465652   -1.7808054   0.78619779  -0.99460758   0.15165826    11092.421     1000 
 1390000   0.55388675   -1.7865411   0.82999929  -0.95654186   0.14126342    11277.436     1000 
 1392000   0.50417094   -1.8623282   0.75550016   -1.1068281   0.11892162    11542.584     1000 
 1394000   0.54436108   -1.7707697   0.81572508   -0.9550446   0.14261006    11253.157     1000 
 1396000   0.53881516   -1.7560514   0.80741452  -0.94863689   0.13406457    11330.173     1000 
 1398000   0.55103114   -1.7495635   0.82572016  -0.92384332   0.11923269    11434.766     1000 
 1400000    0.5270776   -1.8271405   0.78982578   -1.0373147   0.12771737    11452.698     1000 
 1402000   0.53329056   -1.8383619    0.7991359    -1.039226   0.12880461    11570.536     1000 
 1404000   0.56487877   -1.9016097   0.84647084   -1.0551388   0.13075258     11386.98     1000 
 1406000   0.55141627   -1.7946336   0.82629728   -0.9683363   0.12393596    11371.647     1000 
 1408000   0.55978941   -1.7714463   0.83884443  -0.93260186   0.13836411    11291.192     1000 
 1410000   0.54234303   -1.8297587   0.81270103   -1.0170577   0.13864325    11369.559     1000 
 1412000   0.55780127   -1.7912639    0.8358652  -0.95539868   0.12031443    11573.676     1000 
 1414000   0.53596068   -1.8024608   0.80313708  -0.99932369   0.13202811    11438.046     1000 
 1416000   0.54645073   -1.7612768   0.81885642  -0.94242041   0.12392389    11429.832     1000 
 1418000   0.54991303   -1.8004699   0.82404468   -0.9764252   0.13734524    11273.224     1000 
 1420000   0.54422401   -1.8213849   0.81551968   -1.0058652   0.12963154    11505.641     1000 
 1422000   0.53156211   -1.8721066   0.79654583   -1.0755608   0.13811066    11428.851     1000 
 1424000   0.51398933   -1.8099317   0.77021301   -1.0397187   0.12518186    11487.039     1000 
 1426000    0.5481364   -1.7908017   0.82138239   -0.9694193   0.13815931    11333.639     1000 
 1428000   0.54641473   -1.8488971   0.81880247   -1.0300946   0.13397413    11438.716     1000 
 1430000   0.53832161   -1.8279338   0.80667493   -1.0212588   0.13597725    11413.169     1000 
 1432000   0.52147724    -1.823147   0.78143364   -1.0417134     0.124222    11486.524     1000 
 1434000   0.53695275    -1.804429    0.8046237  -0.99980534   0.13166208    11474.759     1000 
 1436000    0.5090567   -1.7921718   0.76282146   -1.0293503   0.12574566    11455.072     1000 
 1438000   0.55402088   -1.8158167   0.83020029  -0.98561637   0.11894607    11605.797     1000 
 1440000   0.54928056   -1.8312595   0.82309692   -1.0081626   0.12524291    11480.476     1000 
 1442000    0.5333543   -1.8253873   0.79923142   -1.0261559   0.12912227    11378.766     1000 
 1444000   0.53097328   -1.8275761   0.79566346   -1.0319126   0.13162959    11486.508     1000 
 1446000   0.54504957   -1.8478501   0.81675678   -1.0310933    0.1373392    11426.172     1000 
 1448000   0.53331275   -1.8306222   0.79916916    -1.031453   0.12934402    11390.869     1000 
 1450000   0.54760688   -1.7997314   0.82058891  -0.97914249    0.1409634    11354.694     1000 
 1452000   0.50607924   -1.7986067   0.75835974   -1.0402469    0.1159381    11695.663     1000 
 1454000   0.52286196   -1.8140617   0.78350864    -1.030553   0.11477043    11538.349     1000 
 1456000   0.55433149   -1.7778229   0.83066573  -0.94715716   0.12617644    11491.763     1000 
 1458000   0.52603142   -1.8051221   0.78825808   -1.0168641    0.1307601    11421.923     1000 
 1460000   0.52628101   -1.7254807   0.78863209  -0.93684859   0.13386349    11377.542     1000 
 1462000   0.55301362   -1.8693965   0.82869091   -1.0407056    0.1252067    11443.351     1000 
 1464000   0.53892254   -1.8204259   0.80757543   -1.0128505   0.12937408     11449.07     1000 
 1466000   0.53408295   -1.8394408    0.8003233   -1.0391175    0.1372582    11400.748     1000 
 1468000   0.53642169   -1.8213773    0.8038279   -1.0175494   0.13037045    11355.495     1000 
 1470000   0.55602027   -1.7794624   0.83319638  -0.94626602   0.12413136    11482.211     1000 
 1472000   0.50746423   -1.8055843   0.76043515   -1.0451492   0.12032284     11565.98     1000 
 1474000   0.52824465   -1.8174094   0.79157461   -1.0258348   0.12227725    11475.782     1000 
 1476000   0.51163385   -1.8692578   0.76668332   -1.1025745   0.12687327    11457.985     1000 
 1478000     0.538027   -1.8383413   0.80623346   -1.0321079   0.13268638    11361.439     1000 
 1480000   0.55891895   -1.7948642   0.83754004  -0.95732417   0.13471223    11375.918     1000 
 1482000   0.53316509   -1.8082944   0.79894788   -1.0093465   0.14315068     11380.07     1000 
 1484000   0.52523735   -1.7775358   0.78706817  -0.99046761   0.13675745    11306.146     1000 
 1486000   0.55899557   -1.8245393   0.83765486   -0.9868844   0.12806993    11520.957     1000 
 1488000   0.54316869   -1.8377703   0.81393829    -1.023832    0.1295892     11599.52     1000 
 1490000   0.54055592   -1.8243909   0.81002305   -1.0143678   0.13639824     11444.84     1000 
 1492000   0.55590346   -1.7761474   0.83302133  -0.94312608   0.13065447    11456.379     1000 
 1494000   0.52340439   -1.7831961   0.78432148  -0.99887458   0.11650349    11514.394     1000 
 1496000   0.53090387   -1.8126633   0.79555946   -1.0171038   0.12562218    11458.595     1000 
 1498000   0.56273242   -1.8124874   0.84325453  -0.96923289   0.12799702    11326.974     1000 
 1500000   0.53930171   -1.7941648   0.80814361  -0.98602122    0.1288246    11458.865     1000 
 1502000   0.53506263   -1.8128535   0.80179135   -1.0110622   0.12279261    11605.896     1000 
 1504000   0.55334027   -1.7856875   0.82918039  -0.95650706   0.14758124    11185.484     1000 
 1506000   0.56922205    -1.813071   0.85297924  -0.96009174    0.1304098    11389.312     1000 
 1508000   0.50045349    -1.813785   0.74992955   -1.0638554   0.12493856    11495.363     1000 
 1510000   0.51764241   -1.8210156   0.77568716   -1.0453284   0.12139455    11549.021     1000 
 1512000   0.53825119   -1.8079727   0.80656941   -1.0014033   0.12516126    11496.519     1000 
 1514000   0.55348278   -1.8182317   0.82939394  -0.98883779   0.14100858    11230.682     1000 
 1516000   0.54963291    -1.813078   0.82362492  -0.98945305   0.12319497    11441.862     1000 
 1518000    0.5413472   -1.8333237   0.81120878   -1.0221149   0.12983046    11556.997     1000 
 1520000   0.53314169   -1.8059794   0.79891282   -1.0070666   0.12541333     11514.23     1000 
 1522000   0.53861056   -1.7975508   0.80710792  -0.99044287   0.14092829    11273.016     1000 
 1524000   0.53902054   -1.8291535   0.80772228   -1.0214312   0.11186777    11534.612     1000 
 1526000   0.52289842   -1.7739092   0.78356328  -0.99034595   0.14194056    11270.645     1000 
 1528000   0.55835333   -1.8635872   0.83669247   -1.0268947    0.1290682    11504.375     1000 
 1530000   0.54748385   -1.8090187   0.82040455  -0.98861419   0.13107351    11560.531     1000 
 1532000   0.53702699   -1.8056046   0.80473494   -1.0008697   0.13036595    11426.633     1000 
 1534000   0.55808502   -1.7872609    0.8362904  -0.95097049    0.1209523    11511.622     1000 
 1536000   0.53163879   -1.8524663   0.79666072   -1.0558056   0.12936409    11364.742     1000 
 1538000   0.53206736   -1.8671842   0.79730294   -1.0698812   0.12318809    11606.875     1000 
 1540000   0.54468215    -1.810973    0.8162062  -0.99476684   0.14520797    11344.484     1000 
 1542000   0.54717729   -1.7686083   0.81994517  -0.94866317   0.12142895    11523.555     1000 
 1544000   0.55097196   -1.8305456   0.82563148   -1.0049141   0.14731858    11353.989     1000 
 1546000   0.53218588   -1.8012324   0.79748053   -1.0037518   0.12955981    11264.905     1000 
 1548000   0.51599472   -1.8188082   0.77321809   -1.0455901   0.13168672    11304.896     1000 
 1550000   0.54167772   -1.8092463   0.81170407  -0.99754224   0.13856034    11339.198     1000 
 1552000   0.54774357   -1.8406129   0.82079374   -1.0198192   0.14290357    11376.318     1000 
 1554000   0.52971729   -1.8011906   0.79378137   -1.0074092   0.13926573    11374.839     1000 
 1556000   0.54361858   -1.8253895   0.81461244    -1.010777   0.13839357    11396.654     1000 
 1558000   0.55557875   -1.8512099   0.83253476   -1.0186752   0.12244674    11680.453     1000 
 1560000   0.53008727   -1.8625064   0.79433577   -1.0681706   0.12813993    11497.829     1000 
 1562000   0.54696215   -1.7924343   0.81962278  -0.97281151   0.12868309    11462.353     1000 
 1564000    0.5700043   -1.8141754   0.85415144  -0.96002391    0.1339241    11376.209     1000 
 1566000   0.55680613   -1.7717906   0.83437399  -0.93741661   0.13630897    11298.061     1000 
 1568000   0.55615971   -1.8062723   0.83340532  -0.97286694   0.13264796    11266.077     1000 
 1570000   0.52589062   -1.8057906   0.78804709   -1.0177435   0.12034538    11459.507     1000 
 1572000   0.55342031   -1.8225715   0.82930034   -0.9932712   0.12268128    11418.423     1000 
 1574000   0.56173564   -1.8116431   0.84176085  -0.96988229    0.1347902    11505.388     1000 
 1576000    0.5202975   -1.8219933   0.77966581   -1.0423275   0.12342571    11449.585     1000 
 1578000   0.56594875   -1.8233731   0.84807421  -0.97529886   0.13615338    11336.514     1000 
 1580000   0.54006571   -1.7879021   0.80928847  -0.97861363   0.11514647    11525.849     1000 
 1582000   0.56490033   -1.7908165   0.84650315  -0.94431337   0.11952736    11576.611     1000 
 1584000   0.54232941   -1.8024755   0.81268062   -0.9897949   0.13510229    11322.414     1000 
 1586000   0.53487159   -1.8255246   0.80150508   -1.0240195   0.13733863    11331.387     1000 
 1588000   0.54340624   -1.8141986   0.81429424  -0.99990433   0.12388276    11434.873     1000 
[...]
 2614000   0.54673879   -1.7965577   0.81928808  -0.97726957   0.12419062    11336.698     1000 
 2616000   0.55020781   -1.8685183    0.8244864   -1.0440319   0.11423851    11651.899     1000 
 2618000   0.51557119   -1.8169901   0.77258343   -1.0444067    0.1208722    11444.515     1000 
 2620000   0.54064029   -1.8162436   0.81014947   -1.0060941   0.13218156    11470.439     1000 
 2622000   0.55273172   -1.8805581   0.82826848   -1.0522896   0.12222656     11536.13     1000 
 2624000   0.53311565   -1.7940894    0.7988738  -0.99521562   0.12166225    11471.424     1000 
 2626000   0.55168467   -1.8494035   0.82669947    -1.022704   0.13667603    11416.856     1000 
 2628000   0.54319374   -1.8126048   0.81397582  -0.99862895   0.13273134    11342.549     1000 
 2630000   0.55948232   -1.7962965   0.83838425  -0.95791225   0.12552495    11504.702     1000 
 2632000   0.54697149   -1.8132542   0.81963677  -0.99361746   0.13902325    11405.331     1000 
 2634000     0.538136   -1.8351949   0.80639679   -1.0287981     0.132118    11522.818     1000 
 2636000   0.53965097   -1.7755894   0.80866698  -0.96692246   0.11995977    11425.982     1000 
 2638000   0.54694841   -1.8287624   0.81960219   -1.0091602   0.10886833    11511.372     1000 
 2640000   0.55064862   -1.8540042   0.82514696   -1.0288572   0.12688526    11485.752     1000 
 2642000   0.52611652   -1.7996121   0.78838561   -1.0112265   0.11934604    11528.601     1000 
 2644000   0.51585735   -1.8323832   0.77301224    -1.059371   0.12413768    11409.404     1000 
 2646000   0.53080526   -1.7872499   0.79541168   -0.9918382   0.13516691    11384.531     1000 
 2648000   0.56956999   -1.8655356   0.85350063    -1.012035   0.12681903    11556.667     1000 
 2650000   0.54221641   -1.8293718   0.81251129   -1.0168606   0.11906814    11504.418     1000 
 2652000   0.54115128   -1.8309301   0.81091519   -1.0200149   0.12901825    11475.972     1000 
 2654000      0.52725    -1.804115   0.79008413   -1.0140309   0.13661151    11277.148     1000 
 2656000   0.53106692   -1.7623541   0.79580377   -0.9665503   0.13555169    11423.997     1000 
 2658000   0.53090816   -1.8144268   0.79556588    -1.018861   0.12708897     11376.82     1000 
 2660000   0.52378757   -1.7913779   0.78489567   -1.0064823   0.13636906    11393.287     1000 
 2662000   0.53038001   -1.7698995   0.79477445  -0.97512508   0.13592659    11253.374     1000 
 2664000    0.5474529   -1.8774691   0.82035817    -1.057111   0.11081164    11723.844     1000 
 2666000   0.54014373    -1.814355   0.80940537   -1.0049496   0.13118519    11317.102     1000 
 2668000   0.53055571   -1.8378483   0.79503774   -1.0428106   0.13085842    11588.005     1000 
 2670000   0.54764814   -1.8368605   0.82065074   -1.0162097   0.12622402    11432.468     1000 
 2672000   0.55516464   -1.8236319   0.83191421  -0.99171772   0.12901536    11409.178     1000 
 2674000   0.53899003   -1.8603556   0.80767656    -1.052679   0.12384258    11458.208     1000 
 2676000   0.54528089   -1.8218808   0.81710341   -1.0047774    0.1363087     11313.48     1000 
 2678000   0.54755433   -1.8233976   0.82051016   -1.0028874   0.12142441    11462.596     1000 
 2680000   0.50774662    -1.815868   0.76085831   -1.0550097   0.12799427    11390.245     1000 
 2682000   0.53153053   -1.8746364   0.79649849   -1.0781379   0.12792733    11477.087     1000 
 2684000   0.55077957   -1.8394663   0.82534319   -1.0141231    0.1386074    11343.097     1000 
 2686000   0.54219412   -1.7731972   0.81247789  -0.96071934   0.13217198    11418.326     1000 
 2688000   0.50761921   -1.8124918   0.76066739   -1.0518245   0.13132245     11384.94     1000 
 2690000   0.54317728   -1.7964777   0.81395116  -0.98252651   0.13555676    11410.858     1000 
 2692000   0.53817899   -1.8735016   0.80646121   -1.0670404   0.11736544    11506.184     1000 
 2694000   0.53045386     -1.85104    0.7948851   -1.0561549   0.12262494    11530.832     1000 
 2696000   0.54038783   -1.8776491   0.80977116   -1.0678779   0.11546723    11532.525     1000 
 2698000   0.55661733   -1.8464995   0.83409107   -1.0124084   0.12243411    11471.815     1000 
 2700000   0.57407115   -1.8006587   0.86024561  -0.94041309   0.13509975    11514.116     1000 
 2702000   0.55445698   -1.8215615   0.83085379  -0.99070775   0.14043606    11418.672     1000 
 2704000   0.55321469   -1.8062954   0.82899222  -0.97730323   0.12162196    11535.187     1000 
 2706000   0.55272843   -1.8476708   0.82826355   -1.0194073   0.13016656    11590.617     1000 
 2708000   0.52783702   -1.8023554   0.79096377   -1.0113916   0.14195757    11390.929     1000 
 2710000   0.54430892   -1.7809055   0.81564691  -0.96525863   0.12978014     11328.71     1000 
 2712000   0.52469691   -1.8270699   0.78625832   -1.0408115   0.13823879    11421.238     1000 
 2714000   0.52759859   -1.8046386   0.79060649   -1.0140321   0.12871183    11411.854     1000 
 2716000   0.54411649   -1.8296394   0.81535856   -1.0142809   0.13066204    11410.743     1000 
 2718000   0.54330999   -1.8148458   0.81415002   -1.0006958   0.13006617    11332.486     1000 
 2720000   0.55107061   -1.8171865    0.8257793  -0.99140716   0.13137184    11275.574     1000 
 2722000   0.52517099    -1.828874   0.78696873   -1.0419052   0.13959629    11258.089     1000 
 2724000   0.54525594   -1.7918115   0.81706602  -0.97474546   0.12571427    11560.252     1000 
 2726000   0.52561219    -1.808826   0.78762987   -1.0211961   0.13746824    11367.176     1000 
 2728000      0.52252   -1.8119282   0.78299622    -1.028932   0.12940569    11417.626     1000 
 2730000   0.52802325   -1.8388388   0.79124283    -1.047596   0.13196887    11387.397     1000 
 2732000    0.5361967     -1.87116   0.80349076   -1.0676692   0.12809202    11558.495     1000 
 2734000   0.53785107   -1.7870477   0.80596983  -0.98107791   0.12466752    11417.455     1000 
 2736000   0.53271779   -1.8276448   0.79827762   -1.0293672   0.13219424    11350.181     1000 
 2738000    0.5512956   -1.7311955   0.82611646  -0.90507906   0.11971707     11332.03     1000 
 2740000   0.57128317   -1.7924728   0.85606782  -0.93640497   0.13068014    11477.128     1000 
 2742000    0.5505948   -1.7938815   0.82506631  -0.96881517   0.12512312    11581.237     1000 
 2744000   0.55950943   -1.8028895   0.83842488  -0.96446458   0.14613614    11270.362     1000 
 2746000   0.55690031   -1.8418111   0.83451512   -1.0072959   0.12489037    11467.984     1000 
 2748000   0.55443429   -1.8138773   0.83081979  -0.98305756   0.12742615    11347.529     1000 
 2750000   0.53039618   -1.8422087   0.79479867     -1.04741   0.12168712    11533.555     1000 
 2752000   0.51306036   -1.8016293   0.76882095   -1.0328084   0.13171522    11332.178     1000 
 2754000   0.52253133   -1.7893425    0.7830132   -1.0063293   0.13780847    11329.915     1000 
 2756000   0.52835658   -1.7835673   0.79174234  -0.99182494   0.12867531    11427.287     1000 
 2758000   0.52188696   -1.7922198    0.7820476   -1.0101722   0.12804028    11545.936     1000 
 2760000   0.54296144   -1.7860777   0.81362771  -0.97245002   0.13463364    11407.535     1000 
 2762000   0.53454842     -1.79436    0.8010208  -0.99333921   0.13268309     11382.45     1000 
 2764000   0.54517835   -1.8002505   0.81694976  -0.98330075   0.13031466    11505.144     1000 
 2766000   0.53140038   -1.7590601   0.79630347  -0.96275658   0.14062953    11385.632     1000 
 2768000   0.55538995   -1.8130205   0.83225184  -0.98076867   0.12923129    11412.876     1000 
 2770000   0.55094054   -1.7782265    0.8255844  -0.95264209   0.12772716    11440.889     1000 
 2772000    0.5382324   -1.8025958   0.80654126  -0.99605456   0.14397165    11208.432     1000 
 2774000   0.53853445   -1.7957796   0.80699387  -0.98878578    0.1403198    11316.598     1000 
 2776000   0.54480221   -1.8389856   0.81638612   -1.0225994   0.12918124    11539.636     1000 
 2778000    0.4976975   -1.8051196    0.7457997   -1.0593199    0.1270062    11364.273     1000 
 2780000   0.54444527   -1.7609857   0.81585123  -0.94513445   0.13117796    11262.196     1000 
 2782000   0.52455509    -1.815183   0.78604581   -1.0291372   0.12596957    11417.975     1000 
 2784000   0.53273946   -1.7964267   0.79831007  -0.99811665   0.14064068    11335.711     1000 
 2786000   0.53550493   -1.8152227   0.80245413   -1.0127685   0.14244519    11316.702     1000 
 2788000   0.55366593   -1.8538335    0.8296684   -1.0241651   0.13230871    11429.985     1000 
 2790000   0.52882487    -1.783865   0.79244406  -0.99142094   0.12929849    11381.029     1000 
 2792000   0.53963117   -1.8194064    0.8086373   -1.0107691   0.11968094    11591.159     1000 
 2794000   0.51592346   -1.8259691    0.7731113   -1.0528578   0.13286277    11326.725     1000 
 2796000   0.56002972    -1.829255   0.83920453  -0.99005048   0.13973852     11261.17     1000 
 2798000    0.5135423    -1.793147   0.76954314   -1.0236039   0.12948365    11365.503     1000 
 2800000   0.54097239   -1.8003021   0.81064713  -0.98965497   0.13579013    11371.764     1000 
 2802000   0.53897929   -1.8483474   0.80766046    -1.040687    0.1326189    11445.128     1000 
 2804000   0.53198887   -1.7739654   0.79718533  -0.97678009   0.12124827    11485.747     1000 
 2806000   0.52245964   -1.8337735   0.78290577   -1.0508677   0.12478445    11522.844     1000 
 2808000   0.51125162   -1.7976551   0.76611056   -1.0315445     0.123192    11435.415     1000 
 2810000   0.57731638   -1.8189286    0.8651086  -0.95382004   0.14331566    11275.284     1000 
 2812000   0.54060609    -1.869132   0.81009823   -1.0590337   0.11836645    11680.372     1000 
 2814000   0.54271118   -1.8035453   0.81325271  -0.99029257   0.13579299    11365.535     1000 
 2816000   0.54779052    -1.816409   0.82086409  -0.99554488   0.12063426    11465.531     1000 
 2818000   0.53251457   -1.8118221   0.79797308    -1.013849   0.13584887    11420.063     1000 
 2820000   0.55165316   -1.8282931   0.82665226   -1.0016408   0.13111154    11630.765     1000 
 2822000   0.53977591   -1.7329757    0.8088542  -0.92412154   0.15596465    11146.864     1000 
 2824000   0.55376622   -1.8656113   0.82981868   -1.0357926   0.12666424    11496.811     1000 
 2826000   0.54711328    -1.820424   0.81984925   -1.0005747   0.14373412    11303.433     1000 
 2828000   0.54293163   -1.8462242   0.81358305   -1.0326412   0.14593623    11334.932     1000 
 2830000   0.51974016   -1.8033487   0.77883063   -1.0245181   0.12561669    11491.605     1000 
 2832000   0.54698559   -1.8227613   0.81965791   -1.0031034   0.12693756    11463.022     1000 
 2834000   0.56267593   -1.8267737   0.84316989  -0.98360384   0.12509906    11622.881     1000 
 2836000   0.53503416   -1.8029347   0.80174869    -1.001186   0.12879667    11341.166     1000 
 2838000   0.52816584   -1.7820956    0.7914565  -0.99063911   0.13692353    11481.739     1000 
 2840000    0.5574278   -1.7904716   0.83530557    -0.955166    0.1298487     11397.14     1000 
 2842000   0.53088232   -1.7883235   0.79552716  -0.99279637   0.12953105    11299.216     1000 
 2844000   0.53407315   -1.7893322   0.80030862  -0.98902353   0.13067557    11362.978     1000 
 2846000   0.54388391   -1.7931252   0.81501003  -0.97811515   0.11954408    11598.051     1000 
 2848000   0.53942422   -1.7878626   0.80832719  -0.97953544   0.12909513    11393.688     1000 
 2850000   0.52471419   -1.7957565   0.78628421   -1.0094723   0.13065914    11435.593     1000 
 2852000   0.53358441   -1.7733747   0.79957624  -0.97379843   0.13053211    11418.645     1000 
 2854000   0.52072984   -1.8232575   0.78031366   -1.0429439   0.12733949    11431.798     1000 
 2856000   0.55321025   -1.8556501   0.82898556   -1.0266645   0.13257159    11373.895     1000 
 2858000   0.54354526   -1.8052158   0.81450257  -0.99071328   0.12931266    11339.174     1000 
 2860000   0.53407855   -1.7830564    0.8003167  -0.98273974   0.12710562     11382.57     1000 
 2862000   0.53688871   -1.8444068   0.80452773    -1.039879    0.1334054    11263.616     1000 
 2864000   0.52142245   -1.7703042   0.78135154  -0.98895263   0.12824912     11403.09     1000 
 2866000   0.56034811   -1.7647706   0.83968164    -0.925089   0.14356238    11274.866     1000 
 2868000   0.55286694   -1.7893786   0.82847111   -0.9609075    0.1393856    11306.832     1000 
 2870000    0.5446403   -1.7861625   0.81614349  -0.97001903   0.12445168    11544.811     1000 
 2872000   0.53168802   -1.7627847    0.7967345  -0.96605022   0.13978584    11180.448     1000 
 2874000   0.52532323   -1.7869374   0.78719686  -0.99974056   0.13351763    11290.206     1000 
 2876000   0.54444265   -1.8163021    0.8158473   -1.0004548   0.13247832    11415.964     1000 
 2878000   0.55638472   -1.7737158    0.8337425  -0.93997329   0.13398945    11433.137     1000 
 2880000   0.54603511   -1.7654784   0.81823361  -0.94724475   0.14619207    11367.307     1000 
 2882000   0.55656875   -1.8363396   0.83401828   -1.0023214   0.12030148    11536.441     1000 
 2884000   0.53801864   -1.8056938   0.80622094  -0.99947286    0.1398837    11410.061     1000 
 2886000   0.55799116   -1.7825425   0.83614976  -0.94639271   0.13183739    11437.923     1000 
 2888000   0.52944586   -1.8462044   0.79337462   -1.0528297   0.13292187    11438.586     1000 
 2890000   0.53775195   -1.8476202   0.80582129   -1.0417989   0.13206008    11388.773     1000 
 2892000   0.53438782   -1.8094156   0.80078015   -1.0086354   0.12459527    11554.974     1000 
 2894000   0.53052533   -1.7831884   0.79499221  -0.98819618   0.13722824    11341.954     1000 
 2896000   0.54468203   -1.8321189   0.81620603   -1.0159128    0.1247501    11497.423     1000 
 2898000   0.55179617   -1.7916714   0.82686656  -0.96480482    0.1315086    11440.668     1000 
 2900000   0.52868051   -1.7767079   0.79222774  -0.98448017   0.13006905    11300.435     1000 
 2902000   0.56042316   -1.7721608   0.83979411  -0.93236666   0.12155628    11425.532     1000 
 2904000   0.52631382   -1.7586486   0.78868126  -0.96996729   0.12274338    11427.222     1000 
 2906000    0.5452659   -1.7877216   0.81708096  -0.97064067   0.14008556    11414.481     1000 
 2908000   0.55816414   -1.8334959   0.83640896  -0.99708694    0.1283127     11482.22     1000 
 2910000   0.52662716   -1.7651602    0.7891508  -0.97600941   0.12513096    11574.884     1000 
 2912000   0.51051987   -1.8281034   0.76501403   -1.0630894   0.11902484    11518.028     1000 
 2914000   0.56702881   -1.7874547   0.84969267  -0.93776204   0.12062193    11447.115     1000 
 2916000   0.55135566   -1.8195892   0.82620646  -0.99338278   0.13119286    11346.862     1000 
 2918000   0.55350791   -1.8067909   0.82943161  -0.97735924   0.13596057    11398.145     1000 
 2920000   0.53972813   -1.7910435    0.8087826  -0.98226095   0.14392247    11284.771     1000 
 2922000   0.54719868   -1.7958244   0.81997722  -0.97584714   0.12730526    11559.351     1000 
 2924000   0.54851093   -1.7789545   0.82194364  -0.95701089   0.12899219    11425.704     1000 
 2926000    0.5308112   -1.7860615   0.79542058  -0.99064087   0.14170294    11233.363     1000 
 2928000   0.54113574   -1.8493934   0.81089191   -1.0385015   0.12662978    11344.817     1000 
 2930000   0.52762104   -1.8616601   0.79064013   -1.0710199   0.11502014    11631.534     1000 
 2932000   0.54782157   -1.8571267   0.82091062    -1.036216   0.12762178    11482.297     1000 
 2934000   0.54452955   -1.8328912   0.81597753   -1.0169137   0.13508254    11314.852     1000 
 2936000   0.52025842   -1.7545449   0.77960724  -0.97493766   0.13101359    11184.737     1000 
 2938000   0.52825014   -1.8012075   0.79158283   -1.0096247   0.13522919    11381.217     1000 
 2940000   0.52048571   -1.7945534   0.77994783   -1.0146056   0.12913009    11433.419     1000 
 2942000   0.55147348    -1.853475     0.826383    -1.027092   0.13381739    11369.363     1000 
 2944000   0.52072413   -1.7623275   0.78030511  -0.98202235    0.1293852    11504.935     1000 
 2946000   0.53996107   -1.7673643   0.80913166  -0.95823264   0.12864105    11492.583     1000 
 2948000   0.52602312   -1.7692169   0.78824564  -0.98097128   0.13171485    11407.474     1000 
 2950000   0.56067079   -1.7763804   0.84016518  -0.93621519   0.13302129    11419.419     1000 
 2952000   0.53072852   -1.7807363   0.79529669  -0.98543962   0.12679088    11549.847     1000 
 2954000   0.52851013   -1.8067775   0.79197243   -1.0148051   0.12682284    11610.515     1000 
 2956000   0.54922958   -1.7930244   0.82302053  -0.97000384   0.12723878    11474.299     1000 
 2958000    0.5222886   -1.7977728   0.78264946   -1.0151233   0.11456801    11507.332     1000 
 2960000   0.52573941   -1.7732129   0.78782051  -0.98539239   0.13965083    11315.836     1000 
 2962000   0.54748222   -1.8124249   0.82040211  -0.99202282   0.12513705    11328.282     1000 
 2964000   0.51985126   -1.8093703   0.77899712   -1.0303732   0.13182805    11322.946     1000 
 2966000   0.53064049   -1.8136051   0.79516477   -1.0184403      0.11717    11503.254     1000 
 2968000   0.54247797   -1.8164974   0.81290324   -1.0035942   0.12853569    11277.356     1000 
 2970000   0.56226062   -1.8262029   0.84254754  -0.98365537   0.12938407    11515.667     1000 
 2972000    0.5319957   -1.7818387   0.79719556  -0.98464316   0.12502133    11458.265     1000 
 2974000   0.54666604   -1.7545246   0.81917907  -0.93534551   0.14909204    11206.454     1000 
 2976000   0.56620399   -1.7966392   0.84845668  -0.94818249   0.13184642     11337.62     1000 
 2978000    0.5577979   -1.7546047   0.83586015  -0.91874456   0.13735714     11233.19     1000 
 2980000   0.53209929   -1.8077186   0.79735078   -1.0103679   0.12097577    11399.644     1000 
 2982000   0.55496097   -1.8223002   0.83160901  -0.99069121   0.11815207     11600.24     1000 
 2984000   0.52484914   -1.7730147   0.78648644  -0.98652824   0.12413766    11529.808     1000 
 2986000   0.56703687   -1.8011442   0.84970475  -0.95143944   0.12854597    11490.076     1000 
 2988000   0.53817295   -1.8145714   0.80645216   -1.0081192   0.12904511    11533.705     1000 
 2990000   0.51726703   -1.7590427   0.77512465    -0.983918   0.12638838    11480.658     1000 
 2992000   0.54585448   -1.8405781   0.81796294   -1.0226151   0.12969385    11438.564     1000 
 2994000   0.51879103   -1.8479071   0.77740835   -1.0704987   0.13811149    11367.187     1000 
 2996000   0.54265896   -1.8237904   0.81317445    -1.010616   0.12038043    11635.091     1000 
 2998000   0.53010601    -1.810282   0.79436385   -1.0159182   0.12955967    11466.574     1000 
 3000000    0.5238039   -1.8243476   0.78492014   -1.0394275   0.13620692    11386.857     1000 
Loop time of 10825.3 on 1 procs for 3000000 steps with 1000 atoms

Performance: 119719.308 tau/day, 277.128 timesteps/s
100.0% CPU use with 1 MPI tasks x 1 OpenMP threads

MPI task timing breakdown:
Section |  min time  |  avg time  |  max time  |%varavg| %total
---------------------------------------------------------------
Pair    | 9746.2     | 9746.2     | 9746.2     |   0.0 | 90.03
Neigh   | 709.54     | 709.54     | 709.54     |   0.0 |  6.55
Comm    | 127.55     | 127.55     | 127.55     |   0.0 |  1.18
Output  | 0.054215   | 0.054215   | 0.054215   |   0.0 |  0.00
Modify  | 218.8      | 218.8      | 218.8      |   0.0 |  2.02
Other   |            | 23.15      |            |       |  0.21

Nlocal:        1000.00 ave        1000 max        1000 min
Histogram: 1 0 0 0 0 0 0 0 0 0
Nghost:        4296.00 ave        4296 max        4296 min
Histogram: 1 0 0 0 0 0 0 0 0 0
Neighs:        104274.0 ave      104274 max      104274 min
Histogram: 1 0 0 0 0 0 0 0 0 0

Total # of neighbors = 104274
Ave neighs/atom = 104.27400
Neighbor list builds = 150000
Dangerous builds not checked

Total wall time: 3:00:25
