LAMMPS (29 Sep 2021 - Update 2)
OMP_NUM_THREADS environment is not set. Defaulting to 1 thread. (src/comm.cpp:98)
  using 1 OpenMP thread(s) per MPI task
# ----------------------- Inicialização -----------------------

units			lj
atom_style 		atomic
dimension 		3
boundary 		p p p

# -------------------- Criação dos Átomos ---------------------

read_data 		topologia.txt
Reading data file ...
  orthogonal box = (0.0000000 0.0000000 0.0000000) to (21.540000 21.540000 21.540000)
  1 by 1 by 1 MPI processor grid
  reading atoms ...
  1000 atoms
  read_data CPU = 0.002 seconds

velocity 		all create ${temp} 87287 rot yes dist gaussian
velocity 		all create 0.59 87287 rot yes dist gaussian

# ------------------ Interação Interatômica -------------------

pair_style		table linear 1600
pair_coeff		1 1 force.table AA 8.0
WARNING: 3 of 1600 force values in table AA are inconsistent with -dE/dr.
WARNING:  Should only be flagged at inflection points (src/pair_table.cpp:465)
pair_coeff		1 2 force.table AB 8.0
WARNING: 1 of 1600 force values in table AB are inconsistent with -dE/dr.
WARNING:  Should only be flagged at inflection points (src/pair_table.cpp:465)
pair_coeff		2 2 force.table BB 8.0
pair_write		1 1 1600 r 0.008 8.0 table.check AA
Appending to table file table.check with DATE: 2023-07-05
Neighbor list info ...
  update every 1 steps, delay 10 steps, check yes
  max neighbors/atom: 2000, page size: 100000
  master list distance cutoff = 8.3
  ghost atom cutoff = 8.3
  binsize = 4.15, bins = 6 6 6
  1 neighbor lists, perpetual/occasional/extra = 1 0 0
  (1) pair table, perpetual
      attributes: half, newton on
      pair build: half/bin/atomonly/newton
      stencil: half/bin/3d
      bin: standard
pair_write		1 2 1600 r 0.008 8.0 table.check AB
Appending to table file table.check with DATE: 2023-07-05
pair_write		2 2 1600 r 0.008 8.0 table.check BB
Appending to table file table.check with DATE: 2023-07-05

neighbor 		0.3 bin
neigh_modify		every 20 delay 0 check no

# ------------------------- Ensemble --------------------------------------

fix 1			all npt temp ${temp} ${temp} 0.5 iso ${press} ${press} 5
fix 1			all npt temp 0.59 ${temp} 0.5 iso ${press} ${press} 5
fix 1			all npt temp 0.59 0.59 0.5 iso ${press} ${press} 5
fix 1			all npt temp 0.59 0.59 0.5 iso 0.13 ${press} 5
fix 1			all npt temp 0.59 0.59 0.5 iso 0.13 0.13 5

# ---------------------- Função de Distribuição Radial -----------------------

#compute RDF 		all rdf 2000 1 1 1 2 2 2
#fix 2 			all ave/time 1 2000 2000 c_RDF[*] file rdf.data mode vector

# ------------------------- Execução ---------------------------

timestep 		0.005
thermo_style		custom step temp pe ke etotal press vol atoms
thermo			2000
run			3000000
Per MPI rank memory allocation (min/avg/max) = 3.125 | 3.125 | 3.125 Mbytes
Step Temp PotEng KinEng TotEng Press Volume Atoms 
       0         0.59  -0.99524352     0.884115  -0.11112852   0.12714995    9993.9483     1000 
    2000   0.58506442   -1.7104424   0.87671904  -0.83372336    0.1312407     11416.41     1000 
    4000   0.57160348    -1.695235   0.85654782  -0.83868719   0.12975016    11561.317     1000 
    6000    0.5874012   -1.6437403   0.88022069  -0.76351966    0.1320311    11383.058     1000 
    8000   0.58626547   -1.6909907   0.87851881  -0.81247186    0.1389106    11391.851     1000 
   10000   0.57941921   -1.6607203   0.86825968  -0.79246065   0.12824873    11474.572     1000 
   12000   0.58035148   -1.7058941   0.86965669  -0.83623742   0.13212063    11636.808     1000 
   14000   0.60949474   -1.7119895   0.91332787  -0.79866167    0.1215575    11593.736     1000 
   16000   0.59344005   -1.7591554   0.88926991  -0.86988553   0.12982065    11584.475     1000 
   18000   0.60010175   -1.6507101   0.89925247  -0.75145763   0.12836917    11416.974     1000 
   20000    0.5647917   -1.7244377   0.84634036  -0.87809738   0.12006699    11553.035     1000 
   22000   0.60416417   -1.6900663   0.90534001  -0.78472632   0.13413589    11574.714     1000 
   24000   0.58143358   -1.7137603   0.87127821  -0.84248214   0.12300109    11508.683     1000 
   26000   0.60272986   -1.5995546    0.9031907  -0.69636392   0.14511824    11342.313     1000 
   28000    0.6059689    -1.696609   0.90804439   -0.7885646    0.1247174    11538.054     1000 
   30000   0.58150681   -1.6692278   0.87138796  -0.79783982   0.12108714    11438.753     1000 
   32000   0.57667276   -1.6748937   0.86414413  -0.81074961   0.13608041    11308.645     1000 
   34000   0.56963982   -1.6956264   0.85360527  -0.84202108   0.12963877     11585.25     1000 
   36000   0.61971112   -1.6889132   0.92863711  -0.76027611   0.14158205     11321.49     1000 
   38000   0.57219415   -1.6361716   0.85743293   -0.7787387   0.12910929    11422.102     1000 
   40000   0.59129169   -1.7268049   0.88605059  -0.84075427   0.12433205    11525.021     1000 
   42000   0.57408174   -1.6899605   0.86026149  -0.82969899   0.11470988    11718.336     1000 
   44000   0.59393432   -1.6691983   0.89001058   -0.7791877   0.13240901    11435.817     1000 
   46000   0.59777016   -1.6911002   0.89575858  -0.79534157   0.14212406    11337.972     1000 
   48000   0.57962119   -1.7157602   0.86856236  -0.84719789   0.12228504    11588.366     1000 
   50000   0.58402978   -1.6697006   0.87516862  -0.79453197   0.12734556    11417.705     1000 
   52000   0.60854509   -1.6588791   0.91190482  -0.74697431    0.1362604    11433.637     1000 
   54000   0.61448562   -1.6923984    0.9208067  -0.77159169   0.13941868    11362.287     1000 
   56000   0.56010755   -1.6998402   0.83932116  -0.86051901   0.12750281    11453.911     1000 
   58000   0.60225525   -1.7086383    0.9024795  -0.80615876   0.13186133    11703.724     1000 
   60000    0.5837119   -1.7090452   0.87469229  -0.83435293    0.1263099    11642.281     1000 
   62000   0.56620473   -1.7264483   0.84845779  -0.87799047   0.12448516    11523.239     1000 
   64000   0.58440334   -1.6686602   0.87572841  -0.79293182   0.12698081     11478.08     1000 
   66000   0.58334259     -1.60043   0.87413886  -0.72629115   0.12954723    11491.824     1000 
   68000   0.61442528   -1.7235482   0.92071628  -0.80283195    0.1038601    11817.245     1000 
   70000   0.57689887   -1.6618535   0.86448296  -0.79737051    0.1270279    11496.828     1000 
   72000   0.58932654   -1.6571959   0.88310582  -0.77409007   0.14148958     11330.71     1000 
   74000    0.5614917   -1.6765577   0.84139531  -0.83516238   0.13774838    11444.513     1000 
   76000   0.60891604   -1.6875747   0.91246068  -0.77511398   0.12723904    11439.522     1000 
   78000   0.56502799   -1.7171085   0.84669444  -0.87041402   0.12992783    11493.344     1000 
   80000      0.59457   -1.7099066   0.89096314  -0.81894343   0.12717816     11502.17     1000 
   82000   0.59886527   -1.7494566    0.8973996  -0.85205705   0.12926494    11536.533     1000 
   84000   0.59701197   -1.7547777   0.89462244  -0.86015523   0.12647692    11617.581     1000 
   86000   0.59399714   -1.6619131   0.89010472  -0.77180837   0.13577152    11511.869     1000 
   88000   0.55945944   -1.7149588   0.83834997  -0.87660885   0.11883978     11651.31     1000 
   90000   0.59326419   -1.6633475   0.88900639  -0.77434114   0.13633652    11361.089     1000 
   92000    0.5921094   -1.6719932   0.88727594  -0.78471723    0.1254629     11565.31     1000 
   94000   0.60237861   -1.7387893   0.90266435  -0.83612496   0.12469963    11600.776     1000 
   96000   0.60170299    -1.690275   0.90165192  -0.78862309    0.1205102    11571.362     1000 
   98000   0.57072992    -1.740473   0.85523879  -0.88523424   0.12929382    11336.237     1000 
  100000   0.58246313   -1.7154711     0.872821  -0.84265008   0.13623962    11360.254     1000 
  102000   0.57198126   -1.7132129   0.85711392  -0.85609898   0.12046094    11524.193     1000 
  104000   0.58330346   -1.6960452   0.87408023  -0.82196496   0.11978788    11464.933     1000 
  106000   0.59296657   -1.6979157    0.8885604  -0.80935529   0.12604232    11544.443     1000 
  108000   0.59935077   -1.7169811   0.89812713    -0.818854   0.13463147    11439.107     1000 
  110000   0.60675761   -1.6724973   0.90922627  -0.76327099   0.13516276    11529.373     1000 
  112000   0.59127197   -1.7341373   0.88602105   -0.8481163   0.12185407    11699.437     1000 
  114000    0.5847197   -1.7380001   0.87620246  -0.86179759   0.13274971    11514.516     1000 
  116000   0.57956526    -1.697014   0.86847855  -0.82853545   0.12146061    11525.692     1000 
  118000   0.58122054    -1.661324   0.87095897  -0.79036505    0.1457554    11159.271     1000 
  120000   0.61278281   -1.7284577   0.91825505   -0.8102027   0.13053404    11511.675     1000 
  122000   0.59177987   -1.6754534   0.88678214  -0.78867131   0.14157812    11441.363     1000 
  124000   0.61328726   -1.7296355   0.91901096   -0.8106245   0.12431107    11567.832     1000 
  126000   0.58354091   -1.6687674   0.87443606  -0.79433134   0.13933153    11443.068     1000 
  128000    0.5853166   -1.6748681   0.87709693  -0.79777121   0.13594343     11490.88     1000 
  130000   0.57978017   -1.6664904   0.86880059  -0.79768984   0.12802772    11575.315     1000 
  132000   0.59279862   -1.6899303   0.88830874  -0.80162159   0.13022971    11451.286     1000 
  134000   0.58046923   -1.6455917   0.86983314   -0.7757586   0.12999909    11349.804     1000 
  136000   0.58771847   -1.6755235   0.88069613  -0.79482738   0.11972922    11634.794     1000 
  138000    0.6081557   -1.6880906   0.91132132  -0.77676928   0.15035067    11220.304     1000 
  140000   0.59076462   -1.7090034   0.88526079  -0.82374259   0.13034575    11613.516     1000 
  142000   0.57570711    -1.721386    0.8626971  -0.85868886    0.1197887    11767.195     1000 
  144000   0.60254214   -1.6937012    0.9029094  -0.79079181    0.1289347    11475.558     1000 
  146000   0.59576373   -1.7066199   0.89275194    -0.813868   0.12152278     11600.26     1000 
  148000   0.59339944   -1.7134897   0.88920906  -0.82428067   0.12695518    11641.129     1000 
  150000   0.55837735   -1.6679551   0.83672845  -0.83122669   0.14073328    11312.044     1000 
  152000   0.59229812   -1.6808003   0.88755873  -0.79324159    0.1316454     11524.06     1000 
  154000   0.58432458   -1.6488619   0.87561038  -0.77325154   0.12269787    11447.486     1000 
  156000   0.60852718   -1.7053868   0.91187798  -0.79350879    0.1348839    11434.944     1000 
  158000   0.59384049   -1.6454967   0.88986997  -0.75562676   0.12806841    11549.831     1000 
  160000   0.58578648   -1.6717486   0.87780105  -0.79394757   0.12013231    11514.658     1000 
  162000   0.61378942   -1.6651571   0.91976345  -0.74539366   0.13011866     11408.34     1000 
  164000   0.60156657   -1.7170761    0.9014475  -0.81562864   0.13321172    11452.221     1000 
  166000    0.5864027   -1.7207222   0.87872444  -0.84199774   0.11787821    11694.209     1000 
  168000   0.57954603   -1.7277197   0.86844973  -0.85926999   0.12394063    11441.344     1000 
  170000   0.57295423   -1.7224655   0.85857192  -0.86389354   0.13012171    11561.163     1000 
  172000   0.57325531    -1.698105   0.85902309  -0.83908193   0.13240621    11447.812     1000 
  174000   0.63547207   -1.7434462    0.9522549  -0.79119126   0.13674019    11501.733     1000 
  176000   0.60059421   -1.6864655   0.89999042  -0.78647506   0.13026903    11550.587     1000 
  178000   0.57966718   -1.6784923   0.86863128  -0.80986102   0.12827175    11410.057     1000 
  180000    0.5859159   -1.6495807   0.87799498  -0.77158571   0.12237185    11572.582     1000 
  182000   0.61400739   -1.7192608   0.92009007  -0.79917075   0.12735226      11443.1     1000 
  184000   0.57961312   -1.6939757   0.86855026  -0.82542539    0.1241821    11430.685     1000 
  186000   0.58944716   -1.6988938   0.88328657  -0.81560719   0.14107352    11501.133     1000 
  188000   0.58989725   -1.6661909   0.88396104  -0.78222985   0.13353654     11379.35     1000 
  190000   0.58832273   -1.7203921   0.88160161  -0.83879046   0.13333661    11529.208     1000 
  192000   0.57111973   -1.7051132   0.85582291  -0.84929032   0.13017835    11400.949     1000 
  194000   0.57025484   -1.6849094   0.85452688  -0.83038252    0.1402584    11380.407     1000 
  196000   0.59715663   -1.6732991   0.89483921  -0.77845987   0.14437553    11418.165     1000 
  198000    0.6208175   -1.6673117   0.93029502  -0.73701664   0.13497151     11386.73     1000 
  200000   0.59665909   -1.7147595   0.89409364  -0.82066584   0.13324052    11443.696     1000 
  202000   0.59985505   -1.6861731   0.89888279  -0.78729026   0.13316688      11401.9     1000 
  204000   0.60292437   -1.7207553   0.90348216   -0.8172731    0.1260097    11559.611     1000 
  206000   0.58978529   -1.6946174   0.88379325   -0.8108241    0.1363462    11541.105     1000 
  208000   0.59825631   -1.6541936   0.89648707  -0.75770651   0.13625055    11224.709     1000 
  210000   0.57563925   -1.6955493   0.86259542  -0.83295392    0.1258045    11505.306     1000 
  212000   0.60955494   -1.7115793   0.91341807  -0.79816124    0.1306266    11471.653     1000 
  214000   0.58730147   -1.6600944   0.88007125  -0.78002313   0.12709789    11548.244     1000 
  216000   0.57835985   -1.7168027   0.86667223  -0.85013048   0.12358806    11619.077     1000 
  218000   0.60160694    -1.643899     0.901508  -0.74239099    0.1197933     11708.71     1000 
  220000   0.60095024   -1.6829607   0.90052393  -0.78243675   0.13664389    11416.487     1000 
  222000   0.58118674    -1.683754   0.87090833  -0.81284566    0.1259546    11602.252     1000 
  224000   0.61018955   -1.6406341   0.91436904  -0.72626507   0.12604734    11414.925     1000 
  226000   0.58975457   -1.7086389   0.88374723  -0.82489169   0.12413115    11638.122     1000 
  228000   0.58960039   -1.7233057   0.88351618  -0.83978948   0.12944079    11614.755     1000 
  230000   0.57273794   -1.6729413    0.8582478   -0.8146935   0.12918373    11451.019     1000 
  232000   0.58184823   -1.6736114   0.87189958  -0.80171185    0.1204972    11517.265     1000 
  234000   0.58451465   -1.6445794   0.87589521  -0.76868418   0.12665463    11546.051     1000 
  236000   0.60827407   -1.6671685   0.91149869  -0.75566977   0.13794983     11340.19     1000 
  238000   0.59232853   -1.7124666   0.88760431  -0.82486228   0.12308802    11604.683     1000 
  240000   0.60122569   -1.6787403    0.9009367   -0.7778036   0.13317057    11395.392     1000 
  242000   0.57385079   -1.6697661   0.85991541  -0.80985072   0.12575757    11368.675     1000 
  244000   0.59121922   -1.7141838   0.88594201  -0.82824179   0.12993742    11504.898     1000 
  246000   0.57060575   -1.7186569   0.85505272  -0.86360422   0.12359199    11597.389     1000 
  248000   0.59742058   -1.6775353   0.89523474  -0.78230057   0.13103446    11405.263     1000 
  250000   0.60183621   -1.6646783   0.90185156  -0.76282674   0.11614829    11510.173     1000 
  252000   0.57937385   -1.7748511   0.86819171  -0.90665941   0.13424157    11465.918     1000 
  254000   0.62844004   -1.7124106   0.94171739  -0.77069318   0.13982974    11349.393     1000 
  256000   0.57419138   -1.6868636   0.86042578   -0.8264378   0.12575791     11615.52     1000 
  258000   0.57518618   -1.7110618   0.86191649  -0.84914533   0.12764025     11498.55     1000 
  260000   0.57522209   -1.6396203    0.8619703  -0.77764998   0.12337537    11551.655     1000 
  262000   0.55618812   -1.6829601    0.8334479  -0.84951217   0.12000786    11567.234     1000 
  264000   0.58108183   -1.6938892   0.87075112  -0.82313807   0.13023618    11375.734     1000 
  266000    0.5963521   -1.6721848   0.89363363  -0.77855115   0.13645263    11305.197     1000 
  268000   0.58535162   -1.7213813    0.8771494  -0.84423188   0.13550892    11363.453     1000 
  270000   0.62059433   -1.6815887    0.9299606  -0.75162808   0.12731801    11582.807     1000 
  272000    0.5891035   -1.6487611    0.8827716  -0.76598951   0.12999021     11528.82     1000 
  274000   0.59431556    -1.657381   0.89058187  -0.76679916   0.13771073    11487.819     1000 
  276000   0.57822641   -1.7015642   0.86647227  -0.83509189   0.12563521    11387.878     1000 
  278000   0.62130106   -1.6568214   0.93101963  -0.72580177   0.13010386    11541.274     1000 
  280000   0.57903685   -1.6810396   0.86768672  -0.81335291   0.12080952     11487.46     1000 
  282000   0.60517898   -1.6857128   0.90686071  -0.77885213    0.1301329    11474.679     1000 
  284000   0.60139932   -1.6874603   0.90119688  -0.78626339   0.13454671    11500.486     1000 
  286000   0.59092524    -1.714427   0.88550148  -0.82892553   0.13575083    11504.203     1000 
  288000   0.56436601   -1.6814886   0.84570246  -0.83578617   0.12839326    11372.295     1000 
  290000   0.57911711   -1.6438045   0.86780699   -0.7759975   0.12340479    11575.085     1000 
  292000   0.60616988   -1.7103318   0.90834556  -0.80198627   0.13548574    11463.376     1000 
  294000   0.57201275   -1.7050089   0.85716111   -0.8478478   0.11929644    11508.063     1000 
  296000   0.57422236    -1.694558   0.86047221  -0.83408579   0.11670197    11673.441     1000 
  298000   0.59934954   -1.6820769   0.89812529   -0.7839516   0.12976682    11442.002     1000 
  300000   0.59060755     -1.59423   0.88502542  -0.70920457    0.1280317    11445.036     1000 
  302000   0.57185694   -1.6899202   0.85692762   -0.8329926   0.14366577    11254.938     1000 
  304000   0.58234985   -1.6809168   0.87265124  -0.80826557   0.13941308     11350.43     1000 
  306000   0.57417125   -1.7025883   0.86039562  -0.84219268    0.1401568    11382.011     1000 
  308000   0.58187518   -1.7337135   0.87193996  -0.86177357   0.12565409     11508.42     1000 
  310000   0.57757909   -1.7394088   0.86550227  -0.87390651   0.12505086    11441.845     1000 
  312000    0.5896274   -1.7097103   0.88355666  -0.82615365   0.14161179    11358.986     1000 
  314000   0.64131899   -1.6887781   0.96101651  -0.72776163   0.14100845    11440.527     1000 
  316000   0.61146124   -1.6533128   0.91627467  -0.73703808   0.13469854    11401.089     1000 
  318000    0.5915341   -1.7102171   0.88641384  -0.82380329   0.12995386    11517.657     1000 
  320000    0.5734875    -1.668762   0.85937102  -0.80939102   0.13160067    11403.758     1000 
  322000   0.61237059   -1.7451871   0.91763732  -0.82754978   0.12503037    11540.899     1000 
  324000   0.57180494   -1.6555149    0.8568497  -0.79866517   0.13155348    11425.298     1000 
  326000    0.5561132   -1.6821857   0.83333562  -0.84885007   0.13712096    11413.524     1000 
  328000   0.61018884   -1.6545572   0.91436798  -0.74018919   0.11639105    11595.634     1000 
  330000   0.58621535   -1.6144848    0.8784437  -0.73604111   0.13946694    11381.477     1000 
  332000   0.60585033   -1.6664509   0.90786672  -0.75858423   0.12872392    11503.138     1000 
  334000   0.58375988   -1.6656818   0.87476418   -0.7909176   0.13035049    11462.811     1000 
  336000   0.59867923   -1.6216664   0.89712083  -0.72454561   0.12631534    11430.619     1000 
  338000   0.60852336   -1.7123544   0.91187226  -0.80048217   0.15281668    11371.902     1000 
  340000   0.56815024   -1.7350611   0.85137314  -0.88368799   0.12742458    11339.455     1000 
  342000   0.59479346   -1.6872948   0.89129799  -0.79599682    0.1177587    11736.673     1000 
  344000   0.57434631   -1.6656119   0.86065795  -0.80495394    0.1267291    11445.323     1000 
  346000   0.57600857   -1.7037609   0.86314885    -0.840612   0.12912682    11568.383     1000 
  348000   0.57671907   -1.6991856   0.86421353  -0.83497209   0.12888976    11497.966     1000 
  350000   0.59516209   -1.6756364   0.89185039  -0.78378603   0.12290427    11597.197     1000 
  352000   0.58701706   -1.7129811   0.87964507  -0.83333603   0.12597659    11552.342     1000 
  354000   0.55352794   -1.6566242   0.82946162  -0.82716261   0.12971349    11424.212     1000 
  356000   0.59012563   -1.6771399   0.88430326  -0.79283662   0.13849671    11379.394     1000 
  358000   0.58997155   -1.6645377   0.88407236  -0.78046533   0.14475698    11366.794     1000 
  360000   0.59392113   -1.7685007   0.88999082   -0.8785099   0.12325698    11601.192     1000 
  362000   0.59004683   -1.6318137   0.88418517  -0.74762854   0.14125644     11374.34     1000 
  364000   0.59694584   -1.6910579   0.89452334   -0.7965346     0.129346    11722.735     1000 
  366000   0.59475684   -1.7140077   0.89124312   -0.8227646   0.12517748    11576.699     1000 
  368000   0.61403287   -1.6589978   0.92012825  -0.73886958    0.1345639    11400.738     1000 
  370000   0.58696556   -1.6632391   0.87956789  -0.78367119   0.14183593    11393.235     1000 
  372000     0.582199    -1.689335   0.87242519  -0.81690983   0.13161134     11513.34     1000 
  374000   0.58536106   -1.6928855   0.87716355  -0.81572194   0.13375832    11239.902     1000 
  376000   0.60425326    -1.721613   0.90547351  -0.81613945   0.13284261    11562.179     1000 
  378000   0.61056725   -1.6896421   0.91493502  -0.77470711   0.14213791    11432.055     1000 
  380000    0.6045487   -1.6634624   0.90591622  -0.75754621    0.1374152    11437.728     1000 
  382000    0.6050315   -1.7060851    0.9066397  -0.79944543   0.14113404    11436.144     1000 
  384000   0.56580343   -1.6541824   0.84785645  -0.80632599   0.12338785     11514.87     1000 
  386000   0.59379965   -1.7074495   0.88980877  -0.81764071   0.14073865    11395.131     1000 
  388000   0.58160069   -1.6795516   0.87152863  -0.80802294   0.13308509    11325.951     1000 
  390000   0.60685101   -1.6983413   0.90936624  -0.78897505   0.12711605     11496.14     1000 
  392000   0.60804812    -1.685665   0.91116011  -0.77450488   0.13492152    11603.747     1000 
  394000   0.56544661   -1.7001504   0.84732175  -0.85282868   0.14319694    11415.141     1000 
  396000   0.58210124   -1.7355323    0.8722787  -0.86325362   0.12680623    11583.801     1000 
  398000   0.58555147   -1.6681581   0.87744888  -0.79070919   0.12958038    11425.579     1000 
  400000   0.57890038   -1.6909472   0.86748222  -0.82346499   0.12133373    11555.442     1000 
  402000   0.58264851   -1.7153523   0.87309879  -0.84225347    0.1250729    11744.709     1000 
  404000   0.61289974   -1.7516283   0.91843026  -0.83319802    0.1225684    11663.964     1000 
  406000    0.6004911   -1.7049803   0.89983592  -0.80514435   0.13317997    11659.921     1000 
  408000   0.60071812   -1.6720011    0.9001761  -0.77182502   0.13767988    11481.265     1000 
  410000   0.58095156    -1.611148   0.87055591  -0.74059212   0.14503698    11260.523     1000 
  412000   0.58543047   -1.6651028   0.87726756  -0.78783522   0.13341528    11386.312     1000 
  414000   0.61138537   -1.6714494   0.91616097  -0.75528848   0.13622031    11353.827     1000 
  416000   0.58335945   -1.7007434   0.87416413  -0.82657928   0.12673936    11438.865     1000 
  418000   0.55051036   -1.6619234   0.82493978  -0.83698364   0.14733931    11283.863     1000 
  420000   0.58838801   -1.6620799   0.88169943  -0.78038049   0.12312287    11497.283     1000 
  422000   0.59455606    -1.646831   0.89094226  -0.75588873   0.12021208    11689.698     1000 
  424000   0.59913204   -1.7139496   0.89779937  -0.81615027    0.1183392    11571.389     1000 
  426000   0.61297541   -1.7130749   0.91854365  -0.79453129    0.1280056    11787.959     1000 
  428000   0.59554504    -1.683058   0.89242424  -0.79063375    0.1210208    11516.961     1000 
  430000    0.5787145   -1.7045625   0.86720368  -0.83735879   0.12996456    11595.816     1000 
  432000   0.62432138   -1.6661455   0.93554558  -0.73059993   0.13869971    11342.496     1000 
  434000    0.5437164   -1.6814977   0.81475902  -0.86673867   0.13241374    11401.625     1000 
  436000   0.60064172   -1.7036376   0.90006162  -0.80357602   0.13065224      11607.3     1000 
  438000   0.60557486   -1.6277328   0.90745393  -0.72027887   0.13806091    11190.645     1000 
  440000   0.60751609   -1.6591366   0.91036285  -0.74877376   0.12379945    11546.476     1000 
  442000   0.60683602   -1.6972975   0.90934378  -0.78795373   0.12712351     11549.55     1000 
  444000   0.58683465    -1.698704   0.87937172  -0.81933229     0.122507    11499.167     1000 
  446000   0.58723571   -1.6670917   0.87997271  -0.78711897   0.14263806    11415.996     1000 
  448000   0.59751396   -1.6450466   0.89537466  -0.74967195   0.14323967    11197.979     1000 
  450000   0.58853603   -1.7117425   0.88192124  -0.82982122    0.1177162     11528.35     1000 
  452000   0.58148299   -1.7053651   0.87135226  -0.83401283   0.12634749    11627.773     1000 
  454000   0.59234496   -1.6952308   0.88762892  -0.80760184   0.11934182    11612.672     1000 
  456000   0.57167271   -1.6074794   0.85665156  -0.75082781   0.11577211    11493.522     1000 
  458000   0.60254372   -1.6394706   0.90291176  -0.73655887   0.13639259    11369.106     1000 
  460000    0.5829853   -1.6828724   0.87360348  -0.80926893   0.13679581    11462.367     1000 
  462000   0.61223463   -1.6903134   0.91743359  -0.77287979   0.12305392    11575.266     1000 
  464000   0.60055836   -1.7028077    0.8999367  -0.80287098   0.13690929    11526.418     1000 
  466000   0.59919429   -1.7180952   0.89789264  -0.82020252   0.12384572    11673.224     1000 
  468000   0.59741141   -1.7742746     0.895221  -0.87905361   0.12460616    11610.331     1000 
  470000   0.61243765   -1.7024735   0.91773782  -0.78473567   0.12978942    11432.211     1000 
  472000   0.59175017   -1.7122338   0.88673763  -0.82549614   0.13395702    11388.467     1000 
  474000   0.57779581   -1.7045774   0.86582703  -0.83875037   0.12482622    11650.156     1000 
  476000    0.5669032   -1.6324088   0.84950444  -0.78290436   0.12568224     11482.02     1000 
  478000   0.59961508   -1.6647779   0.89852319  -0.76625475   0.14925581    11198.036     1000 
  480000    0.6001035   -1.6568429    0.8992551  -0.75758778   0.13613641    11425.372     1000 
  482000   0.58828769   -1.7059522    0.8815491  -0.82440309   0.13535771    11345.616     1000 
  484000   0.57737066   -1.7085398   0.86518994  -0.84334986   0.12982713    11377.792     1000 
  486000   0.59373481   -1.7230216   0.88971161  -0.83330995   0.12927473    11572.155     1000 
  488000   0.58192046   -1.6918619   0.87200782  -0.81985409   0.13095861    11585.193     1000 
  490000   0.58164055   -1.6610797   0.87158836   -0.7894913   0.12058009    11595.621     1000 
  492000   0.58690784   -1.7188618    0.8794814  -0.83938043   0.13823375    11396.717     1000 
  494000   0.58819749   -1.6391104   0.88141393  -0.75769643   0.13462151    11386.978     1000 
  496000   0.59109329   -1.7181149   0.88575329  -0.83236157   0.12708056    11633.086     1000 
  498000   0.59852036   -1.6792213   0.89688275  -0.78233852    0.1251374    11537.456     1000 
  500000   0.58434521   -1.6594895    0.8756413  -0.78384816   0.12731535     11429.99     1000 
  502000   0.59797455   -1.7021906   0.89606487  -0.80612574   0.12100761    11618.901     1000 
  504000   0.60020208   -1.6896584   0.89940282  -0.79025559   0.12102373    11529.683     1000 
  506000   0.57451994   -1.7146281   0.86091813  -0.85370996   0.11306315    11583.888     1000 
  508000   0.58491374   -1.6929016   0.87649323  -0.81640833   0.12122197    11550.375     1000 
  510000   0.54580142   -1.6971085   0.81788343  -0.87922508   0.12082412    11522.043     1000 
  512000   0.60112269   -1.6623002   0.90078234  -0.76151788   0.13069971    11487.552     1000 
  514000   0.60441476   -1.7080033   0.90571552  -0.80228781   0.12969469    11502.714     1000 
  516000   0.57233242   -1.7041179   0.85764014  -0.84647781   0.13372182    11439.171     1000 
  518000   0.59151415   -1.6798654   0.88638395  -0.79348146   0.12175887    11538.133     1000 
  520000   0.57780171   -1.6997632   0.86583586  -0.83392729    0.1280407    11516.088     1000 
  522000   0.59565493   -1.7105748   0.89258892  -0.81798587   0.13264717     11579.49     1000 
  524000   0.56635924    -1.702704   0.84868933  -0.85401464   0.12234663        11541     1000 
  526000   0.58718585    -1.664408     0.879898  -0.78450996   0.13100236    11430.811     1000 
  528000    0.5871623   -1.7129459    0.8798627  -0.83308324   0.12966984    11464.472     1000 
  530000   0.59814859   -1.6859702   0.89632566  -0.78964458   0.12809717    11485.415     1000 
  532000   0.59017984   -1.7194457   0.88438449   -0.8350612   0.12470009    11357.768     1000 
  534000   0.57602375   -1.7323149   0.86317159  -0.86914329   0.11772511    11672.651     1000 
  536000   0.60089049   -1.7343265   0.90043439  -0.83389206   0.11808759    11731.582     1000 
  538000   0.62252881   -1.6977922   0.93285942  -0.76493279   0.12329728     11624.17     1000 
  540000   0.58612794   -1.6825023   0.87831273  -0.80418956   0.12642524    11367.172     1000 
  542000   0.55862357   -1.6546081   0.83709742   -0.8175107   0.11961405    11537.563     1000 
  544000    0.5985894   -1.6304239   0.89698622  -0.73343765   0.12042074    11503.169     1000 
  546000   0.56134944   -1.6714719   0.84118214  -0.83028972   0.13252439    11368.266     1000 
  548000   0.60610155   -1.7437676   0.90824318  -0.83552437    0.1392045    11493.504     1000 
  550000    0.6222054   -1.6275846   0.93237479  -0.69520982   0.14188854    11224.208     1000 
  552000   0.60695198   -1.7214153   0.90951753  -0.81189778   0.12352595    11630.245     1000 
  554000   0.57986118   -1.6862523   0.86892198  -0.81733034   0.12865376    11519.116     1000 
  556000   0.59200682   -1.7253697   0.88712223  -0.83824752   0.12618577    11664.574     1000 
  558000   0.60802099   -1.6377025   0.91111945  -0.72658308   0.12620807    11504.986     1000 
  560000   0.58430598   -1.7525878   0.87558251  -0.87700529    0.1316444    11554.351     1000 
  562000   0.56747321   -1.6945597    0.8503586  -0.84420109   0.11392982    11671.902     1000 
  564000   0.58641048   -1.6356591    0.8787361  -0.75692299   0.14170184    11353.086     1000 
  566000   0.55475231   -1.7041402   0.83129633   -0.8728439   0.12047704    11463.994     1000 
  568000   0.58856791   -1.7268631   0.88196901   -0.8448941   0.12299475    11507.844     1000 
  570000   0.54968807   -1.7834491   0.82370757   -0.9597415   0.11925262    11646.967     1000 
  572000   0.60433863   -1.7025577   0.90560144  -0.79695627   0.12859942    11574.384     1000 
  574000    0.5950073   -1.6999708   0.89161844  -0.80835236   0.12246029    11444.953     1000 
  576000   0.61509591   -1.6611737   0.92172121  -0.73945251   0.13727431    11416.414     1000 
  578000    0.6143457   -1.7723858   0.92059703  -0.85178878   0.12978773    11722.956     1000 
  580000   0.59476332   -1.6683592   0.89125283  -0.77710635   0.12192034    11510.267     1000 
  582000   0.60887121   -1.6786196   0.91239351   -0.7662261   0.13506162    11572.732     1000 
  584000   0.59193912   -1.7296854   0.88702077  -0.84266458   0.12954382    11387.645     1000 
  586000    0.5831833   -1.6587774   0.87390017  -0.78487719   0.13815401    11455.779     1000 
  588000   0.58218082   -1.7104437   0.87239795  -0.83804572   0.13860475    11404.167     1000 
  590000    0.6100339   -1.6801267    0.9141358  -0.76599093   0.12613209    11490.282     1000 
  592000     0.592894   -1.6971561   0.88845166  -0.80870442   0.12774276    11663.606     1000 
  594000   0.57304396   -1.6416465   0.85870637  -0.78294015   0.13324803     11421.76     1000 
  596000   0.57846659   -1.6264641   0.86683219  -0.75963192   0.12616937    11400.303     1000 
  598000   0.58426658   -1.6871704   0.87552347  -0.81164692   0.12848544     11647.75     1000 
  600000   0.60232054   -1.6586541   0.90257733   -0.7560768   0.12656457    11469.061     1000 
  602000     0.592854   -1.6990347   0.88839173  -0.81064302     0.131056    11420.475     1000 
  604000   0.58663604   -1.7360312    0.8790741  -0.85695708   0.12369689    11695.093     1000 
  606000   0.58809846   -1.7004402   0.88126555   -0.8191747   0.12975543    11423.052     1000 
  608000   0.61271415   -1.6939279   0.91815215  -0.77577575   0.12961432    11487.568     1000 
  610000   0.59706874   -1.7451411   0.89470751  -0.85043357   0.12558544    11461.074     1000 
  612000   0.57284685   -1.7475271   0.85841101  -0.88911613    0.1309114    11402.549     1000 
  614000   0.60788691   -1.7175684   0.91091854  -0.80664986   0.12537163    11529.501     1000 
  616000   0.59485034   -1.7359089   0.89138323  -0.84452569   0.13891878    11394.522     1000 
  618000    0.5574384   -1.6811047   0.83532144   -0.8457833   0.12438373    11431.542     1000 
  620000   0.60063537   -1.6734859    0.9000521  -0.77343379   0.14311991    11192.177     1000 
  622000   0.58294372   -1.7473333   0.87354117  -0.87379216    0.1344525    11472.303     1000 
  624000   0.61354542   -1.7197357   0.91939782  -0.80033788   0.14336911    11408.841     1000 
  626000   0.57566866   -1.7172487   0.86263949  -0.85460924    0.1318137    11594.573     1000 
  628000    0.6084663    -1.683395   0.91178675  -0.77160825   0.11747133    11617.176     1000 
  630000   0.59544741   -1.7045493   0.89227795  -0.81227136   0.14132993    11390.271     1000 
  632000   0.60490343   -1.7208947   0.90644778  -0.81444693   0.13055117    11598.006     1000 
  634000   0.58847923   -1.6598299   0.88183613  -0.77799373   0.13748949      11397.3     1000 
  636000   0.57293444   -1.6954465   0.85854226  -0.83690422   0.13474988    11531.002     1000 
  638000   0.59293239    -1.681373   0.88850919  -0.79286382   0.14283929    11301.955     1000 
  640000   0.62025361   -1.7082809   0.92945004  -0.77883082   0.12098924    11585.578     1000 
  642000   0.59961387   -1.6753252   0.89852139  -0.77680386    0.1299417     11487.46     1000 
  644000   0.60445543   -1.6723421   0.90577647  -0.76656563   0.12583806    11503.466     1000 
  646000   0.58362351   -1.6735162   0.87455982  -0.79895642    0.1121826    11656.828     1000 
  648000   0.54535154   -1.7089737   0.81720928   -0.8917644   0.13189797    11503.784     1000 
  650000   0.61105148    -1.706924   0.91566064  -0.79126332   0.13965834    11467.663     1000 
  652000   0.59553079   -1.6811201   0.89240289  -0.78871723   0.12986363    11425.835     1000 
  654000   0.60258156   -1.6511101   0.90296846  -0.74814168   0.13711191    11294.225     1000 
  656000   0.57722428    -1.684835   0.86497058  -0.81986441   0.14000134    11330.931     1000 
  658000   0.56523697   -1.6821173   0.84700759  -0.83510966   0.13406093    11433.727     1000 
  660000    0.5744435   -1.6587521   0.86080359  -0.79794852    0.1331093    11518.025     1000 
  662000   0.58378263   -1.7095402   0.87479827  -0.83474194   0.12422131    11459.783     1000 
  664000   0.61210563   -1.6731717   0.91724028  -0.75593139   0.13063865    11428.412     1000 
  666000   0.61957664   -1.7014838    0.9284356  -0.77304822   0.13549442    11375.328     1000 
  668000   0.61360262    -1.679269   0.91948352  -0.75978545   0.12962917    11551.096     1000 
  670000   0.57364008    -1.676736   0.85959966  -0.81713629   0.13263435    11509.046     1000 
  672000   0.59453812   -1.7102125   0.89091537  -0.81929713   0.14263143     11426.62     1000 
  674000   0.58687948   -1.6785447    0.8794389   -0.7991058   0.12992284    11529.616     1000 
  676000   0.60751149   -1.6468569   0.91035597  -0.73650097    0.1512283    11334.806     1000 
  678000   0.57556721   -1.6603976   0.86248746  -0.79791009   0.12640367    11382.919     1000 
  680000   0.61277249   -1.6780091   0.91823958  -0.75976949   0.13437191    11561.629     1000 
  682000   0.57202865   -1.7210208   0.85718493  -0.86383591   0.12927229    11445.748     1000 
  684000   0.55841885   -1.7224747   0.83679064  -0.88568407   0.13045758    11711.879     1000 
  686000   0.59299589   -1.7182566   0.88860435  -0.82965224   0.14061577    11316.573     1000 
  688000   0.57208256   -1.6804442   0.85726572  -0.82317851   0.12837821    11489.818     1000 
  690000    0.5840886   -1.6903277   0.87525677  -0.81507093   0.13463531    11515.636     1000 
  692000    0.6084521   -1.7241129   0.91176547  -0.81234747   0.12945623    11485.159     1000 
  694000   0.58625761   -1.6565543   0.87850703  -0.77804722   0.12390107    11528.371     1000 
  696000   0.60121768   -1.6904727    0.9009247  -0.78954797   0.13724469    11222.679     1000 
  698000   0.60617774   -1.6848743   0.90835734  -0.77651699   0.13434878    11444.852     1000 
  700000   0.61796664   -1.6789964   0.92602301  -0.75297339   0.12776353    11536.944     1000 
  702000   0.57675252   -1.6803334   0.86426365   -0.8160697   0.13272956    11592.522     1000 
  704000   0.59057093   -1.7116367   0.88497054  -0.82666621   0.13820503    11402.549     1000 
  706000   0.58473093   -1.6713932    0.8762193  -0.79517393    0.1276102    11431.132     1000 
  708000   0.56035823   -1.7796897   0.83969681  -0.93999288   0.11427727    11769.353     1000 
  710000   0.59960822   -1.6929772   0.89851292  -0.79446426   0.12625699    11554.479     1000 
  712000   0.58637219   -1.6975205   0.87867873  -0.81884173   0.12976237    11567.995     1000 
  714000   0.61988118   -1.6805534   0.92889195  -0.75166149   0.13716058    11310.072     1000 
  716000   0.59367381   -1.6688745    0.8896202  -0.77925434   0.13435983    11348.187     1000 
  718000    0.5913123   -1.6978304   0.88608148  -0.81174895   0.12504576    11739.237     1000 
  720000   0.60254257   -1.7451769   0.90291004  -0.84226682   0.11609465    11592.869     1000 
  722000   0.57202568   -1.6936761   0.85718048  -0.83649559   0.13418069    11406.783     1000 
  724000   0.60912579   -1.7133715   0.91277499  -0.80059646   0.12782159    11604.734     1000 
  726000   0.57048192     -1.69035   0.85486716  -0.83548284   0.13421771    11342.141     1000 
  728000   0.59805877    -1.661699   0.89619107  -0.76550791   0.14277452    11315.712     1000 
  730000   0.59177134   -1.6294969   0.88676936  -0.74272755   0.14128571    11350.234     1000 
  732000   0.58024464   -1.6461882   0.86949659  -0.77669157    0.1288946    11439.461     1000 
  734000   0.57813526   -1.5990307   0.86633569  -0.73269503   0.12628265    11540.012     1000 
  736000   0.58738903   -1.6841973   0.88020246  -0.80399484   0.12491549    11396.917     1000 
  738000   0.58841875   -1.6896286   0.88174549   -0.8078831   0.13399379    11397.581     1000 
  740000   0.56189068   -1.7192394   0.84199318  -0.87724624   0.13077247    11581.387     1000 
  742000   0.57764834   -1.6662345   0.86560604  -0.80062843   0.12887456    11521.785     1000 
  744000   0.60686128   -1.6757868   0.90938162  -0.76640521   0.13922391    11342.077     1000 
  746000   0.58836335   -1.6500282   0.88166248  -0.76836577   0.12713457    11537.383     1000 
  748000   0.57452777   -1.6967684   0.86092986  -0.83583855   0.13040756    11484.114     1000 
  750000   0.58652511   -1.6854007   0.87890788  -0.80649282   0.13823213    11479.427     1000 
  752000    0.5748906    -1.688598   0.86147357  -0.82712444   0.12837928    11621.913     1000 
  754000   0.58703303   -1.7108992     0.879669  -0.83123018   0.12956068    11427.973     1000 
  756000   0.58249814   -1.7026882   0.87287346  -0.82981471   0.13207681    11414.304     1000 
  758000   0.60110442   -1.7119011   0.90075497  -0.81114611   0.13191517    11411.233     1000 
  760000   0.60489781   -1.6922876   0.90643936  -0.78584822   0.12509562    11526.618     1000 
  762000   0.59308058   -1.6537089   0.88873124  -0.76497766   0.13857477     11501.19     1000 
  764000    0.6282566   -1.7123098   0.94144251  -0.77086734   0.13297162    11489.475     1000 
  766000   0.59860579   -1.7177241   0.89701077  -0.82071337   0.12189934    11584.056     1000 
  768000   0.57977726   -1.7197655   0.86879623  -0.85096922   0.12750159    11434.945     1000 
  770000    0.5994766   -1.6385149   0.89831569  -0.74019922   0.12244924    11457.853     1000 
  772000   0.59913929    -1.663107   0.89781023  -0.76529678    0.1202858    11469.247     1000 
  774000    0.5705248   -1.6978662   0.85493141  -0.84293478   0.11911032    11725.434     1000 
  776000   0.59879548   -1.6757869   0.89729503  -0.77849182   0.12584204    11526.782     1000 
  778000   0.58342065   -1.7248434   0.87425585  -0.85058755   0.11506051    11476.775     1000 
  780000   0.58449106   -1.6814073   0.87585985  -0.80554744   0.12598978    11525.304     1000 
  782000   0.57707806   -1.6917553   0.86475147  -0.82700387   0.11703318     11539.94     1000 
  784000   0.60091149   -1.6790799   0.90046587  -0.77861401   0.14122588    11411.489     1000 
  786000   0.58351006    -1.694031   0.87438983  -0.81964114   0.13209496    11365.112     1000 
  788000   0.58772686   -1.6869759    0.8807087   -0.8062672   0.14358364    11251.032     1000 
  790000   0.60110227   -1.7031279   0.90075176  -0.80237615   0.12464948    11693.607     1000 
  792000   0.59578899   -1.6659281    0.8927898  -0.77313829   0.14167962    11343.327     1000 
  794000   0.55994596   -1.6802708   0.83907902  -0.84119179   0.12655493    11366.151     1000 
  796000   0.56733456   -1.7213973   0.85015083  -0.87124643   0.12469635    11619.841     1000 
  798000   0.57865326   -1.6418907   0.86711192  -0.77477874   0.13266506    11626.813     1000 
  800000   0.58725311   -1.6883629   0.87999878  -0.80836411    0.1359701     11494.01     1000 
  802000   0.59745091   -1.7027162   0.89528019  -0.80743601   0.12621498    11537.041     1000 
  804000   0.57817922   -1.7096594   0.86640156  -0.84325783   0.12773643    11612.488     1000 
  806000   0.59475516   -1.6542064   0.89124061  -0.76296579   0.12571137    11347.967     1000 
  808000   0.59751675    -1.692649   0.89537886  -0.79727016    0.1366052    11379.877     1000 
  810000   0.58169493   -1.7353791   0.87166985   -0.8637092   0.11926697    11586.685     1000 
  812000   0.60070662   -1.6753373   0.90015887  -0.77517846   0.13697105     11310.48     1000 
  814000   0.56810427   -1.6972262   0.85130426   -0.8459219   0.13154296    11528.572     1000 
  816000    0.5700445   -1.7169404   0.85421168  -0.86272868   0.12890973    11566.419     1000 
  818000   0.59235619   -1.7431259   0.88764575  -0.85548011   0.13082905    11405.967     1000 
  820000   0.58617729   -1.6761162   0.87838667  -0.79772948   0.12399165    11571.138     1000 
  822000    0.5940946   -1.6812176   0.89025076  -0.79096686   0.12287835    11526.552     1000 
  824000   0.59986639   -1.6970786   0.89889978  -0.79817879   0.12093145    11356.215     1000 
  826000   0.57845326   -1.6822565   0.86681222   -0.8154443   0.11867995    11585.144     1000 
  828000   0.58249976   -1.6631687   0.87287589  -0.79029282   0.14998908    11404.917     1000 
  830000   0.60421493   -1.6554233   0.90541607  -0.75000727   0.12662193    11587.174     1000 
  832000   0.58609332   -1.7670656   0.87826084  -0.88880475   0.12924584    11542.398     1000 
  834000   0.56723106   -1.6649248   0.84999574  -0.81492905    0.1204732    11537.753     1000 
  836000   0.57372463   -1.7566524   0.85972636  -0.89692603   0.11713766    11741.284     1000 
  838000   0.57065899   -1.7375343    0.8551325  -0.88240178   0.12738641     11454.67     1000 
  840000   0.58484684   -1.7201738   0.87639299  -0.84378081   0.13258863    11532.829     1000 
  842000   0.59751345   -1.6937929   0.89537391  -0.79841899   0.12566498    11518.491     1000 
  844000   0.58150985   -1.6849504   0.87139251  -0.81355786   0.11792574    11547.048     1000 
  846000   0.58744276   -1.6250862   0.88028297  -0.74480326   0.12525717    11413.772     1000 
  848000   0.58279299   -1.6820641    0.8733153  -0.80874877   0.11800408    11548.075     1000 
  850000   0.60153633    -1.721644    0.9014022  -0.82024183   0.12921266    11451.282     1000 
  852000   0.60666142   -1.7022567   0.90908213   -0.7931746   0.11879795    11612.838     1000 
  854000   0.59185596   -1.6813278   0.88689616  -0.79443161    0.1259614    11662.035     1000 
  856000   0.58422763   -1.7220656   0.87546511  -0.84660046   0.12737299    11551.742     1000 
  858000   0.58138363   -1.7059753   0.87120338   -0.8347719   0.12617421    11569.448     1000 
  860000   0.60968506   -1.7128599   0.91361306   -0.7992468   0.12693609    11569.544     1000 
  862000   0.60304695   -1.6673441   0.90366585  -0.76367828   0.13561454    11464.223     1000 
  864000   0.60750567   -1.6763703   0.91034725  -0.76602307   0.15682008    11377.951     1000 
  866000   0.60886236      -1.7054   0.91238024  -0.79301979   0.13862411    11476.324     1000 
  868000   0.60423079   -1.7135372   0.90543984  -0.80809737   0.13193292    11412.769     1000 
  870000   0.60190421   -1.7177842   0.90195346  -0.81583071   0.13998907    11342.881     1000 
  872000   0.59705083   -1.7285655   0.89468066  -0.83388486   0.12426642    11564.255     1000 
  874000    0.6009593   -1.6906036   0.90053751  -0.79006612   0.12064515    11552.165     1000 
  876000   0.59679003   -1.6627285   0.89428986  -0.76843862   0.13729272    11495.518     1000 
  878000   0.56878299   -1.7103105   0.85232131  -0.85798922   0.13091296    11704.731     1000 
  880000   0.58013449   -1.7209119   0.86933153  -0.85158034   0.11792854    11767.794     1000 
  882000   0.59547658   -1.6986222   0.89232165  -0.80630059   0.12567016    11469.634     1000 
  884000    0.5916463   -1.6705345   0.88658197  -0.78395255   0.11433624    11517.734     1000 
  886000   0.59919281   -1.7165499   0.89789042  -0.81865944   0.13088511    11426.264     1000 
  888000   0.62102503   -1.6496105   0.93060601  -0.71900453   0.13657824    11418.943     1000 
  890000   0.58000389   -1.7069919   0.86913583  -0.83785602     0.122703    11537.734     1000 
  892000   0.57371984   -1.6797349   0.85971918  -0.82001568   0.13258301     11372.14     1000 
  894000   0.58991429   -1.7118537   0.88398656  -0.82786717    0.1328954    11469.887     1000 
  896000   0.58019485   -1.6990116   0.86942198  -0.82958961   0.13097236    11473.795     1000 
  898000   0.58280627   -1.6433918    0.8733352  -0.77005659   0.13085673    11314.279     1000 
  900000   0.59302987   -1.6679974   0.88865526  -0.77934212   0.13705688    11478.459     1000 
  902000     0.595978   -1.7275989   0.89307304  -0.83452587   0.14037715    11484.256     1000 
  904000   0.58618508   -1.6885454   0.87839835  -0.81014706    0.1122069     11639.91     1000 
  906000   0.58025498    -1.721603   0.86951209  -0.85209091   0.12733226    11512.537     1000 
  908000   0.57413819   -1.7232745   0.86034608  -0.86292847   0.12163915    11570.083     1000 
  910000    0.6014208   -1.7260002   0.90122907   -0.8247711   0.12553981     11538.94     1000 
  912000   0.55782333   -1.7021333   0.83589825  -0.86623501   0.12281468    11361.875     1000 
  914000   0.60208561   -1.6654289   0.90222529  -0.76320362   0.13723247    11386.299     1000 
  916000   0.57627865   -1.7220944   0.86355356  -0.85854088   0.12868682    11565.553     1000 
  918000   0.59150629    -1.644334   0.88637217  -0.75796178   0.15653477    11167.587     1000 
  920000   0.57858339   -1.6483787   0.86700721  -0.78137147   0.13337956    11430.327     1000 
  922000   0.60757455   -1.7350702   0.91045047  -0.82461975   0.12438236    11472.385     1000 
  924000   0.60448105   -1.6822325   0.90581485  -0.77641765   0.12474481    11488.153     1000 
  926000   0.60308796    -1.694297    0.9037273  -0.79056965   0.13306271    11603.782     1000 
  928000   0.54747759   -1.6667525   0.82039516  -0.84635738   0.13368814    11427.281     1000 
  930000   0.59660833   -1.7340745   0.89401758   -0.8400569   0.13147463    11501.161     1000 
  932000   0.63066647   -1.7197186    0.9450537  -0.77466491   0.13204299    11630.128     1000 
  934000   0.59241775   -1.6962027     0.887738  -0.80846467   0.13255765    11557.275     1000 
  936000   0.58878289   -1.6244043   0.88229116  -0.74211313   0.14084836    11281.505     1000 
  938000   0.59118581   -1.6722338   0.88589194  -0.78634189   0.12826728    11614.725     1000 
  940000   0.56473439   -1.7056013   0.84625448  -0.85934677   0.12124123    11500.359     1000 
  942000   0.61800446   -1.7104004   0.92607969  -0.78432073   0.13216942    11563.551     1000 
  944000   0.58371296   -1.7246521   0.87469387  -0.84995823   0.12404561    11467.697     1000 
  946000   0.56462401   -1.7163465   0.84608907  -0.87025745   0.11290606    11529.935     1000 
  948000   0.60022915   -1.7301435   0.89944338  -0.83070016   0.14115152    11398.907     1000 
  950000   0.59232781   -1.7099186   0.88760323  -0.82231536   0.12508632    11486.714     1000 
  952000   0.60870218   -1.7522214   0.91214022  -0.84008122   0.13068065    11463.141     1000 
  954000   0.58805113   -1.6756796   0.88119462    -0.794485   0.13845363    11499.575     1000 
  956000   0.59243341    -1.683075   0.88776146  -0.79531355   0.13188645    11534.546     1000 
  958000   0.57326033   -1.6455731    0.8590306   -0.7865425   0.12303851    11576.203     1000 
  960000   0.59070159   -1.6527039   0.88516633  -0.76753756   0.13850215    11283.744     1000 
  962000   0.58429801   -1.6517132   0.87557056  -0.77614263   0.14028982    11324.799     1000 
  964000   0.59545284   -1.6366134   0.89228608  -0.74432733   0.13076373    11326.784     1000 
  966000     0.569741   -1.6828162   0.85375689  -0.82905931   0.12419725    11608.967     1000 
  968000   0.60123165   -1.7050624   0.90094563  -0.80411674   0.13757872    11601.046     1000 
  970000   0.59026924   -1.7394915   0.88451846  -0.85497305   0.14272855     11310.52     1000 
  972000    0.5727932   -1.7142236   0.85833061  -0.85589303    0.1246689    11739.538     1000 
  974000   0.58522294   -1.7088138   0.87695657  -0.83185726   0.13125213    11437.897     1000 
  976000   0.58131481   -1.7156166   0.87110024   -0.8445164   0.14093756    11374.878     1000 
  978000   0.58162881   -1.7083084   0.87157078  -0.83673765   0.12203663    11503.953     1000 
  980000   0.58842104   -1.6376663   0.88174893  -0.75591738   0.12853445    11565.354     1000 
  982000   0.56617792   -1.6429732   0.84841762  -0.79455554   0.12723153    11380.755     1000 
  984000   0.57024616   -1.7008346   0.85451387  -0.84632072   0.12897459    11569.948     1000 
  986000   0.56382965   -1.6541422   0.84489873  -0.80924347   0.13303597    11237.162     1000 
  988000   0.58085495   -1.6932288   0.87041114  -0.82281767   0.12670129    11436.874     1000 
  990000   0.61205951   -1.6748235   0.91717117  -0.75765233   0.12815396    11413.309     1000 
  992000   0.57250378   -1.7019566   0.85789692  -0.84405969   0.12038797    11681.922     1000 
  994000   0.58013903   -1.7244285   0.86933833  -0.85509019    0.1174421    11696.037     1000 
  996000   0.59411355   -1.6851501   0.89027916  -0.79487097   0.12780131    11650.239     1000 
  998000   0.58720275   -1.6627587   0.87992332  -0.78283537    0.1294193    11469.559     1000 
 1000000   0.61029582   -1.7457643   0.91452829  -0.83123606   0.14002715    11471.866     1000 
 1002000   0.57378461   -1.6458341   0.85981624  -0.78601786   0.13063361    11488.419     1000 
 1004000   0.58373873    -1.666995   0.87473249  -0.79226255    0.1192749    11560.809     1000 
 1006000   0.59925158   -1.6826731   0.89797849   -0.7846946   0.12429744    11525.859     1000 
 1008000   0.60642876    -1.679038   0.90873349  -0.77030451   0.13376091     11528.28     1000 
 1010000   0.59479298   -1.6842996   0.89129728  -0.79300235   0.13490972    11416.186     1000 
 1012000    0.5957652   -1.6925303   0.89275415  -0.79977615   0.12670582    11641.794     1000 
 1014000   0.59332892   -1.6868522   0.88910339  -0.79774882   0.13238672    11497.085     1000 
 1016000   0.59981002   -1.7208697   0.89881532  -0.82205433   0.14134379    11475.062     1000 
 1018000   0.58902197   -1.6883002   0.88264943  -0.80565072   0.12536293    11502.132     1000 
 1020000   0.59995174   -1.6377882   0.89902769  -0.73876048   0.13753768    11465.478     1000 
 1022000   0.61485815   -1.6869736   0.92136493  -0.76560865   0.13402556    11408.146     1000 
 1024000   0.60498375   -1.6818719   0.90656815  -0.77530378   0.13939925    11475.301     1000 
 1026000   0.58512464   -1.7138576   0.87680928  -0.83704829   0.13815823    11393.885     1000 
 1028000   0.60272342   -1.7309067   0.90318105  -0.82772564   0.12610681    11538.204     1000 
 1030000   0.60061518    -1.650152   0.90002185  -0.75013016   0.12722622    11474.652     1000 
 1032000   0.60518713   -1.7135081   0.90687292  -0.80663514    0.1427121    11404.631     1000 
 1034000   0.60833213   -1.6489823    0.9115857  -0.73739664    0.1421257    11302.708     1000 
 1036000   0.59334907   -1.7121736   0.88913358  -0.82303999   0.11951621    11669.155     1000 
 1038000   0.58822548   -1.6707881   0.88145588  -0.78933226    0.1380023    11326.614     1000 
 1040000   0.58138299   -1.6906464   0.87120242  -0.81944402      0.13271    11422.568     1000 
 1042000    0.6106305   -1.6784378   0.91502981  -0.76340801    0.1230544     11589.48     1000 
 1044000   0.59255754   -1.6656989   0.88794748  -0.77775145   0.12977751    11443.757     1000 
 1046000   0.58390986    -1.715947   0.87498893  -0.84095805   0.13023592    11380.309     1000 
 1048000   0.57853547     -1.66589   0.86693541  -0.79895463   0.14749962    11270.415     1000 
 1050000   0.57466339   -1.6947801   0.86113309  -0.83364701   0.12396454    11642.235     1000 
 1052000   0.56497091   -1.6849657   0.84660891  -0.83835684    0.1247106    11464.484     1000 
 1054000   0.57981688   -1.6476893    0.8688556   -0.7788337   0.13124437    11358.755     1000 
 1056000   0.58122172   -1.7185694   0.87096075  -0.84760864   0.12824289    11569.387     1000 
 1058000   0.56956916   -1.6773041   0.85349939  -0.82380469   0.13074751    11466.359     1000 
 1060000   0.55732114   -1.6426528   0.83514572   -0.8075071   0.12525884    11692.127     1000 
 1062000    0.6027505   -1.6746246   0.90322162    -0.771403   0.13841717    11364.899     1000 
 1064000   0.58495318   -1.6574266   0.87655234  -0.78087428   0.13048586    11658.799     1000 
 1066000   0.57515289   -1.6788529   0.86186661  -0.81698628   0.13727287    11307.918     1000 
 1068000   0.60665582   -1.7102504   0.90907374  -0.80117664   0.13878793    11404.985     1000 
 1070000   0.61212833   -1.6575571   0.91727431  -0.74028282   0.13514732    11484.165     1000 
 1072000   0.59870178   -1.7091532   0.89715462  -0.81199862   0.11692934    11658.536     1000 
 1074000   0.60578275   -1.6444169   0.90776544  -0.73665142    0.1244018    11482.555     1000 
 1076000   0.61299209   -1.6769966   0.91856865  -0.75842796   0.14138149    11332.939     1000 
 1078000     0.585323   -1.7237185   0.87710651  -0.84661196    0.1191308    11604.078     1000 
 1080000   0.59484816    -1.684667   0.89137997  -0.79328701   0.13848035    11274.336     1000 
 1082000   0.58861596    -1.698916   0.88204101  -0.81687501   0.12939933    11536.009     1000 
 1084000   0.58052637   -1.7195954   0.86991877  -0.84967662   0.11540931    11702.062     1000 
 1086000   0.57695408   -1.7247473   0.86456569  -0.86018163   0.13858917    11387.452     1000 
 1088000   0.58099341   -1.6724141   0.87061862  -0.80179551   0.12204424     11575.81     1000 
 1090000   0.61705809   -1.6595649   0.92466154  -0.73490331   0.14311781    11307.196     1000 
 1092000   0.59344542   -1.7028769   0.88927797  -0.81359895   0.13371812    11450.766     1000 
 1094000   0.60232276    -1.635551   0.90258065  -0.73297035   0.12837946    11493.971     1000 
 1096000   0.59898139   -1.7061326   0.89757361  -0.80855897   0.11236943    11639.834     1000 
 1098000    0.6055163   -1.6945422   0.90736618  -0.78717598    0.1278608     11500.49     1000 
 1100000   0.59230971     -1.68677    0.8875761  -0.79919393   0.12859073     11432.27     1000 
 1102000   0.58688447   -1.7387378   0.87944638  -0.85929143   0.13754264    11385.165     1000 
 1104000   0.60125773    -1.670217   0.90098471  -0.76923229   0.13811055    11297.397     1000 
 1106000   0.58331683   -1.6764118   0.87410027  -0.80231151   0.13110634    11415.794     1000 
 1108000    0.5816773   -1.7032858   0.87164344  -0.83164239   0.12199347    11616.468     1000 
 1110000   0.60196341   -1.6621614   0.90204217  -0.76011928   0.13014518    11499.154     1000 
 1112000   0.58844766   -1.6962651   0.88178881  -0.81447629   0.12719615    11462.197     1000 
 1114000   0.56050412   -1.7248324   0.83991543  -0.88491701   0.13151496    11560.348     1000 
 1116000    0.6150669   -1.7664334   0.92167775  -0.84475561     0.138407    11522.915     1000 
 1118000   0.57787336   -1.6437337   0.86594323   -0.7777905   0.13783702    11370.984     1000 
 1120000   0.59974003   -1.7136566   0.89871044  -0.81494615    0.1466245    11338.753     1000 
 1122000   0.59396762   -1.6852161   0.89006048  -0.79515564    0.1193435    11590.711     1000 
 1124000   0.59752596   -1.6683128   0.89539264   -0.7729202   0.13250927     11489.46     1000 
 1126000   0.59468448   -1.6691889   0.89113469  -0.77805418   0.13966607    11210.726     1000 
 1128000    0.6036081   -1.6673585   0.90450674  -0.76285172   0.13317064    11411.433     1000 
 1130000   0.58758427   -1.6540097   0.88049502  -0.77351464   0.13451781    11413.511     1000 
 1132000   0.58784688   -1.7229327   0.88088856  -0.84204413   0.12589975    11599.772     1000 
 1134000   0.58329791   -1.7149991   0.87407192  -0.84092721   0.12491458     11618.75     1000 
 1136000   0.59425024   -1.6776747   0.89048399  -0.78719067   0.12957109     11366.81     1000 
 1138000   0.57324203   -1.6637349   0.85900318  -0.80473175   0.12774771    11527.785     1000 
 1140000   0.59637436   -1.6749606   0.89366698  -0.78129361   0.12420416    11537.177     1000 
 1142000   0.57393184   -1.7297347   0.86003686  -0.86969784   0.12154589    11580.957     1000 
 1144000    0.6028651   -1.7330234   0.90339336  -0.82963001   0.12567314    11483.222     1000 
 1146000   0.61004712   -1.7060918    0.9141556  -0.79193618   0.12567723    11621.111     1000 
 1148000   0.58870434   -1.7087415   0.88217345  -0.82656806   0.12682378     11468.58     1000 
 1150000   0.61018489   -1.7513404   0.91436206  -0.83697834   0.14124104    11580.797     1000 
 1152000   0.61701942   -1.6589529   0.92460361  -0.73434929   0.13741278    11401.956     1000 
 1154000   0.60755346   -1.7429527   0.91041886   -0.8325338   0.13305073    11477.394     1000 
 1156000   0.58691911   -1.7399741   0.87949828   -0.8604758   0.11725384    11635.893     1000 
 1158000   0.58513107   -1.6605213    0.8768189  -0.78370241   0.15153684    11270.606     1000 
 1160000    0.5923385   -1.6058918   0.88761925  -0.71827258   0.14271913     11370.96     1000 
 1162000   0.58452929   -1.7184587   0.87591714  -0.84254152   0.13007416     11437.21     1000 
 1164000   0.58633167    -1.745594     0.878618  -0.86697601   0.12223696    11531.383     1000 
 1166000   0.61571122   -1.6590493   0.92264327  -0.73640605   0.13723191    11473.407     1000 
 1168000   0.58608818   -1.7164089   0.87825314  -0.83815572   0.12407643    11475.485     1000 
 1170000   0.58476712   -1.7554556   0.87627352   -0.8791821   0.12434478    11750.401     1000 
 1172000   0.58496085   -1.6785175   0.87656383  -0.80195368   0.12884658    11510.589     1000 
 1174000   0.60438798   -1.6980864   0.90567539  -0.79241102   0.11594446    11609.668     1000 
 1176000   0.59777906   -1.6802163   0.89577192  -0.78444439   0.13411054    11552.699     1000 
 1178000   0.60274329   -1.7600072   0.90321082  -0.85679637   0.12671999    11642.152     1000 
 1180000   0.58509164   -1.6012295   0.87675982  -0.72446966   0.13031268    11343.644     1000 
 1182000   0.58486974   -1.6936117    0.8764273  -0.81718443   0.12929324    11441.255     1000 
 1184000   0.61631093   -1.6912427   0.92354193  -0.76770073   0.13682676    11447.488     1000 
 1186000   0.56442018   -1.6965866   0.84578364  -0.85080293   0.11338522    11581.264     1000 
 1188000   0.59729926     -1.66879   0.89505294   -0.7737371   0.12719388    11331.335     1000 
 1190000   0.59194149   -1.7538498   0.88702432  -0.86682548   0.13326336    11595.331     1000 
 1192000   0.59130299   -1.7159575   0.88606753  -0.82988995   0.13608882    11551.189     1000 
 1194000   0.58939781   -1.6870829   0.88321261  -0.80387027   0.13902739      11393.8     1000 
 1196000   0.58387681   -1.6759597    0.8749394  -0.80102028   0.13551464    11401.838     1000 
 1198000   0.58537969   -1.6665678   0.87719147  -0.78937632   0.12775627    11645.681     1000 
 1200000    0.5878556   -1.7024814   0.88090162   -0.8215798   0.12488026    11568.852     1000 
 1202000   0.60265631   -1.6704058   0.90308048  -0.76732528   0.13061246     11461.64     1000 
 1204000   0.60238834   -1.7039105   0.90267893  -0.80123161   0.13299649    11342.381     1000 
 1206000   0.58615395   -1.7287167   0.87835169  -0.85036498   0.12628856     11460.87     1000 
 1208000   0.58593002   -1.7069667   0.87801614  -0.82895056   0.12010717    11661.995     1000 
 1210000    0.5975765   -1.7308289   0.89546839  -0.83536049   0.12385286    11558.681     1000 
 1212000   0.59038617   -1.7051485   0.88469367  -0.82045481   0.12252673     11622.61     1000 
 1214000   0.59383735   -1.6968581   0.88986527  -0.80699281   0.14746899    11292.103     1000 
 1216000   0.59662738   -1.6299881   0.89404613  -0.73594194   0.12945812    11466.093     1000 
 1218000   0.60331692   -1.7241069    0.9040704  -0.82003652   0.12934374    11466.867     1000 
 1220000    0.5685981   -1.6677429   0.85204425  -0.81569867   0.11822313    11573.922     1000 
 1222000   0.58145846   -1.6445618    0.8713155  -0.77324628   0.13094668    11513.625     1000 
 1224000   0.60131017   -1.7072232   0.90106329  -0.80615988    0.1217778    11632.196     1000 
 1226000   0.59717541   -1.6506789   0.89486736  -0.75581154   0.13475522    11419.284     1000 
 1228000   0.58470416   -1.6731873   0.87617918  -0.79700815   0.13182297    11471.403     1000 
 1230000   0.60246726   -1.7290675   0.90279719  -0.82627027   0.13992365    11497.678     1000 
 1232000   0.59877935   -1.6727942   0.89727085  -0.77552339   0.13796545    11265.785     1000 
 1234000   0.59704648   -1.6215687   0.89467416  -0.72689454   0.13678835    11369.669     1000 
 1236000   0.57912718   -1.7090743   0.86782208   -0.8412522   0.12836358     11387.12     1000 
 1238000   0.60172851   -1.7075175   0.90169017  -0.80582737   0.13319198    11458.348     1000 
 1240000   0.58920791   -1.7336846   0.88292805  -0.85075655   0.12924235    11380.915     1000 
 1242000   0.59810521   -1.6973354   0.89626065  -0.80107475   0.12936939    11513.714     1000 
 1244000   0.57030155   -1.6612752   0.85459687   -0.8066783   0.13045827    11379.488     1000 
 1246000   0.56412805   -1.6816111   0.84534588  -0.83626517    0.1278132    11439.995     1000 
 1248000   0.57885924   -1.6548667   0.86742057  -0.78744608   0.12337596    11427.857     1000 
 1250000   0.58304957   -1.7374648   0.87369977  -0.86376505   0.11557337    11621.734     1000 
 1252000   0.59888019   -1.6975293   0.89742196  -0.80010735   0.12337186    11456.567     1000 
 1254000    0.6136427   -1.7107818   0.91954359  -0.79123821   0.12338843    11513.324     1000 
 1256000   0.60348639   -1.6895966   0.90432435   -0.7852723   0.12364779    11563.549     1000 
 1258000    0.5727031   -1.6738771   0.85819559  -0.81568149   0.12642392    11468.424     1000 
 1260000   0.58672073   -1.7025272   0.87920101  -0.82332618   0.14239745    11355.669     1000 
 1262000   0.58679319   -1.6983124   0.87930959  -0.81900278   0.13071474    11357.853     1000 
 1264000   0.59641136   -1.7100075   0.89372242   -0.8162851   0.12514719    11454.494     1000 
 1266000   0.59904781    -1.683184   0.89767315  -0.78551081   0.12986098    11611.606     1000 
 1268000    0.5986254    -1.717944   0.89704017  -0.82090384   0.12710489    11506.229     1000 
 1270000   0.60414886   -1.7135258   0.90531707  -0.80820869   0.12526059    11635.894     1000 
 1272000   0.57263169   -1.7090005   0.85808859  -0.85091191   0.13141692    11480.513     1000 
 1274000    0.5899786   -1.7305569   0.88408294  -0.84647393   0.11633453    11798.044     1000 
 1276000   0.58641339   -1.7027024   0.87874047  -0.82396197   0.12053502    11483.561     1000 
 1278000   0.58458425   -1.6739793    0.8759995  -0.79797975   0.12841542    11420.945     1000 
 1280000   0.59213309   -1.6973589   0.88731144  -0.81004745   0.12734482    11618.436     1000 
 1282000   0.59088126   -1.6190549   0.88543557  -0.73361936   0.12137017    11554.295     1000 
 1284000   0.57854459    -1.721055   0.86694906  -0.85410597   0.14377254    11407.794     1000 
 1286000   0.57946262   -1.7124795   0.86832474  -0.84415479    0.1235645    11604.539     1000 
 1288000   0.61603091   -1.7016037   0.92312232   -0.7784814   0.13222012    11509.158     1000 
 1290000   0.58664931   -1.6475143   0.87909399  -0.76842033   0.13746007    11469.593     1000 
 1292000   0.59143876   -1.6514813   0.88627097  -0.76521034   0.13502008     11482.89     1000 
 1294000   0.60033766   -1.6815084   0.89960598  -0.78190246   0.14392399    11417.755     1000 
 1296000   0.60258003   -1.6606209   0.90296618  -0.75765467   0.13760852    11654.719     1000 
 1298000    0.5878696   -1.7104968   0.88092259  -0.82957425   0.12468598    11563.046     1000 
 1300000   0.58621008   -1.6713222   0.87843581   -0.7928864   0.13407181    11309.212     1000 
 1302000   0.58772255   -1.6749823   0.88070224  -0.79428007   0.13138138    11626.171     1000 
 1304000    0.6068394   -1.6861032   0.90934884  -0.77675439   0.12935768    11595.884     1000 
 1306000   0.59445285   -1.6802979   0.89078759  -0.78951035   0.13563539    11459.359     1000 
 1308000   0.57976505   -1.6780619   0.86877793    -0.809284   0.13102762    11342.325     1000 
 1310000   0.56927065    -1.622873   0.85305207  -0.76982089   0.13197117    11351.293     1000 
 1312000   0.59086979   -1.6882057   0.88541838  -0.80278727   0.12461453    11689.512     1000 
 1314000   0.58998751   -1.6948487   0.88409628  -0.81075241   0.12392614    11530.444     1000 
 1316000   0.58940771   -1.6860979   0.88322746  -0.80287041   0.12844148     11419.77     1000 
 1318000   0.57628552   -1.7037716   0.86356384  -0.84020773   0.12918159     11384.35     1000 
 1320000   0.61000574   -1.7177066   0.91409361  -0.80361303   0.13403903    11441.309     1000 
 1322000   0.56702378   -1.7086999   0.84968513  -0.85901474   0.13317134    11511.465     1000 
 1324000   0.62439411   -1.6939108   0.93565457  -0.75825624   0.13948673    11474.348     1000 
 1326000   0.60789834   -1.6987473   0.91093566  -0.78781159   0.12754906    11554.752     1000 
 1328000   0.58484368   -1.6536993   0.87638825  -0.77731106   0.13131154    11403.988     1000 
 1330000   0.60038382   -1.6322716   0.89967516   -0.7325964   0.13561564    11451.635     1000 
 1332000   0.61265803   -1.7033032   0.91806805  -0.78523513   0.13039828    11492.564     1000 
 1334000   0.59624009   -1.6768413   0.89346578  -0.78337555   0.12746154    11497.731     1000 
 1336000    0.6188211   -1.7074962   0.92730342  -0.78019278   0.13617137    11526.538     1000 
 1338000   0.59907066   -1.6833364   0.89770738  -0.78562898   0.12492958    11489.748     1000 
 1340000   0.57258655   -1.6766975   0.85802094  -0.81867655   0.13090113    11449.993     1000 
 1342000   0.58272357   -1.6608553   0.87321127    -0.787644   0.12542434    11545.997     1000 
 1344000   0.58009755   -1.6821785   0.86927618  -0.81290236   0.13759351    11334.737     1000 
 1346000   0.57506707   -1.7195697     0.861738  -0.85783168   0.13787286    11348.892     1000 
 1348000    0.5697202   -1.7524914   0.85372572  -0.89876565   0.11104027    11638.491     1000 
 1350000   0.59469438   -1.7391229   0.89114953  -0.84797336   0.12704927    11577.579     1000 
 1352000   0.58384923   -1.6758986   0.87489808  -0.80100049   0.12055803    11555.103     1000 
 1354000   0.57904909   -1.6898782   0.86770505  -0.82217316   0.12598817    11619.095     1000 
 1356000   0.56178057   -1.6627894   0.84182819  -0.82096124   0.13240518    11398.595     1000 
 1358000   0.56681893   -1.7152804   0.84937816  -0.86590223   0.11936197    11473.138     1000 
 1360000   0.62210701   -1.6758841   0.93222735  -0.74365671   0.13064142    11447.374     1000 
 1362000   0.59461426   -1.6956018   0.89102947  -0.80457234   0.13001563    11635.909     1000 
 1364000   0.59838173   -1.6798068   0.89667502  -0.78313181   0.13590144    11227.034     1000 
 1366000   0.55690672   -1.7180511   0.83452472  -0.88352639   0.12135288    11598.475     1000 
 1368000   0.59777041   -1.6736174   0.89575896  -0.77785847   0.13761066     11431.06     1000 
 1370000   0.57993397   -1.7140457   0.86903105  -0.84501464    0.1173874    11558.224     1000 
 1372000   0.58524018   -1.6878086   0.87698241  -0.81082624   0.12906059    11541.853     1000 
 1374000   0.58483959   -1.6430996   0.87638213  -0.76671749   0.13073518    11611.857     1000 
 1376000   0.58388266   -1.7026885   0.87494817  -0.82774029   0.14516616    11309.887     1000 
 1378000    0.5914199   -1.6761731   0.88624272   -0.7899304   0.11183019    11614.073     1000 
 1380000   0.57227991    -1.721418   0.85756145  -0.86385652   0.13052122    11400.291     1000 
 1382000    0.6278621   -1.6836705   0.94085136  -0.74281909   0.13636044    11456.902     1000 
 1384000   0.58875673    -1.707998   0.88225196  -0.82574609   0.12420609      11496.3     1000 
 1386000   0.56238478   -1.6722291    0.8427336  -0.82949553   0.12437967      11556.7     1000 
 1388000   0.60132372   -1.6851843    0.9010836  -0.78410072   0.12859773     11492.18     1000 
 1390000   0.58111746   -1.6978385   0.87080452    -0.827034   0.13073701     11511.61     1000 
 1392000   0.57220103   -1.7004139   0.85744325  -0.84297067   0.11789127    11687.621     1000 
 1394000   0.61155104   -1.6609547   0.91640923  -0.74454552   0.13237029    11531.277     1000 
 1396000   0.59424704   -1.7195891   0.89047919   -0.8291099   0.14410203    11299.495     1000 
 1398000   0.60087406    -1.657038   0.90040977  -0.75662819   0.13215687    11499.911     1000 
 1400000   0.58411081   -1.6613566   0.87529005  -0.78606659   0.13166952    11400.445     1000 
 1402000   0.58000291   -1.7186733   0.86913436  -0.84953889   0.13556404      11396.6     1000 
 1404000    0.5841227   -1.7306841   0.87530787   -0.8553762   0.13638076    11211.214     1000 
 1406000   0.58322577   -1.6326944   0.87396381  -0.75873063   0.12885973    11472.904     1000 
 1408000   0.59086099   -1.6975559   0.88540519  -0.81215068    0.1252184    11587.237     1000 
 1410000   0.56335718   -1.6120043   0.84419073  -0.76781358   0.12846877    11551.475     1000 
 1412000   0.59763149   -1.7537246   0.89555078  -0.85817382   0.12584021    11523.619     1000 
 1414000   0.57813622   -1.7031722   0.86633712  -0.83683512   0.12927457    11596.956     1000 
 1416000   0.57912232   -1.6665634    0.8678148  -0.79874859   0.12674884    11493.275     1000 
 1418000     0.578779   -1.6713901   0.86730033  -0.80408979   0.12433515    11461.449     1000 
 1420000    0.5910785   -1.6822425   0.88573114  -0.79651136   0.12939794    11486.767     1000 
 1422000   0.58375889   -1.6975879    0.8747627  -0.82282517   0.13127437    11472.124     1000 
 1424000   0.59712769   -1.6440924   0.89479584  -0.74929655   0.12261597    11618.141     1000 
 1426000   0.59447106   -1.7614986   0.89081489   -0.8706837   0.12673475    11589.494     1000 
 1428000   0.57638419   -1.6736263    0.8637117  -0.80991461   0.11865219    11595.002     1000 
 1430000   0.57437399   -1.6766625   0.86069943  -0.81596302   0.12315812    11604.261     1000 
 1432000   0.59064038   -1.7132122    0.8850746  -0.82813757   0.13076421    11455.369     1000 
 1434000   0.61495519   -1.6791414   0.92151035  -0.75763103   0.13843318    11351.817     1000 
 1436000   0.56432524    -1.720766   0.84564137  -0.87512461    0.1312222    11336.513     1000 
 1438000   0.58708488   -1.6737254   0.87974669  -0.79397872   0.13224923     11374.34     1000 
 1440000    0.6090974    -1.691176   0.91273245   -0.7784435    0.1356006    11597.597     1000 
 1442000   0.58921112   -1.7048648   0.88293286  -0.82193199   0.12673846    11570.611     1000 
 1444000   0.59492743   -1.7276418   0.89149875  -0.83614307   0.11472844    11719.724     1000 
 1446000   0.61041115   -1.6464958    0.9147011  -0.73179474   0.13581635    11381.143     1000 
 1448000   0.61391591   -1.7056381     0.919953   -0.7856851   0.13666818     11400.24     1000 
 1450000   0.58853848   -1.6781877   0.88192491  -0.79626281   0.12516196    11503.059     1000 
 1452000   0.57196087   -1.7452607   0.85708336  -0.88817731   0.12932707    11463.313     1000 
 1454000   0.57046787   -1.6441158   0.85484611  -0.78926968   0.12556861    11585.425     1000 
 1456000   0.58914208   -1.6993609   0.88282941   -0.8165315   0.13286621    11412.323     1000 
 1458000   0.58979529   -1.6858596   0.88380825  -0.80205137   0.13255624    11531.133     1000 
 1460000    0.5961247   -1.7416218   0.89329286   -0.8483289   0.14236148    11426.421     1000 
 1462000   0.58351961   -1.7293561   0.87440413  -0.85495194   0.12428779    11478.534     1000 
 1464000   0.56626567   -1.7079748   0.84854911  -0.85942572   0.12654543    11495.483     1000 
 1466000   0.58187379   -1.7295788   0.87193787  -0.85764093    0.1278489    11647.093     1000 
 1468000   0.58241883   -1.6983661   0.87275462  -0.82561148   0.14237178     11394.89     1000 
 1470000    0.5679321   -1.6629571   0.85104626  -0.81191083   0.11860528    11633.132     1000 
 1472000   0.57988826    -1.741585   0.86896255  -0.87262245   0.13212812    11417.773     1000 
 1474000   0.58581221   -1.6695154   0.87783959  -0.79167583   0.13179293    11490.201     1000 
 1476000   0.59279099   -1.6866814    0.8882973  -0.79838413   0.13978686    11309.184     1000 
 1478000    0.6160146   -1.7308682   0.92309787  -0.80777033   0.13652742    11483.933     1000 
 1480000   0.57639298   -1.7137057   0.86372488  -0.84998078   0.12773591    11464.158     1000 
 1482000   0.59650635   -1.6313964   0.89386477  -0.73753159   0.14624053    11256.243     1000 
 1484000   0.61053565   -1.6859548   0.91488767  -0.77106717   0.12996109    11475.576     1000 
 1486000   0.58734622   -1.6505017   0.88013831  -0.77036335   0.14370938    11364.865     1000 
 1488000   0.60597851   -1.6279816   0.90805879  -0.71992281   0.12846466    11404.559     1000 
 1490000    0.5849852   -1.6457947   0.87660032   -0.7691944   0.13547271     11279.56     1000 
 1492000   0.56675691   -1.6724197   0.84928523  -0.82313445   0.12448237    11454.924     1000 
 1494000   0.58090211   -1.6845682   0.87048182  -0.81408636   0.13061412    11379.161     1000 
 1496000   0.56174923    -1.676536   0.84178122  -0.83475483   0.11368029    11384.518     1000 
 1498000   0.58752761   -1.6351572   0.88041012  -0.75474707   0.13668512    11327.271     1000 
 1500000   0.55304768   -1.7085404   0.82874195  -0.87979842   0.11694486    11680.905     1000 
 1502000   0.59023319   -1.6678433   0.88446443  -0.78337884   0.12003583    11559.659     1000 
 1504000   0.58517497   -1.7332659   0.87688469  -0.85638119   0.11447862    11586.922     1000 
 1506000   0.57670665   -1.7114704   0.86419491  -0.84727553   0.12311298    11492.096     1000 
 1508000   0.58146544   -1.6643941   0.87132597  -0.79306811    0.1109168    11625.313     1000 
 1510000   0.58944073   -1.6386904   0.88327694  -0.75541344   0.12464232    11311.171     1000 
 1512000   0.57946257   -1.6102887   0.86832466  -0.74196407   0.12443561    11463.044     1000 
 1514000   0.60122239     -1.69558   0.90093175  -0.79464823   0.12658056    11546.299     1000 
 1516000   0.58690808   -1.6684137   0.87948176  -0.78893199   0.13347049    11439.129     1000 
 1518000   0.57820891   -1.7273666   0.86644606  -0.86092057   0.12165549    11464.318     1000 
 1520000   0.61197642   -1.6677699   0.91704667  -0.75072328   0.13239079    11498.312     1000 
 1522000   0.58574764   -1.7029372   0.87774284  -0.82519434   0.13026287    11564.219     1000 
 1524000   0.59703252   -1.6350516   0.89465323  -0.74039834   0.12540668    11404.833     1000 
 1526000   0.60725872   -1.7365358   0.90997719   -0.8265586   0.13891058    11503.999     1000 
 1528000   0.60324416   -1.6973094   0.90396138  -0.79334801   0.12445111    11663.277     1000 
 1530000   0.62402871    -1.718996   0.93510702  -0.78388899   0.12511378     11539.58     1000 
 1532000   0.58486761   -1.5971926   0.87642412  -0.72076844   0.12133065    11325.191     1000 
 1534000   0.60911936   -1.7202744   0.91276535  -0.80750902   0.14408871    11322.242     1000 
 1536000   0.57863366   -1.7362558   0.86708254  -0.86917324   0.12109727    11616.793     1000 
 1538000   0.59776743   -1.7184138    0.8957545   -0.8226593   0.12879878    11529.997     1000 
 1540000   0.57348618   -1.6823991   0.85936904  -0.82303004   0.13427593    11432.316     1000 
 1542000   0.58614386   -1.6994138   0.87833657  -0.82107718   0.11941237    11576.474     1000 
 1544000   0.58196175   -1.6892729   0.87206969  -0.81720317   0.13060141    11488.584     1000 
 1546000   0.55831571    -1.695546   0.83663609  -0.85890986   0.13409829    11401.071     1000 
 1548000   0.61559148   -1.6989911   0.92246383  -0.77652731   0.13011221    11474.797     1000 
 1550000   0.60634186   -1.6866808   0.90860327  -0.77807756   0.12238968    11647.383     1000 
 1552000   0.58390617   -1.7095117    0.8749834  -0.83452831   0.12893753    11493.657     1000 
 1554000   0.59009342   -1.6923216   0.88425499  -0.80806665   0.13301301     11454.01     1000 
 1556000   0.59164943   -1.7241763   0.88658666  -0.83758969   0.14265612    11320.177     1000 
 1558000   0.59143211   -1.6766448   0.88626101  -0.79038381   0.12433023    11477.127     1000 
 1560000   0.58445594   -1.6992061   0.87580722  -0.82339887   0.12449346    11608.012     1000 
 1562000   0.58610432   -1.7009936   0.87827732   -0.8227163   0.12337547    11560.871     1000 
 1564000   0.58923504   -1.7751867   0.88296871  -0.89221796   0.12389563    11741.204     1000 
 1566000    0.5976308   -1.7444876   0.89554976  -0.84893788   0.12999086    11619.013     1000 
 1568000   0.59802757    -1.740917   0.89614432  -0.84477268    0.1400572    11512.778     1000 
 1570000   0.59422329   -1.6878517    0.8904436  -0.79740805   0.12875093    11333.475     1000 
 1572000   0.60110681     -1.68858   0.90075855  -0.78782149   0.13728442    11532.226     1000 
 1574000    0.5943654   -1.6784328   0.89065655  -0.78777624   0.12147753    11671.745     1000 
 1576000   0.59132296   -1.6791516   0.88609745  -0.79305414   0.14206579    11565.521     1000 
 1578000   0.58975258   -1.6908812   0.88374424  -0.80713691   0.13023516    11502.803     1000 
 1580000   0.58574667   -1.6809052   0.87774138  -0.80316385    0.1302936    11465.382     1000 
 1582000   0.59580071   -1.7052584   0.89280737  -0.81245103   0.13301093     11556.38     1000 
 1584000   0.60238587   -1.6934405   0.90267523  -0.79076527     0.133888    11509.427     1000 
 1586000   0.57730388   -1.6524231   0.86508986   -0.7873332   0.13524668    11329.342     1000 
 1588000   0.59682097   -1.6723257   0.89433622  -0.77798946   0.13491648    11481.831     1000 
[...]
 2614000    0.5926027   -1.6757945   0.88801515  -0.78777938   0.12522472    11488.892     1000 
 2616000   0.60225726   -1.7318698    0.9024825  -0.82938733   0.13422495    11279.177     1000 
 2618000   0.58739066   -1.6398575   0.88020491  -0.75965259   0.13633787    11386.925     1000 
 2620000   0.57088009   -1.6714265   0.85546382  -0.81596267   0.13017946    11397.662     1000 
 2622000   0.59201002   -1.7315936   0.88712702  -0.84446655   0.13318776     11362.88     1000 
 2624000   0.59351943   -1.6933929   0.88938886  -0.80400408   0.13064315    11581.581     1000 
 2626000   0.57657882   -1.7790048   0.86400336  -0.91500145   0.11097846    11757.264     1000 
 2628000   0.57343711   -1.7051541   0.85929551  -0.84585863   0.11598026    11506.855     1000 
 2630000   0.59323338    -1.697983   0.88896023  -0.80902281    0.1205615    11757.688     1000 
 2632000   0.59245993   -1.7181833   0.88780121  -0.83038214   0.12655445    11572.312     1000 
 2634000   0.60386828   -1.6586727   0.90489662  -0.75377613   0.12692957    11507.544     1000 
 2636000   0.59718297    -1.668771   0.89487868  -0.77389234   0.12433668    11367.471     1000 
 2638000    0.5885994   -1.7238314    0.8820162  -0.84181523   0.12869703    11502.521     1000 
 2640000   0.62323875   -1.7184561   0.93392327  -0.78453279   0.13091434    11313.686     1000 
 2642000   0.57365317   -1.6895801   0.85961927  -0.82996086   0.12152323    11538.277     1000 
 2644000   0.58710571   -1.6754076   0.87977791  -0.79562967   0.13069048    11518.496     1000 
 2646000   0.62090277   -1.7067231    0.9304228  -0.77630031   0.12720189    11467.301     1000 
 2648000   0.61857974   -1.7147928   0.92694174   -0.7878511   0.12247823    11717.189     1000 
 2650000   0.59117785   -1.6804003      0.88588  -0.79452029   0.13820565     11433.07     1000 
 2652000   0.57155311   -1.6968895   0.85647233  -0.84041713   0.12452251    11593.511     1000 
 2654000   0.58664538   -1.7267087    0.8790881  -0.84762059    0.1252045    11528.052     1000 
 2656000   0.59881916   -1.6845398   0.89733051   -0.7872093    0.1486794    11228.306     1000 
 2658000   0.57943513   -1.6705666   0.86828355  -0.80228309   0.13338485    11461.757     1000 
 2660000   0.58274984   -1.6892966   0.87325063  -0.81604597   0.12699641    11340.196     1000 
 2662000   0.58634024   -1.6828543   0.87863085  -0.80422342   0.14034831    11327.911     1000 
 2664000   0.58601192   -1.7032239   0.87813886    -0.825085   0.11691391    11451.191     1000 
 2666000   0.57184187   -1.6356339   0.85690505  -0.77872884   0.13729427    11354.556     1000 
 2668000   0.57830274    -1.723781   0.86658666  -0.85719435   0.12666244    11559.513     1000 
 2670000   0.60731472    -1.693397    0.9100611  -0.78333585   0.12410419    11625.416     1000 
 2672000   0.61464791   -1.6452936    0.9210499  -0.72424373   0.13791881    11351.555     1000 
 2674000   0.56258855    -1.683043   0.84303895  -0.84000407   0.12332695    11434.841     1000 
 2676000   0.61115783     -1.71148   0.91582001  -0.79566003   0.12762274    11549.225     1000 
 2678000   0.59120928   -1.7008805   0.88592711  -0.81495344   0.12091919    11544.787     1000 
 2680000   0.60427522   -1.6712138   0.90550642  -0.76570739   0.13798561    11533.893     1000 
 2682000   0.59943136   -1.6888376    0.8982479   -0.7905897    0.1305917    11316.105     1000 
 2684000   0.58797062   -1.6598554   0.88107397  -0.77878141   0.14292363    11277.615     1000 
 2686000    0.5850064   -1.7252527    0.8766321  -0.84862057   0.13975356    11388.622     1000 
 2688000   0.58748463   -1.6962706   0.88034572  -0.81592492   0.12072615    11592.499     1000 
 2690000   0.60839786   -1.7451131    0.9116842  -0.83342893   0.12630864    11542.212     1000 
 2692000   0.57993204   -1.6675397   0.86902816  -0.79851153   0.12123716    11561.227     1000 
 2694000   0.56286222   -1.7262559   0.84344904  -0.88280686     0.114154      11556.1     1000 
 2696000   0.60715042   -1.6824361   0.90981491  -0.77262121   0.13691914    11476.112     1000 
 2698000   0.58726535   -1.6731268   0.88001712  -0.79310968   0.12479169    11551.476     1000 
 2700000   0.59869409   -1.6622114   0.89714309  -0.76506829   0.12446015    11502.842     1000 
 2702000   0.59903998   -1.7039419   0.89766141  -0.80628051   0.12942573    11421.088     1000 
 2704000   0.56537316   -1.6665552   0.84721169  -0.81934353    0.1210814    11539.705     1000 
 2706000   0.58902805   -1.7125663   0.88265853  -0.82990777   0.13231008    11353.396     1000 
 2708000   0.56468486   -1.7257302   0.84618027  -0.87954994   0.12087772    11480.934     1000 
 2710000   0.57835112   -1.7152555   0.86665915  -0.84859635   0.12509629    11614.642     1000 
 2712000   0.56880282   -1.6951809   0.85235103  -0.84282992   0.11961601    11541.005     1000 
 2714000    0.5919147   -1.6591946   0.88698418  -0.77221044   0.13218269    11499.914     1000 
 2716000   0.59689734   -1.7220295   0.89445066  -0.82757884   0.14179828    11472.375     1000 
 2718000   0.59551562   -1.7155645   0.89238016  -0.82318431   0.13842027    11239.559     1000 
 2720000    0.6039506   -1.6735797   0.90501997  -0.76855969   0.12818866    11540.251     1000 
 2722000   0.58177091   -1.6463092   0.87178371   -0.7745255   0.13052639    11472.698     1000 
 2724000   0.59346271   -1.6815869   0.88930387  -0.79228299   0.13088378    11609.421     1000 
 2726000   0.60419251   -1.7145468   0.90538248  -0.80916433   0.13901792    11386.936     1000 
 2728000   0.57470226   -1.6447408   0.86119133  -0.78354951   0.13996214    11383.571     1000 
 2730000   0.58375277   -1.7433375   0.87475353  -0.86858393   0.12515597    11589.292     1000 
 2732000    0.6031619   -1.6558195   0.90383811  -0.75198134   0.12682323    11429.679     1000 
 2734000   0.60180766   -1.6612336   0.90180878   -0.7594248   0.14912314    11337.807     1000 
 2736000   0.59320187   -1.6827115     0.888913  -0.79379846   0.13196373     11495.21     1000 
 2738000   0.60279076   -1.7215556   0.90328196  -0.81827368   0.12933751    11608.203     1000 
 2740000   0.59237171   -1.6967611   0.88766901  -0.80909214   0.13435227    11385.306     1000 
 2742000   0.61434587   -1.7094953   0.92059728  -0.78889804   0.12035561    11653.286     1000 
 2744000   0.59056743    -1.701316   0.88496529  -0.81635075   0.12483785    11773.285     1000 
 2746000   0.59745183   -1.6927918   0.89528157  -0.79751024   0.13204341    11589.972     1000 
 2748000   0.60070473   -1.6885756   0.90015604  -0.78841956   0.14419691     11415.83     1000 
 2750000   0.60821358    -1.691656   0.91140805  -0.78024795   0.14092309    11296.601     1000 
 2752000   0.56466982     -1.68584   0.84615773  -0.83968229    0.1290537    11343.761     1000 
 2754000   0.57635216   -1.6474398   0.86366371  -0.78377613   0.14065428    11491.888     1000 
 2756000   0.58159371   -1.6382942   0.87151818  -0.76677607   0.12192043    11437.443     1000 
 2758000   0.57290978   -1.7148514   0.85850531  -0.85634605    0.1230168     11602.62     1000 
 2760000   0.60672926   -1.6767336   0.90918379  -0.76754981   0.13480641    11409.356     1000 
 2762000   0.60927001    -1.702001   0.91299111  -0.78900989   0.12613118    11633.828     1000 
 2764000   0.58226787   -1.6744204    0.8725284    -0.801892   0.13749139     11381.77     1000 
 2766000   0.60599246   -1.6777241   0.90807971  -0.76964439   0.12788455    11629.715     1000 
 2768000   0.57714351   -1.6588185   0.86484955  -0.79396893   0.13656419    11385.679     1000 
 2770000   0.60148759   -1.7007407   0.90132916  -0.79941156   0.13097858    11589.731     1000 
 2772000   0.57921044   -1.6695439   0.86794685  -0.80159703   0.13729508    11451.724     1000 
 2774000   0.59901459   -1.6742864   0.89762337  -0.77666302   0.13542278    11331.812     1000 
 2776000   0.57327625   -1.7251082   0.85905446  -0.86605373   0.13266742    11436.278     1000 
 2778000   0.60187684   -1.6853891   0.90191244  -0.78347664   0.12965651    11440.591     1000 
 2780000   0.60954192   -1.7431823   0.91339857   -0.8297837   0.12611863    11652.443     1000 
 2782000   0.58075352   -1.6368661   0.87025915  -0.76660693   0.12417171    11395.219     1000 
 2784000   0.60138359   -1.6904007   0.90117331  -0.78922734   0.13636637    11459.765     1000 
 2786000    0.5886157    -1.684294   0.88204063  -0.80225339   0.13393208     11586.25     1000 
 2788000   0.60114619    -1.651606   0.90081756  -0.75078839   0.13083095     11349.31     1000 
 2790000   0.58799906   -1.6859858   0.88111658  -0.80486921   0.13755302    11343.042     1000 
 2792000   0.55975702   -1.6776634   0.83879589  -0.83886749   0.11571488    11591.243     1000 
 2794000    0.5799169   -1.7105018   0.86900548  -0.84149629   0.12094637     11503.98     1000 
 2796000   0.59397049   -1.7508916   0.89006479  -0.86082678   0.13016314    11616.283     1000 
 2798000   0.58998166   -1.7090284   0.88408751  -0.82494087   0.12834125    11510.059     1000 
 2800000   0.62825761   -1.7044786   0.94144403  -0.76303455   0.12156289    11858.054     1000 
 2802000   0.60758413   -1.6023007   0.91046481  -0.69183588   0.12570814    11399.301     1000 
 2804000   0.57713335   -1.6335803   0.86483433  -0.76874595   0.12912701     11384.67     1000 
 2806000   0.60615459   -1.6835545   0.90832266  -0.77523182   0.13832918    11472.451     1000 
 2808000   0.56838617   -1.6230744   0.85172667  -0.77134769   0.11975859    11518.087     1000 
 2810000    0.5858133   -1.6658472   0.87784123  -0.78800594   0.13526634    11475.504     1000 
 2812000   0.60107519   -1.7190642   0.90071118  -0.81835299   0.12351249    11624.317     1000 
 2814000   0.60340105   -1.7383282   0.90419647  -0.83413172   0.11994332    11666.202     1000 
 2816000   0.58101984   -1.6694667   0.87065823  -0.79880847    0.1403424    11406.607     1000 
 2818000   0.56530534   -1.6872605   0.84711005  -0.84015049   0.12888038    11528.467     1000 
 2820000      0.57763   -1.6896682   0.86557855  -0.82408963   0.13509076    11484.152     1000 
 2822000   0.60466693    -1.712466    0.9060934  -0.80637256    0.1332384    11622.326     1000 
 2824000     0.586031    -1.700604   0.87816746   -0.8224365   0.13077668    11494.715     1000 
 2826000   0.58455767   -1.6740685   0.87595966  -0.79810888   0.12360012    11490.883     1000 
 2828000   0.63263032   -1.6482054   0.94799654  -0.70020889   0.14627345    11364.486     1000 
 2830000   0.60289679   -1.7679545   0.90344083  -0.86451371   0.13290382    11483.433     1000 
 2832000   0.60641779   -1.7008968   0.90871706   -0.7921797   0.13954571    11492.145     1000 
 2834000   0.58424185   -1.6942024   0.87548641  -0.81871603    0.1324178     11364.09     1000 
 2836000   0.59746295   -1.6953053   0.89529823  -0.80000703   0.12680854    11656.437     1000 
 2838000   0.59555048   -1.7006116    0.8924324  -0.80817917   0.12104375    11513.486     1000 
 2840000   0.60278616   -1.7051408   0.90327506  -0.80186575   0.12090232    11613.433     1000 
 2842000   0.59362631   -1.6895389   0.88954903  -0.79998987   0.13928279    11336.844     1000 
 2844000   0.60678546    -1.658129   0.90926801  -0.74886099   0.12597783    11601.044     1000 
 2846000   0.61920325   -1.6768323   0.92787606   -0.7489562   0.14392375    11378.672     1000 
 2848000   0.60582531   -1.7096375   0.90782923  -0.80180824   0.13378956    11443.967     1000 
 2850000   0.58684582   -1.6586273   0.87938846  -0.77923882    0.1324407    11521.479     1000 
 2852000   0.59288071   -1.6469693   0.88843175  -0.75853755   0.13116541    11383.528     1000 
 2854000   0.58615344   -1.6856612   0.87835093  -0.80731027   0.12754375    11554.554     1000 
 2856000   0.57553577   -1.6988818   0.86244034  -0.83644145   0.12341048    11409.514     1000 
 2858000   0.61219577   -1.7220162   0.91737537  -0.80464081   0.12855213    11586.739     1000 
 2860000   0.55447309   -1.7170141   0.83087793  -0.88613615   0.12914702    11480.612     1000 
 2862000   0.57669467   -1.6478257   0.86417697   -0.7836487    0.1365402    11333.272     1000 
 2864000   0.60772442   -1.7270262   0.91067504  -0.81635115   0.12723013    11564.835     1000 
 2866000   0.58938254   -1.6985195   0.88318973  -0.81532977   0.13518731    11396.517     1000 
 2868000   0.56359908   -1.6609577   0.84455322  -0.81640451   0.11835624    11458.185     1000 
 2870000   0.59013679   -1.6796929   0.88431998  -0.79537291   0.11599408    11588.954     1000 
 2872000   0.59838078   -1.6960884    0.8966736  -0.79941477   0.13195218    11617.325     1000 
 2874000   0.56760226   -1.7159041   0.85055199  -0.86535208   0.12965653      11543.7     1000 
 2876000   0.59727725   -1.7143288   0.89501997  -0.81930879   0.11254242    11781.158     1000 
 2878000   0.56136386   -1.6719307   0.84120374    -0.830727   0.12177946    11626.093     1000 
 2880000    0.5689822   -1.6689959   0.85261982  -0.81637605   0.12568734    11611.412     1000 
 2882000   0.60775741    -1.665117   0.91072447  -0.75439256   0.12929258    11463.113     1000 
 2884000   0.58189285   -1.7072259   0.87196644  -0.83525946   0.11678846    11603.438     1000 
 2886000   0.60135388   -1.7315298   0.90112878  -0.83040102    0.1149956    11686.435     1000 
 2888000   0.57867514   -1.6958355    0.8671447  -0.82869075   0.13221762    11370.981     1000 
 2890000   0.59136662   -1.6662926   0.88616288  -0.78012974   0.13359878    11368.329     1000 
 2892000   0.57908645   -1.6467563   0.86776105  -0.77899528   0.12109264    11507.369     1000 
 2894000   0.58913383   -1.7052715   0.88281704  -0.82245449   0.12053899    11690.806     1000 
 2896000   0.58415259   -1.6827587   0.87535265  -0.80740607   0.14028296    11351.536     1000 
 2898000   0.58467266   -1.7241641   0.87613198  -0.84803213   0.12436808    11526.684     1000 
 2900000   0.59971231   -1.6956397    0.8986689   -0.7969708   0.13105731    11466.414     1000 
 2902000     0.599619   -1.7228153   0.89852907   -0.8242862   0.13188187    11579.132     1000 
 2904000   0.59369271     -1.67283   0.88964853  -0.78318146   0.13931351     11387.08     1000 
 2906000    0.5735816   -1.6995973   0.85951202  -0.84008526   0.12268245    11498.147     1000 
 2908000   0.61142316   -1.7176913    0.9162176  -0.80147365   0.14187166    11389.325     1000 
 2910000   0.60437055   -1.7226628   0.90564927  -0.81701354    0.1301007    11479.278     1000 
 2912000   0.58593373   -1.6858045    0.8780217   -0.8077828   0.13206602    11536.243     1000 
 2914000   0.59122602   -1.6989579   0.88595219  -0.81300572   0.12595376    11584.601     1000 
 2916000   0.56522969   -1.6582515   0.84699669  -0.81125484   0.12840311     11407.51     1000 
 2918000   0.59097942   -1.6804128   0.88558267  -0.79483016   0.11872072    11598.083     1000 
 2920000   0.60490232   -1.6648083   0.90644613  -0.75836222   0.13148122    11482.014     1000 
 2922000   0.60653997   -1.6435178   0.90890014  -0.73461764   0.13608148    11473.781     1000 
 2924000   0.62417681   -1.7383993   0.93532895  -0.80307035   0.11732369     11753.27     1000 
 2926000   0.56431125   -1.6971124   0.84562041  -0.85149201   0.13366638    11393.626     1000 
 2928000   0.60908252   -1.6838537   0.91271016  -0.77114355   0.12445951    11625.266     1000 
 2930000   0.58087455   -1.6903242   0.87044051  -0.81988374   0.12620274    11468.063     1000 
 2932000   0.57814785   -1.6895584   0.86635455  -0.82320385   0.12265603    11588.924     1000 
 2934000   0.60640414    -1.674043    0.9086966  -0.76534645   0.12863389    11701.974     1000 
 2936000   0.58039908   -1.6726135   0.86972803  -0.80288544    0.1271315    11384.451     1000 
 2938000   0.58871534    -1.675843   0.88218993   -0.7936531   0.14072331    11304.983     1000 
 2940000    0.5894073   -1.6403052   0.88322683  -0.75707839   0.12890981    11336.467     1000 
 2942000   0.57828504   -1.7387412   0.86656013  -0.87218107   0.13437294    11509.086     1000 
 2944000   0.57090122   -1.6278379   0.85549548   -0.7723424   0.14443581    11355.112     1000 
 2946000   0.59714659   -1.6740642   0.89482417  -0.77924005   0.12897295    11415.316     1000 
 2948000   0.59120126   -1.6934275   0.88591509  -0.80751244   0.12198956    11552.887     1000 
 2950000   0.60692239   -1.6789002    0.9094732  -0.76942702   0.13074577    11474.196     1000 
 2952000   0.59203048   -1.7317369   0.88715768  -0.84457917   0.13998263    11484.466     1000 
 2954000   0.61713757   -1.6799784   0.92478065  -0.75519773   0.13423935    11432.383     1000 
 2956000   0.59637099    -1.651415   0.89366193  -0.75775302    0.1404558    11303.078     1000 
 2958000   0.58941906   -1.7531039   0.88324446  -0.86985946   0.12652115    11541.045     1000 
 2960000   0.56709424   -1.6791051   0.84979072  -0.82931443    0.1323188    11621.703     1000 
 2962000   0.62624858   -1.6916863   0.93843349  -0.75325285   0.13578303    11419.613     1000 
 2964000   0.58661016   -1.7178604   0.87903533  -0.83882507   0.13879679     11470.95     1000 
 2966000   0.60247813   -1.6730933   0.90281348  -0.77027981    0.1234787    11565.266     1000 
 2968000   0.57842667   -1.7029061   0.86677237  -0.83613368    0.1316174    11390.491     1000 
 2970000   0.57469731   -1.6918164   0.86118391  -0.83063247   0.12025461    11593.272     1000 
 2972000   0.57705669   -1.6406761   0.86471946  -0.77595661   0.13397854     11376.13     1000 
 2974000   0.58053011   -1.6221089   0.86992437  -0.75218451   0.13894511    11550.501     1000 
 2976000   0.60929434   -1.7291918   0.91302756  -0.81616425   0.12610016    11584.663     1000 
 2978000   0.61672804   -1.6857221   0.92416697   -0.7615551    0.1317086    11483.474     1000 
 2980000   0.56773288   -1.7315791   0.85074771  -0.88083143   0.12430079    11451.509     1000 
 2982000   0.59225599   -1.6270425   0.88749561  -0.73954694   0.13175319    11318.625     1000 
 2984000   0.58801697   -1.7326483   0.88114343  -0.85150488   0.11936491    11621.252     1000 
 2986000   0.57631141   -1.6852946   0.86360265  -0.82169194    0.1177372    11592.927     1000 
 2988000   0.59621286   -1.6424799   0.89342496  -0.74905498   0.13607644     11293.84     1000 
 2990000   0.55413811   -1.7173129   0.83037595  -0.88693693   0.12229397    11705.698     1000 
 2992000   0.59486335     -1.69925   0.89140273  -0.80784723   0.12676236     11557.35     1000 
 2994000   0.60745281   -1.6725377   0.91026803  -0.76226971   0.12755933    11439.477     1000 
 2996000   0.57449813   -1.6954655   0.86088545  -0.83458002   0.12441964    11611.525     1000 
 2998000   0.59538394   -1.6776473   0.89218284  -0.78546451   0.13219407    11515.671     1000 
 3000000   0.58265893   -1.7083102   0.87311441  -0.83519584   0.13381155    11419.737     1000 
Loop time of 9551.41 on 1 procs for 3000000 steps with 1000 atoms

Performance: 135686.785 tau/day, 314.090 timesteps/s
100.0% CPU use with 1 MPI tasks x 1 OpenMP threads

MPI task timing breakdown:
Section |  min time  |  avg time  |  max time  |%varavg| %total
---------------------------------------------------------------
Pair    | 8599.2     | 8599.2     | 8599.2     |   0.0 | 90.03
Neigh   | 631.6      | 631.6      | 631.6      |   0.0 |  6.61
Comm    | 111.77     | 111.77     | 111.77     |   0.0 |  1.17
Output  | 0.045066   | 0.045066   | 0.045066   |   0.0 |  0.00
Modify  | 187.43     | 187.43     | 187.43     |   0.0 |  1.96
Other   |            | 21.35      |            |       |  0.22

Nlocal:        1000.00 ave        1000 max        1000 min
Histogram: 1 0 0 0 0 0 0 0 0 0
Nghost:        4217.00 ave        4217 max        4217 min
Histogram: 1 0 0 0 0 0 0 0 0 0
Neighs:        104096.0 ave      104096 max      104096 min
Histogram: 1 0 0 0 0 0 0 0 0 0

Total # of neighbors = 104096
Ave neighs/atom = 104.09600
Neighbor list builds = 150000
Dangerous builds not checked

Total wall time: 2:39:11
