LAMMPS (29 Sep 2021 - Update 2)
OMP_NUM_THREADS environment is not set. Defaulting to 1 thread. (src/comm.cpp:98)
  using 1 OpenMP thread(s) per MPI task
# ----------------------- Inicialização -----------------------

units			lj
atom_style 		atomic
dimension 		3
boundary 		p p p

# -------------------- Criação dos Átomos ---------------------

read_data 		topologia.txt
Reading data file ...
  orthogonal box = (0.0000000 0.0000000 0.0000000) to (21.540000 21.540000 21.540000)
  1 by 1 by 1 MPI processor grid
  reading atoms ...
  1000 atoms
  read_data CPU = 0.003 seconds

velocity 		all create ${temp} 87287 rot yes dist gaussian
velocity 		all create 0.62 87287 rot yes dist gaussian

# ------------------ Interação Interatômica -------------------

pair_style		table linear 1600
pair_coeff		1 1 force.table AA 8.0
WARNING: 3 of 1600 force values in table AA are inconsistent with -dE/dr.
WARNING:  Should only be flagged at inflection points (src/pair_table.cpp:465)
pair_coeff		1 2 force.table AB 8.0
WARNING: 1 of 1600 force values in table AB are inconsistent with -dE/dr.
WARNING:  Should only be flagged at inflection points (src/pair_table.cpp:465)
pair_coeff		2 2 force.table BB 8.0
pair_write		1 1 1600 r 0.008 8.0 table.check AA
Appending to table file table.check with DATE: 2023-07-05
Neighbor list info ...
  update every 1 steps, delay 10 steps, check yes
  max neighbors/atom: 2000, page size: 100000
  master list distance cutoff = 8.3
  ghost atom cutoff = 8.3
  binsize = 4.15, bins = 6 6 6
  1 neighbor lists, perpetual/occasional/extra = 1 0 0
  (1) pair table, perpetual
      attributes: half, newton on
      pair build: half/bin/atomonly/newton
      stencil: half/bin/3d
      bin: standard
pair_write		1 2 1600 r 0.008 8.0 table.check AB
Appending to table file table.check with DATE: 2023-07-05
pair_write		2 2 1600 r 0.008 8.0 table.check BB
Appending to table file table.check with DATE: 2023-07-05

neighbor 		0.3 bin
neigh_modify		every 20 delay 0 check no

# ------------------------- Ensemble --------------------------------------

fix 1			all npt temp ${temp} ${temp} 0.5 iso ${press} ${press} 5
fix 1			all npt temp 0.62 ${temp} 0.5 iso ${press} ${press} 5
fix 1			all npt temp 0.62 0.62 0.5 iso ${press} ${press} 5
fix 1			all npt temp 0.62 0.62 0.5 iso 0.13 ${press} 5
fix 1			all npt temp 0.62 0.62 0.5 iso 0.13 0.13 5

# ---------------------- Função de Distribuição Radial -----------------------

#compute RDF 		all rdf 2000 1 1 1 2 2 2
#fix 2 			all ave/time 1 2000 2000 c_RDF[*] file rdf.data mode vector

# ------------------------- Execução ---------------------------

timestep 		0.005
thermo_style		custom step temp pe ke etotal press vol atoms
thermo			2000
run			3000000
Per MPI rank memory allocation (min/avg/max) = 3.125 | 3.125 | 3.125 Mbytes
Step Temp PotEng KinEng TotEng Press Volume Atoms 
       0         0.62  -0.99524352      0.92907 -0.066173517   0.13014876    9993.9483     1000 
    2000   0.60999524    -1.615847   0.91407786  -0.70176912   0.12486572    11662.205     1000 
    4000   0.65776235   -1.6084325   0.98565688  -0.62277563   0.13341107    11644.963     1000 
    6000   0.63867551   -1.6001755   0.95705525  -0.64312021   0.12656299    11545.742     1000 
    8000    0.6129701   -1.6097099   0.91853569  -0.69117419   0.12731878    11616.202     1000 
   10000   0.63014461   -1.6694206    0.9442717  -0.72514892   0.13156017    11566.065     1000 
   12000   0.63110497    -1.643785   0.94571079  -0.69807417   0.12071594    11626.837     1000 
   14000   0.64292133   -1.6430119   0.96341761  -0.67959434   0.13576381    11684.973     1000 
   16000   0.58607371   -1.6497379   0.87823146  -0.77150644   0.12837137    11521.175     1000 
   18000   0.62051807   -1.6502983   0.92984633  -0.72045193   0.11848476    11519.373     1000 
   20000   0.62064392   -1.6342616   0.93003492  -0.70422672   0.14106964    11283.961     1000 
   22000   0.61202107   -1.5719121   0.91711358  -0.65479851   0.13141512    11573.383     1000 
   24000   0.59732338   -1.6302257   0.89508909  -0.73513658   0.13148757     11652.86     1000 
   26000   0.61809608   -1.6327359   0.92621697  -0.70651895   0.12478715    11627.685     1000 
   28000   0.63494093   -1.6287084   0.95145899  -0.67724943   0.13971762    11448.887     1000 
   30000   0.61841407   -1.6088163   0.92669348  -0.68212281   0.14193264    11354.399     1000 
   32000   0.58669616   -1.6881208    0.8791642  -0.80895663   0.12928562    11640.157     1000 
   34000   0.63178931   -1.5821468   0.94673628  -0.63541056   0.13303771    11364.972     1000 
   36000   0.61375085   -1.6154749   0.91970564  -0.69576924   0.13198131    11447.787     1000 
   38000   0.64023227   -1.6498074   0.95938805  -0.69041938   0.13061378    11469.485     1000 
   40000   0.62824267   -1.6358393   0.94142164  -0.69441765   0.14200233    11331.989     1000 
   42000   0.62286262   -1.6481738   0.93335963  -0.71481419   0.12931389     11495.27     1000 
   44000   0.61340254   -1.6705486    0.9191837   -0.7513649   0.12078053    11582.385     1000 
   46000   0.60412003   -1.6679453   0.90527387  -0.76267146   0.12508643    11596.133     1000 
   48000   0.62123641   -1.6207325   0.93092276  -0.68980974   0.12657138    11655.295     1000 
   50000   0.62428648   -1.6502697   0.93549329  -0.71477637   0.13044489    11645.232     1000 
   52000   0.59495572   -1.6441434   0.89154114  -0.75260228    0.1218184    11499.094     1000 
   54000   0.60979499    -1.562697    0.9137778   -0.6489192   0.14190051    11378.689     1000 
   56000   0.62607455   -1.6452246   0.93817271  -0.70705191   0.12939263    11658.545     1000 
   58000   0.61782385   -1.6234386   0.92580903  -0.69762954   0.13731831    11492.613     1000 
   60000   0.62834947   -1.6427019   0.94158169  -0.70112018   0.13656006    11513.034     1000 
   62000   0.63499925   -1.6556233   0.95154638  -0.70407693   0.12963202    11629.001     1000 
   64000   0.64382605   -1.6076689   0.96477334  -0.64289558   0.13620997     11429.53     1000 
   66000   0.63595047    -1.638731   0.95297178   -0.6857592   0.14862499    11407.665     1000 
   68000   0.64235885   -1.6374266   0.96257474  -0.67485191   0.13675916    11655.743     1000 
   70000    0.6108125   -1.6470259   0.91530252  -0.73172338   0.13717764    11523.538     1000 
   72000   0.60139507    -1.574174   0.90119051  -0.67298348   0.12324242    11374.577     1000 
   74000   0.62727253   -1.5902261   0.93996789  -0.65025822    0.1424903    11277.607     1000 
   76000   0.59638604    -1.632051   0.89368447  -0.73836653   0.12958036    11452.755     1000 
   78000   0.62476932   -1.6363291   0.93621683  -0.70011224      0.13432    11471.824     1000 
   80000   0.59736047   -1.6316626   0.89514466  -0.73651791   0.11529435    11822.376     1000 
   82000   0.63652871   -1.6527202   0.95383827  -0.69888192   0.13417413    11443.662     1000 
   84000   0.60124283   -1.6452592   0.90096239  -0.74429684    0.1459014    11301.101     1000 
   86000   0.60131802   -1.5892907   0.90107505  -0.68821565   0.12760485    11547.712     1000 
   88000   0.60525072   -1.6571656    0.9069682  -0.75019738   0.12138017    11596.977     1000 
   90000   0.65200435   -1.6250036   0.97702852  -0.64797508   0.12468507    11809.811     1000 
   92000   0.62119043   -1.5764784   0.93085386  -0.64562457   0.13455491    11464.206     1000 
   94000   0.62751573    -1.608132   0.94033232  -0.66779967   0.13026473    11418.375     1000 
   96000   0.64995098   -1.6307311   0.97395155  -0.65677952   0.12423224    11529.076     1000 
   98000   0.62736025   -1.5983196   0.94009934  -0.65822023   0.12809068    11371.264     1000 
  100000    0.6093251   -1.6436427   0.91307366  -0.73056908   0.12936958    11516.311     1000 
  102000   0.60833993    -1.601608   0.91159738   -0.6900106   0.14371683    11348.233     1000 
  104000   0.60830667   -1.5854069   0.91154755   -0.6738594   0.13451335        11394     1000 
  106000   0.60059009   -1.6016408   0.89998425  -0.70165654   0.13539941    11415.148     1000 
  108000   0.60267613   -1.6642608   0.90311018  -0.76115065   0.13029559    11580.074     1000 
  110000   0.61889402   -1.6393168   0.92741268  -0.71190408   0.12581437    11568.015     1000 
  112000    0.6203159   -1.6448655   0.92954338  -0.71532216   0.13462871    11550.029     1000 
  114000   0.62492586   -1.6216853    0.9364514  -0.68523388    0.1282639    11499.884     1000 
  116000    0.6098505   -1.5917458   0.91386097  -0.67788484   0.13163664    11524.389     1000 
  118000   0.62669639     -1.64584   0.93910454  -0.70673544    0.1272606    11734.353     1000 
  120000   0.62734296   -1.6185732   0.94007343  -0.67849975   0.11857914    11643.842     1000 
  122000    0.6572208   -1.6130521   0.98484536  -0.62820671   0.13841989    11469.849     1000 
  124000   0.63094654   -1.5840987   0.94547339  -0.63862528   0.12730696    11600.809     1000 
  126000   0.58593423   -1.5845235   0.87802245  -0.70650106    0.1356218    11555.402     1000 
  128000   0.60386497   -1.6036899   0.90489165  -0.69879826   0.12541712    11408.184     1000 
  130000   0.60020931   -1.6368927   0.89941365  -0.73747902   0.12976953    11553.502     1000 
  132000   0.62187621    -1.697431    0.9318815  -0.76554954   0.12317642    11665.401     1000 
  134000   0.59417041   -1.5432794   0.89036436  -0.65291507   0.13792087    11511.434     1000 
  136000   0.65837711   -1.6382046    0.9865781  -0.65162646   0.12641866    11641.852     1000 
  138000   0.61510841   -1.6013982   0.92173996  -0.67965821   0.13073395    11369.088     1000 
  140000   0.65383568   -1.6472218   0.97977276  -0.66744908   0.13437965    11631.984     1000 
  142000   0.60772916   -1.6060016   0.91068215  -0.69531943   0.13343745    11541.279     1000 
  144000   0.62770562   -1.5953709   0.94061688    -0.654754    0.1323649    11564.554     1000 
  146000   0.66659402   -1.6469408   0.99889114  -0.64804964   0.13772881    11422.111     1000 
  148000   0.61347272   -1.6365877   0.91928888  -0.71729877   0.12662462     11408.05     1000 
  150000   0.61372764   -1.6242813   0.91967087  -0.70461043   0.13128135    11403.411     1000 
  152000   0.62234839   -1.5745294   0.93258906   -0.6419403   0.14124854    11475.448     1000 
  154000   0.62925751   -1.6362444   0.94294238    -0.693302   0.13186726    11372.383     1000 
  156000    0.6158865   -1.6654873   0.92290592  -0.74258138   0.12859036    11545.255     1000 
  158000   0.59584782    -1.674738   0.89287796  -0.78186009    0.1258057    11735.081     1000 
  160000   0.61538599   -1.5798756   0.92215591  -0.65771968   0.12723469    11544.076     1000 
  162000   0.64280603   -1.5973484   0.96324483  -0.63410357   0.14331215    11413.286     1000 
  164000   0.63309448   -1.6436715   0.94869208  -0.69497943   0.12878942    11652.474     1000 
  166000   0.61677987   -1.5994487   0.92424464  -0.67520408     0.137438    11435.839     1000 
  168000    0.5945605   -1.6351323   0.89094891  -0.74418339   0.13598352     11477.03     1000 
  170000   0.60107282   -1.5723349   0.90070761  -0.67162728   0.12898329    11449.856     1000 
  172000   0.62292473   -1.5951495    0.9334527  -0.66169679   0.13269585    11340.653     1000 
  174000    0.6158182   -1.6157388   0.92280357  -0.69293522   0.13928233    11391.704     1000 
  176000   0.62008418    -1.638024   0.92919614  -0.70882789   0.12575023    11642.459     1000 
  178000   0.63463808   -1.6216455   0.95100517  -0.67064029   0.13930892    11339.157     1000 
  180000   0.62705974   -1.6815605   0.93964903  -0.74191144   0.12423624    11457.483     1000 
  182000   0.62317418   -1.6112463   0.93382651  -0.67741976   0.12889939    11590.531     1000 
  184000   0.63788886   -1.6534564   0.95587645  -0.69757998   0.12689202    11736.918     1000 
  186000   0.62984112   -1.6472443   0.94381692  -0.70342738   0.11902306    11749.806     1000 
  188000   0.61847186   -1.6058909   0.92678008  -0.67911086   0.12501264     11484.18     1000 
  190000   0.63438789   -1.6450894   0.95063026  -0.69445911   0.12559755    11486.799     1000 
  192000   0.62124987   -1.6089074   0.93094292  -0.67796443   0.13172149     11636.32     1000 
  194000   0.62359268   -1.5979214   0.93445363  -0.66346773   0.14058707    11605.076     1000 
  196000   0.62379576   -1.6328999   0.93475795  -0.69814198   0.11564455    11749.692     1000 
  198000   0.57632858   -1.5969177   0.86362838  -0.73328937   0.12340363    11507.988     1000 
  200000   0.62310667   -1.6160737   0.93372535  -0.68234835   0.14262715    11467.222     1000 
  202000   0.62757752   -1.6436205   0.94042491  -0.70319563   0.12459971      11572.8     1000 
  204000   0.62598841   -1.6549257   0.93804363  -0.71688205   0.13122469    11587.128     1000 
  206000   0.61083417   -1.6136021     0.915335  -0.69826714   0.13747089    11580.527     1000 
  208000   0.62162127   -1.5950607   0.93149948  -0.66356123   0.15083617    11214.867     1000 
  210000   0.61989958    -1.604164   0.92891953  -0.67524452   0.14138602    11273.397     1000 
  212000   0.61713425   -1.6428789   0.92477567  -0.71810324   0.12051688    11690.072     1000 
  214000   0.63558629   -1.6590038   0.95242606  -0.70657775   0.13100377    11546.894     1000 
  216000   0.62882517   -1.5972691   0.94229452  -0.65497454   0.12077429    11484.532     1000 
  218000   0.61373443   -1.6527282   0.91968104   -0.7330472   0.11988341    11630.567     1000 
  220000    0.6089869   -1.6114968   0.91256688  -0.69892997   0.13885754    11425.179     1000 
  222000   0.61811747   -1.6049153   0.92624902  -0.67866631    0.1324954    11301.713     1000 
  224000   0.62331214   -1.6394345   0.93403324  -0.70540128   0.13059811    11608.941     1000 
  226000   0.62320733   -1.5919269   0.93387618  -0.65805076   0.11925157    11597.232     1000 
  228000   0.61239208   -1.6485625   0.91766953  -0.73089295   0.12073586    11542.231     1000 
  230000   0.61227065   -1.6085579   0.91748756   -0.6910703   0.12260332    11490.916     1000 
  232000    0.6351597   -1.6442204   0.95178681  -0.69243354   0.13702057    11434.795     1000 
  234000   0.62324967   -1.6126279   0.93393964  -0.67868822   0.12971451    11502.848     1000 
  236000   0.63195134   -1.6300231   0.94697908  -0.68304399   0.12482446    11698.291     1000 
  238000   0.62589964   -1.5874217   0.93791062  -0.64951107   0.12391317    11488.561     1000 
  240000    0.6192915   -1.6237587   0.92800831  -0.69575039   0.13841173    11568.383     1000 
  242000   0.63266106   -1.6739954   0.94804259  -0.72595277   0.12736621    11634.336     1000 
  244000   0.60387405   -1.5611618   0.90490527  -0.65625657    0.1248937    11543.256     1000 
  246000   0.63596892   -1.5686244   0.95299943  -0.61562494   0.13429592    11600.875     1000 
  248000    0.6342973   -1.5720032   0.95049451  -0.62150865   0.13015798    11646.031     1000 
  250000   0.61104647   -1.6708852   0.91565314  -0.75523208   0.13600779    11311.516     1000 
  252000   0.64288625   -1.6561316   0.96336504  -0.69276651   0.12793366    11752.624     1000 
  254000   0.62594597   -1.6124052   0.93798004  -0.67442517   0.13576849    11488.011     1000 
  256000    0.6225605   -1.5976189   0.93290691  -0.66471201   0.13024881    11421.372     1000 
  258000    0.6287603   -1.6296815   0.94219731  -0.68748423      0.13154    11553.769     1000 
  260000   0.59268942   -1.6061838    0.8881451  -0.71803867   0.11723803    11550.682     1000 
  262000   0.62413866   -1.5722063   0.93527178  -0.63693454    0.1190719    11585.665     1000 
  264000    0.6521115   -1.6998572   0.97718908  -0.72266813   0.13024461    11660.303     1000 
  266000   0.61312144   -1.5892674   0.91876248  -0.67050488   0.13344391    11299.844     1000 
  268000   0.59203498   -1.6054573   0.88716442  -0.71829286   0.13629995    11371.821     1000 
  270000   0.64026402     -1.59565   0.95943563  -0.63621435   0.12807945    11532.169     1000 
  272000   0.60694103   -1.6156066   0.90950114  -0.70610544   0.12708156    11558.908     1000 
  274000   0.59585713   -1.5471442    0.8928919  -0.65425231   0.11749733    11607.919     1000 
  276000   0.62584443   -1.6423713   0.93782787  -0.70454341   0.14211381    11444.689     1000 
  278000   0.60752433   -1.6371776    0.9103752  -0.72680242   0.12083589    11786.778     1000 
  280000   0.63644978   -1.6180384   0.95371999  -0.66431839   0.13048692    11521.918     1000 
  282000   0.63423327   -1.5877272   0.95039855  -0.63732862    0.1323007    11595.823     1000 
  284000   0.64610227   -1.6489079   0.96818425  -0.68072366   0.13337796     11450.27     1000 
  286000   0.62943272   -1.6631379   0.94320493  -0.71993298   0.12285226    11770.546     1000 
  288000   0.60394818   -1.6700886   0.90501635  -0.76507222   0.12228214    11721.541     1000 
  290000   0.59793386   -1.6442304   0.89600389  -0.74822646   0.13535172    11322.721     1000 
  292000   0.58830601    -1.632778   0.88157655  -0.75120146   0.10954007    11787.925     1000 
  294000    0.5887812    -1.594883   0.88228863  -0.71259436   0.13485176    11491.346     1000 
  296000   0.62579231   -1.6027957   0.93774977  -0.66504589    0.1439562    11189.815     1000 
  298000   0.61298925   -1.6562992    0.9185644  -0.73773479   0.12346706    11737.843     1000 
  300000   0.61810698   -1.6722407    0.9262333  -0.74600736   0.14050985    11330.992     1000 
  302000   0.62160213   -1.6138088    0.9314708  -0.68233805   0.12553409    11611.171     1000 
  304000   0.59155427   -1.5927975   0.88644408  -0.70635345   0.12441418    11624.914     1000 
  306000   0.60294509   -1.6058128   0.90351322  -0.70229958   0.12757136    11413.201     1000 
  308000   0.59818565   -1.6275513    0.8963812  -0.73117008    0.1279357    11415.719     1000 
  310000   0.65091104   -1.6133325    0.9753902  -0.63794226   0.12830796     11545.87     1000 
  312000   0.62986942   -1.6457951   0.94385933   -0.7019358   0.12031674    11622.283     1000 
  314000   0.62871029   -1.6200502   0.94212237  -0.67792784   0.12178492    11639.238     1000 
  316000   0.64135286   -1.6476468   0.96106726  -0.68657952   0.11734839    11614.971     1000 
  318000   0.63526388   -1.6188386   0.95194293  -0.66689563   0.12292328    11716.264     1000 
  320000   0.62463701   -1.5821417   0.93601856  -0.64612314   0.12554278    11532.776     1000 
  322000   0.61461906   -1.6161155   0.92100666  -0.69510883   0.11131662    11884.229     1000 
  324000   0.62480245   -1.6676049   0.93626647  -0.73133844    0.1332786    11566.313     1000 
  326000   0.59822775    -1.621489   0.89644429  -0.72504471   0.13556129    11325.495     1000 
  328000   0.60862083   -1.6393339   0.91201831  -0.72731561    0.1284137     11536.49     1000 
  330000    0.6240612   -1.6660542   0.93515571  -0.73089852   0.13134152    11568.384     1000 
  332000   0.61694197   -1.6069638   0.92448754  -0.68247628   0.11952044     11721.22     1000 
  334000   0.62226247   -1.6264641   0.93246031  -0.69400379   0.12889308    11722.189     1000 
  336000   0.60491672   -1.6422386   0.90646771  -0.73577089   0.13536449    11489.483     1000 
  338000   0.61459417   -1.6168112   0.92096936  -0.69584188   0.13212044    11464.926     1000 
  340000    0.6018259   -1.6391389   0.90183611  -0.73730282   0.13402885    11434.677     1000 
  342000   0.59632572   -1.6435873    0.8935941   -0.7499932   0.12443088    11533.737     1000 
  344000   0.62691207   -1.6079675   0.93942773  -0.66853979   0.13546659    11530.537     1000 
  346000   0.64541571   -1.6268231   0.96715544  -0.65966765   0.12507997    11514.726     1000 
  348000   0.63756761   -1.6668429   0.95539506  -0.71144782   0.12851749    11645.197     1000 
  350000    0.6413599   -1.6730151    0.9610778  -0.71193725   0.12427203    11707.602     1000 
  352000   0.61800021   -1.5776382   0.92607331   -0.6515649   0.12866656    11433.454     1000 
  354000   0.61816433   -1.5942442   0.92631925  -0.66792492   0.12490588    11484.289     1000 
  356000   0.63297985   -1.6134359    0.9485203  -0.66491562   0.14165095    11419.242     1000 
  358000   0.60177495   -1.6290237   0.90175976  -0.72726393   0.12069625    11630.254     1000 
  360000   0.61750072   -1.6205281   0.92532483  -0.69520328   0.12340167    11590.648     1000 
  362000   0.60440337   -1.6049135   0.90569846  -0.69921508   0.12342842    11458.392     1000 
  364000   0.64575299   -1.6190199   0.96766086  -0.65135902   0.11931487    11560.852     1000 
  366000   0.62217307   -1.6052865   0.93232634  -0.67296019   0.13297406    11495.072     1000 
  368000   0.60462682   -1.6428106   0.90603328  -0.73677728   0.13470107    11369.663     1000 
  370000   0.62291883   -1.5827441   0.93344387  -0.64930019   0.13011286    11431.581     1000 
  372000   0.61799582   -1.6113901   0.92606673  -0.68532333   0.12172329    11660.337     1000 
  374000   0.61754479   -1.6037621   0.92539086  -0.67837122   0.13856423    11443.481     1000 
  376000    0.6246721   -1.6479485   0.93607114  -0.71187739   0.12197876    11629.038     1000 
  378000    0.6097331   -1.5734965   0.91368505  -0.65981145   0.12578916    11599.183     1000 
  380000   0.60914131     -1.62029   0.91279826  -0.70749175   0.13742284    11377.594     1000 
  382000   0.62513072    -1.591167   0.93675838  -0.65440865   0.12137931    11571.614     1000 
  384000   0.60646985   -1.5597095   0.90879507  -0.65091446   0.12897679    11412.253     1000 
  386000   0.60483324   -1.6330171   0.90634261  -0.72667446   0.12247944    11621.879     1000 
  388000   0.63405177   -1.5705483   0.95012658  -0.62042171   0.12789415    11554.035     1000 
  390000    0.6055454   -1.5536519   0.90740979  -0.64624208   0.13194842    11482.637     1000 
  392000   0.62723898   -1.6480888   0.93991761   -0.7081712   0.13071275    11615.192     1000 
  394000   0.64478002    -1.593721   0.96620285   -0.6275181    0.1462116     11264.68     1000 
  396000   0.63914181   -1.6046222   0.95775401  -0.64686816   0.13456028    11555.122     1000 
  398000   0.64210033   -1.6489445   0.96218734  -0.68675716   0.13302245    11551.073     1000 
  400000   0.64215885   -1.6578534   0.96227504   -0.6955784   0.11913661    11573.124     1000 
  402000   0.59338211   -1.6323595   0.88918309  -0.74317637   0.12238992    11608.156     1000 
  404000   0.62941798   -1.6170065   0.94318285  -0.67382365   0.12776253    11526.455     1000 
  406000   0.59519197   -1.5771259   0.89189517  -0.68523073   0.10596577    11751.385     1000 
  408000   0.65506639   -1.6429757   0.98161699  -0.66135871   0.13002356    11524.141     1000 
  410000   0.59664942   -1.6232115   0.89407915  -0.72913233   0.12612684    11576.701     1000 
  412000   0.63499743   -1.6545211   0.95154365  -0.70297745   0.12543662    11647.625     1000 
  414000   0.63225803   -1.6281192   0.94743866  -0.68068059   0.13705515    11281.368     1000 
  416000   0.60037885   -1.5845432   0.89966771  -0.68487552   0.12270496    11486.171     1000 
  418000   0.61261425    -1.644803   0.91800246  -0.72680056   0.12951622    11467.031     1000 
  420000   0.59926688   -1.6103108   0.89800142  -0.71230938   0.12541589    11623.157     1000 
  422000   0.64121135   -1.6313794   0.96085521  -0.67052417   0.13748916     11551.57     1000 
  424000   0.60841775    -1.651628   0.91171399  -0.73991402   0.13244832    11413.308     1000 
  426000   0.63807868    -1.523618    0.9561609  -0.56745715   0.13530269    11369.603     1000 
  428000   0.59492476   -1.5889676   0.89149476  -0.69747283   0.12779958    11586.276     1000 
  430000   0.62357504   -1.6621629   0.93442719  -0.72773569   0.11563822    11719.757     1000 
  432000    0.6298005   -1.6331811   0.94375604   -0.6894251   0.13276324    11529.317     1000 
  434000   0.62712763   -1.6113961   0.93975076  -0.67164535   0.14301681    11572.014     1000 
  436000    0.6508347   -1.6230527    0.9752758  -0.64777692   0.15360336    11370.664     1000 
  438000   0.60145147   -1.6634858   0.90127503  -0.76221076    0.1276239    11602.112     1000 
  440000   0.64956563   -1.6467177    0.9733741  -0.67334357   0.13824151    11433.741     1000 
  442000     0.618367   -1.6279135   0.92662295  -0.70129052   0.12928626    11728.554     1000 
  444000   0.61038594   -1.6319762   0.91466333  -0.71731291   0.11672342    11624.128     1000 
  446000   0.62302496   -1.6019259   0.93360291  -0.66832298   0.14053792    11391.159     1000 
  448000   0.61720918   -1.5806569   0.92488796  -0.65576895   0.13599041    11318.549     1000 
  450000     0.622455   -1.6487216   0.93274882  -0.71597277   0.12717095    11540.973     1000 
  452000   0.58220202   -1.6167925   0.87242972  -0.74436282   0.12655942    11559.873     1000 
  454000   0.64273116   -1.6328714   0.96313265  -0.66973879   0.12180502    11769.907     1000 
  456000    0.6237922   -1.6373938   0.93475261   -0.7026412    0.1310191    11488.699     1000 
  458000   0.63314534   -1.6352296   0.94876829  -0.68646128   0.12580599    11740.719     1000 
  460000   0.63100821   -1.6229732    0.9455658   -0.6774074   0.13543527    11538.371     1000 
  462000   0.62489061   -1.6936206   0.93639858  -0.75722199   0.13560171    11585.825     1000 
  464000   0.63966235   -1.6324635   0.95853404  -0.67392941    0.1212141    11558.952     1000 
  466000   0.63792779   -1.5798274    0.9559348  -0.62389259   0.13661651    11427.925     1000 
  468000   0.62255595   -1.6416572   0.93290009  -0.70875707   0.12356041     11769.08     1000 
  470000   0.62564381   -1.6603612   0.93752725   -0.7228339   0.12511248    11634.953     1000 
  472000   0.63748644    -1.645238   0.95527344  -0.68996452   0.12843491    11560.506     1000 
  474000   0.60428456   -1.6236213   0.90552042  -0.71810088   0.12779624    11532.491     1000 
  476000   0.60556437   -1.6568902   0.90743821  -0.74945196   0.13953242      11443.9     1000 
  478000    0.6180515    -1.695827   0.92615017  -0.76967679    0.1160554    11833.323     1000 
  480000   0.60265382   -1.6138342   0.90307675  -0.71075741   0.12246608    11635.232     1000 
  482000   0.63272492   -1.6615791   0.94813829  -0.71344081   0.12903005    11578.725     1000 
  484000   0.60305191   -1.6152312   0.90367328  -0.71155795   0.15059839     11340.75     1000 
  486000   0.59264451   -1.5983213   0.88807781   -0.7102435   0.12196241    11403.199     1000 
  488000   0.61805225   -1.6330009    0.9261513  -0.70684958   0.13177432    11501.263     1000 
  490000   0.65906906   -1.5750689   0.98761498  -0.58745388    0.1265378    11559.321     1000 
  492000   0.65507229   -1.6450838   0.98162582  -0.66345801   0.12843247     11728.21     1000 
  494000   0.62378383   -1.6022814   0.93474008  -0.66754137   0.13239834    11591.875     1000 
  496000   0.62906949    -1.611546   0.94266063  -0.66888533   0.12842552    11530.045     1000 
  498000   0.60687791   -1.6221305   0.90940655  -0.71272393   0.13246276    11520.346     1000 
  500000   0.61805753   -1.6200073    0.9261592  -0.69384805   0.13423612    11521.449     1000 
  502000   0.62043151    -1.615577   0.92971661  -0.68586036    0.1302183    11385.595     1000 
  504000   0.60844447   -1.6368805   0.91175403  -0.72512648   0.13092121    11457.756     1000 
  506000   0.60858702   -1.5980121   0.91196764  -0.68604449   0.13128644     11455.19     1000 
  508000   0.60136051   -1.5924418   0.90113873  -0.69130304   0.13117444    11439.381     1000 
  510000   0.62583361   -1.6217494   0.93781167  -0.68393774   0.13088902    11548.126     1000 
  512000   0.64264299   -1.6467354   0.96300052  -0.68373493   0.13108949    11592.196     1000 
  514000   0.63628986   -1.6471227   0.95348035  -0.69364235   0.13567878    11381.183     1000 
  516000   0.62730963   -1.6394485   0.94002348  -0.69942501   0.12825945    11540.114     1000 
  518000   0.63280053   -1.5892733   0.94825159  -0.64102168   0.12316496    11541.857     1000 
  520000   0.61859471   -1.6266526   0.92696417  -0.69968844   0.12697427    11553.617     1000 
  522000   0.61836614   -1.6152062   0.92662166  -0.68858459    0.1353987    11490.825     1000 
  524000   0.62066185   -1.6090012   0.93006179  -0.67893939   0.12558198    11474.387     1000 
  526000   0.62946584   -1.6460926   0.94325456  -0.70283806   0.12113916    11619.185     1000 
  528000   0.61019019   -1.6074282      0.91437  -0.69305824   0.15090285    11192.422     1000 
  530000   0.61755593   -1.6308589   0.92540757  -0.70545137   0.13428381    11462.043     1000 
  532000    0.6235309   -1.6333409   0.93436106  -0.69897986    0.1254942    11668.658     1000 
  534000   0.60477949    -1.661493   0.90626207  -0.75523096   0.12399802    11614.441     1000 
  536000   0.61360483   -1.6658489   0.91948684  -0.74636204   0.12541496    11636.193     1000 
  538000   0.59415031   -1.6246636   0.89033424  -0.73432937   0.12972016    11623.549     1000 
  540000   0.62329035   -1.6788821   0.93400059  -0.74488149   0.13880476    11571.544     1000 
  542000   0.61964177   -1.6401432   0.92853319     -0.71161   0.13781411    11364.758     1000 
  544000   0.58649516   -1.6124793   0.87886299  -0.73361632   0.11830661    11544.423     1000 
  546000   0.61572436   -1.6271001   0.92266295  -0.70443712   0.13865536    11388.633     1000 
  548000   0.63438485   -1.6491201   0.95062569  -0.69849437   0.12874815    11620.584     1000 
  550000   0.62137939    -1.708894   0.93113701  -0.77775696   0.12951039    11514.722     1000 
  552000   0.61903306   -1.6277043   0.92762104  -0.70008326   0.12867142    11711.269     1000 
  554000   0.63223744   -1.6501745    0.9474078  -0.70276665   0.12166516    11799.632     1000 
  556000   0.59814045   -1.5908204   0.89631347  -0.69450696   0.12908584    11432.628     1000 
  558000   0.67024336   -1.5977944    1.0043597   -0.5934347   0.13210843    11562.236     1000 
  560000   0.62379461   -1.6845309   0.93475622  -0.74977464   0.12018328    11576.797     1000 
  562000   0.60209139   -1.6719515   0.90223394   -0.7697176   0.13174171    11511.849     1000 
  564000   0.60592054   -1.6428984   0.90797193  -0.73492642   0.13453775    11359.438     1000 
  566000   0.61451028   -1.7086223   0.92084365  -0.78777867    0.1317248    11653.742     1000 
  568000   0.61892955   -1.5889798   0.92746593  -0.66151384    0.1394327    11396.204     1000 
  570000   0.64176421       -1.592   0.96168367  -0.63031638   0.12365032     11680.91     1000 
  572000   0.63606682   -1.5982146   0.95314613  -0.64506849   0.13661675    11391.111     1000 
  574000    0.6239931   -1.6840627   0.93505367  -0.74900908   0.12232125    11755.895     1000 
  576000   0.59570319    -1.666759   0.89266124   -0.7740978   0.12080688    11555.739     1000 
  578000   0.64880916    -1.599843   0.97224052  -0.62760244   0.13549613    11638.952     1000 
  580000   0.61329958   -1.5559569   0.91902942  -0.63692745   0.12532209    11545.615     1000 
  582000   0.64749146    -1.623796   0.97026596  -0.65353004   0.12791411    11447.371     1000 
  584000   0.61934805   -1.6389346   0.92809305   -0.7108415   0.14036207    11382.984     1000 
  586000   0.62647627   -1.5660658   0.93877468   -0.6272911   0.13728191    11483.805     1000 
  588000   0.62610143   -1.6488387   0.93821299  -0.71062569   0.12592795    11472.588     1000 
  590000   0.59985876    -1.659613   0.89888835  -0.76072468   0.12446846    11599.698     1000 
  592000   0.61185668   -1.5615212   0.91686724  -0.64465396   0.12316449     11552.23     1000 
  594000   0.59024306   -1.6546774   0.88447923  -0.77019813   0.12910595    11479.429     1000 
  596000   0.63704306   -1.6040495   0.95460903  -0.64944049   0.13930465    11529.542     1000 
  598000   0.62589009   -1.6275547   0.93789631  -0.68965835   0.12661657    11604.141     1000 
  600000   0.63249464   -1.6130375   0.94779321  -0.66524428   0.13592518    11520.159     1000 
  602000   0.61934752   -1.5778411   0.92809226   -0.6497488   0.11433591     11723.09     1000 
  604000   0.60389482   -1.5856176   0.90493638  -0.68068122   0.12205002    11646.801     1000 
  606000   0.61875262   -1.6361333    0.9272008  -0.70893249   0.11900733    11757.171     1000 
  608000   0.61951207   -1.5924325   0.92833884  -0.66409367   0.12793008    11418.545     1000 
  610000    0.6248888   -1.5140751   0.93639587  -0.57767923   0.15137122    11233.299     1000 
  612000   0.60643023   -1.5847143    0.9087357  -0.67597863   0.12799577    11488.037     1000 
  614000   0.64720238   -1.5577159   0.96983277  -0.58788309   0.14518414    11331.858     1000 
  616000   0.59685302   -1.5829191   0.89438424  -0.68853486   0.13110787    11464.411     1000 
  618000   0.60121668   -1.6571563   0.90092319  -0.75623308   0.12236289    11565.248     1000 
  620000   0.62397763   -1.5862436   0.93503048  -0.65121314   0.13212919    11508.139     1000 
  622000   0.62147396   -1.6016054   0.93127873  -0.67032664    0.1320588     11569.61     1000 
  624000   0.59384628   -1.6864468   0.88987865  -0.79656817   0.12257634    11648.071     1000 
  626000   0.60453101   -1.5762408   0.90588972  -0.67035108   0.12640209    11475.315     1000 
  628000   0.63007016   -1.6442046   0.94416013  -0.70004445   0.13584056    11474.762     1000 
  630000   0.63294623   -1.6462693   0.94846992  -0.69779933    0.1282338    11427.037     1000 
  632000   0.61267734     -1.62378     0.918097  -0.70568303   0.13674082    11386.614     1000 
  634000   0.60451241    -1.647438   0.90586185  -0.74157611   0.13390537    11595.543     1000 
  636000   0.61524094   -1.6361127   0.92193855  -0.71417418   0.13273505    11561.631     1000 
  638000   0.63217822   -1.6350371   0.94731906  -0.68771807      0.13694    11481.929     1000 
  640000   0.61984211   -1.6384213    0.9288334   -0.7095879   0.13074869    11440.845     1000 
  642000   0.64682043   -1.6181832   0.96926041  -0.64892282   0.13361217    11551.474     1000 
  644000   0.62168407   -1.6405049   0.93159358  -0.70891137   0.13019319    11491.424     1000 
  646000   0.62241776   -1.6482786   0.93269302  -0.71558562   0.13072353     11548.27     1000 
  648000   0.61771225   -1.6642215   0.92564181   -0.7385797   0.13032169    11532.223     1000 
  650000   0.61222479   -1.6166741   0.91741885  -0.69925522   0.12274501     11589.99     1000 
  652000   0.59085149   -1.6420732   0.88539097  -0.75668221   0.12039989    11868.025     1000 
  654000    0.5880022   -1.6121144    0.8811213   -0.7309931   0.13144029    11584.845     1000 
  656000   0.63005973   -1.5896531    0.9441445  -0.64550864   0.13468855    11342.116     1000 
  658000    0.6108252   -1.6331468   0.91532157  -0.71782524   0.14596758     11329.58     1000 
  660000   0.61378673   -1.6349397   0.91975941  -0.71518029   0.11342088    11733.346     1000 
  662000   0.62560367   -1.6105087    0.9374671  -0.67304161   0.12415779    11635.367     1000 
  664000   0.60646059   -1.6300916   0.90878119  -0.72131038   0.13527131    11571.711     1000 
  666000   0.60163208    -1.631656   0.90154567  -0.73011036   0.12565978    11601.416     1000 
  668000   0.60186672   -1.6401162   0.90189728  -0.73821889   0.14055527    11532.084     1000 
  670000   0.59972953   -1.6256646   0.89869471  -0.72696984   0.12242958    11458.488     1000 
  672000   0.62558302   -1.6759168   0.93743616  -0.73848067   0.12059706    11714.746     1000 
  674000   0.62948236   -1.6093475   0.94327932  -0.66606817   0.11647547    11558.607     1000 
  676000   0.61591332   -1.6803818    0.9229461  -0.75743571   0.11699029    11765.926     1000 
  678000   0.60283129   -1.6350283   0.90334268  -0.73168564   0.12088406    11648.181     1000 
  680000   0.59783316   -1.6384073   0.89585299  -0.74255435   0.15052186    11297.773     1000 
  682000   0.61767016   -1.6416007   0.92557873  -0.71602196   0.13799928    11514.629     1000 
  684000   0.60157328   -1.5803992   0.90145756  -0.67894167   0.14464094    11283.782     1000 
  686000   0.61900742   -1.6141501   0.92758262  -0.68656744   0.11989854    11633.523     1000 
  688000   0.61973901    -1.636272    0.9286789  -0.70759309   0.12963321    11486.061     1000 
  690000   0.62245878   -1.6342838   0.93275448  -0.70152935   0.13153539    11484.503     1000 
  692000   0.60021581   -1.6533102   0.89942339  -0.75388682   0.12881951    11316.455     1000 
  694000    0.6413919   -1.6159542   0.96112576  -0.65482846   0.12564019    11669.473     1000 
  696000   0.59914882   -1.6108908   0.89782451  -0.71306625   0.12925902    11547.366     1000 
  698000   0.63872074   -1.6295525   0.95712303  -0.67242947   0.13148957    11470.593     1000 
  700000   0.61895222   -1.6625674    0.9274999  -0.73506754   0.11606435    11506.195     1000 
  702000   0.61638742   -1.6227785   0.92365656  -0.69912193   0.12962628     11584.19     1000 
  704000   0.61270861   -1.6219882   0.91814386  -0.70384434   0.12957109    11472.813     1000 
  706000   0.61300299   -1.6546121   0.91858498  -0.73602715   0.12569175    11729.563     1000 
  708000   0.61268186   -1.6161341   0.91810376  -0.69803036   0.12589582    11606.035     1000 
  710000   0.62019995   -1.5707406   0.92936963  -0.64137098    0.1197194    11689.157     1000 
  712000   0.62198668   -1.6352571   0.93204704  -0.70321005   0.13027975    11457.462     1000 
  714000   0.60784207   -1.5940217   0.91085135  -0.68317038   0.13355774    11394.162     1000 
  716000   0.63478872   -1.6095484    0.9512309  -0.65831751   0.14134856     11389.54     1000 
  718000   0.62113371   -1.6360471   0.93076887  -0.70527828   0.13339878    11450.862     1000 
  720000   0.62251322   -1.6061983   0.93283606   -0.6733622   0.14093113    11489.263     1000 
  722000   0.60965486   -1.6268383   0.91356781  -0.71327052   0.13666824    11427.513     1000 
  724000   0.64367744   -1.6042985   0.96455064  -0.63974781   0.14299509     11400.65     1000 
  726000   0.61282637   -1.6041737   0.91832032  -0.68585339   0.12834874     11448.28     1000 
  728000   0.62975027   -1.6856994   0.94368077  -0.74201866   0.11992219    11800.989     1000 
  730000   0.61429004   -1.6424512   0.92051363   -0.7219376   0.11958121    11677.456     1000 
  732000   0.61562121   -1.6298963   0.92250838  -0.70738787   0.12499236    11631.843     1000 
  734000   0.59493789    -1.635374   0.89151442  -0.74385954   0.13926699    11301.747     1000 
  736000   0.62058797   -1.6481671   0.92995107  -0.71821604    0.1274139    11548.253     1000 
  738000   0.61288743   -1.6227506   0.91841181  -0.70433875   0.13118725    11522.947     1000 
  740000   0.62304594   -1.5887582   0.93363434  -0.65512385   0.13502727    11616.514     1000 
  742000    0.6213162   -1.6279869   0.93104232  -0.69694453   0.13355665     11546.74     1000 
  744000    0.6255024   -1.6365489   0.93731535  -0.69923352   0.12257694    11673.372     1000 
  746000   0.60243163   -1.6012331   0.90274379  -0.69848929   0.12544972    11636.127     1000 
  748000    0.6297294   -1.5990426    0.9436495  -0.65539312   0.12475318    11649.753     1000 
  750000   0.61820618   -1.5796021   0.92638196  -0.65322013   0.12940117    11515.487     1000 
  752000   0.63790427   -1.5918634   0.95589955  -0.63596388   0.12677631    11530.217     1000 
  754000   0.62237827   -1.5904749   0.93263384  -0.65784106   0.13074948     11433.81     1000 
  756000     0.617188   -1.6711164   0.92485621  -0.74626015    0.1291035    11540.922     1000 
  758000   0.62464986   -1.6784714   0.93603782   -0.7424336    0.1446988    11511.992     1000 
  760000   0.64120137   -1.6356161   0.96084025  -0.67477583   0.13413726    11621.914     1000 
  762000   0.60250589   -1.6525128   0.90285508  -0.74965768   0.13790735     11313.49     1000 
  764000    0.6455947   -1.6864641   0.96742365  -0.71904046   0.13174013    11590.642     1000 
  766000   0.60895215   -1.6038225    0.9125148   -0.6913077   0.13126664    11512.785     1000 
  768000   0.61582948   -1.6420838   0.92282048  -0.71926336   0.12240165    11574.936     1000 
  770000   0.63048412   -1.5960202   0.94478045  -0.65123971   0.12264709    11439.818     1000 
  772000   0.62493674   -1.6308561   0.93646771  -0.69438835   0.13753029    11387.761     1000 
  774000   0.65904806   -1.6849537   0.98758352  -0.69737018   0.12317209     11721.41     1000 
  776000   0.63149276   -1.6765134    0.9462919   -0.7302215   0.12593531    11625.133     1000 
  778000   0.62636105   -1.6035384   0.93860204   -0.6649364   0.13198014    11482.135     1000 
  780000    0.6092578   -1.6160434   0.91297282  -0.70307056   0.13212249    11432.922     1000 
  782000   0.65690549   -1.5735847   0.98437287  -0.58921182    0.1408439    11403.153     1000 
  784000   0.62640197   -1.6866311   0.93866335  -0.74796774   0.13320262    11502.052     1000 
  786000   0.64362545   -1.6795076   0.96447273  -0.71503487   0.12330117    11708.642     1000 
  788000   0.62170656   -1.6070264   0.93162729  -0.67539907   0.12811324    11570.298     1000 
  790000   0.62031375   -1.6134256   0.92954015  -0.68388548   0.14559045    11449.608     1000 
  792000   0.63263733   -1.6185363   0.94800704  -0.67052926   0.12710568    11372.293     1000 
  794000   0.62839973   -1.6622817   0.94165699  -0.72062474   0.13692398    11622.187     1000 
  796000   0.59876488   -1.5948704   0.89724917  -0.69762127   0.12417287      11517.5     1000 
  798000   0.61626394    -1.608334   0.92347152  -0.68486244   0.14041485    11369.745     1000 
  800000   0.62131479   -1.6363502   0.93104021  -0.70531003   0.12423217    11558.281     1000 
  802000   0.62530179    -1.573159   0.93701473  -0.63614429    0.1365483    11394.555     1000 
  804000   0.59762903   -1.6268697   0.89554711  -0.73132263   0.14049928    11340.986     1000 
  806000   0.63153937   -1.6212093   0.94636175  -0.67484754   0.12158407    11654.526     1000 
  808000   0.63339222   -1.6166131   0.94913825  -0.66747485    0.1340971    11522.208     1000 
  810000   0.62514626   -1.5694594   0.93678167  -0.63267773   0.12664114    11684.377     1000 
  812000   0.62323901   -1.6255506   0.93392366  -0.69162695   0.12508436    11622.268     1000 
  814000   0.63757572   -1.6267206   0.95540722  -0.67131334   0.12760092    11562.977     1000 
  816000   0.63514179   -1.6914019   0.95175998  -0.73964197   0.14571706     11488.59     1000 
  818000   0.62304627   -1.6340774   0.93363483  -0.70044255   0.13310447    11524.382     1000 
  820000   0.61480052   -1.6458723   0.92127857  -0.72459372   0.13049539     11608.33     1000 
  822000   0.62548454    -1.587827   0.93728858  -0.65053846   0.13317975    11404.691     1000 
  824000   0.63370381   -1.6640656   0.94960516  -0.71446047   0.12207034    11647.824     1000 
  826000    0.6179709   -1.5362049   0.92602939  -0.61017554   0.13562796    11447.202     1000 
  828000   0.64239667   -1.5772061   0.96263141  -0.61457472   0.13211896    11420.581     1000 
  830000   0.66135173   -1.6097258   0.99103557  -0.61869028   0.13379732    11509.091     1000 
  832000   0.61891693   -1.6504197   0.92744702  -0.72297265   0.12545399    11654.084     1000 
  834000   0.61787114   -1.6368204    0.9258799  -0.71094049   0.13360258    11491.433     1000 
  836000   0.62302492   -1.6358728   0.93360285  -0.70226999   0.14316885    11520.169     1000 
  838000   0.61678151   -1.6074075    0.9242471  -0.68316044   0.14071944      11526.1     1000 
  840000   0.58983848    -1.612035   0.88387296  -0.72816208   0.12638856    11493.966     1000 
  842000   0.63127248   -1.6531526   0.94596182  -0.70719079   0.14440806     11461.49     1000 
  844000   0.61881189   -1.6616829   0.92728961  -0.73439331    0.1212687    11645.451     1000 
  846000   0.61110884    -1.607676    0.9157466  -0.69192937   0.13651492    11453.261     1000 
  848000   0.60756766   -1.6076535   0.91044014   -0.6972134   0.12846541    11510.978     1000 
  850000   0.61757726   -1.6167035   0.92543953  -0.69126399   0.12647486    11549.607     1000 
  852000    0.5895862   -1.5866573   0.88349492  -0.70316237   0.14379082    11229.438     1000 
  854000   0.59202353    -1.620057   0.88714726  -0.73290975   0.12817379    11397.522     1000 
  856000   0.62091569   -1.6188287   0.93044216  -0.68838653    0.1252224    11624.678     1000 
  858000    0.6258357   -1.6358835    0.9378148  -0.69806874   0.13450228    11432.435     1000 
  860000   0.61543858   -1.6392141   0.92223471  -0.71697943   0.12632317    11582.651     1000 
  862000    0.6029376   -1.6239398   0.90350199  -0.72043776   0.12304873    11402.722     1000 
  864000   0.63031957   -1.6148724   0.94453387  -0.67033851   0.12894643    11580.543     1000 
  866000   0.61981919   -1.6065717   0.92879906  -0.67777265   0.12335128    11589.828     1000 
  868000   0.62106355   -1.6335725   0.93066373  -0.70290878   0.11613811    11753.054     1000 
  870000   0.61924475   -1.6195589   0.92793825  -0.69162062   0.11795295    11628.915     1000 
  872000   0.62710212   -1.6153284   0.93971252   -0.6756159    0.1338502    11446.461     1000 
  874000   0.62074323   -1.6341843   0.93018372  -0.70400059   0.13444471    11504.411     1000 
  876000   0.60078143   -1.5981702   0.90027097  -0.69789927   0.12960261    11444.873     1000 
  878000   0.64685172    -1.629355    0.9693073  -0.66004768   0.13345307    11510.276     1000 
  880000   0.60738171   -1.6082001   0.91016149  -0.69803863   0.13638429    11496.122     1000 
  882000   0.61154733   -1.6322379   0.91640367  -0.71583428   0.12140919    11638.768     1000 
  884000   0.60861088   -1.5857385   0.91200341  -0.67373508   0.13335453    11521.726     1000 
  886000   0.61599276   -1.5846946   0.92306515  -0.66162942   0.12597395    11333.698     1000 
  888000   0.61867052   -1.6398768   0.92707777  -0.71279903   0.12866272    11529.787     1000 
  890000   0.61502928   -1.6486026   0.92162138  -0.72698121   0.12779434    11677.825     1000 
  892000   0.61522511   -1.6167805   0.92191483  -0.69486566     0.133232     11384.84     1000 
  894000   0.59202722   -1.6761009   0.88715279  -0.78894811   0.13146642    11390.128     1000 
  896000   0.60622445   -1.5822532   0.90842734   -0.6738259   0.13308826    11405.524     1000 
  898000   0.61957257   -1.6080737   0.92842949  -0.67964424   0.13281128    11481.997     1000 
  900000    0.6044171   -1.6147577   0.90571903  -0.70903864   0.13321933    11453.614     1000 
  902000   0.62051562   -1.5977524   0.92984265  -0.66790975   0.12317799    11551.254     1000 
  904000   0.58078707   -1.6733117   0.87030942  -0.80300228   0.13580673    11561.608     1000 
  906000    0.6074721   -1.5489436   0.91029694  -0.63864661   0.12601079    11601.339     1000 
  908000   0.60713377   -1.6613283   0.90978996   -0.7515383   0.13657003    11366.775     1000 
  910000   0.61535457   -1.6512602   0.92210882  -0.72915142   0.13067186    11504.366     1000 
  912000   0.61530798   -1.6136902   0.92203901  -0.69165123   0.12841496     11481.29     1000 
  914000   0.60668561   -1.6464391   0.90911839   -0.7373207   0.12597304    11739.068     1000 
  916000   0.59971838   -1.6367674     0.898678  -0.73808941   0.12766112    11690.481     1000 
  918000   0.61832001   -1.6170111   0.92655254  -0.69045861   0.12649021    11478.941     1000 
  920000   0.59957531   -1.6082641    0.8984636  -0.70980052   0.11990445    11686.189     1000 
  922000   0.61863803   -1.6054472   0.92702909  -0.67841809   0.12136512    11672.722     1000 
  924000   0.62057703   -1.6501822   0.92993468  -0.72024754   0.12537244    11561.236     1000 
  926000   0.62831254   -1.5914586   0.94152635  -0.64993228   0.14056579    11387.397     1000 
  928000   0.62635862   -1.5984987   0.93859839  -0.65990032   0.13327644    11491.291     1000 
  930000   0.64350449   -1.6039535   0.96429148  -0.63966205   0.12421004    11623.108     1000 
  932000   0.62737161   -1.5743409   0.94011636  -0.63422452   0.12965712    11662.397     1000 
  934000   0.62275404   -1.6607072   0.93319693  -0.72751022   0.13118393    11632.627     1000 
  936000   0.61887414   -1.6258924   0.92738289  -0.69850952   0.13336606    11545.104     1000 
  938000   0.62515984   -1.6472401   0.93680202  -0.71043812   0.12054084    11581.875     1000 
  940000   0.63055561    -1.643525   0.94488758  -0.69863747   0.12329841    11569.609     1000 
  942000   0.60603847   -1.6121018   0.90814865  -0.70395318   0.11733729    11604.096     1000 
  944000   0.58630641   -1.6347766   0.87858016  -0.75619646   0.12502189    11770.692     1000 
  946000   0.60910053   -1.5940275   0.91273714  -0.68129031   0.13833416    11301.102     1000 
  948000   0.62026924   -1.6815838   0.92947345  -0.75211031   0.11661771    11849.274     1000 
  950000   0.60918317   -1.6777432   0.91286098   -0.7648822   0.12535086    11683.221     1000 
  952000   0.61228866    -1.650552   0.91751455  -0.73303747   0.12825683    11738.091     1000 
  954000   0.61580178   -1.5851147   0.92277896   -0.6623357   0.11812193    11619.994     1000 
  956000   0.61662011   -1.6194151   0.92400524  -0.69540986    0.1288841    11651.924     1000 
  958000   0.61368618   -1.6894339   0.91960874  -0.76982519   0.12875868    11534.057     1000 
  960000   0.63763341   -1.6291431   0.95549366  -0.67364941   0.11929827    11813.872     1000 
  962000   0.60305305   -1.5525734   0.90367499  -0.64889836   0.12807662    11389.379     1000 
  964000   0.63150912   -1.6230123   0.94631642  -0.67669588   0.14177541    11484.273     1000 
  966000   0.60756901   -1.6604165   0.91044216  -0.74997435   0.12930979    11511.328     1000 
  968000   0.62618762   -1.6420048   0.93834215  -0.70366261    0.1195422     11575.54     1000 
  970000   0.63173166   -1.6536961   0.94664989  -0.70704618   0.12882436    11627.248     1000 
  972000   0.60828976    -1.668733   0.91152221  -0.75721075   0.14078691    11405.719     1000 
  974000    0.6186476   -1.6506768   0.92704344  -0.72363332   0.13726081    11527.494     1000 
  976000   0.61555091   -1.5990678   0.92240303  -0.67666474   0.14127895    11235.251     1000 
  978000   0.59904805   -1.6097383   0.89767351  -0.71206477   0.12493291    11551.842     1000 
  980000   0.64299004   -1.6121785   0.96352057   -0.6486579   0.13655821    11437.669     1000 
  982000   0.61164315   -1.6109497   0.91654726  -0.69440243   0.13374117    11490.117     1000 
  984000   0.62871585   -1.5907489   0.94213071  -0.64861819   0.13751979    11526.257     1000 
  986000   0.60872615   -1.5738119   0.91217613  -0.66163575   0.13072797    11442.976     1000 
  988000    0.6157686   -1.6366143   0.92272925  -0.71388508   0.12572512    11583.603     1000 
  990000   0.61799379   -1.6074439   0.92606369  -0.68138024   0.13047245    11545.165     1000 
  992000   0.60746532   -1.6691496   0.91028678  -0.75886284   0.12783336    11682.487     1000 
  994000   0.63260981   -1.5987518   0.94796581  -0.65078597   0.11950286    11627.189     1000 
  996000   0.64365997   -1.6053046   0.96452446   -0.6407801   0.14043109    11455.891     1000 
  998000    0.6257425   -1.6897681   0.93767513  -0.75209299   0.13700919    11513.635     1000 
 1000000   0.61050418   -1.6264382   0.91484052  -0.71159768   0.14636214    11339.862     1000 
 1002000   0.61892004   -1.6374356   0.92745169  -0.70998386   0.13283949    11501.656     1000 
 1004000    0.6300468   -1.6543338   0.94412513  -0.71020869   0.13078069    11533.008     1000 
 1006000    0.6336533   -1.6119874   0.94952947  -0.66245789   0.13348701    11390.812     1000 
 1008000   0.62509276   -1.7008147    0.9367015  -0.76411316   0.12884908      11542.1     1000 
 1010000   0.63467199    -1.629583   0.95105598  -0.67852701   0.13912355    11569.929     1000 
 1012000   0.63953572   -1.6101875   0.95834427   -0.6518432   0.13406443    11586.831     1000 
 1014000   0.62252207   -1.6407352   0.93284932  -0.70788588   0.13592041    11339.793     1000 
 1016000    0.6317415   -1.5819335   0.94666464  -0.63526886   0.14630486    11300.598     1000 
 1018000   0.63420915   -1.6308502   0.95036241  -0.68048781   0.13328123    11480.405     1000 
 1020000   0.61565447   -1.6694757   0.92255822  -0.74691752   0.12395362    11522.191     1000 
 1022000   0.62144212   -1.6582044   0.93123102  -0.72697335   0.11754104    11709.334     1000 
 1024000   0.61705608   -1.6393166   0.92465854  -0.71465803   0.12521097    11697.532     1000 
 1026000   0.60126963   -1.6076787   0.90100254  -0.70667613   0.13011036    11526.917     1000 
 1028000   0.62645723   -1.6444933   0.93874616  -0.70574712   0.11558875     11682.99     1000 
 1030000   0.63489782   -1.6218207   0.95139438  -0.67042632   0.13140743    11518.471     1000 
 1032000   0.61033936   -1.6438891   0.91459353  -0.72929554   0.12859552    11639.405     1000 
 1034000   0.59025732   -1.6475792    0.8845006  -0.76307863   0.13503525    11350.514     1000 
 1036000   0.60840779   -1.6547092   0.91169907  -0.74301012   0.12896501    11484.246     1000 
 1038000   0.63838748   -1.6564885   0.95662364  -0.69986491   0.12640816    11602.325     1000 
 1040000    0.6324537   -1.5849851   0.94773187  -0.63725319   0.12945802    11400.697     1000 
 1042000    0.6310722   -1.5724631   0.94566169  -0.62680144   0.12667538     11543.98     1000 
 1044000    0.6374975   -1.6646717   0.95529001  -0.70938167   0.12726579    11621.961     1000 
 1046000   0.58164654    -1.638972   0.87159734  -0.76737464   0.13109976    11597.096     1000 
 1048000   0.62642011   -1.6492077   0.93869053   -0.7105172   0.14305582    11438.128     1000 
 1050000   0.63700787   -1.6187907    0.9545563  -0.66423439   0.13181158    11449.848     1000 
 1052000   0.63628894    -1.630382   0.95347897  -0.67690306   0.13333799    11402.703     1000 
 1054000   0.60471444    -1.622629   0.90616459  -0.71646443   0.11701676     11657.23     1000 
 1056000    0.6598754   -1.6373588   0.98882329  -0.64853555   0.13970088    11466.077     1000 
 1058000   0.64740619   -1.6012127   0.97013817  -0.63107451   0.13257024    11446.815     1000 
 1060000   0.62874457   -1.6252332   0.94217374  -0.68305942   0.13252126    11621.098     1000 
 1062000   0.65287996   -1.6410549   0.97834062   -0.6627143   0.14244897     11445.34     1000 
 1064000   0.64834163   -1.6259397   0.97153993  -0.65439978   0.13975576    11400.039     1000 
 1066000   0.61606032   -1.6202994   0.92316638  -0.69713305   0.13021177    11535.259     1000 
 1068000   0.60252446   -1.6723047    0.9028829   -0.7694218   0.12864309    11483.959     1000 
 1070000   0.63221647    -1.581895   0.94737638  -0.63451859   0.13552238    11559.122     1000 
 1072000    0.6330372   -1.6538122   0.94860625  -0.70520599    0.1322786    11473.598     1000 
 1074000   0.60426473    -1.608439   0.90549071  -0.70294834   0.14792203    11208.395     1000 
 1076000   0.61881335   -1.6153889   0.92729181  -0.68809711   0.13259121    11504.343     1000 
 1078000   0.61524102   -1.6623368   0.92193867  -0.74039811    0.1259314    11647.702     1000 
 1080000   0.60386915   -1.6232579   0.90489791  -0.71835996   0.13158767    11594.794     1000 
 1082000   0.62575947   -1.6390982   0.93770057  -0.70139759   0.13932631    11398.184     1000 
 1084000   0.62019985   -1.5777918   0.92936948  -0.64842229    0.1276727     11640.53     1000 
 1086000   0.62595127   -1.6757465   0.93798798  -0.73775854   0.13185836    11457.954     1000 
 1088000   0.61003109   -1.6577221   0.91413158  -0.74359049   0.11899876    11793.493     1000 
 1090000   0.59922209   -1.6233353    0.8979343  -0.72540104    0.1311814    11416.539     1000 
 1092000   0.62170959   -1.6320605   0.93163181  -0.70042867   0.12411529     11567.49     1000 
 1094000   0.59696213   -1.5996894   0.89454775  -0.70514162    0.1315892     11586.15     1000 
 1096000   0.61461514   -1.5944173   0.92100078  -0.67341653   0.13614324    11412.938     1000 
 1098000   0.62053161   -1.5886496   0.92986662  -0.65878297   0.13586317    11360.537     1000 
 1100000   0.64114722   -1.6275946    0.9607591  -0.66683553   0.13296604    11505.321     1000 
 1102000   0.62522513   -1.6358437   0.93689986  -0.69894383   0.14399369    11342.278     1000 
 1104000   0.59643098   -1.5784179   0.89375182  -0.68466606   0.12414671    11551.841     1000 
 1106000   0.59326891   -1.6192183   0.88901347  -0.73020481   0.12375513    11622.173     1000 
 1108000   0.62272494   -1.6896802   0.93315332  -0.75652693   0.12795578    11627.165     1000 
 1110000    0.5982101   -1.6713091   0.89641784  -0.77489128    0.1147687    11897.951     1000 
 1112000    0.6113201   -1.6052946   0.91606317  -0.68923147   0.12339989    11484.433     1000 
 1114000   0.63712981   -1.6472738   0.95473902  -0.69253477   0.14015215    11423.328     1000 
 1116000   0.61782813   -1.6150995   0.92581545  -0.68928403   0.11539887    11699.364     1000 
 1118000   0.63874035   -1.6198976   0.95715241  -0.66274515   0.12446321    11450.212     1000 
 1120000    0.6019194   -1.6767508   0.90197622  -0.77477458    0.1304888    11524.763     1000 
 1122000   0.65704177   -1.6130222   0.98457709  -0.62844514   0.14454477    11547.407     1000 
 1124000   0.60554091   -1.6835684   0.90740305  -0.77616533   0.13037289    11439.156     1000 
 1126000    0.6053781    -1.611357   0.90715909  -0.70419793    0.1309308    11571.109     1000 
 1128000   0.62527409   -1.6135097   0.93697322  -0.67653648   0.12304557    11496.148     1000 
 1130000   0.63432389   -1.6205634   0.95053434   -0.6700291   0.13148609    11538.467     1000 
 1132000   0.61224772   -1.5957837   0.91745321  -0.67833046   0.12542783     11438.32     1000 
 1134000   0.60736705   -1.6489087   0.91013952  -0.73876914     0.126618    11426.666     1000 
 1136000   0.63028893   -1.6495872   0.94448797  -0.70509927   0.11976449      11646.6     1000 
 1138000   0.64544042   -1.6675433   0.96719248  -0.70035079   0.14313582    11491.298     1000 
 1140000   0.63778908   -1.5860035   0.95572693  -0.63027658   0.13787676    11397.755     1000 
 1142000   0.62680312   -1.6304912   0.93926448  -0.69122674   0.12253788    11686.666     1000 
 1144000   0.64410259   -1.6498174   0.96518773  -0.68462968   0.13049926    11513.366     1000 
 1146000   0.62268338   -1.6207151   0.93309105  -0.68762406   0.12397368    11578.666     1000 
 1148000   0.62873181   -1.6394908   0.94215462  -0.69733616   0.13795849    11355.533     1000 
 1150000   0.62261907   -1.6039482   0.93299467  -0.67095356   0.14071354    11479.549     1000 
 1152000   0.58788406   -1.6719034   0.88094427  -0.79095908   0.11909368    11545.921     1000 
 1154000   0.63842625   -1.6403395   0.95668174  -0.68365776   0.13282786    11535.252     1000 
 1156000   0.61162404   -1.6195325   0.91651862  -0.70301384   0.14437494     11289.71     1000 
 1158000   0.63051478   -1.6799205   0.94482639  -0.73509412   0.12780361    11648.044     1000 
 1160000   0.64017269   -1.6173156   0.95929877  -0.65801679   0.13194663     11544.87     1000 
 1162000   0.63671666   -1.6151558   0.95411992  -0.66103591   0.12751031    11559.172     1000 
 1164000   0.60285885   -1.6115408   0.90338398  -0.70815684   0.12502281    11661.017     1000 
 1166000    0.5939645   -1.6243995    0.8900558  -0.73434367   0.12325453    11631.419     1000 
 1168000   0.60577898   -1.5973571    0.9077598   -0.6895973   0.12728244    11477.682     1000 
 1170000   0.62840052   -1.6823098   0.94165817  -0.74065162   0.11684899    11709.275     1000 
 1172000   0.63967882   -1.6112895   0.95855871  -0.65273081   0.13831151    11495.986     1000 
 1174000   0.61268473   -1.6250204   0.91810807  -0.70691232   0.12689093     11793.32     1000 
 1176000   0.63318343   -1.6927323   0.94882537  -0.74390693   0.13298921    11561.252     1000 
 1178000   0.63416793   -1.6085735   0.95030065  -0.65827286   0.12927715    11624.632     1000 
 1180000   0.60094193    -1.651044   0.90051148  -0.75053256   0.11712141    11735.146     1000 
 1182000   0.62194873   -1.5784765   0.93199018   -0.6464863   0.12328348    11537.777     1000 
 1184000   0.62368607   -1.6332121   0.93459357   -0.6986185   0.13235933    11564.383     1000 
 1186000   0.61182452   -1.6411971   0.91681904  -0.72437807   0.13039594    11417.493     1000 
 1188000   0.62011298   -1.6028467    0.9292393  -0.67360743   0.13960908    11598.193     1000 
 1190000   0.62416516   -1.6466398    0.9353115  -0.71132826   0.13042408    11635.501     1000 
 1192000   0.61015087   -1.6144144   0.91431108  -0.70010331   0.13074342    11530.686     1000 
 1194000   0.64619144   -1.6010314   0.96831787  -0.63271357     0.131771    11464.263     1000 
 1196000   0.63262668   -1.6338463   0.94799108  -0.68585524    0.1271407    11590.092     1000 
 1198000   0.65294042   -1.5962417   0.97843122   -0.6178105   0.12936178    11562.212     1000 
 1200000   0.62962441     -1.63692   0.94349218  -0.69342783   0.13226458    11560.576     1000 
 1202000    0.6193162   -1.6367821   0.92804533  -0.70873676   0.12297379    11555.226     1000 
 1204000   0.60710189   -1.6301133   0.90974218  -0.72037116   0.13140151    11489.514     1000 
 1206000   0.62994535   -1.6566861    0.9439731  -0.71271297   0.13197386    11522.835     1000 
 1208000   0.61380336   -1.6286414   0.91978433  -0.70885706   0.12543757    11661.738     1000 
 1210000   0.62500172   -1.6297337   0.93656508  -0.69316864    0.1401248    11367.351     1000 
 1212000   0.64001205   -1.6819633   0.95905806  -0.72290522   0.12771713    11636.126     1000 
 1214000   0.63038845   -1.5529558   0.94463709  -0.60831871   0.14403176    11469.945     1000 
 1216000   0.63595733   -1.6390429   0.95298206  -0.68606082   0.12724934    11608.382     1000 
 1218000   0.62754443   -1.6304861   0.94037533  -0.69011073   0.12974036    11596.572     1000 
 1220000   0.60725921   -1.5930409   0.90997792  -0.68306293   0.12944868    11442.919     1000 
 1222000   0.63833342   -1.6053922   0.95654263   -0.6488496   0.12101948     11577.37     1000 
 1224000    0.6233695   -1.5731232    0.9341192  -0.63900405   0.13228629    11481.782     1000 
 1226000   0.64552501   -1.6121629   0.96731922   -0.6448437   0.12326262    11559.471     1000 
 1228000   0.62433226   -1.6035478    0.9355619  -0.66798586   0.12568393    11406.458     1000 
 1230000   0.61930076   -1.6533947   0.92802219  -0.72537247   0.13437419    11456.922     1000 
 1232000   0.58034003   -1.6477776   0.86963953  -0.77813812    0.1232676    11523.423     1000 
 1234000   0.63478244   -1.6464965   0.95122148  -0.69527497   0.14403149      11364.6     1000 
 1236000   0.62512949   -1.6846789   0.93675653  -0.74792237   0.12779922    11602.004     1000 
 1238000   0.61817738    -1.599332    0.9263388  -0.67299317   0.12608148     11516.38     1000 
 1240000   0.62926207   -1.6143459   0.94294921  -0.67139667   0.12750479    11469.812     1000 
 1242000   0.60386573   -1.6609174   0.90489279  -0.75602463   0.12497969    11670.431     1000 
 1244000   0.62457388   -1.6540784   0.93592396   -0.7181544   0.13023899    11468.282     1000 
 1246000   0.57795842   -1.6194227    0.8660707  -0.75335204   0.12422726    11657.993     1000 
 1248000   0.61698418   -1.5885922   0.92455079  -0.66404141   0.14347312    11427.565     1000 
 1250000    0.6048445   -1.6536801   0.90635949  -0.74732066   0.11799039    11605.392     1000 
 1252000   0.61072421   -1.6484728   0.91517022  -0.73330256   0.12532344     11676.27     1000 
 1254000   0.60002877   -1.5888436    0.8991431  -0.68970047   0.13066862    11237.175     1000 
 1256000   0.61646508   -1.6804404   0.92377293  -0.75666746    0.1309119    11647.933     1000 
 1258000   0.60889652   -1.6681893   0.91243144  -0.75575791   0.12743349    11515.107     1000 
 1260000   0.60656759   -1.6375289   0.90894153  -0.72858737   0.12207667    11622.721     1000 
 1262000   0.60916642   -1.6829673   0.91283589  -0.77013144   0.13168995    11464.605     1000 
 1264000   0.58184886   -1.5770486   0.87190052  -0.70514805   0.12258876    11441.007     1000 
 1266000    0.6265592   -1.5863389   0.93889896  -0.64743993   0.12344235    11591.672     1000 
 1268000   0.62769634   -1.6165854   0.94060296  -0.67598242   0.14422411    11321.379     1000 
 1270000   0.62872551   -1.6392664   0.94214518   -0.6971212   0.13652891    11387.292     1000 
 1272000   0.63232549   -1.6287689   0.94753974  -0.68122912   0.13000894    11504.474     1000 
 1274000   0.61885639   -1.5919137    0.9273563  -0.66455745   0.12772626    11468.769     1000 
 1276000   0.63355623      -1.6457   0.94938401  -0.69631601   0.12605176    11669.369     1000 
 1278000   0.60714093   -1.6291158   0.90980069  -0.71931507   0.12747038    11651.369     1000 
 1280000   0.59899786   -1.6446119   0.89759829  -0.74701365   0.13016034    11562.459     1000 
 1282000   0.64569909   -1.6117907   0.96758009  -0.64421057    0.1323912    11470.648     1000 
 1284000   0.64133427   -1.5759548    0.9610394  -0.61491536   0.12510049    11652.218     1000 
 1286000   0.61514038   -1.6058144   0.92178786  -0.68402652   0.14147863    11437.193     1000 
 1288000   0.62052217   -1.6604247   0.92985247  -0.73057224   0.12709663    11533.514     1000 
 1290000   0.59849699   -1.6227976   0.89684774  -0.72594989    0.1291523    11603.212     1000 
 1292000    0.6307309   -1.6103785   0.94515026  -0.66522827   0.13836965    11476.661     1000 
 1294000   0.62536789   -1.6069129   0.93711378  -0.66979909   0.13202113    11330.994     1000 
 1296000   0.61908509   -1.6270657   0.92769901  -0.69936669   0.13094197    11602.111     1000 
 1298000   0.62595565    -1.630725   0.93799455  -0.69273041   0.12601658    11751.518     1000 
 1300000   0.60899575   -1.6083521   0.91258013  -0.69577194   0.11917563    11540.667     1000 
 1302000   0.62758051   -1.6129117   0.94042939  -0.67248229   0.13156475    11491.349     1000 
 1304000   0.62689747    -1.590268   0.93940587   -0.6508621   0.13247376    11526.805     1000 
 1306000   0.61824663   -1.6170653   0.92644257  -0.69062274   0.13822032    11434.021     1000 
 1308000   0.61102927   -1.5882646   0.91562736   -0.6726372   0.13366529    11517.472     1000 
 1310000   0.60537715   -1.5646634   0.90715766  -0.65750578   0.14055184    11375.769     1000 
 1312000    0.6375528    -1.647781   0.95537288  -0.69240814   0.13366843     11489.74     1000 
 1314000   0.63722024    -1.637734   0.95487453  -0.68285952   0.11985832    11725.567     1000 
 1316000   0.64688396   -1.6655288   0.96935561   -0.6961732   0.12691919    11682.554     1000 
 1318000   0.62770218   -1.6343711   0.94061172  -0.69375937   0.11680797     11643.14     1000 
 1320000   0.60739073    -1.652302   0.91017502  -0.74212699   0.13127841    11542.815     1000 
 1322000   0.64318268   -1.6306457   0.96380925  -0.66683649   0.15216029    11354.496     1000 
 1324000   0.62709295   -1.6672468   0.93969878  -0.72754798   0.13390047      11483.3     1000 
 1326000   0.60634386   -1.5385597   0.90860627  -0.62995345   0.12900635    11365.091     1000 
 1328000    0.6049649   -1.6239205    0.9065399  -0.71738062   0.13219809    11512.949     1000 
 1330000   0.62415986    -1.615046   0.93530354  -0.67974247   0.14023115    11376.812     1000 
 1332000    0.6258121    -1.671393   0.93777943   -0.7336136   0.12980792    11802.065     1000 
 1334000    0.6183632   -1.5898713   0.92661726  -0.66325401   0.14910777    11416.523     1000 
 1336000   0.62558676   -1.6234201   0.93744175  -0.68597835   0.13527364    11428.827     1000 
 1338000   0.62928546   -1.6001462   0.94298427  -0.65716196   0.13780426    11254.586     1000 
 1340000   0.63394768   -1.5879811   0.94997061  -0.63801052   0.12452316    11748.526     1000 
 1342000    0.6467761   -1.6099206   0.96919398  -0.64072666    0.1201003    11661.449     1000 
 1344000   0.60342584   -1.6215469   0.90423361  -0.71731324   0.14008646    11360.649     1000 
 1346000    0.6190601   -1.6362822   0.92766156  -0.70862068    0.1332665    11300.539     1000 
 1348000   0.61576297   -1.5583231   0.92272081  -0.63560227   0.13699739    11515.327     1000 
 1350000   0.58374404   -1.6253422   0.87474044  -0.75060172   0.13061525    11567.751     1000 
 1352000   0.64048057   -1.5655503   0.95976014  -0.60579021   0.14542711    11192.612     1000 
 1354000   0.67585591   -1.6895199    1.0127701  -0.67674984   0.13669593    11645.652     1000 
 1356000   0.60875291   -1.6497946   0.91221623  -0.73757833   0.14295077    11492.849     1000 
 1358000   0.61288922   -1.6502385    0.9184145  -0.73182404   0.13005644    11488.637     1000 
 1360000   0.58793005   -1.6207803   0.88101318  -0.73976709   0.12274048    11583.096     1000 
 1362000   0.65156425   -1.6118516   0.97636903  -0.63548254    0.1457971    11157.225     1000 
 1364000   0.62357851   -1.6642733    0.9344324  -0.72984088   0.12425695    11536.278     1000 
 1366000   0.64173643   -1.6057045   0.96164204  -0.64406246   0.12304244    11739.274     1000 
 1368000   0.61727495   -1.6450075   0.92498651  -0.72002098   0.12567471     11475.39     1000 
 1370000   0.64349747   -1.6004579   0.96428096  -0.63617694   0.12786076    11643.368     1000 
 1372000   0.63074582   -1.6064573   0.94517261   -0.6612847   0.13173864    11409.723     1000 
 1374000   0.63596736   -1.6275465   0.95299709  -0.67454943   0.12872794    11462.446     1000 
 1376000   0.60914911   -1.6087267   0.91280994  -0.69591671   0.13250726    11520.612     1000 
 1378000   0.62349698   -1.6340354   0.93431023  -0.69972517   0.12303834    11543.238     1000 
 1380000   0.63996744   -1.6309106   0.95899121  -0.67191943    0.1389546     11503.67     1000 
 1382000   0.64289273   -1.6428626   0.96337475  -0.67948786   0.12873912    11537.119     1000 
 1384000   0.64296638   -1.6211644   0.96348512  -0.65767925   0.13884579    11492.416     1000 
 1386000   0.62175714   -1.6266315   0.93170307  -0.69492842   0.12057123    11605.405     1000 
 1388000   0.62961051   -1.5942625   0.94347135   -0.6507912    0.1363303    11441.095     1000 
 1390000   0.60269843   -1.6123394    0.9031436  -0.70919582   0.12656339    11763.091     1000 
 1392000   0.62012925   -1.6305417   0.92926368  -0.70127799   0.13539941    11432.305     1000 
 1394000   0.61136491   -1.6242469   0.91613031  -0.70811662   0.12619522    11653.592     1000 
 1396000   0.60659045   -1.6403903   0.90897579  -0.73141453     0.117974     11589.89     1000 
 1398000   0.60179266   -1.6220212    0.9017863  -0.72023493   0.12265472    11588.409     1000 
 1400000   0.62677282   -1.6150893   0.93921907  -0.67587028    0.1273944    11561.856     1000 
 1402000   0.62746182   -1.6528473   0.94025154  -0.71259571   0.13030268    11413.382     1000 
 1404000   0.62561499   -1.6190953   0.93748407  -0.68161127   0.13710228     11480.95     1000 
 1406000   0.61019186   -1.5909397   0.91437251  -0.67656722   0.13958619    11368.231     1000 
 1408000   0.59616073   -1.6239883   0.89334685  -0.73064148   0.13356981    11509.482     1000 
 1410000   0.60507086   -1.5828804   0.90669868  -0.67618175   0.12290732    11594.941     1000 
 1412000   0.63349492   -1.6023832   0.94929214   -0.6530911   0.13806187    11549.831     1000 
 1414000   0.60361182   -1.6753318   0.90451231   -0.7708195   0.12782384    11577.489     1000 
 1416000   0.61928894   -1.6779157   0.92800447  -0.74991124   0.12218104     11697.61     1000 
 1418000   0.61282283   -1.6039533   0.91831501  -0.68563828   0.13500024    11535.943     1000 
 1420000   0.61147995   -1.6248883    0.9163027  -0.70858563   0.12794659    11564.657     1000 
 1422000   0.60460049   -1.5814287   0.90599384  -0.67543489   0.14196584    11291.378     1000 
 1424000   0.62806857   -1.5774168   0.94116075  -0.63625607   0.12904108    11595.519     1000 
 1426000    0.6473983   -1.6366293   0.97012635  -0.66650294   0.14046627     11451.75     1000 
 1428000   0.63433343   -1.6007093   0.95054864  -0.65016069    0.1349216    11437.942     1000 
 1430000    0.6266645   -1.6025925   0.93905675  -0.66353579   0.12946293    11396.168     1000 
 1432000   0.60372657   -1.5934428   0.90468427  -0.68875849   0.12475919    11553.007     1000 
 1434000    0.6221719   -1.6664749    0.9323246  -0.73415034   0.14047904    11485.986     1000 
 1436000   0.63251652    -1.671512   0.94782601  -0.72368599   0.12792981    11733.214     1000 
 1438000   0.59757997   -1.6464562   0.89547358  -0.75098261   0.12253009     11653.84     1000 
 1440000   0.61761512   -1.7044395   0.92549626  -0.77894319   0.12476964    11469.817     1000 
 1442000   0.64340542   -1.5937609   0.96414302  -0.62961793   0.14484399    11359.548     1000 
 1444000   0.61166674   -1.6605945   0.91658261  -0.74401186   0.11721174    11692.844     1000 
 1446000   0.62888892   -1.6448815   0.94239005  -0.70249144   0.12540102    11739.699     1000 
 1448000    0.6323439   -1.6349999   0.94756733  -0.68743256   0.13674954    11335.276     1000 
 1450000   0.63586858   -1.6241463   0.95284907  -0.67129722   0.13330238    11573.525     1000 
 1452000   0.60806972   -1.5993012   0.91119248  -0.68810875   0.13879226    11351.584     1000 
 1454000   0.58601061   -1.6454651    0.8781369  -0.76732822   0.12357864    11432.307     1000 
 1456000   0.62115522   -1.6240634    0.9308011  -0.69326232    0.1368577    11605.375     1000 
 1458000   0.62024407   -1.5628669   0.92943573  -0.63343119   0.12517101    11465.994     1000 
 1460000   0.62119235   -1.5683917   0.93085674  -0.63753498   0.12449426     11601.67     1000 
 1462000   0.60652567   -1.6449002   0.90887871  -0.73602152   0.13572014     11332.19     1000 
 1464000   0.62321169   -1.6973949   0.93388272  -0.76351214    0.1195441    11758.492     1000 
 1466000   0.61722635   -1.6442357   0.92491368    -0.719322   0.13362225    11431.839     1000 
 1468000   0.62974373   -1.6531937   0.94367097  -0.70952271   0.13163138    11612.917     1000 
 1470000    0.6447675    -1.583968    0.9661841  -0.61778387    0.1385699    11410.757     1000 
 1472000   0.63571379   -1.6367275   0.95261711  -0.68411038   0.13839841    11665.701     1000 
 1474000   0.63522616   -1.6265539    0.9518864  -0.67466746   0.12121495    11595.906     1000 
 1476000   0.63626582    -1.627546   0.95344433   -0.6741017   0.13659164    11291.974     1000 
 1478000   0.61933125   -1.6197403   0.92806788  -0.69167243   0.12245412    11695.709     1000 
 1480000   0.59607322   -1.6928014   0.89321571  -0.79958569   0.11721801    11511.533     1000 
 1482000    0.5978545   -1.6302999   0.89588496  -0.73441492   0.12447159    11451.918     1000 
 1484000   0.63455384   -1.6086931   0.95087892  -0.65781415   0.13414491     11410.53     1000 
 1486000   0.60684286   -1.6092532   0.90935402  -0.69989916   0.13187995     11386.95     1000 
 1488000   0.61815498   -1.6242504   0.92630524  -0.69794512   0.13214634    11529.963     1000 
 1490000    0.6285771   -1.6079891   0.94192278  -0.66606636   0.12745505     11576.21     1000 
 1492000   0.63196896    -1.655327   0.94700548  -0.70832148   0.13232471    11526.703     1000 
 1494000   0.65175374   -1.6400371   0.97665298  -0.66338413   0.13053187    11444.556     1000 
 1496000   0.62619333   -1.5879329   0.93835071  -0.64958214   0.12938666    11546.128     1000 
 1498000   0.62435518   -1.6561292   0.93559624  -0.72053295   0.14423971    11357.573     1000 
 1500000   0.62188724   -1.6270757   0.93189803  -0.69517772   0.13566844     11572.35     1000 
 1502000   0.62119412   -1.6928162    0.9308594  -0.76195682    0.1153255    11728.713     1000 
 1504000   0.61672741   -1.6343283   0.92416602  -0.71016226   0.12663872    11477.456     1000 
 1506000   0.62270975   -1.6033416   0.93313056  -0.67021101   0.12260026    11614.297     1000 
 1508000   0.62315314   -1.6001462   0.93379498  -0.66635119   0.13923329    11234.863     1000 
 1510000   0.59760413    -1.669401   0.89550978  -0.77389119   0.12830918    11509.436     1000 
 1512000   0.66506833   -1.5948683   0.99660489  -0.59826343   0.12993809    11705.968     1000 
 1514000   0.63696548   -1.6549574   0.95449278  -0.70046458   0.13886163    11452.545     1000 
 1516000   0.62033205   -1.6551229   0.92956758  -0.72555533   0.12606211    11608.453     1000 
 1518000   0.61926464   -1.6185777   0.92796807  -0.69060962     0.111952    11822.064     1000 
 1520000   0.60735167   -1.6139865   0.91011647  -0.70387006   0.12925074    11453.312     1000 
 1522000   0.63026858   -1.6448788   0.94445747  -0.70042138   0.13346163    11458.415     1000 
 1524000   0.60742903   -1.6116608    0.9102324  -0.70142844   0.14005433    11449.934     1000 
 1526000   0.61233583   -1.6281393   0.91758524  -0.71055405    0.1443227    11298.921     1000 
 1528000   0.61497886   -1.5971189   0.92154583  -0.67557306   0.12887461    11492.595     1000 
 1530000   0.61438108    -1.687479   0.92065004  -0.76682899   0.12042614    11645.641     1000 
 1532000   0.62163386   -1.6342459   0.93151834  -0.70272757   0.13321278    11355.242     1000 
 1534000   0.64229233   -1.6454319   0.96247506  -0.68295689    0.1446621    11464.238     1000 
 1536000   0.64894484   -1.6237233   0.97244384  -0.65127945   0.12831653    11460.907     1000 
 1538000   0.62446204   -1.6238603   0.93575636   -0.6881039   0.12930935    11467.985     1000 
 1540000    0.6381625    -1.587841   0.95628651  -0.63155454   0.14815301    11303.869     1000 
 1542000   0.62225639   -1.5937225    0.9324512  -0.66127127   0.11885734    11623.294     1000 
 1544000   0.58293965   -1.6267443   0.87353507   -0.7532092   0.12465809    11601.666     1000 
 1546000   0.59548763   -1.6046757   0.89233822  -0.71233751   0.12325641     11532.37     1000 
 1548000   0.60928422   -1.6467466    0.9130124  -0.73373421   0.12681493    11709.424     1000 
 1550000    0.6235966   -1.6132884   0.93445951  -0.67882887   0.13033296    11598.376     1000 
 1552000   0.61179106   -1.6077952   0.91676891   -0.6910263   0.13198079     11589.36     1000 
 1554000   0.63760735   -1.6439492   0.95545461   -0.6884946   0.12528717    11649.734     1000 
 1556000   0.61770335   -1.5831206   0.92562846  -0.65749219   0.12286701    11473.452     1000 
 1558000   0.64131507   -1.6055485   0.96101064  -0.64453786   0.14398108    11423.172     1000 
 1560000   0.62172665   -1.6253245   0.93165738  -0.69366711   0.11633681    11750.365     1000 
 1562000   0.61097453   -1.6479838   0.91554533  -0.73243845   0.12081368    11641.583     1000 
 1564000   0.63844144   -1.6078111    0.9567045   -0.6511066   0.12319509    11556.789     1000 
 1566000   0.64525129   -1.6444976   0.96690905  -0.67758858   0.13249764    11637.374     1000 
 1568000   0.62365737   -1.5712333   0.93455056  -0.63668269   0.11962446    11705.384     1000 
 1570000   0.59847591   -1.6844522   0.89681616  -0.78763608   0.12588613    11618.321     1000 
 1572000   0.64002649   -1.5905539   0.95907969  -0.63147424   0.13941064    11527.999     1000 
 1574000   0.60369111    -1.625975   0.90463113  -0.72134383   0.13506986     11469.59     1000 
 1576000    0.6388174   -1.6615099   0.95726788  -0.70424202   0.13389881    11575.241     1000 
 1578000   0.62321451   -1.6247225   0.93388695  -0.69083552   0.11707728    11660.712     1000 
 1580000   0.62231969   -1.6265231   0.93254605  -0.69397708   0.12372295    11533.898     1000 
 1582000   0.62426495   -1.6414757   0.93546103  -0.70601465   0.13858967    11600.677     1000 
 1584000    0.6178882   -1.6483697   0.92590546  -0.72246419   0.13565758    11408.939     1000 
 1586000    0.6286461   -1.6091485   0.94202618   -0.6671223   0.12201029      11738.7     1000 
 1588000   0.61492847   -1.6480579   0.92147032   -0.7265876   0.12744745    11612.762     1000 
[...]
 2614000   0.60878286   -1.6416632   0.91226111  -0.72940212   0.12518662     11616.54     1000 
 2616000   0.61149545   -1.6233206   0.91632593  -0.70699471   0.13044986    11703.285     1000 
 2618000   0.65591717   -1.5662828   0.98289188   -0.5833909   0.13103188    11550.288     1000 
 2620000    0.6112924   -1.6611533   0.91602166  -0.74513162   0.13097885    11609.513     1000 
 2622000   0.61685956   -1.6719586   0.92436405  -0.74759456   0.13921152    11399.131     1000 
 2624000   0.61424449   -1.6901629   0.92044536  -0.76971757   0.13619695    11562.029     1000 
 2626000   0.63220515   -1.6373314   0.94735941  -0.68997199   0.12833208    11719.512     1000 
 2628000   0.61559342   -1.6536226   0.92246674  -0.73115581   0.13270068    11490.436     1000 
 2630000   0.63720705   -1.6393645   0.95485476  -0.68450972   0.13087511    11530.633     1000 
 2632000    0.6084094   -1.6140731   0.91170148   -0.7023716   0.12867362    11477.177     1000 
 2634000   0.60972026   -1.5900454    0.9136658  -0.67637961   0.14034897    11384.382     1000 
 2636000   0.59809032   -1.6739988   0.89623835   -0.7777605   0.10740094    11838.702     1000 
 2638000   0.57418708    -1.690417   0.86041933  -0.82999762   0.11696781    11659.204     1000 
 2640000   0.60508558    -1.592858   0.90672074  -0.68613729   0.12363658    11561.125     1000 
 2642000   0.61626631   -1.6520734   0.92347506  -0.72859833   0.11812921    11660.757     1000 
 2644000   0.61658047   -1.6181187   0.92394584  -0.69417283   0.13115727    11398.673     1000 
 2646000   0.57177469   -1.6271675   0.85680437   -0.7703631   0.11993061    11524.617     1000 
 2648000   0.64313507   -1.6020861    0.9637379  -0.63834824   0.11925659    11638.116     1000 
 2650000   0.59289999   -1.6410451   0.88846063   -0.7525845   0.12250488    11538.164     1000 
 2652000   0.63316303   -1.5826923    0.9487948   -0.6338975   0.14263139    11275.255     1000 
 2654000   0.60567228   -1.5824658   0.90759991   -0.6748659   0.12494203    11540.903     1000 
 2656000   0.60595342   -1.6624171   0.90802121  -0.75439594   0.11316071    11891.696     1000 
 2658000   0.62017054   -1.6107653   0.92932555   -0.6814397   0.13197342    11431.425     1000 
 2660000   0.62810254   -1.6370375   0.94121166  -0.69582588   0.12110366    11671.941     1000 
 2662000   0.61393028   -1.6023771   0.91997453  -0.68240256    0.1232064    11634.704     1000 
 2664000   0.62239784   -1.6442407   0.93266316  -0.71157759   0.11992568    11690.667     1000 
 2666000   0.63727811   -1.6557232   0.95496124  -0.70076196   0.13650377    11565.205     1000 
 2668000   0.60425096   -1.6449978   0.90547007  -0.73952771   0.12682276    11658.884     1000 
 2670000   0.60196135   -1.6247557   0.90203908  -0.72271662   0.12468405    11435.005     1000 
 2672000   0.62250391   -1.6242975   0.93282211  -0.69147538   0.12172221    11539.639     1000 
 2674000   0.61815642   -1.6151257   0.92630739  -0.68881834   0.12512852    11679.105     1000 
 2676000   0.62819039   -1.6090762   0.94134329  -0.66773292    0.1445168    11427.577     1000 
 2678000   0.62841062    -1.588503   0.94167331  -0.64682971   0.13750213    11656.024     1000 
 2680000   0.61991392   -1.6412069   0.92894101  -0.71226584   0.13053979    11451.668     1000 
 2682000   0.61560782   -1.6217272   0.92248831  -0.69923884   0.11459616    11765.478     1000 
 2684000   0.61442796   -1.6020612   0.92072029  -0.68134093   0.12949491    11655.802     1000 
 2686000   0.61388889   -1.6107348   0.91991251  -0.69082234   0.12651192    11491.064     1000 
 2688000   0.59972429    -1.593423   0.89868685  -0.69473619    0.1195183    11645.455     1000 
 2690000    0.6194494   -1.6171558   0.92824492   -0.6889109    0.1291338    11483.044     1000 
 2692000   0.61195459   -1.6158448   0.91701395  -0.69883081   0.12741047    11417.414     1000 
 2694000   0.62634681   -1.6806978   0.93858069  -0.74211709   0.13028586    11580.056     1000 
 2696000   0.57214269    -1.653906   0.85735582   -0.7965502   0.12968783     11436.11     1000 
 2698000   0.60864473   -1.6532208   0.91205413  -0.74116664   0.13868466    11522.926     1000 
 2700000   0.62714442   -1.6448595   0.93977591  -0.70508364   0.12356036    11536.611     1000 
 2702000    0.5911997   -1.6735654   0.88591275  -0.78765261   0.12133238     11490.05     1000 
 2704000   0.59941523   -1.6357152   0.89822373  -0.73749149   0.13519433     11410.77     1000 
 2706000   0.63319344   -1.6290788   0.94884037  -0.68023847   0.14638063    11502.228     1000 
 2708000   0.63325799   -1.6858969   0.94893709  -0.73695983   0.11886261    11516.297     1000 
 2710000   0.59180387   -1.5789972   0.88681811  -0.69217912   0.13287399    11552.051     1000 
 2712000   0.61892494   -1.5945944   0.92745903  -0.66713542   0.12474299    11566.413     1000 
 2714000   0.60846814   -1.5854429   0.91178951  -0.67365339    0.1344669    11429.307     1000 
 2716000   0.64155215   -1.6172738   0.96136589  -0.65590791   0.12960886    11431.336     1000 
 2718000   0.64034775   -1.5692638    0.9595611  -0.60970265   0.13372738    11305.309     1000 
 2720000    0.6384988   -1.6210831   0.95679046  -0.66429269    0.1202099    11706.491     1000 
 2722000   0.62104523   -1.6253913   0.93063627  -0.69475502    0.1318556    11633.132     1000 
 2724000   0.63133957   -1.5619136   0.94606235  -0.61585122   0.13445758     11337.52     1000 
 2726000   0.59747987   -1.6934506   0.89532359  -0.79812701   0.13377807    11517.258     1000 
 2728000   0.63708662   -1.6254435    0.9546743  -0.67076919   0.12529941    11565.474     1000 
 2730000   0.60587576    -1.596657   0.90790483  -0.68875217   0.12338875    11480.425     1000 
 2732000   0.64556753   -1.5800758   0.96738294  -0.61269283   0.13193042    11495.891     1000 
 2734000   0.60168961   -1.6057252   0.90163189  -0.70409331   0.14134422    11479.187     1000 
 2736000   0.63435439   -1.5903508   0.95058006  -0.63977073   0.11908366    11752.019     1000 
 2738000    0.6188579   -1.5936781   0.92735856   -0.6663195   0.12679761    11527.855     1000 
 2740000   0.61125769   -1.6459419   0.91596965  -0.72997225   0.13080921    11564.862     1000 
 2742000   0.62431906   -1.6569964   0.93554211  -0.72145424   0.11247146    11735.199     1000 
 2744000   0.60517111   -1.5927508   0.90684891  -0.68590186   0.11245132        11900     1000 
 2746000   0.64280249   -1.6382434   0.96323953  -0.67500392    0.1294353    11657.732     1000 
 2748000   0.61031195   -1.6320937   0.91455246  -0.71754121   0.12349639    11447.839     1000 
 2750000   0.60306688   -1.5697389   0.90369571  -0.66604316   0.11291453    11673.673     1000 
 2752000   0.60906727   -1.6031582   0.91268731  -0.69047094   0.12660731    11522.053     1000 
 2754000   0.63552958   -1.6620037   0.95234108  -0.70966262   0.14485025    11369.145     1000 
 2756000   0.62432357   -1.6347523   0.93554887  -0.69920338   0.12759516    11551.485     1000 
 2758000   0.62397964   -1.6371805   0.93503348  -0.70214704   0.13198763    11419.099     1000 
 2760000   0.63904984   -1.6154482   0.95761618  -0.65783206   0.13546164    11519.103     1000 
 2762000   0.62784786   -1.6082722   0.94083001  -0.66744215   0.12755367    11627.767     1000 
 2764000   0.60602719   -1.6486337   0.90813175  -0.74050197    0.1254406    11597.379     1000 
 2766000   0.61730551    -1.629019   0.92503231   -0.7039867   0.12072399    11510.155     1000 
 2768000   0.60593389   -1.6635173   0.90799194  -0.75552537   0.13250536    11431.838     1000 
 2770000   0.61680384   -1.5971135   0.92428056  -0.67283294   0.11897346    11708.388     1000 
 2772000   0.59119921   -1.5860948   0.88591202   -0.7001828   0.14335723    11281.124     1000 
 2774000   0.64995804   -1.6810711   0.97396212  -0.70710901   0.13779079    11549.158     1000 
 2776000   0.59962424   -1.6065158   0.89853692  -0.70797892   0.12782964    11431.444     1000 
 2778000   0.63293446     -1.59535   0.94845229  -0.64689766   0.14301336    11517.064     1000 
 2780000   0.63464629   -1.6636897   0.95101747  -0.71267227   0.14150161    11515.604     1000 
 2782000   0.62204362   -1.6200264   0.93213236  -0.68789406   0.12457208    11466.648     1000 
 2784000   0.61820678   -1.6334886   0.92638286  -0.70710576    0.1341078    11443.723     1000 
 2786000   0.63783447    -1.634197   0.95579495  -0.67840204   0.13158784    11458.072     1000 
 2788000   0.62928555   -1.6376857    0.9429844  -0.69470134   0.13103612    11474.634     1000 
 2790000   0.61952104   -1.6412395   0.92835228  -0.71288721    0.1326692    11627.708     1000 
 2792000   0.58625205   -1.6786388    0.8784987   -0.8001401   0.14764788    11298.472     1000 
 2794000   0.62926738   -1.6758415   0.94295716  -0.73288435   0.14055764    11330.811     1000 
 2796000   0.63195324   -1.6426556   0.94698193  -0.69567362   0.13814974    11500.757     1000 
 2798000   0.61308348   -1.5954666   0.91870559    -0.676761   0.12814798    11609.778     1000 
 2800000   0.62503743   -1.6170391   0.93661859  -0.68042054   0.13659678    11468.421     1000 
 2802000   0.61613821   -1.6581004   0.92328311  -0.73481733   0.13674843    11540.685     1000 
 2804000   0.62361659   -1.6414248   0.93448946  -0.70693536   0.12215604    11489.559     1000 
 2806000   0.62006769   -1.6373667   0.92917143  -0.70819524   0.12023586    11723.743     1000 
 2808000   0.61842568   -1.6594681   0.92671089  -0.73275721   0.12653513    11631.208     1000 
 2810000   0.62427651   -1.6788038   0.93547835   -0.7433255   0.13882228    11547.869     1000 
 2812000   0.63882216   -1.6295638   0.95727501  -0.67228875   0.12616152    11638.704     1000 
 2814000   0.62725022   -1.5954782   0.93993446   -0.6555437   0.11839756    11581.672     1000 
 2816000   0.64294055   -1.6573166   0.96344642  -0.69387017   0.12157575    11644.149     1000 
 2818000   0.62006215   -1.6168475   0.92916313  -0.68768434   0.13140202    11592.213     1000 
 2820000   0.60456393   -1.6000723   0.90593905  -0.69413328   0.13355428    11390.519     1000 
 2822000   0.60639506   -1.6225155   0.90868299  -0.71383255   0.14288307    11491.207     1000 
 2824000   0.62236419   -1.6037905   0.93261274  -0.67117778   0.14279603    11433.616     1000 
 2826000   0.62337953   -1.6710636   0.93413422  -0.73692934   0.13185016    11504.011     1000 
 2828000   0.60257446   -1.6197789   0.90295782  -0.71682113   0.12668889        11643     1000 
 2830000   0.63930878   -1.5765585    0.9580042  -0.61855429   0.12340118    11467.672     1000 
 2832000   0.62118886    -1.620769   0.93085151  -0.68991747   0.13009004    11581.335     1000 
 2834000   0.61343261   -1.5532204   0.91922877  -0.63399166    0.1364489    11283.888     1000 
 2836000   0.64797491   -1.6220063    0.9709904  -0.65101593   0.13781208    11457.259     1000 
 2838000   0.63977036    -1.643405   0.95869588  -0.68470914   0.14045312    11426.127     1000 
 2840000   0.61211987   -1.5718872   0.91726162  -0.65462562   0.14077253    11187.324     1000 
 2842000   0.61747575   -1.6098845   0.92528741  -0.68459712   0.14016206    11461.345     1000 
 2844000   0.59907217   -1.6355259   0.89770964  -0.73781625   0.13529798    11463.175     1000 
 2846000   0.61357406     -1.60052   0.91944073  -0.68107925   0.12195259    11341.438     1000 
 2848000   0.64843723   -1.6087124   0.97168319  -0.63702916   0.14144971    11454.889     1000 
 2850000   0.63796885   -1.5701472   0.95599632  -0.61415088   0.13239882    11497.534     1000 
 2852000   0.65164841   -1.6088885   0.97649515  -0.63239337   0.12318495    11539.437     1000 
 2854000   0.64006865   -1.6086079   0.95914288  -0.64946498   0.15557667    11246.401     1000 
 2856000   0.61338076   -1.6156322   0.91915106  -0.69648111   0.12873649    11532.894     1000 
 2858000   0.58625047   -1.5974681   0.87849634  -0.71897177   0.13517207     11529.31     1000 
 2860000   0.63772872   -1.6421488   0.95563648  -0.68651234   0.13300558    11356.797     1000 
 2862000   0.60506297   -1.6763243   0.90668687  -0.76963741   0.13160848    11492.391     1000 
 2864000   0.62015822   -1.6523117   0.92930709  -0.72300458   0.12530131    11636.215     1000 
 2866000   0.62270014    -1.669637   0.93311616  -0.73652085   0.11361108    11813.524     1000 
 2868000   0.57506511   -1.5952038   0.86173507  -0.73346878   0.12057071    11574.394     1000 
 2870000   0.61029851   -1.6294491   0.91453232  -0.71491674   0.14592533    11359.287     1000 
 2872000   0.63740702   -1.6217251   0.95515442  -0.66657073   0.14269745      11324.3     1000 
 2874000   0.63099659   -1.6155572   0.94554839  -0.67000877   0.13328996    11559.273     1000 
 2876000   0.61442534   -1.5481363   0.92071637  -0.62741996   0.12487229    11552.962     1000 
 2878000   0.60252099   -1.6451219    0.9028777  -0.74224419   0.13996589    11347.786     1000 
 2880000   0.61727184   -1.6397351   0.92498185  -0.71475321   0.13080697    11453.551     1000 
 2882000   0.62593762   -1.6339154   0.93796752  -0.69594789   0.14107784     11426.73     1000 
 2884000   0.60448784    -1.611443   0.90582502  -0.70561793   0.13848578    11468.654     1000 
 2886000   0.61675625   -1.6366827   0.92420924  -0.71247341   0.12509679    11447.633     1000 
 2888000   0.65448665   -1.6143022   0.98074824  -0.63355392   0.12718419    11413.561     1000 
 2890000   0.61635646   -1.6258085   0.92361016  -0.70219834   0.13542769     11551.94     1000 
 2892000   0.62886001   -1.6535476   0.94234673  -0.71120084   0.12347896    11726.793     1000 
 2894000   0.61651352   -1.5913034   0.92384551  -0.66745785   0.13726117    11435.385     1000 
 2896000    0.6129263    -1.602511   0.91847006  -0.68404096   0.13106791    11359.197     1000 
 2898000    0.6228706   -1.6652194   0.93337159  -0.73184785   0.11359212    11786.825     1000 
 2900000   0.60882306   -1.6496802   0.91232135  -0.73735889   0.12488342     11502.62     1000 
 2902000   0.61616285   -1.6818215   0.92332002   -0.7585015    0.1338917    11515.505     1000 
 2904000   0.61774443   -1.6141225   0.92569003  -0.68843247   0.13276884    11517.924     1000 
 2906000   0.64362488   -1.6005855   0.96447189   -0.6361136   0.13301596    11393.265     1000 
 2908000     0.635941   -1.6600581   0.95295759  -0.70710047   0.13568247    11567.831     1000 
 2910000   0.62667892   -1.6608869   0.93907836  -0.72180849   0.13296927    11544.048     1000 
 2912000   0.62630771   -1.5719106    0.9385221  -0.63338853   0.13976785    11416.335     1000 
 2914000   0.62804936   -1.5749585   0.94113197  -0.63382649   0.14832594    11301.427     1000 
 2916000    0.6009096   -1.5915978   0.90046304  -0.69113473   0.12905478    11348.177     1000 
 2918000   0.62168405   -1.5965511   0.93159356   -0.6649575   0.13702294    11448.024     1000 
 2920000   0.61354217   -1.6455584   0.91939295  -0.72616542   0.12683484     11596.89     1000 
 2922000   0.59619712   -1.6561986   0.89340138  -0.76279726   0.13529132    11482.106     1000 
 2924000   0.62198326   -1.6612369   0.93204191  -0.72919496   0.12228436    11653.342     1000 
 2926000   0.61353213   -1.6530783   0.91937789  -0.73370038   0.11909908    11568.269     1000 
 2928000   0.63965177    -1.658855   0.95851818  -0.70033681   0.13364055    11414.411     1000 
 2930000   0.62153839   -1.5641464   0.93137528  -0.63277112   0.13370369     11413.26     1000 
 2932000   0.63200112   -1.6141735   0.94705368   -0.6671198   0.13366003    11565.543     1000 
 2934000   0.60501565   -1.6456462   0.90661596  -0.73903026   0.12298339    11668.012     1000 
 2936000   0.63364553   -1.6028276   0.94951783  -0.65330974   0.13153577    11522.402     1000 
 2938000    0.6155819   -1.5733588   0.92244948  -0.65090934   0.13341455    11526.233     1000 
 2940000   0.63436558   -1.6695599   0.95059683  -0.71896306   0.11746043    11764.883     1000 
 2942000   0.64180521   -1.6148774    0.9617451  -0.65313227   0.13833785    11474.873     1000 
 2944000    0.5976546   -1.6011738   0.89558542  -0.70558842   0.12832263    11379.354     1000 
 2946000   0.64213393   -1.6445489    0.9622377  -0.68231118   0.13826677    11537.837     1000 
 2948000   0.61681341   -1.6453239   0.92429489    -0.721029   0.13099067    11411.955     1000 
 2950000    0.6030239   -1.6834384   0.90363131  -0.77980705   0.13212251    11548.004     1000 
 2952000   0.62070055    -1.579163   0.93011978  -0.64904319   0.12424391    11606.485     1000 
 2954000   0.65770336   -1.6526926   0.98556849  -0.66712411   0.13046657    11425.666     1000 
 2956000   0.61073983   -1.5721799   0.91519364   -0.6569863   0.12731468     11553.69     1000 
 2958000   0.61048798   -1.6514379   0.91481623  -0.73662167   0.13086312    11634.441     1000 
 2960000   0.63842206    -1.604164   0.95667546  -0.64748852   0.12991908    11442.093     1000 
 2962000   0.61828205   -1.6095068   0.92649565   -0.6830112   0.12193286    11589.627     1000 
 2964000   0.63229135     -1.60689   0.94748858  -0.65940137    0.1418525     11434.03     1000 
 2966000   0.61799746   -1.5796947   0.92606919  -0.65362551   0.14139875      11396.2     1000 
 2968000   0.61882298   -1.6347187   0.92730623  -0.70741245   0.12833357      11717.8     1000 
 2970000    0.6144012   -1.6505466   0.92068019  -0.72986644   0.12869695    11723.524     1000 
 2972000   0.62197973   -1.5355062   0.93203662  -0.60346958   0.14019045    11401.695     1000 
 2974000    0.6507524   -1.6091399   0.97515247  -0.63398744   0.12670279    11537.199     1000 
 2976000     0.642698   -1.6086116   0.96308295  -0.64552869   0.12899499    11521.446     1000 
 2978000   0.62316849   -1.6057905   0.93381798  -0.67197252   0.13777421    11478.162     1000 
 2980000   0.59875391   -1.6064394   0.89723273  -0.70920664   0.12734023    11477.767     1000 
 2982000    0.6305148   -1.6031552   0.94482643   -0.6583288   0.13101851    11374.087     1000 
 2984000   0.60878017   -1.6585432   0.91225708  -0.74628611   0.12918128    11547.389     1000 
 2986000   0.59945521   -1.6111822   0.89828363  -0.71289853   0.12990013    11478.604     1000 
 2988000   0.62301795   -1.5986456   0.93359239  -0.66505317   0.11785559    11583.547     1000 
 2990000   0.64044022   -1.6047283   0.95969966  -0.64502866   0.12721874    11648.139     1000 
 2992000   0.62679776   -1.6048893   0.93925644  -0.66563288   0.13089474    11698.803     1000 
 2994000   0.62390762   -1.5789538   0.93492557  -0.64402823   0.12911238     11381.18     1000 
 2996000    0.6301575   -1.7222013   0.94429101  -0.77791028   0.13291611    11587.605     1000 
 2998000   0.61842843   -1.6439805     0.926715  -0.71726554   0.11101866    11676.072     1000 
 3000000    0.6288309    -1.567351   0.94230311  -0.62504791   0.13452151    11359.211     1000 
Loop time of 13163.6 on 1 procs for 3000000 steps with 1000 atoms

Performance: 98453.512 tau/day, 227.902 timesteps/s
100.0% CPU use with 1 MPI tasks x 1 OpenMP threads

MPI task timing breakdown:
Section |  min time  |  avg time  |  max time  |%varavg| %total
---------------------------------------------------------------
Pair    | 11818      | 11818      | 11818      |   0.0 | 89.78
Neigh   | 879.26     | 879.26     | 879.26     |   0.0 |  6.68
Comm    | 158.65     | 158.65     | 158.65     |   0.0 |  1.21
Output  | 0.069936   | 0.069936   | 0.069936   |   0.0 |  0.00
Modify  | 283.57     | 283.57     | 283.57     |   0.0 |  2.15
Other   |            | 24.1       |            |       |  0.18

Nlocal:        1000.00 ave        1000 max        1000 min
Histogram: 1 0 0 0 0 0 0 0 0 0
Nghost:        4214.00 ave        4214 max        4214 min
Histogram: 1 0 0 0 0 0 0 0 0 0
Neighs:        104943.0 ave      104943 max      104943 min
Histogram: 1 0 0 0 0 0 0 0 0 0

Total # of neighbors = 104943
Ave neighs/atom = 104.94300
Neighbor list builds = 150000
Dangerous builds not checked

Total wall time: 3:39:23
