LAMMPS (29 Sep 2021 - Update 2)
OMP_NUM_THREADS environment is not set. Defaulting to 1 thread. (src/comm.cpp:98)
  using 1 OpenMP thread(s) per MPI task
# ----------------------- Inicialização -----------------------

units			lj
atom_style 		atomic
dimension 		3
boundary 		p p p

# -------------------- Criação dos Átomos ---------------------

read_data 		topologia.txt
Reading data file ...
  orthogonal box = (0.0000000 0.0000000 0.0000000) to (21.540000 21.540000 21.540000)
  1 by 1 by 1 MPI processor grid
  reading atoms ...
  1000 atoms
  read_data CPU = 0.002 seconds

velocity 		all create ${temp} 87287 rot yes dist gaussian
velocity 		all create 0.65 87287 rot yes dist gaussian

# ------------------ Interação Interatômica -------------------

pair_style		table linear 1600
pair_coeff		1 1 force.table AA 8.0
WARNING: 3 of 1600 force values in table AA are inconsistent with -dE/dr.
WARNING:  Should only be flagged at inflection points (src/pair_table.cpp:465)
pair_coeff		1 2 force.table AB 8.0
WARNING: 1 of 1600 force values in table AB are inconsistent with -dE/dr.
WARNING:  Should only be flagged at inflection points (src/pair_table.cpp:465)
pair_coeff		2 2 force.table BB 8.0
pair_write		1 1 1600 r 0.008 8.0 table.check AA
Appending to table file table.check with DATE: 2023-07-05
Neighbor list info ...
  update every 1 steps, delay 10 steps, check yes
  max neighbors/atom: 2000, page size: 100000
  master list distance cutoff = 8.3
  ghost atom cutoff = 8.3
  binsize = 4.15, bins = 6 6 6
  1 neighbor lists, perpetual/occasional/extra = 1 0 0
  (1) pair table, perpetual
      attributes: half, newton on
      pair build: half/bin/atomonly/newton
      stencil: half/bin/3d
      bin: standard
pair_write		1 2 1600 r 0.008 8.0 table.check AB
Appending to table file table.check with DATE: 2023-07-05
pair_write		2 2 1600 r 0.008 8.0 table.check BB
Appending to table file table.check with DATE: 2023-07-05

neighbor 		0.3 bin
neigh_modify		every 20 delay 0 check no

# ------------------------- Ensemble --------------------------------------

fix 1			all npt temp ${temp} ${temp} 0.5 iso ${press} ${press} 5
fix 1			all npt temp 0.65 ${temp} 0.5 iso ${press} ${press} 5
fix 1			all npt temp 0.65 0.65 0.5 iso ${press} ${press} 5
fix 1			all npt temp 0.65 0.65 0.5 iso 0.13 ${press} 5
fix 1			all npt temp 0.65 0.65 0.5 iso 0.13 0.13 5

# ---------------------- Função de Distribuição Radial -----------------------

#compute RDF 		all rdf 2000 1 1 1 2 2 2
#fix 2 			all ave/time 1 2000 2000 c_RDF[*] file rdf.data mode vector

# ------------------------- Execução ---------------------------

timestep 		0.005
thermo_style		custom step temp pe ke etotal press vol atoms
thermo			2000
run			3000000
Per MPI rank memory allocation (min/avg/max) = 3.125 | 3.125 | 3.125 Mbytes
Step Temp PotEng KinEng TotEng Press Volume Atoms 
       0         0.65  -0.99524352     0.974025 -0.021218517   0.13314758    9993.9483     1000 
    2000   0.67554503   -1.5397509    1.0123042  -0.52744667    0.1222525    11656.347     1000 
    4000   0.67594594   -1.6384366     1.012905  -0.62553163   0.13440988    11742.689     1000 
    6000   0.66023728   -1.5459044   0.98936557  -0.55653882    0.1268314     11708.44     1000 
    8000   0.64439287   -1.5741981   0.96562271  -0.60857543   0.12374717    11488.153     1000 
   10000     0.642571   -1.5677835   0.96289265  -0.60489088   0.12978041    11687.726     1000 
   12000   0.64073667   -1.6130875    0.9601439  -0.65294358   0.11836718    11817.087     1000 
   14000   0.63652123   -1.5522574   0.95382707  -0.59843034   0.12726157    11397.589     1000 
   16000   0.61500945   -1.5050493   0.92159166  -0.58345767   0.13354566    11520.482     1000 
   18000   0.65765118   -1.5796418    0.9854903  -0.59415146   0.12800996    11489.663     1000 
   20000   0.61380293   -1.6030752    0.9197837  -0.68329148   0.12470067    11639.888     1000 
   22000   0.64615843   -1.6149385    0.9682684   -0.6466701   0.12107424    11819.849     1000 
   24000   0.63814075   -1.5379667   0.95625392  -0.58171282   0.13190179    11424.874     1000 
   26000   0.62068647   -1.5585466   0.93009868  -0.62844793   0.11863805    11624.697     1000 
   28000   0.64735944   -1.5061437   0.97006812  -0.53607562   0.13691779    11426.273     1000 
   30000   0.62384155    -1.572598   0.93482656  -0.63777144   0.13217269    11523.963     1000 
   32000      0.65566    -1.565845   0.98250651  -0.58333851   0.12709698    11536.005     1000 
   34000   0.68362229   -1.5794335     1.024408  -0.55502555   0.13394225    11920.233     1000 
   36000   0.66665976    -1.589083   0.99898964  -0.59009339   0.12576798     11608.11     1000 
   38000   0.66012507    -1.587425   0.98919741   -0.5982276   0.13599046    11630.606     1000 
   40000   0.68088017   -1.5585996    1.0202989  -0.53830066   0.13624819    11526.322     1000 
   42000   0.63988448   -1.5931904    0.9588669  -0.63432351     0.129762    11654.314     1000 
   44000   0.62421572   -1.5012282   0.93538726  -0.56584094   0.14610201    11511.765     1000 
   46000   0.64974822   -1.6124439    0.9736477  -0.63879617   0.12524135    11551.317     1000 
   48000   0.64952496   -1.5829201   0.97331315  -0.60960695   0.13712894     11604.05     1000 
   50000   0.65141702   -1.5631258   0.97614841  -0.58697737   0.13447859    11628.219     1000 
   52000   0.65708323   -1.5673155   0.98463923  -0.58267629   0.13059236    11510.832     1000 
   54000   0.65985276   -1.5576614   0.98878937  -0.56887208   0.14295642    11406.666     1000 
   56000   0.67982701   -1.5553438    1.0187208  -0.53662304   0.12738063     11654.14     1000 
   58000   0.62038544   -1.5438605   0.92964759  -0.61421294   0.13122218    11514.069     1000 
   60000    0.6186862   -1.5405093   0.92710128  -0.61340799   0.13340845    11360.684     1000 
   62000   0.65258628   -1.5705673   0.97790055  -0.59266679   0.12169111    11752.389     1000 
   64000   0.66066593   -1.5593126   0.99000789  -0.56930475   0.13907044    11570.981     1000 
   66000   0.62598232   -1.5339293    0.9380345  -0.59589479   0.12712109    11536.084     1000 
   68000   0.61069428   -1.5424175   0.91512537  -0.62729217   0.11513457    11658.213     1000 
   70000    0.6703886   -1.5471044    1.0045773  -0.54252707   0.12412126    11820.995     1000 
   72000   0.66019802   -1.6037979   0.98930673  -0.61449116   0.14001837    11388.734     1000 
   74000   0.65780238   -1.5762939   0.98571687  -0.59057708   0.12245428     11663.65     1000 
   76000   0.63269136   -1.6184177   0.94808801   -0.6703297   0.12424783    11571.447     1000 
   78000   0.67635005   -1.5230549    1.0135106  -0.50954439   0.12485809    11423.615     1000 
   80000   0.59835885   -1.4978225   0.89664073  -0.60118175   0.13685272    11384.606     1000 
   82000   0.66459947   -1.5714116   0.99590231  -0.57550927   0.13399155    11444.298     1000 
   84000   0.62845962   -1.5282601   0.94174674  -0.58651336   0.11999964    11649.228     1000 
   86000   0.65388453   -1.5586239   0.97984598  -0.57877796   0.13732268     11436.93     1000 
   88000   0.66066866   -1.5611077   0.99001199   -0.5710957   0.13182547    11545.948     1000 
   90000   0.64236553   -1.5655395   0.96258475  -0.60295479   0.13397571    11681.453     1000 
   92000   0.66976309     -1.53675      1.00364  -0.53311004   0.10632091    11949.453     1000 
   94000   0.64060438   -1.5560361   0.95994567  -0.59609043   0.12757378    11557.017     1000 
   96000   0.66060785   -1.5335138   0.98992087  -0.54359298   0.13221584    11504.734     1000 
   98000   0.64030802   -1.5530252   0.95950157  -0.59352361   0.12746428     11603.77     1000 
  100000   0.65929014   -1.5617024   0.98794627   -0.5737561   0.13161107    11639.861     1000 
  102000   0.63049652   -1.5989552   0.94479904  -0.65415616   0.14273422    11400.978     1000 
  104000   0.63511947   -1.5737548   0.95172652  -0.62202823   0.12912932    11722.437     1000 
  106000    0.6700884    -1.563671    1.0041275  -0.55954353   0.12414573    11575.244     1000 
  108000   0.66012134   -1.5405806   0.98919183  -0.55138881   0.13019377    11562.256     1000 
  110000   0.66493579    -1.549893   0.99640628  -0.55348672   0.11727076    11636.597     1000 
  112000   0.65886474    -1.551386   0.98730881  -0.56407714   0.12453947    11592.516     1000 
  114000   0.64147199   -1.5421225   0.96124578  -0.58087674   0.13038927    11595.689     1000 
  116000   0.65573222   -1.5065429   0.98261474  -0.52392815   0.11157254    11654.702     1000 
  118000   0.66464655   -1.5392229   0.99597285     -0.54325    0.1334122    11506.649     1000 
  120000   0.63152015   -1.5855004   0.94633295  -0.63916748   0.14045644    11318.154     1000 
  122000   0.65696351   -1.5592598   0.98445982  -0.57479997   0.14532425    11428.303     1000 
  124000   0.65891481   -1.5304378   0.98738384    -0.543054    0.1349205    11511.262     1000 
  126000   0.61859925   -1.5946101   0.92697097  -0.66763909   0.12348912    11766.381     1000 
  128000   0.66542086   -1.5397835   0.99713316  -0.54265039   0.14145682    11431.231     1000 
  130000   0.61934269   -1.5578161   0.92808502  -0.62973111   0.14172864    11638.508     1000 
  132000   0.67145105   -1.5859702    1.0061694  -0.57980077   0.13239054    11658.062     1000 
  134000   0.64993505   -1.6102025   0.97392768   -0.6362748    0.1283851    11598.558     1000 
  136000   0.66466199   -1.5489711     0.995996  -0.55297507   0.13179781     11694.77     1000 
  138000   0.62952289   -1.5150501   0.94334006  -0.57171007    0.1356173    11483.687     1000 
  140000   0.64166834   -1.5880024      0.96154  -0.62646235   0.13635691    11414.424     1000 
  142000   0.62612732   -1.5564457   0.93825179  -0.61819389    0.1365453     11303.37     1000 
  144000    0.6484181    -1.592375   0.97165452   -0.6207205   0.12612503      11620.1     1000 
  146000   0.67626516   -1.5883531    1.0133833  -0.57496971   0.11777823    11777.676     1000 
  148000   0.59282501    -1.602968   0.88834828  -0.71461976   0.12757353    11716.396     1000 
  150000   0.62307417   -1.5481419   0.93367664  -0.61446528   0.12285957    11723.185     1000 
  152000    0.6751107   -1.5645235    1.0116534  -0.55287014   0.12582763    11596.295     1000 
  154000   0.62536273   -1.6005912   0.93710604  -0.66348511   0.12086167    11756.876     1000 
  156000   0.64687705   -1.5598426   0.96934527   -0.5904973   0.13214151    11565.269     1000 
  158000   0.66505306   -1.5271116   0.99658201  -0.53052956     0.126159    11673.212     1000 
  160000   0.65130649   -1.5604977   0.97598277  -0.58451494    0.1271261    11561.401     1000 
  162000   0.66576203   -1.5362835   0.99764441  -0.53863914   0.13394028    11436.195     1000 
  164000   0.66708609   -1.5950525   0.99962851    -0.595424   0.12805941    11786.759     1000 
  166000   0.64064997   -1.5431559   0.96001398  -0.58314195   0.13679896    11558.727     1000 
  168000   0.66375125   -1.5434749   0.99463125  -0.54884369   0.13659082     11490.78     1000 
  170000   0.65585842   -1.5654004   0.98280384  -0.58259652   0.13001229    11605.215     1000 
  172000   0.64967076   -1.6203006   0.97353163  -0.64676894   0.13508817    11542.594     1000 
  174000   0.64320059   -1.5360842   0.96383608  -0.57224807   0.13009179     11399.64     1000 
  176000   0.62390887   -1.5562641   0.93492745   -0.6213367   0.13132616    11556.928     1000 
  178000   0.62798647   -1.5228964   0.94103773  -0.58185866   0.13566982    11460.924     1000 
  180000   0.67478515   -1.5675797    1.0111655  -0.55641413   0.13326661    11617.338     1000 
  182000   0.64469683   -1.5902057    0.9660782  -0.62412747   0.13893243    11530.992     1000 
  184000   0.63263862    -1.605422   0.94800897  -0.65741301   0.13427914    11434.682     1000 
  186000   0.66446316   -1.5358079   0.99569804  -0.54010984   0.13945192    11594.774     1000 
  188000   0.61613341    -1.578028   0.92327591  -0.65475207   0.12745973    11648.609     1000 
  190000   0.64351776   -1.5651526   0.96431137  -0.60084126   0.12765853    11397.849     1000 
  192000   0.66507137   -1.5569746   0.99660945  -0.56036515   0.12214235    11567.644     1000 
  194000   0.67908941   -1.5889102    1.0176155  -0.57129474   0.11938088     11756.15     1000 
  196000   0.64170107   -1.5453376   0.96158905  -0.58374853    0.1311173     11680.96     1000 
  198000   0.64733832   -1.6405907   0.97003648  -0.67055424   0.12912961    11588.053     1000 
  200000   0.67161232   -1.5656373    1.0064111  -0.55922621    0.1195961    11508.326     1000 
  202000   0.66677142    -1.539263   0.99915697  -0.54010603   0.13328961     11712.03     1000 
  204000   0.63490024   -1.5930009   0.95139801  -0.64160284   0.12246037    11636.012     1000 
  206000   0.63073358   -1.5818539   0.94515427   -0.6366996   0.13418482    11563.387     1000 
  208000    0.6496878   -1.5083905   0.97355716  -0.53483337   0.13004579    11600.979     1000 
  210000   0.65698137   -1.5809623   0.98448659  -0.59647574   0.13530958    11669.377     1000 
  212000   0.63874543   -1.5018682   0.95716003  -0.54470817   0.13252581    11578.953     1000 
  214000   0.61884549   -1.5864904   0.92733996  -0.65915039   0.13356657    11589.615     1000 
  216000   0.63899778   -1.5383016   0.95753817  -0.58076343   0.14032881    11606.663     1000 
  218000    0.6453197   -1.5968987   0.96701156  -0.62988713   0.13260926    11714.321     1000 
  220000   0.68709848     -1.57009    1.0296171  -0.54047292   0.14219364     11501.17     1000 
  222000   0.62012622    -1.596337   0.92925914  -0.66707784   0.12077862    11747.822     1000 
  224000   0.66709391   -1.5827166   0.99964022  -0.58307633   0.13119396     11625.86     1000 
  226000   0.63924387   -1.5430821   0.95790694  -0.58517518   0.12395278     11558.43     1000 
  228000   0.66609807   -1.5549533   0.99814796  -0.55680538   0.13098922    11626.393     1000 
  230000   0.68869407   -1.6019607    1.0320081  -0.56995263   0.11865992    11832.095     1000 
  232000   0.65483663   -1.5431035   0.98127269  -0.56183084   0.13936541    11410.107     1000 
  234000   0.66217603    -1.576787   0.99227077  -0.58451625    0.1239092    11733.812     1000 
  236000   0.65624565   -1.5433719   0.98338411  -0.55998777   0.12550864    11451.301     1000 
  238000   0.64672566    -1.625026   0.96911841  -0.65590756   0.12764974    11745.406     1000 
  240000   0.65237051    -1.522285   0.97757721  -0.54470776   0.13423694    11441.943     1000 
  242000   0.62490311    -1.553624   0.93641731  -0.61720666   0.12976016    11580.584     1000 
  244000   0.66609473   -1.5397858   0.99814295  -0.54164281   0.12935893    11587.667     1000 
  246000   0.64258036   -1.5967556   0.96290666  -0.63384898   0.12928047    11619.546     1000 
  248000   0.63451038   -1.5513131    0.9508138  -0.60049929   0.11315791    11723.098     1000 
  250000   0.65626876   -1.5723698   0.98341873  -0.58895107   0.14170907    11453.844     1000 
  252000   0.64865212   -1.5299651   0.97200521  -0.55795989   0.13604008     11478.01     1000 
  254000   0.66714981   -1.5506199     0.999724  -0.55089595   0.12853894    11632.281     1000 
  256000   0.64317739      -1.5432   0.96380132  -0.57939872   0.13791621    11553.251     1000 
  258000    0.6222215   -1.5112202   0.93239892  -0.57882127   0.13185087     11578.51     1000 
  260000   0.66208001   -1.5382625   0.99212689  -0.54613563   0.14580869    11321.439     1000 
  262000   0.66210912   -1.6433567   0.99217052  -0.65118617     0.125186    11813.353     1000 
  264000    0.6502323   -1.5747203   0.97437311  -0.60034715   0.13681849    11425.599     1000 
  266000   0.64935424   -1.5553615   0.97305733   -0.5823042   0.11620191    11645.773     1000 
  268000   0.63524081   -1.5590057   0.95190835  -0.60709734   0.12453512    11509.474     1000 
  270000    0.6483391   -1.5157154   0.97153614  -0.54417928   0.13549438    11425.459     1000 
  272000   0.66050686   -1.5917542   0.98976953  -0.60198464   0.13031933    11652.299     1000 
  274000   0.66338499   -1.5409959    0.9940824  -0.54691354   0.13683981    11514.025     1000 
  276000   0.65485175   -1.5877291   0.98129535  -0.60643379   0.12874198    11579.059     1000 
  278000   0.63972097   -1.5510792   0.95862188  -0.59245737   0.13255045    11430.254     1000 
  280000   0.63197291   -1.6145012   0.94701141  -0.66748978   0.11607115    11784.921     1000 
  282000   0.63973936   -1.5849562   0.95864944  -0.62630675    0.1259661    11509.166     1000 
  284000   0.63067012   -1.5579822   0.94505918  -0.61292304   0.13369249    11465.393     1000 
  286000    0.6549851   -1.5257444   0.98149518  -0.54424924   0.13524348    11593.241     1000 
  288000   0.65158118   -1.6264359   0.97639439  -0.65004155   0.12532894    11729.037     1000 
  290000   0.63261161   -1.5488305    0.9479685  -0.60086196   0.12010694    11510.487     1000 
  292000   0.65382732   -1.5392187   0.97976024  -0.55945848   0.12962907    11545.227     1000 
  294000   0.63182301   -1.5092047   0.94678677  -0.56241795   0.13703874    11417.073     1000 
  296000    0.6147505   -1.5997118   0.92120363  -0.67850818   0.11047739    11967.576     1000 
  298000   0.64341448   -1.5922698   0.96415659  -0.62811322   0.12293423    11755.605     1000 
  300000   0.67355758   -1.6062503     1.009326  -0.59692431   0.12453248    11732.126     1000 
  302000   0.67665035   -1.5531934    1.0139605  -0.53923284   0.13141633      11517.6     1000 
  304000   0.65381062   -1.5502314   0.97973522  -0.57049622   0.13073056    11563.053     1000 
  306000   0.64766036   -1.5076113   0.97051906  -0.53709223   0.13631736    11523.321     1000 
  308000    0.6278436   -1.6018858   0.94082364  -0.66106213   0.12042766    11591.938     1000 
  310000   0.66387008   -1.6071357   0.99480931  -0.61232643   0.11524613    11822.493     1000 
  312000   0.65200608   -1.6022876   0.97703111  -0.62525645   0.13915765    11392.703     1000 
  314000    0.6610762   -1.4768916   0.99062269  -0.48626888   0.13482213    11662.855     1000 
  316000   0.65894236   -1.5968178   0.98742512  -0.60939264   0.12177359    11654.221     1000 
  318000    0.6519058   -1.6249659   0.97688085   -0.6480851   0.12377139     11902.09     1000 
  320000    0.6675668   -1.5190506    1.0003488  -0.51870173   0.12775706    11634.411     1000 
  322000   0.62873301   -1.5514448   0.94215641  -0.60928836   0.10901158    11587.272     1000 
  324000   0.67421348    -1.565439    1.0103089  -0.55513006   0.12248722    11635.365     1000 
  326000   0.62905707   -1.5124007   0.94264202  -0.56975869   0.13567095    11394.411     1000 
  328000    0.6495692   -1.5675185   0.97337945  -0.59413905   0.13618042    11620.842     1000 
  330000   0.59943788   -1.5666196   0.89825767  -0.66836197   0.12229013     11710.35     1000 
  332000   0.65085348   -1.5334783   0.97530395  -0.55817433   0.12990834    11677.878     1000 
  334000   0.66337642   -1.5815805   0.99406956  -0.58751097   0.13877255    11564.372     1000 
  336000    0.6418524   -1.5772568   0.96181582  -0.61544102   0.13458762    11460.508     1000 
  338000   0.65352276   -1.5233792   0.97930385  -0.54407534   0.13159352    11633.691     1000 
  340000    0.6790485   -1.5349983    1.0175542  -0.51744413   0.13602302    11603.991     1000 
  342000   0.66125822   -1.6270177   0.99089544  -0.63612221   0.11636542    11768.435     1000 
  344000   0.65805309   -1.5540184   0.98609255  -0.56792589   0.13143432    11723.463     1000 
  346000   0.65147416   -1.5848912   0.97623402  -0.60865719   0.12793054    11568.739     1000 
  348000   0.63469746   -1.6266306   0.95109415  -0.67553648   0.12721571    11755.484     1000 
  350000   0.65483722   -1.5338956   0.98127357  -0.55262203   0.13121534    11433.998     1000 
  352000   0.62560267    -1.588922   0.93746561  -0.65145638   0.11818249    11670.491     1000 
  354000   0.64927818   -1.5702694   0.97294335  -0.59732608   0.12642128    11611.729     1000 
  356000   0.65996842    -1.514587   0.98896267  -0.52562434   0.14540169    11257.233     1000 
  358000   0.64092368   -1.5674759   0.96042413  -0.60705174   0.11979309    11601.601     1000 
  360000   0.64499202   -1.5322996   0.96652054  -0.56577903   0.13684759    11479.249     1000 
  362000   0.63779336   -1.5250104   0.95573335  -0.56927702   0.12219424    11558.666     1000 
  364000   0.65871888   -1.5579797   0.98709024  -0.57088946   0.14184197    11546.158     1000 
  366000   0.66282325    -1.521164   0.99324064  -0.52792341   0.13656125    11576.953     1000 
  368000    0.6123566   -1.6031497   0.91761637   -0.6855333   0.13126988    11551.892     1000 
  370000   0.61674072   -1.5523959   0.92418596  -0.62820991   0.13979897     11352.32     1000 
  372000   0.65885511   -1.5451731   0.98729438  -0.55787869   0.11884044    11929.229     1000 
  374000   0.66704275   -1.6067048   0.99956357  -0.60714127   0.13212445    11568.128     1000 
  376000   0.65189527    -1.543192   0.97686507  -0.56632696   0.13096109     11516.53     1000 
  378000    0.6371811   -1.5822698   0.95481588  -0.62745392   0.12958425    11683.815     1000 
  380000   0.65292479   -1.5695459    0.9784078  -0.59113812   0.12128784    11592.013     1000 
  382000   0.65230973   -1.5475041   0.97748613  -0.57001795   0.13809852    11487.835     1000 
  384000   0.64387366   -1.5525565   0.96484468   -0.5877118   0.12831687    11625.581     1000 
  386000   0.65589077   -1.5441431   0.98285232  -0.56129079   0.12918785     11607.08     1000 
  388000   0.66014242   -1.5572327   0.98922342  -0.56800923    0.1414717    11645.417     1000 
  390000   0.65895027   -1.5455158   0.98743698  -0.55807883   0.13556053    11536.241     1000 
  392000   0.63708965   -1.5643936   0.95467884  -0.60971474   0.11770669    11694.755     1000 
  394000   0.65837008    -1.596931   0.98656757  -0.61036347   0.13077368    11669.682     1000 
  396000   0.63296102   -1.5141826   0.94849208  -0.56569054     0.134582    11501.563     1000 
  398000   0.63220828   -1.5496078   0.94736411  -0.60224369   0.12719672    11611.784     1000 
  400000   0.67604583   -1.5575519    1.0130547  -0.54449719   0.13724371    11474.077     1000 
  402000   0.64211417   -1.5258777   0.96220808  -0.56366965   0.12535432    11611.758     1000 
  404000   0.66002275   -1.5582954   0.98904409  -0.56925132   0.14788379    11513.141     1000 
  406000    0.6730346   -1.5516841    1.0085424  -0.54314172   0.13430935    11546.825     1000 
  408000   0.65851456   -1.6452237   0.98678406  -0.65843962   0.12431978    11662.855     1000 
  410000   0.64762637    -1.592863   0.97046811  -0.62239492   0.12938701    11458.547     1000 
  412000   0.64879757   -1.5530333   0.97222315   -0.5808101   0.12366449    11887.563     1000 
  414000   0.67775339   -1.5535559    1.0156135  -0.53794244   0.13486086      11476.8     1000 
  416000   0.67409166   -1.5856589    1.0101264   -0.5755325    0.1375585    11669.547     1000 
  418000   0.65866603   -1.5156093   0.98701104   -0.5285983   0.13817419    11531.781     1000 
  420000   0.65019585   -1.5289261   0.97431849  -0.55460761   0.15284692    11355.279     1000 
  422000   0.65546107   -1.6275673   0.98220841  -0.64535884   0.12115497    11729.954     1000 
  424000    0.6577615   -1.5592759   0.98565561  -0.57362024   0.13576605    11550.164     1000 
  426000   0.68273715   -1.5497489    1.0230816  -0.52666726    0.1282551    11787.501     1000 
  428000   0.65639373   -1.5574208     0.983606  -0.57381481   0.13793931    11490.349     1000 
  430000   0.68116451   -1.5975028     1.020725  -0.57677779   0.12788627    11497.533     1000 
  432000   0.66069676   -1.5888683    0.9900541  -0.59881419   0.14042719    11403.618     1000 
  434000   0.67249006   -1.5765078    1.0077264  -0.56878147   0.13910371    11419.857     1000 
  436000    0.6472339    -1.548932   0.96988001  -0.57905196    0.1355467    11538.277     1000 
  438000   0.67186807   -1.6138235    1.0067943  -0.60702924   0.13106095    11762.193     1000 
  440000   0.66664513    -1.561201   0.99896772  -0.56223326   0.12623263    11685.564     1000 
  442000   0.64869883   -1.5727126   0.97207519  -0.60063737   0.12022081    11691.491     1000 
  444000   0.65474439   -1.5461284   0.98113448  -0.56499391   0.12383672    11739.935     1000 
  446000   0.63345748   -1.5613614   0.94923603  -0.61212536   0.12892487    11384.318     1000 
  448000   0.63699805   -1.5817108   0.95454157   -0.6271692    0.1247926    11641.289     1000 
  450000   0.65640853   -1.6157258   0.98362819  -0.63209758   0.13379143    11619.266     1000 
  452000   0.65057674    -1.586745   0.97488924  -0.61185581   0.11578925    11691.728     1000 
  454000   0.65768869   -1.5723055    0.9855465  -0.58675902   0.12219113    11715.327     1000 
  456000   0.63755861   -1.5357461   0.95538158  -0.58036455   0.11226756    11758.727     1000 
  458000   0.65049625   -1.5716022   0.97476863  -0.59683355   0.12039607    11816.153     1000 
  460000    0.6309431   -1.5869846   0.94546823  -0.64151637   0.11947288    11553.816     1000 
  462000   0.67741483   -1.6076751    1.0151061  -0.59256903   0.13044004    11433.781     1000 
  464000   0.62352908   -1.5399707   0.93435833  -0.60561237   0.12045095    11778.856     1000 
  466000   0.63592372   -1.5749012    0.9529317  -0.62196954   0.11667136    11796.939     1000 
  468000   0.66320063   -1.5746798   0.99380615  -0.58087366   0.11976784    11809.275     1000 
  470000   0.66887753   -1.5372988     1.002313  -0.53498584   0.12334042    11599.573     1000 
  472000   0.64142575   -1.5412005   0.96117648  -0.58002402   0.12560265    11640.714     1000 
  474000   0.63702328   -1.5334231   0.95457939   -0.5788437   0.13117935    11595.022     1000 
  476000   0.64298803   -1.5979268   0.96351757  -0.63440919   0.13421043    11733.434     1000 
  478000   0.65047275   -1.5734551   0.97473342  -0.59872171    0.1362743    11573.942     1000 
  480000   0.66055317   -1.5817867   0.98983893  -0.59194775   0.12854198    11614.038     1000 
  482000   0.63416939   -1.5997867   0.95030283  -0.64948383   0.12376905    11700.055     1000 
  484000   0.65936749   -1.5526844   0.98806218  -0.56462218   0.13051754    11636.073     1000 
  486000   0.64659722   -1.5411316   0.96892593  -0.57220563   0.13398109    11620.616     1000 
  488000   0.65131181   -1.5858605   0.97599075  -0.60986977   0.11967072    11637.998     1000 
  490000   0.66297845   -1.5838217   0.99347321  -0.59034852   0.13605615    11508.503     1000 
  492000   0.64933996   -1.5706138   0.97303593  -0.59757783    0.1349116     11537.55     1000 
  494000   0.64875973    -1.622402   0.97216646  -0.65023552   0.12483357    11713.104     1000 
  496000   0.64245562   -1.5305126   0.96271975  -0.56779288   0.13553411    11431.547     1000 
  498000   0.65031329   -1.4900619   0.97449446  -0.51556741   0.12875714    11593.788     1000 
  500000   0.65005977   -1.6164031   0.97411456  -0.64228849   0.12312213    11711.739     1000 
  502000   0.64140862   -1.5404907   0.96115082  -0.57933984   0.12847888    11531.685     1000 
  504000   0.64609748   -1.5427263   0.96817708  -0.57454921   0.13126892    11658.414     1000 
  506000   0.64497869   -1.5508548   0.96650056  -0.58435425   0.11808446    11769.799     1000 
  508000   0.66502511   -1.5308958   0.99654013  -0.53435571   0.13851215    11544.803     1000 
  510000   0.64734489    -1.578481   0.97004631  -0.60843467   0.12222379    11592.203     1000 
  512000   0.63326838   -1.5499474   0.94895266  -0.60099477   0.12844521    11589.346     1000 
  514000   0.68248598   -1.5391236    1.0227052  -0.51641836   0.14217729    11429.604     1000 
  516000   0.65312227   -1.6312426   0.97870373  -0.65253889   0.12700529    11634.699     1000 
  518000   0.65258486   -1.5517713   0.97789842  -0.57387286   0.13343917    11601.307     1000 
  520000   0.63846586   -1.5554393    0.9567411  -0.59869817   0.11829319    11711.251     1000 
  522000   0.63770827   -1.5346702   0.95560584  -0.57906438   0.12697942    11721.304     1000 
  524000   0.65815223   -1.5547416   0.98624112  -0.56850053   0.14377591    11421.635     1000 
  526000   0.62086238   -1.5488357   0.93036228  -0.61847346   0.12652617     11553.03     1000 
  528000   0.63763676   -1.5110187   0.95549869  -0.55551997   0.12416252    11657.919     1000 
  530000    0.6335314   -1.5065166    0.9493468  -0.55716983   0.13582232     11430.96     1000 
  532000     0.674684   -1.5674783     1.011014  -0.55646437    0.1367199    11584.968     1000 
  534000   0.64645092   -1.5713117    0.9687067  -0.60260501   0.13497326    11515.458     1000 
  536000   0.65062395    -1.531986   0.97495999  -0.55702598   0.13319666    11514.251     1000 
  538000   0.62704991   -1.5467742   0.93963429  -0.60713987   0.12724741    11642.852     1000 
  540000   0.64019697   -1.6284006   0.95933516  -0.66906542   0.12764268    11635.999     1000 
  542000   0.65263094   -1.5653795   0.97796747  -0.58741202   0.12785712    11466.258     1000 
  544000   0.64972546   -1.6108681   0.97361361  -0.63725449   0.13744598    11549.523     1000 
  546000   0.70117675   -1.5731493    1.0507134  -0.52243595   0.13034303    11654.267     1000 
  548000   0.63894646    -1.551129   0.95746127  -0.59366769   0.13355489    11384.429     1000 
  550000   0.63902196    -1.575474   0.95757441  -0.61789963   0.13736106    11449.559     1000 
  552000   0.66832743   -1.5960151    1.0014887  -0.59452645   0.12841265     11799.65     1000 
  554000   0.66579323   -1.5672496   0.99769116  -0.56955845   0.14979561     11494.25     1000 
  556000   0.66589966   -1.5840007   0.99785064  -0.58615002   0.13002965    11659.387     1000 
  558000   0.66325363   -1.5842114   0.99388556  -0.59032586   0.13093878    11679.436     1000 
  560000   0.65060578   -1.5989133   0.97493277  -0.62398058   0.13184071    11609.046     1000 
  562000   0.66006774   -1.4977934   0.98911151  -0.50868193   0.14585949    11356.056     1000 
  564000    0.6317756    -1.565499   0.94671574  -0.61878327   0.10695254    11879.085     1000 
  566000   0.64961133   -1.5592676   0.97344257  -0.58582505   0.13167739    11594.151     1000 
  568000   0.66365193   -1.5428865   0.99448241  -0.54840413    0.1366704     11614.27     1000 
  570000   0.63606449   -1.5147603   0.95314263  -0.56161768   0.12488635    11575.648     1000 
  572000   0.64883403   -1.5913802   0.97227779  -0.61910237   0.12337056    11690.374     1000 
  574000   0.64590283   -1.5742001   0.96788538  -0.60631476   0.13394345    11549.526     1000 
  576000   0.65347497    -1.551803   0.97923224  -0.57257081   0.13218199     11541.13     1000 
  578000   0.64161639   -1.5904603   0.96146216   -0.6289981   0.12643386    11623.648     1000 
  580000   0.64742422   -1.5168996   0.97016519   -0.5467344    0.1337893    11517.676     1000 
  582000   0.64080348   -1.5477269   0.96024401  -0.58748287   0.12324008    11730.323     1000 
  584000   0.69746511   -1.6095589    1.0451515  -0.56440747   0.13839076    11585.902     1000 
  586000   0.62884364   -1.5459983   0.94232219  -0.60367612   0.12385922    11595.737     1000 
  588000   0.66599416   -1.5524939   0.99799225  -0.55450162   0.13738416    11463.996     1000 
  590000   0.65708569   -1.5747471   0.98464291  -0.59010419   0.13288056    11643.944     1000 
  592000   0.67190285     -1.55575    1.0068464  -0.54890357   0.13119028    11662.838     1000 
  594000   0.64392963    -1.575352   0.96492855  -0.61042347   0.12215275    11807.727     1000 
  596000   0.67997285   -1.5672059    1.0189393  -0.54826658   0.12378041    11675.059     1000 
  598000   0.64823084   -1.5478463   0.97137392   -0.5764724   0.12807688     11535.57     1000 
  600000   0.64214625   -1.5637639   0.96225616  -0.60150775   0.12028905    11718.545     1000 
  602000   0.64324351   -1.5172409    0.9639004  -0.55334054   0.15101646     11314.68     1000 
  604000   0.65396405   -1.5473933   0.97996513  -0.56742822   0.14957149    11343.294     1000 
  606000   0.64696951   -1.5933202   0.96948381  -0.62383637   0.12196784    11770.497     1000 
  608000   0.69179921   -1.5550002    1.0366611  -0.51833905   0.13513631    11651.604     1000 
  610000   0.65965701   -1.5020404   0.98849603  -0.51354439   0.15091388    11220.063     1000 
  612000   0.62789595   -1.6020404   0.94090207  -0.66113828   0.12214756    11598.034     1000 
  614000   0.64110293   -1.5593342   0.96069275  -0.59864145   0.12108934    11538.661     1000 
  616000   0.66600783    -1.586819   0.99801274  -0.58880628   0.13498875    11679.663     1000 
  618000   0.63687837   -1.5247692   0.95436223    -0.570407   0.12991972    11482.184     1000 
  620000   0.65583926   -1.5142646   0.98277513  -0.53148943   0.13245554     11542.96     1000 
  622000    0.6319667   -1.5957174    0.9470021  -0.64871526   0.12121751    11887.352     1000 
  624000   0.64939405   -1.5394828   0.97311698  -0.56636582   0.12745502    11463.982     1000 
  626000   0.65825823   -1.5510472   0.98639995  -0.56464725   0.12104521    11621.228     1000 
  628000   0.65639562   -1.5818376   0.98360884  -0.59822878   0.14081332    11463.759     1000 
  630000   0.67930678    -1.557925    1.0179412  -0.53998374   0.13898246     11587.81     1000 
  632000   0.66384364   -1.5887511    0.9947697  -0.59398139   0.12417199    11735.894     1000 
  634000   0.63903641   -1.5295471   0.95759607  -0.57195108   0.12563853    11508.242     1000 
  636000   0.65196746   -1.5636624   0.97697324  -0.58668911   0.13932806    11417.105     1000 
  638000   0.66309475   -1.6123479   0.99364748  -0.61870041   0.12046571      11824.3     1000 
  640000   0.66564608   -1.5161939   0.99747066  -0.51872322   0.12416679    11781.269     1000 
  642000   0.65815956   -1.4950926    0.9862521  -0.50884055   0.14145989     11485.72     1000 
  644000   0.64776893   -1.6116591   0.97068175  -0.64097735   0.12502259    11682.691     1000 
  646000   0.68351802   -1.5283283    1.0242518  -0.50407657   0.12997661    11565.982     1000 
  648000   0.62547834   -1.5847699    0.9372793  -0.64749064   0.12780513    11577.472     1000 
  650000   0.62572694   -1.6055955   0.93765181  -0.66794365   0.13526374     11495.39     1000 
  652000   0.63467631   -1.5849398   0.95106245  -0.63387737   0.14148576    11533.161     1000 
  654000   0.66459029   -1.5351611   0.99588854  -0.53927258   0.12845544     11594.11     1000 
  656000   0.62016154   -1.5299567   0.92931207  -0.60064468   0.12186248    11689.223     1000 
  658000    0.6434412   -1.5867197   0.96419663  -0.62252305    0.1162957    11757.069     1000 
  660000    0.6260405   -1.5274287   0.93812168  -0.58930704   0.13231029    11596.141     1000 
  662000   0.61515399   -1.5780099   0.92180826  -0.65620164   0.13478222    11570.733     1000 
  664000   0.66792876    -1.591137    1.0008912  -0.59024579   0.12479585      11586.9     1000 
  666000   0.66058926    -1.500473     0.989893  -0.51057995   0.13547922    11631.875     1000 
  668000   0.62691009   -1.5468068   0.93942477    -0.607382   0.12282291     11603.94     1000 
  670000    0.6321534     -1.57074   0.94728187  -0.62345814   0.13639022    11661.772     1000 
  672000   0.66923055   -1.5454043     1.002842  -0.54256232   0.13302212    11615.312     1000 
  674000   0.66266539   -1.5713138   0.99300409  -0.57830966   0.12531898     11542.67     1000 
  676000   0.65916688     -1.53333   0.98776158  -0.54556841   0.13168782    11502.182     1000 
  678000   0.66501685   -1.6191819   0.99652775  -0.62265414    0.1308343    11657.755     1000 
  680000   0.65667781   -1.5418795   0.98403169  -0.55784785   0.12551116    11670.487     1000 
  682000   0.70792345   -1.5739612    1.0608233  -0.51313792   0.13672142    11605.495     1000 
  684000    0.6103452   -1.5516406   0.91460228  -0.63703836   0.12827819    11618.335     1000 
  686000   0.61907261   -1.5426449   0.92768031  -0.61496459   0.11765381    11664.616     1000 
  688000   0.63270309   -1.5934117   0.94810557  -0.64530612   0.11662814    11592.163     1000 
  690000   0.67076815   -1.5479153    1.0051461  -0.54276925   0.12648613    11548.292     1000 
  692000   0.66885156   -1.5768217    1.0022741  -0.57454765      0.11817    11782.404     1000 
  694000   0.62982277   -1.5782255   0.94378941  -0.63443612   0.13187472    11513.843     1000 
  696000   0.66522076   -1.5591862   0.99683331  -0.56235287   0.13392329    11441.405     1000 
  698000    0.6755015   -1.5535364     1.012239  -0.54129735   0.12641026    11764.698     1000 
  700000   0.65905197   -1.5340615   0.98758938  -0.54647212   0.14524977     11361.34     1000 
  702000   0.67544586   -1.5802625    1.0121556  -0.56810684   0.12235422    11718.046     1000 
  704000   0.64449799   -1.5939366   0.96578024  -0.62815638   0.14163084    11484.716     1000 
  706000   0.63982925   -1.5807684   0.95878413  -0.62198427   0.12502269     11583.44     1000 
  708000   0.67075216   -1.5729615    1.0051221  -0.56783938   0.12466646    11804.504     1000 
  710000   0.63189412   -1.5279355   0.94689334  -0.58104218   0.11294425    11766.238     1000 
  712000   0.66803175   -1.6022431    1.0010456  -0.60119757    0.1349503    11570.907     1000 
  714000   0.66133217   -1.5658252   0.99100625  -0.57481894   0.14648817    11533.211     1000 
  716000   0.64852002   -1.5712268   0.97180725  -0.59941958   0.13699877    11453.009     1000 
  718000    0.6650268   -1.5526122   0.99654266  -0.55606951   0.14440448    11543.903     1000 
  720000   0.63161619   -1.5883887   0.94647686  -0.64191185    0.1171042    11802.089     1000 
  722000   0.62862159   -1.5162225   0.94198945  -0.57423302   0.13149571    11576.927     1000 
  724000    0.6398995   -1.5446556    0.9588894   -0.5857662   0.13583233    11494.579     1000 
  726000   0.64744498   -1.5549261    0.9701963  -0.58472982   0.13448374    11444.147     1000 
  728000   0.62232372   -1.5765343    0.9325521  -0.64398221   0.11047922    11777.919     1000 
  730000   0.63543345   -1.5960472   0.95219702  -0.64385021   0.12559268    11650.978     1000 
  732000    0.6539121   -1.5594044   0.97988728  -0.57951709   0.12987198    11604.674     1000 
  734000   0.65012252   -1.5785232    0.9742086  -0.60431461   0.12139778     11517.51     1000 
  736000   0.63862119     -1.57132   0.95697385  -0.61434618   0.11177261    11752.326     1000 
  738000   0.66993848   -1.4895495    1.0039028  -0.48564669   0.13867488    11508.799     1000 
  740000   0.66879287   -1.5505937    1.0021861  -0.54840761   0.13450469    11547.065     1000 
  742000   0.63927318   -1.6094122   0.95795085  -0.65146131   0.13493463    11658.624     1000 
  744000   0.64657623   -1.5923693   0.96889448  -0.62347481   0.12458378    11551.261     1000 
  746000   0.62923423   -1.5594746   0.94290749  -0.61656712   0.13310647    11518.265     1000 
  748000   0.65824178   -1.5773785   0.98637531  -0.59100316   0.12731083    11547.238     1000 
  750000   0.63432123   -1.5659303   0.95053036  -0.61539998   0.13266995    11479.998     1000 
  752000   0.64849326   -1.5565235   0.97176714  -0.58475633   0.12913929    11651.796     1000 
  754000   0.62296522   -1.5051477   0.93351339  -0.57163432   0.13336483    11385.903     1000 
  756000    0.6095653   -1.6133313   0.91343361  -0.69989772   0.11638582    11604.958     1000 
  758000   0.65254498   -1.5609046   0.97783865  -0.58306599   0.14313054    11477.462     1000 
  760000   0.64752434    -1.596611   0.97031522  -0.62629575   0.12537651    11626.282     1000 
  762000   0.65170102   -1.5993597   0.97657398  -0.62278577   0.12439705    11600.254     1000 
  764000   0.65717131   -1.5190112    0.9847712  -0.53424001   0.13308174    11461.429     1000 
  766000   0.64879309   -1.5425673   0.97221645  -0.57035082   0.13298909    11591.477     1000 
  768000   0.63825897   -1.5430099   0.95643106  -0.58657881   0.13647623    11457.182     1000 
  770000   0.64401916   -1.6308602   0.96506271   -0.6657975   0.13211944    11707.015     1000 
  772000   0.64254462   -1.5773375   0.96285312  -0.61448437   0.10165122    11821.682     1000 
  774000   0.62070676   -1.6344367   0.93012908  -0.70430764   0.13619723    11444.751     1000 
  776000    0.6454724   -1.6121805    0.9672404  -0.64494007   0.12816299    11405.322     1000 
  778000   0.63155897   -1.5515049   0.94639111  -0.60511382   0.12081731    11682.708     1000 
  780000    0.6966571   -1.6099589    1.0439407  -0.56601826    0.1415227    11371.604     1000 
  782000   0.66172181   -1.5336896   0.99159014  -0.54209943   0.13438607    11512.995     1000 
  784000   0.65425293   -1.5678834   0.98039802  -0.58748538   0.12201189    11741.135     1000 
  786000   0.63709282   -1.5712047    0.9546836   -0.6165211   0.11897454     11831.77     1000 
  788000   0.67137796   -1.5301774    1.0060599  -0.52411749   0.12148618    11799.514     1000 
  790000   0.65634912   -1.6303881   0.98353916  -0.64684897   0.12450071    11695.075     1000 
  792000   0.64556672   -1.5573423   0.96738173  -0.58996054   0.13712658    11666.358     1000 
  794000   0.64811929   -1.5377418   0.97120676  -0.56653506   0.13190984    11503.746     1000 
  796000    0.6285964   -1.5733447   0.94195171  -0.63139301   0.12583756        11605     1000 
  798000   0.63868084   -1.5400801   0.95706324  -0.58301689   0.13609754    11634.426     1000 
  800000   0.64693969   -1.5297177   0.96943913  -0.56027859   0.11765689    11795.889     1000 
  802000   0.66004733   -1.5480682   0.98908092  -0.55898724   0.13817055    11439.477     1000 
  804000   0.66147737   -1.5717472   0.99122383  -0.58052332   0.13815615    11476.341     1000 
  806000   0.64907931    -1.535654   0.97264534  -0.56300862    0.1227453    11699.724     1000 
  808000   0.65238197   -1.5339892   0.97759438  -0.55639483   0.12396305    11644.382     1000 
  810000   0.63008338   -1.5775905   0.94417994  -0.63341054   0.11508967     11596.77     1000 
  812000   0.63884389   -1.5682786   0.95730757  -0.61097099    0.1219621    11663.835     1000 
  814000    0.6500859   -1.5130585   0.97415372  -0.53890482   0.14084149    11455.409     1000 
  816000   0.62268282    -1.606073    0.9330902  -0.67298275   0.13199307    11707.753     1000 
  818000   0.65018127   -1.5309945   0.97429663   -0.5566979   0.14595954      11391.5     1000 
  820000   0.65313563   -1.5442773   0.97872373  -0.56555361   0.13202583    11535.886     1000 
  822000   0.66186273    -1.565413    0.9918013  -0.57361174   0.12541919    11578.051     1000 
  824000   0.65625616   -1.5554919   0.98339986  -0.57209208   0.12526934    11580.417     1000 
  826000    0.6454541   -1.6035004   0.96721297  -0.63628743    0.1412916    11402.047     1000 
  828000   0.65646078   -1.5707533   0.98370649  -0.58704679   0.12842636    11715.943     1000 
  830000   0.66305834   -1.5973331   0.99359292  -0.60374015   0.12324775    11690.943     1000 
  832000   0.64470027   -1.5915478   0.96608335  -0.62546449   0.13206581    11709.108     1000 
  834000   0.68136047   -1.5088211    1.0210187  -0.48780246   0.13900521    11533.241     1000 
  836000   0.62500459   -1.5726401   0.93656938   -0.6360707   0.12731911    11616.589     1000 
  838000    0.6614095    -1.530957   0.99112213  -0.53983483   0.13158552    11602.068     1000 
  840000   0.62367153   -1.5643505   0.93457179  -0.62977871     0.128761    11564.784     1000 
  842000   0.67551894    -1.556609    1.0122651  -0.54434385    0.1321483    11513.471     1000 
  844000   0.64022572   -1.5165859   0.95937825  -0.55720762   0.12541643    11609.548     1000 
  846000   0.64441018   -1.5705573   0.96564866  -0.60490861   0.12785117    11658.105     1000 
  848000   0.64368196   -1.5411545   0.96455741  -0.57659707   0.13592912    11490.347     1000 
  850000   0.64243779   -1.5384645   0.96269303  -0.57577145   0.13261748    11353.477     1000 
  852000   0.63529886   -1.5627374   0.95199535  -0.61074204   0.11669659    11783.733     1000 
  854000   0.67806745   -1.5321081    1.0160841  -0.51602405   0.13347744    11642.603     1000 
  856000   0.64782846    -1.617258   0.97077095  -0.64648703   0.12368833    11732.778     1000 
  858000   0.66757632   -1.6602999    1.0003631  -0.65993683   0.11927831    11890.096     1000 
  860000   0.66351674   -1.5791991   0.99427984  -0.58491921   0.13925753    11389.032     1000 
  862000   0.66210463    -1.570858   0.99216379  -0.57869416   0.13255427        11547     1000 
  864000   0.66574996   -1.5160106   0.99762631  -0.51838433   0.12660687    11574.583     1000 
  866000   0.62820074    -1.591698   0.94135882   -0.6503392   0.13682713    11494.424     1000 
  868000    0.6325853   -1.5455213   0.94792906  -0.59759227   0.13456611    11485.694     1000 
  870000   0.66100578   -1.5096644   0.99051716  -0.51914728   0.13028829    11544.477     1000 
  872000   0.65036119   -1.5322169   0.97456624   -0.5576507   0.13139591    11505.752     1000 
  874000   0.67757144   -1.5928501    1.0153408  -0.57750927   0.14899366    11517.277     1000 
  876000   0.66722725   -1.5676824   0.99984004  -0.56784232    0.1135589     11848.43     1000 
  878000   0.65082653   -1.5799134   0.97526356  -0.60464983    0.1253095    11607.516     1000 
  880000   0.63717895   -1.5564818   0.95481265  -0.60166914   0.11645825     11636.15     1000 
  882000   0.67572774   -1.5793557     1.012578   -0.5667777   0.12144654    11732.341     1000 
  884000   0.65959854   -1.5067829   0.98840842  -0.51837443   0.12776005    11569.925     1000 
  886000   0.67836803   -1.5909025    1.0165345  -0.57436797   0.12460668     11778.46     1000 
  888000   0.65269745   -1.5690079   0.97806712  -0.59094078   0.13498518    11569.261     1000 
  890000    0.6673159   -1.5133296   0.99997287   -0.5133567   0.14688797    11325.213     1000 
  892000   0.66792581   -1.5597824    1.0008868  -0.55889559   0.12384181    11673.423     1000 
  894000   0.63436938   -1.5314068   0.95060252  -0.58080429   0.12733708    11618.627     1000 
  896000   0.63388668   -1.5548946   0.94987919   -0.6050154   0.13056557     11477.32     1000 
  898000    0.6933135   -1.5459055    1.0389303  -0.50697526   0.12673985    11647.473     1000 
  900000   0.67479683   -1.6133393    1.0111831  -0.60215628   0.11986808    11864.958     1000 
  902000   0.64754189   -1.5672448   0.97034152  -0.59690325   0.12893073    11516.755     1000 
  904000   0.67568122   -1.6175165    1.0125083  -0.60500817   0.12330031    11739.993     1000 
  906000    0.6312865   -1.5710631   0.94598283  -0.62508029    0.1311837    11635.441     1000 
  908000   0.64549926   -1.5503497   0.96728064  -0.58306905   0.12456794    11386.652     1000 
  910000   0.66275202   -1.5504946    0.9931339  -0.55736065    0.1163561    11769.617     1000 
  912000   0.66027941   -1.5609396    0.9894287  -0.57151091    0.1286086    11559.016     1000 
  914000   0.64819806    -1.583322   0.97132479  -0.61199726   0.11923118    11827.604     1000 
  916000   0.62932051   -1.4947061   0.94303678  -0.55166932   0.13988931    11288.366     1000 
  918000   0.63214056   -1.5963229   0.94726263  -0.64906029   0.12885122    11581.377     1000 
  920000   0.65684282   -1.5769215   0.98427897  -0.59264251   0.14160644    11437.146     1000 
  922000   0.63472308   -1.6279429   0.95113254  -0.67681038   0.12039459    11584.808     1000 
  924000    0.6498236   -1.5753512   0.97376066  -0.60159058   0.12822512    11643.387     1000 
  926000   0.63962358   -1.5260391   0.95847593  -0.56756321   0.13858275    11450.462     1000 
  928000   0.64064178    -1.568073   0.96000171  -0.60807132   0.13238163     11571.58     1000 
  930000   0.62364051   -1.5705162    0.9345253  -0.63599092    0.1404893    11394.953     1000 
  932000   0.65094641   -1.5357048    0.9754432  -0.56026157   0.13528868     11489.75     1000 
  934000   0.64030825    -1.524391   0.95950192  -0.56488906   0.12718824    11597.721     1000 
  936000   0.66051152   -1.5152274   0.98977652  -0.52545091   0.13461386    11629.562     1000 
  938000   0.63503637   -1.5526242   0.95160201  -0.60102223   0.11250827    11781.329     1000 
  940000   0.65514829   -1.6092607   0.98173971    -0.627521   0.12832474    11477.328     1000 
  942000   0.63001457   -1.5353201   0.94407684   -0.5912433   0.11961223    11649.083     1000 
  944000   0.64132452   -1.5168498    0.9610248  -0.55582502    0.1376384    11376.972     1000 
  946000   0.66545104   -1.5826963   0.99717838  -0.58551791   0.14184701    11528.943     1000 
  948000   0.67513409   -1.5205099    1.0116884  -0.50882152    0.1433404    11419.699     1000 
  950000   0.67613712   -1.6109831    1.0131915  -0.59779164   0.12752791    11609.137     1000 
  952000   0.64625908   -1.5561013   0.96841924  -0.58768202   0.12692019    11484.338     1000 
  954000   0.63502648   -1.5391919   0.95158718  -0.58760472   0.11696033    11692.074     1000 
  956000   0.64603746   -1.5660436   0.96808714  -0.59795649   0.13462399    11344.347     1000 
  958000   0.66054025   -1.5766745   0.98981956  -0.58685493   0.13563245    11581.605     1000 
  960000   0.66308557   -1.5653327   0.99363373  -0.57169895   0.14118714    11482.228     1000 
  962000   0.64744717   -1.5290078   0.97019959  -0.55880824    0.1254247    11710.389     1000 
  964000   0.67259788   -1.5928977    1.0078879  -0.58500979   0.13556111    11387.523     1000 
  966000   0.64849607    -1.548915   0.97177137  -0.57714368   0.12808377    11501.422     1000 
  968000   0.65225708   -1.5354965   0.97740723  -0.55808925   0.12783661    11759.202     1000 
  970000   0.66048121   -1.5358312   0.98973109  -0.54610008   0.12387361      11634.6     1000 
  972000   0.64124782   -1.5740168   0.96090985   -0.6131069   0.12679323    11737.559     1000 
  974000   0.63818871    -1.551456   0.95632578  -0.59513017    0.1335714    11487.904     1000 
  976000   0.65553035   -1.5505012   0.98231222  -0.56818893   0.12829536    11659.122     1000 
  978000   0.63396282   -1.5962889   0.94999329  -0.64629563   0.13488368    11635.972     1000 
  980000   0.63482396   -1.5495865    0.9512837  -0.59830282   0.12373907    11659.815     1000 
  982000   0.64367639   -1.5218536   0.96454906  -0.55730455   0.13526459    11541.224     1000 
  984000    0.6608252   -1.5154342   0.99024656  -0.52518766   0.13123054    11620.508     1000 
  986000   0.64682942   -1.5693369   0.96927388  -0.60006305   0.12715702    11595.671     1000 
  988000     0.675506   -1.5420992    1.0122457   -0.5298535   0.13839748    11528.078     1000 
  990000   0.63699606     -1.59709   0.95453859  -0.64255145   0.14348389     11448.73     1000 
  992000   0.65997076   -1.5648099   0.98896618   -0.5758437   0.14476253    11337.337     1000 
  994000   0.65277711   -1.5881242    0.9781865  -0.60993767   0.12836996    11513.666     1000 
  996000   0.66215059   -1.6000257   0.99223265  -0.60779307   0.12512647    11726.245     1000 
  998000    0.6513202   -1.5151953   0.97600333  -0.53919193   0.12949975     11554.95     1000 
 1000000   0.64327123    -1.589288   0.96394194  -0.62534608   0.12697149    11628.986     1000 
 1002000   0.63862966   -1.5715912   0.95698655  -0.61460461   0.14164625     11540.05     1000 
 1004000   0.64214278   -1.6005844   0.96225095  -0.63833342    0.1216198    11837.209     1000 
 1006000   0.65841746   -1.5500979   0.98663856  -0.56345933    0.1290739    11762.618     1000 
 1008000   0.62187128   -1.5357083   0.93187411  -0.60383414   0.12603311    11511.895     1000 
 1010000   0.67735945   -1.5478556    1.0150231  -0.53283245   0.13515571    11475.173     1000 
 1012000   0.64081603   -1.5696942   0.96026282  -0.60943136   0.11680818     11798.69     1000 
 1014000   0.64829545    -1.562429   0.97147073  -0.59095828   0.12686109    11547.546     1000 
 1016000   0.63148457   -1.5726695   0.94627962  -0.62638991   0.12752108    11672.418     1000 
 1018000   0.66314047   -1.5572852   0.99371599  -0.56356923   0.12889679    11511.333     1000 
 1020000   0.67101479   -1.5806877    1.0055157    -0.575172   0.13831894     11534.31     1000 
 1022000   0.65629619      -1.5689   0.98345983   -0.5854402   0.13137353    11549.216     1000 
 1024000   0.63951997   -1.6585131   0.95832067  -0.70019244   0.12230992    11695.584     1000 
 1026000   0.64575171   -1.5831139   0.96765893  -0.61545494   0.12793658    11412.779     1000 
 1028000   0.65730801    -1.582495   0.98497605  -0.59751893   0.12175277    11783.324     1000 
 1030000   0.66347716   -1.5883218   0.99422052  -0.59410126   0.13723426    11509.103     1000 
 1032000   0.67166678   -1.5642498    1.0064927  -0.55775715   0.12322093     11762.74     1000 
 1034000   0.66389198   -1.5491208   0.99484214  -0.55427865   0.12852144     11668.16     1000 
 1036000   0.62009268   -1.5595844   0.92920888   -0.6303755   0.12622356    11712.154     1000 
 1038000   0.66631355   -1.5830181   0.99847086  -0.58454723   0.12736535    11721.543     1000 
 1040000   0.63456873   -1.6055979   0.95090124  -0.65469667   0.12645803    11610.299     1000 
 1042000   0.65497244    -1.648256   0.98147621  -0.66677981   0.12072331    11843.842     1000 
 1044000   0.66943782   -1.5510717    1.0031526  -0.54791917   0.12436977    11644.027     1000 
 1046000   0.63814386   -1.5719996   0.95625858    -0.615741   0.12596406    11629.606     1000 
 1048000   0.65578849   -1.5585752   0.98269905  -0.57587618   0.13816499    11574.699     1000 
 1050000   0.64173775   -1.5991023   0.96164402  -0.63745831    0.1257358    11587.725     1000 
 1052000   0.63481712   -1.5391505   0.95127346  -0.58787701   0.12567777    11565.646     1000 
 1054000   0.64090385   -1.5332751   0.96039442  -0.57288066   0.12509935    11603.433     1000 
 1056000   0.63501028   -1.5614344   0.95156291  -0.60987152   0.12741859    11599.586     1000 
 1058000   0.64988288   -1.5802584    0.9738495  -0.60640892   0.12723229    11841.674     1000 
 1060000   0.65899628    -1.631305   0.98750592  -0.64379908   0.12618279    11700.198     1000 
 1062000   0.64995001   -1.6433242   0.97395009  -0.66937407   0.13219232     11481.83     1000 
 1064000   0.64402483   -1.5322271   0.96507121  -0.56715588   0.12961203    11568.187     1000 
 1066000   0.67914247   -1.5755875     1.017695  -0.55789255   0.13820947    11509.176     1000 
 1068000   0.62780013   -1.5042082   0.94075849  -0.56344971   0.12601159     11588.72     1000 
 1070000   0.67794903   -1.5530308    1.0159066  -0.53712415   0.13905908    11509.958     1000 
 1072000   0.65577944   -1.5734847   0.98268549  -0.59079923   0.10710872     11851.55     1000 
 1074000   0.62762988   -1.5800505   0.94050338  -0.63954713   0.11837673    11721.535     1000 
 1076000   0.66142664   -1.5522933   0.99114781   -0.5611455   0.12786932    11746.802     1000 
 1078000    0.6644643   -1.5469635   0.99569976  -0.55126374   0.13287881    11471.136     1000 
 1080000    0.6428207   -1.6305713   0.96326681  -0.66730448   0.12899465    11675.536     1000 
 1082000   0.63426678   -1.6067073   0.95044878   -0.6562585   0.12803747     11634.38     1000 
 1084000   0.65479073   -1.5630494   0.98120391  -0.58184544    0.1407579    11338.151     1000 
 1086000   0.65221766   -1.5988525   0.97734817   -0.6215043   0.12923813    11550.958     1000 
 1088000   0.65709156   -1.6045927    0.9846517  -0.61994104   0.12970484    11621.137     1000 
 1090000   0.64734561   -1.5447403   0.97004739  -0.57469291   0.13015054    11632.468     1000 
 1092000   0.68189475   -1.5598241    1.0218193  -0.53800484   0.13662182    11417.024     1000 
 1094000   0.64259812   -1.5643172   0.96293328  -0.60138393   0.11993529    11727.728     1000 
 1096000   0.62398276   -1.5297058   0.93503817   -0.5946676   0.12617842    11578.395     1000 
 1098000   0.65298386   -1.5305494   0.97849632  -0.55205311   0.14048529     11472.57     1000 
 1100000   0.66538495   -1.5459956   0.99707935  -0.54891629   0.14315686     11486.42     1000 
 1102000   0.63284406   -1.5570219   0.94831683   -0.6087051   0.12278516    11461.236     1000 
 1104000   0.66714574   -1.5896264   0.99971789   -0.5899085   0.12871319     11662.65     1000 
 1106000    0.6891757   -1.5832227    1.0327298  -0.55049289   0.12728431    11604.205     1000 
 1108000   0.65247533   -1.6101174   0.97773428  -0.63238313   0.13204085    11459.407     1000 
 1110000   0.65614573   -1.5755409   0.98323437  -0.59230648   0.13496245    11573.306     1000 
 1112000   0.65950706   -1.5354079   0.98827133  -0.54713655    0.1443417    11292.506     1000 
 1114000   0.64775585   -1.5437179   0.97066215  -0.57305576   0.12891097    11512.745     1000 
 1116000   0.65512911   -1.5590233   0.98171098  -0.57731232   0.14357096    11525.724     1000 
 1118000   0.66254676   -1.5298027   0.99282631  -0.53697643   0.13345332    11479.318     1000 
 1120000   0.64087136   -1.5971804   0.96034574  -0.63683463   0.11753982    11696.799     1000 
 1122000   0.66663573   -1.5404608   0.99895364  -0.54150714   0.12320756    11564.276     1000 
 1124000   0.66968909   -1.5439721    1.0035291  -0.54044299   0.13124178     11618.58     1000 
 1126000   0.64926804   -1.5849127   0.97292816  -0.61198452   0.13556636    11689.771     1000 
 1128000   0.66380873   -1.5393711   0.99471738  -0.54465369   0.12419923    11629.325     1000 
 1130000   0.62880363   -1.5404066   0.94226224  -0.59814435   0.12705573    11582.918     1000 
 1132000   0.64227404   -1.5621099   0.96244765  -0.59966228   0.12535828    11641.616     1000 
 1134000    0.6330389   -1.5787433   0.94860879  -0.63013456   0.12759753    11799.149     1000 
 1136000   0.64545252   -1.5817223    0.9672106  -0.61451165   0.14154588    11499.368     1000 
 1138000   0.66657635   -1.5301117   0.99886466  -0.53124702   0.13450062    11564.894     1000 
 1140000   0.65357529   -1.5624501   0.97938257  -0.58306751   0.13380783    11549.818     1000 
 1142000   0.62116014   -1.5342028   0.93080848  -0.60339432   0.13684311    11284.515     1000 
 1144000   0.63546631   -1.5461722   0.95224626  -0.59392591    0.1260122    11408.601     1000 
 1146000   0.64865753   -1.5459137   0.97201331  -0.57390036    0.1302035    11710.337     1000 
 1148000   0.64457097   -1.5731701   0.96588959  -0.60728047   0.11095502    11670.241     1000 
 1150000   0.63501551    -1.575077   0.95157074   -0.6235063   0.12696353    11636.715     1000 
 1152000   0.67529476   -1.5253346    1.0119292  -0.51340538   0.12725115    11649.599     1000 
 1154000   0.62475168    -1.547803    0.9361904  -0.61161258   0.12580382    11798.099     1000 
 1156000   0.63767593   -1.5579352   0.95555738  -0.60237777   0.12188201    11593.118     1000 
 1158000   0.66236271   -1.5357955   0.99255052  -0.54324498   0.12885337    11611.765     1000 
 1160000    0.6330647   -1.5837508   0.94864745  -0.63510333   0.13364373    11613.496     1000 
 1162000   0.65362265   -1.5299989   0.97945355  -0.55054533   0.13215328    11522.842     1000 
 1164000    0.6742021   -1.5449363    1.0102918  -0.53464444   0.13723363    11507.223     1000 
 1166000   0.67053622   -1.5854797    1.0047985  -0.58068122   0.13010176     11545.57     1000 
 1168000   0.64595576   -1.5461913    0.9679647  -0.57822659   0.12285303    11730.212     1000 
 1170000   0.62477058   -1.6199971   0.93621872  -0.68377836   0.12583174    11632.024     1000 
 1172000   0.62969604   -1.5425782   0.94359952  -0.59897864   0.13480297    11523.011     1000 
 1174000   0.65358481   -1.6346992   0.97939683  -0.65530236   0.11409392    11930.979     1000 
 1176000   0.68443382   -1.5975026    1.0256241  -0.57187856   0.12387297     11654.66     1000 
 1178000    0.6535568    -1.555575   0.97935486  -0.57622013   0.12982764    11660.906     1000 
 1180000   0.65043922   -1.5578813   0.97468318  -0.58319814   0.13435299    11454.756     1000 
 1182000   0.64307509   -1.5869823   0.96364802  -0.62333426    0.1254753    11660.869     1000 
 1184000   0.67065061   -1.5307927    1.0049699  -0.52582281   0.13701524    11574.465     1000 
 1186000   0.63130733   -1.5571378   0.94601404  -0.61112373   0.13385327    11503.504     1000 
 1188000   0.64881067   -1.5627148   0.97224278  -0.59047197   0.13471494    11584.993     1000 
 1190000   0.64207767   -1.6014935   0.96215339  -0.63934011    0.1358833    11464.439     1000 
 1192000   0.66053033   -1.6026913   0.98980471  -0.61288664   0.13101428    11589.425     1000 
 1194000   0.64159829   -1.5389288   0.96143504  -0.57749379   0.12050918    11688.156     1000 
 1196000   0.64936035   -1.5306908   0.97306648  -0.55762432   0.13607092    11556.586     1000 
 1198000   0.62798679   -1.6128496   0.94103821  -0.67181139    0.1277329    11591.091     1000 
 1200000   0.65389968   -1.5844599   0.97986867  -0.60459119   0.12784634    11476.291     1000 
 1202000   0.63005484   -1.5858763   0.94413717  -0.64173912   0.12250832    11755.612     1000 
 1204000   0.66832241   -1.6514828    1.0014811  -0.65000171   0.12976456    11561.632     1000 
 1206000   0.63458659   -1.5593828     0.950928   -0.6084548   0.13252848    11483.163     1000 
 1208000   0.65806466   -1.5931701   0.98610989  -0.60706018   0.13450044    11488.625     1000 
 1210000   0.67303682   -1.5725676    1.0085457  -0.56402192   0.13514911     11561.92     1000 
 1212000   0.66585217   -1.5505775   0.99777948  -0.55279807   0.12678482    11555.235     1000 
 1214000   0.63759446   -1.5396919    0.9554353  -0.58425658   0.13259439    11506.992     1000 
 1216000   0.64423362   -1.5657175   0.96538407  -0.60033341    0.1345932    11555.859     1000 
 1218000   0.64641828    -1.598618    0.9686578  -0.62996021   0.13801606    11595.216     1000 
 1220000   0.63307334   -1.5885796    0.9486604  -0.63991922   0.12211627    11724.371     1000 
 1222000   0.64319817   -1.5473602   0.96383245  -0.58352776   0.13735426    11504.682     1000 
 1224000   0.64347579   -1.4787474   0.96424847  -0.51449891   0.13945223    11406.207     1000 
 1226000   0.64126842    -1.578809   0.96094072  -0.61786829   0.12521516    11658.349     1000 
 1228000   0.65290059   -1.5531932   0.97837154  -0.57482167   0.11979025    11737.622     1000 
 1230000   0.65568669   -1.5732536   0.98254651  -0.59070707   0.13239973    11649.952     1000 
 1232000   0.63565604   -1.5242266   0.95253058  -0.57169605   0.13734913    11429.702     1000 
 1234000   0.64715192   -1.5142625   0.96975715   -0.5445053   0.12621592    11490.613     1000 
 1236000   0.61467304   -1.5223643   0.92108755  -0.60127678   0.13629192    11443.672     1000 
 1238000   0.63319994   -1.5504118   0.94885012  -0.60156171   0.11593445    11750.979     1000 
 1240000   0.62769075   -1.5102747   0.94059459  -0.56968011   0.12474268    11606.487     1000 
 1242000   0.67767137   -1.5589477    1.0154905  -0.54345713   0.13237613    11560.847     1000 
 1244000   0.65357889   -1.5935611   0.97938797  -0.61417309   0.12332508    11761.312     1000 
 1246000   0.63481623   -1.5171299   0.95127212  -0.56585782    0.1368322     11421.88     1000 
 1248000   0.67193586   -1.5691968    1.0068959  -0.56230089   0.14087028    11551.542     1000 
 1250000   0.66274124   -1.5760747   0.99311776   -0.5829569   0.12200793    11747.226     1000 
 1252000   0.65553781    -1.511106   0.98232341   -0.5287826   0.11494608    11684.583     1000 
 1254000   0.65682082    -1.545583     0.984246  -0.56133704   0.14672349    11385.276     1000 
 1256000   0.63453448   -1.5731813   0.95084992  -0.62233134   0.12378809    11774.196     1000 
 1258000   0.63583401   -1.5465696   0.95279727  -0.59377238   0.12331409    11734.277     1000 
 1260000   0.62917772   -1.5649515   0.94282281  -0.62212872   0.12733569    11658.442     1000 
 1262000   0.66154519   -1.5591706   0.99132547  -0.56784509   0.13578627    11447.126     1000 
 1264000   0.62462001   -1.5775583   0.93599309  -0.64156519   0.12854076    11562.918     1000 
 1266000   0.65178855   -1.5626707   0.97670515  -0.58596558   0.12511831    11785.875     1000 
 1268000   0.65615419   -1.5329351   0.98324706  -0.54968805   0.15352498    11323.184     1000 
 1270000   0.65825455   -1.5555035   0.98639445  -0.56910902   0.12242344    11724.397     1000 
 1272000   0.64718242   -1.6606695   0.96980285  -0.69086665   0.13076656    11946.119     1000 
 1274000   0.63971104   -1.5704535   0.95860699   -0.6118465   0.13530559    11496.897     1000 
 1276000   0.65216637   -1.5541568   0.97727131  -0.57688552   0.13050498    11723.701     1000 
 1278000   0.65919542   -1.4905664   0.98780433  -0.50276206    0.1299971    11380.723     1000 
 1280000   0.66037466   -1.5739868   0.98957143  -0.58441535    0.1260857    11768.612     1000 
 1282000   0.63779292   -1.6038285   0.95573269  -0.64809585    0.1189887    11699.737     1000 
 1284000    0.6648354   -1.5733371   0.99625584  -0.57708121   0.13943348    11432.571     1000 
 1286000   0.64668985   -1.5774913   0.96906474   -0.6084266   0.13608693    11379.999     1000 
 1288000    0.6629174   -1.5651455   0.99338172  -0.57176375   0.11482877    11834.304     1000 
 1290000    0.6336559   -1.5145493   0.94953336  -0.56501594   0.13279458    11443.041     1000 
 1292000    0.6525152   -1.6024172   0.97779403  -0.62462314   0.12211108    11663.036     1000 
 1294000   0.65000974   -1.5775343   0.97403959  -0.60349468   0.12441309    11656.795     1000 
 1296000   0.65472788   -1.6012641   0.98110972   -0.6201544   0.13048354    11781.312     1000 
 1298000    0.6382631   -1.6004329   0.95643725  -0.64399564   0.12078928     11704.22     1000 
 1300000   0.62394666   -1.5695663   0.93498407  -0.63458223    0.1285986    11562.368     1000 
 1302000     0.627138   -1.6624109   0.93976629  -0.72264457   0.11603509    11697.427     1000 
 1304000   0.62978464   -1.5786214   0.94373229  -0.63488908   0.12304594    11643.236     1000 
 1306000   0.64644676   -1.5923924   0.96870046  -0.62369193   0.12541446    11590.544     1000 
 1308000    0.6398168   -1.5403667   0.95876548   -0.5816012   0.12607632    11605.985     1000 
 1310000   0.63126675   -1.5555759   0.94595322  -0.60962265   0.11857205    11571.356     1000 
 1312000   0.66436711   -1.5779332   0.99555412  -0.58237913   0.13439982    11564.207     1000 
 1314000   0.62278755   -1.6034332   0.93324715  -0.67018601   0.12079732    11594.524     1000 
 1316000   0.65328203   -1.4792049   0.97894313  -0.50026177   0.13108042    11524.683     1000 
 1318000   0.67033609    -1.583282    1.0044986  -0.57878341   0.13532836    11588.555     1000 
 1320000   0.65833329   -1.5847153   0.98651244  -0.59820285   0.12184275    11760.943     1000 
 1322000   0.65200878   -1.5113079   0.97703515  -0.53427277   0.12407557    11594.385     1000 
 1324000   0.67228549   -1.5215514    1.0074198  -0.51413159   0.11974619    11532.006     1000 
 1326000   0.65217491   -1.5368836   0.97728411   -0.5595995   0.14905589    11345.529     1000 
 1328000   0.64860182   -1.5284389   0.97192983  -0.55650906   0.13443437    11583.121     1000 
 1330000    0.6511135   -1.5542419   0.97569358  -0.57854837   0.12682745    11540.224     1000 
 1332000   0.64583918   -1.5428584   0.96779001  -0.57506835   0.14032366    11599.452     1000 
 1334000   0.64278316   -1.5705974   0.96321057  -0.60738684   0.14031022    11291.735     1000 
 1336000   0.64308626   -1.5668672   0.96366476   -0.6032024   0.12124186    11836.395     1000 
 1338000   0.63008798   -1.5272717   0.94418683  -0.58308486   0.13246924    11385.567     1000 
 1340000   0.61034251   -1.5957129   0.91459825  -0.68111468   0.12182343    11761.761     1000 
 1342000   0.63006959   -1.5954609   0.94415927  -0.65130161   0.14273376    11381.399     1000 
 1344000   0.66619353   -1.5308041     0.998291  -0.53251314   0.12431985    11516.916     1000 
 1346000    0.6303245     -1.58353   0.94454126  -0.63898876   0.13040871    11638.684     1000 
 1348000   0.66631537   -1.5860953   0.99847359  -0.58762175   0.12718529    11670.799     1000 
 1350000   0.62996101   -1.5622163   0.94399658  -0.61821976   0.12331655    11624.051     1000 
 1352000   0.65953936   -1.5821589   0.98831973  -0.59383913   0.12068014    11615.289     1000 
 1354000   0.62165489   -1.5849213   0.93154986  -0.65337147   0.12244072    11626.407     1000 
 1356000   0.64653822   -1.5502263   0.96883753  -0.58138882   0.13181048    11789.607     1000 
 1358000   0.65090031    -1.576443   0.97537412  -0.60106883   0.12902511     11600.04     1000 
 1360000    0.6283433   -1.5446393   0.94157243  -0.60306689   0.12464957     11526.74     1000 
 1362000    0.6400948   -1.6046981   0.95918205  -0.64551609   0.12433283    11655.174     1000 
 1364000   0.65361083   -1.5486454   0.97943583  -0.56920959   0.12618243    11630.888     1000 
 1366000   0.65544447   -1.5693154   0.98218354  -0.58713185   0.13259119    11632.547     1000 
 1368000   0.66507883   -1.5414807   0.99662062  -0.54486005   0.12655904     11862.51     1000 
 1370000   0.65077721    -1.564907   0.97518965  -0.58971731   0.13066004    11676.417     1000 
 1372000   0.65209246   -1.5793019   0.97716055  -0.60214139   0.13105318    11496.368     1000 
 1374000   0.63653011   -1.5179125   0.95384037  -0.56407208   0.12785202    11662.407     1000 
 1376000   0.66603587   -1.5342998   0.99805475  -0.53624502   0.12759423    11501.585     1000 
 1378000   0.64154346   -1.5258258   0.96135288  -0.56447296   0.12743823    11808.728     1000 
 1380000   0.67386044    -1.589593    1.0097799  -0.57981313   0.12436888    11672.251     1000 
 1382000   0.65611253   -1.5595309   0.98318463  -0.57634624   0.13083462    11444.567     1000 
 1384000   0.65618404   -1.6086922   0.98329178  -0.62540042   0.12301049    11593.048     1000 
 1386000   0.61526436   -1.5084509   0.92197365  -0.58647724   0.12943221     11535.41     1000 
 1388000   0.63194365   -1.5361373   0.94696755  -0.58916978   0.13103168    11571.331     1000 
 1390000   0.63258562   -1.5638517   0.94792956  -0.61592215   0.13025144    11666.113     1000 
 1392000   0.65271203    -1.577855   0.97808897  -0.59976605   0.11012607    11945.372     1000 
 1394000   0.65393904   -1.6304363   0.97992765  -0.65050862   0.13249884    11731.243     1000 
 1396000   0.62250538   -1.6158304   0.93282432  -0.68300603   0.12089474    11834.538     1000 
 1398000   0.65955766   -1.5497476   0.98834715  -0.56140041   0.13127768     11554.71     1000 
 1400000   0.69417569   -1.5993508    1.0402223  -0.55912854   0.13383976    11786.081     1000 
 1402000   0.62015443   -1.5651181   0.92930142  -0.63581664   0.11512898    11804.919     1000 
 1404000   0.63327768   -1.5708299    0.9489666  -0.62186332   0.12850004    11669.407     1000 
 1406000   0.64403817   -1.5537368    0.9650912  -0.58864562   0.13494818     11552.72     1000 
 1408000    0.6751595   -1.5132732    1.0117265  -0.50154664   0.14152662    11523.637     1000 
 1410000   0.67255409   -1.5681342    1.0078223  -0.56031184   0.12243223    11758.637     1000 
 1412000   0.71195647   -1.5726449    1.0668668   -0.5057781   0.13938211      11637.1     1000 
 1414000   0.65130614   -1.5541075   0.97598225  -0.57812528   0.13027887    11494.793     1000 
 1416000   0.63836354    -1.559821   0.95658777  -0.60323325   0.11475742    11653.647     1000 
 1418000   0.65361268   -1.5333673    0.9794386  -0.55392867   0.13515861    11633.307     1000 
 1420000   0.65883275   -1.5721059   0.98726087  -0.58484506   0.12305253    11782.649     1000 
 1422000   0.64206658   -1.5777691   0.96213678  -0.61563233   0.11999538    11640.785     1000 
 1424000   0.64519722   -1.5904183   0.96682804  -0.62359029    0.1176428    11767.467     1000 
 1426000   0.64402835   -1.5567847   0.96507648  -0.59170823    0.1219929    11653.107     1000 
 1428000   0.66382665   -1.4774649   0.99474423  -0.48272062   0.13868877     11608.51     1000 
 1430000   0.66442592   -1.5784396   0.99564224  -0.58279735   0.13710268    11549.612     1000 
 1432000   0.62857884   -1.5373286   0.94192539  -0.59540318    0.1304669    11564.547     1000 
 1434000   0.63925136   -1.5254474   0.95791817  -0.56752919   0.12464316    11661.329     1000 
 1436000   0.65152477   -1.5748277   0.97630987  -0.59851786   0.12553064    11627.693     1000 
 1438000   0.66042645   -1.6119172   0.98964904  -0.62226812   0.13835401    11553.652     1000 
 1440000   0.63919404   -1.5724213   0.95783227  -0.61458898   0.13815844    11485.697     1000 
 1442000   0.65271788   -1.6061688   0.97809775  -0.62807103    0.1246869    11748.355     1000 
 1444000   0.67383076   -1.5568738    1.0097354  -0.54713841    0.1235956    11579.629     1000 
 1446000   0.65124237   -1.5629446   0.97588669  -0.58705789   0.14166422    11453.143     1000 
 1448000   0.66927881    -1.544429    1.0029143  -0.54151469   0.13253683    11510.674     1000 
 1450000   0.64974738   -1.6437941   0.97364646  -0.67014764   0.13156472    11607.108     1000 
 1452000   0.67090754   -1.5887439    1.0053549  -0.58338896   0.12733454     11658.81     1000 
 1454000    0.6445853   -1.5525549   0.96591108  -0.58664383   0.14037464     11416.04     1000 
 1456000   0.63228235   -1.6111867    0.9474751  -0.66371161   0.13040582     11478.05     1000 
 1458000   0.66639539   -1.5743089    0.9985935  -0.57571541   0.14033972    11512.263     1000 
 1460000   0.65532006      -1.5298    0.9819971  -0.54780294    0.1326308    11433.471     1000 
 1462000   0.63760397   -1.5708165   0.95544955  -0.61536693   0.12821459    11529.604     1000 
 1464000   0.65435805   -1.5950706   0.98055554  -0.61451505   0.12687957    11564.353     1000 
 1466000   0.64247401   -1.5802171    0.9627473  -0.61746983   0.12935424    11664.899     1000 
 1468000   0.62287491   -1.5347932   0.93337805  -0.60141516   0.13593412    11461.889     1000 
 1470000   0.65974325   -1.5744727   0.98862525  -0.58584746   0.12739003     11661.75     1000 
 1472000   0.65613183   -1.5416763   0.98321355  -0.55846272    0.1214701    11803.768     1000 
 1474000   0.65493556    -1.533494   0.98142094  -0.55207301   0.12688228    11608.044     1000 
 1476000   0.65732847   -1.5837333    0.9850067  -0.59872657   0.12385523    11723.442     1000 
 1478000   0.64486839   -1.6030592   0.96633529  -0.63672391   0.13034147    11478.861     1000 
 1480000   0.62955987    -1.476964   0.94339546   -0.5335685   0.14002662    11373.909     1000 
 1482000   0.67923499   -1.5431275    1.0178336  -0.52529383   0.13562676     11628.17     1000 
 1484000   0.64544296   -1.6032393   0.96719628  -0.63604302   0.13046889    11465.846     1000 
 1486000   0.65727404   -1.5706633   0.98492515  -0.58573816   0.12572658    11689.468     1000 
 1488000    0.6453609   -1.5352456    0.9670733  -0.56817232   0.13238247    11592.302     1000 
 1490000   0.63816413   -1.5913379   0.95628895    -0.635049   0.11844741    11874.318     1000 
 1492000   0.62716685   -1.5927976   0.93980953  -0.65298811   0.13014445    11454.001     1000 
 1494000   0.66391522    -1.623025   0.99487696  -0.62814805   0.11605231    11715.812     1000 
 1496000   0.63465905   -1.5232473   0.95103659  -0.57221068   0.12648469    11538.489     1000 
 1498000   0.66767186   -1.5181055    1.0005063   -0.5175992   0.14680665    11407.535     1000 
 1500000   0.65294382   -1.5621807   0.97843631  -0.58374436   0.13606607    11622.308     1000 
 1502000   0.64117709   -1.5599059   0.96080387  -0.59910206   0.12637131    11649.849     1000 
 1504000   0.62937261   -1.5732507   0.94311485  -0.63013581   0.12272045    11642.752     1000 
 1506000   0.66971408   -1.5564762    1.0035666  -0.55290964   0.12048724    11773.207     1000 
 1508000   0.65445328   -1.5942342   0.98069824  -0.61353593   0.12386001    11737.037     1000 
 1510000   0.64291944   -1.5369287   0.96341478   -0.5735139   0.12868952    11585.752     1000 
 1512000   0.64921657   -1.5891309   0.97285103  -0.61627987   0.12785094    11627.224     1000 
 1514000   0.63816946   -1.6004524   0.95629694  -0.64415546   0.13415132    11501.376     1000 
 1516000   0.65383743   -1.5317416   0.97977539  -0.55196619   0.13296152    11482.625     1000 
 1518000   0.68624384    -1.554496    1.0283364  -0.52615959   0.13021749    11596.831     1000 
 1520000   0.65991856   -1.5735834   0.98888796  -0.58469543   0.12865732     11556.49     1000 
 1522000   0.63818551   -1.5371229   0.95632099  -0.58080191   0.13678066    11473.686     1000 
 1524000   0.64265707   -1.4925621   0.96302161  -0.52954047   0.13939734    11446.348     1000 
 1526000   0.66262902   -1.5488282   0.99294958  -0.55587858   0.12812747    11578.471     1000 
 1528000   0.65884633   -1.5222542   0.98728123  -0.53497298   0.12323243    11542.865     1000 
 1530000   0.64112295   -1.5543905   0.96072274  -0.59366776   0.13498127    11597.274     1000 
 1532000   0.65993882   -1.5694485   0.98891833   -0.5805302   0.13740424    11403.317     1000 
 1534000   0.63989482   -1.5834698   0.95888239  -0.62458738   0.13233801    11643.265     1000 
 1536000   0.63381001   -1.5376268    0.9497643  -0.58786251   0.12140979    11610.967     1000 
 1538000   0.65412268   -1.5912733   0.98020284  -0.61107043    0.1306736    11675.014     1000 
 1540000    0.6799022   -1.5495678    1.0188334  -0.53073434   0.14192493    11504.516     1000 
 1542000   0.64889236   -1.5724936   0.97236521  -0.60012843   0.13228475    11572.787     1000 
 1544000    0.6653159   -1.5827226   0.99697587  -0.58574678    0.1303834     11660.01     1000 
 1546000   0.65259545    -1.581147   0.97791428  -0.60323268   0.13279802    11485.897     1000 
 1548000   0.65711866   -1.5866837   0.98469231  -0.60199139   0.12150575    11691.536     1000 
 1550000   0.65285408   -1.5579507   0.97830184  -0.57964883     0.131798    11440.619     1000 
 1552000   0.63405761   -1.5615905   0.95013532  -0.61145517   0.11455156    11857.778     1000 
 1554000   0.64871102    -1.595724   0.97209346  -0.62363053   0.11842488    11764.824     1000 
 1556000   0.66299615   -1.5448498   0.99349973  -0.55135009   0.12657927    11426.213     1000 
 1558000   0.64646723   -1.5425521   0.96873114  -0.57382093    0.1196445    11788.691     1000 
 1560000   0.64773925   -1.5382662   0.97063727   -0.5676289   0.13727134    11588.325     1000 
 1562000   0.62927657   -1.5795157   0.94297095  -0.63654471   0.12858782    11665.817     1000 
 1564000   0.63678366   -1.5414163   0.95422032  -0.58719602   0.11407286    11594.066     1000 
 1566000   0.64649005   -1.5576111   0.96876534  -0.58884572   0.12126363    11613.051     1000 
 1568000   0.66461279   -1.5676257   0.99592226  -0.57170341   0.12308214    11791.836     1000 
 1570000   0.62187536   -1.5802911   0.93188023  -0.64841092   0.12199259    11565.443     1000 
 1572000   0.62646439   -1.5361385   0.93875689  -0.59738163   0.12230066    11680.091     1000 
 1574000   0.64892435   -1.5700787   0.97241314  -0.59766554   0.12567378    11593.851     1000 
 1576000   0.66659422   -1.5944068   0.99889144  -0.59551534   0.13371557     11655.64     1000 
 1578000   0.61836106   -1.5165209   0.92661406  -0.58990686   0.12063004    11517.425     1000 
 1580000   0.63576532   -1.5750591   0.95269433  -0.62236478   0.13279377    11576.557     1000 
 1582000   0.66148081   -1.5599098     0.991229   -0.5686808   0.12447865    11802.931     1000 
 1584000     0.664261   -1.6222781   0.99539512    -0.626883   0.13430403    11629.671     1000 
 1586000    0.6403718   -1.5517948   0.95959714  -0.59219763    0.1288077    11713.421     1000 
 1588000   0.65653044   -1.5789605   0.98381087  -0.59514958   0.12640314    11676.621     1000 
[...]
 2614000   0.65633445   -1.5240589   0.98351717  -0.54054176   0.14191601    11358.408     1000 
 2616000   0.65368412   -1.5768718   0.97954566  -0.59732612   0.13188297    11651.258     1000 
 2618000   0.62543815   -1.5567358   0.93721907  -0.61951676   0.13353436    11410.727     1000 
 2620000   0.64346582   -1.5692947   0.96423353  -0.60506121   0.12601498    11549.217     1000 
 2622000   0.63490262   -1.5971381   0.95140157  -0.64573655    0.1210627    11656.985     1000 
 2624000   0.64722143   -1.6078876   0.96986131  -0.63802631   0.12493379    11656.974     1000 
 2626000     0.648111   -1.6110818   0.97119433  -0.63988745   0.12682583    11678.557     1000 
 2628000   0.67625279   -1.6146816    1.0133648  -0.60131676   0.12002854     11779.47     1000 
 2630000    0.6533945   -1.5759416   0.97911166  -0.59682993   0.12064978    11635.968     1000 
 2632000   0.66625564   -1.5473403   0.99838407  -0.54895623   0.11575883    11738.242     1000 
 2634000   0.65687811    -1.616201   0.98433185  -0.63186913    0.1266514    11590.238     1000 
 2636000   0.64887803   -1.5093276   0.97234372  -0.53698389   0.14722081    11240.438     1000 
 2638000    0.6621349   -1.5674408   0.99220915  -0.57523165    0.1354344    11568.094     1000 
 2640000   0.66718363   -1.5809769   0.99977467  -0.58120222   0.13378528    11341.501     1000 
 2642000   0.63528102   -1.5474457   0.95196861  -0.59547707   0.13634884    11498.501     1000 
 2644000    0.6572457   -1.6326615   0.98488268  -0.64777884   0.12306957    11680.404     1000 
 2646000   0.62820164   -1.6088452   0.94136016  -0.66748502   0.11675687    11845.109     1000 
 2648000   0.60550149   -1.5064105   0.90734398  -0.59906647   0.13669695    11424.755     1000 
 2650000   0.62871812   -1.5583019    0.9421341  -0.61616781    0.1239906    11534.121     1000 
 2652000   0.63451351   -1.5669998   0.95081849  -0.61618134   0.12242959    11472.392     1000 
 2654000   0.65213798   -1.5510942   0.97722876  -0.57386546   0.13917921    11434.901     1000 
 2656000   0.64289484   -1.5468886   0.96337791  -0.58351066   0.12777063    11633.095     1000 
 2658000   0.67208073   -1.5774038     1.007113  -0.57029083   0.13803523    11596.915     1000 
 2660000   0.66650928   -1.5638811   0.99876415  -0.56511698   0.12792421    11584.667     1000 
 2662000    0.6747506   -1.5657351    1.0111138   -0.5546213   0.13166201    11613.038     1000 
 2664000   0.64887128   -1.5424546   0.97233361  -0.57012104   0.12946064    11596.271     1000 
 2666000   0.66275196    -1.572502   0.99313381  -0.57936823   0.12519383    11639.953     1000 
 2668000   0.70503475   -1.5654865    1.0564946  -0.50899196   0.12892086    11762.648     1000 
 2670000   0.64888244    -1.550545   0.97235034  -0.57819465   0.13321485    11676.188     1000 
 2672000   0.64276879   -1.5967742   0.96318903  -0.63358518   0.12128352    11605.078     1000 
 2674000   0.64325009   -1.5794714   0.96391026  -0.61556114   0.12286479    11676.207     1000 
 2676000   0.65899678   -1.5085723   0.98750667  -0.52106559   0.13462594    11484.056     1000 
 2678000   0.66449942   -1.5431719   0.99575238  -0.54741948   0.13850561    11470.972     1000 
 2680000    0.6620265   -1.6046193   0.99204671  -0.61257254   0.13560003    11702.318     1000 
 2682000   0.67812935   -1.5646116    1.0161768  -0.54843481   0.14685204     11696.25     1000 
 2684000   0.63639511   -1.5006947   0.95363807   -0.5470566   0.13686965    11475.603     1000 
 2686000   0.66418569   -1.5414996   0.99528226  -0.54621734   0.14573945    11575.384     1000 
 2688000    0.6347488   -1.5625331   0.95117108  -0.61136202   0.13256343    11472.813     1000 
 2690000    0.6735761   -1.5162807    1.0093538  -0.50692688   0.13377267    11667.374     1000 
 2692000   0.64771667   -1.5184486   0.97060343  -0.54784519   0.12955867     11458.21     1000 
 2694000   0.64408728   -1.5376388   0.96516479  -0.57247397   0.13201969    11746.801     1000 
 2696000   0.64902103   -1.5498431   0.97255801  -0.57728511   0.13866983    11521.245     1000 
 2698000   0.65040438    -1.585289   0.97463097  -0.61065804   0.12891131    11603.262     1000 
 2700000   0.64796114   -1.5539431   0.97096978  -0.58297336   0.13180234    11759.414     1000 
 2702000   0.64863795   -1.5793544   0.97198397  -0.60737046   0.13917248    11435.759     1000 
 2704000   0.66209103   -1.5847173   0.99214341   -0.5925739   0.13366438    11552.806     1000 
 2706000   0.66018637   -1.6354829   0.98928927  -0.64619366   0.12888671    11637.987     1000 
 2708000   0.65123613   -1.5800942   0.97587734  -0.60421682   0.13332307    11526.276     1000 
 2710000   0.65499556   -1.5248932   0.98151085  -0.54338236   0.12497467    11670.752     1000 
 2712000   0.64543872   -1.5614722   0.96718992  -0.59428226   0.12429373    11811.525     1000 
 2714000   0.63012946   -1.5666706     0.944249  -0.62242155    0.1285978     11489.18     1000 
 2716000   0.65048946    -1.593248   0.97475846  -0.61848952   0.11615944    11813.949     1000 
 2718000   0.63674638   -1.5485239   0.95416445  -0.59435948   0.11962817    11642.098     1000 
 2720000   0.67026117   -1.5570002    1.0043864  -0.55261383   0.15240841    11450.172     1000 
 2722000   0.63640451    -1.554758   0.95365216   -0.6011058   0.12516937     11493.03     1000 
 2724000   0.66588178   -1.5618739   0.99782385  -0.56405008   0.12434817    11552.046     1000 
 2726000   0.63020034   -1.6038446   0.94435521  -0.65948939   0.12065994    11791.706     1000 
 2728000   0.63072257   -1.5621294   0.94513777  -0.61699165   0.13309237    11593.481     1000 
 2730000   0.64223485   -1.5791672   0.96238892  -0.61677832   0.13025037    11735.614     1000 
 2732000   0.66335429   -1.5834678    0.9940364  -0.58943138    0.1326035    11712.625     1000 
 2734000   0.64136543   -1.5530528   0.96108609  -0.59196667   0.14363504    11347.429     1000 
 2736000   0.64179683    -1.558946   0.96173256  -0.59721345   0.14413872    11388.348     1000 
 2738000   0.62770764   -1.5418485   0.94061989  -0.60122858   0.12472104    11649.507     1000 
 2740000   0.64086108   -1.5476584   0.96033033  -0.58732812   0.12611616    11732.728     1000 
 2742000   0.65069307   -1.5378938   0.97506357  -0.56283023   0.14058134    11524.566     1000 
 2744000   0.65504999   -1.5296367    0.9815924  -0.54804432   0.12925143    11544.725     1000 
 2746000   0.64957639   -1.5950206   0.97339022  -0.62163042   0.13932886    11481.658     1000 
 2748000   0.64093034   -1.5689134   0.96043411  -0.60847926   0.12350144    11666.585     1000 
 2750000   0.67608929   -1.5434284    1.0131198  -0.53030862   0.12427122      11739.9     1000 
 2752000   0.63286968   -1.6323484   0.94835521  -0.68399316   0.13459556     11568.45     1000 
 2754000   0.65193221   -1.5142587   0.97692041   -0.5373383   0.12579932    11517.874     1000 
 2756000   0.65730558   -1.5302557   0.98497242  -0.54528326   0.12681169    11758.809     1000 
 2758000   0.64833657   -1.5300932   0.97153235  -0.55856089   0.12436054    11645.654     1000 
 2760000   0.65477669   -1.5314334   0.98118287  -0.55025055    0.1219597    11628.462     1000 
 2762000   0.66104789   -1.5340364   0.99058027  -0.54345611   0.14011167    11491.072     1000 
 2764000   0.64326018   -1.5344836   0.96392537  -0.57055827   0.12030336    11631.176     1000 
 2766000   0.67075533   -1.5927996    1.0051269  -0.58767269   0.11761322    11716.938     1000 
 2768000   0.65674693   -1.5714398   0.98413527  -0.58730458    0.1353151    11401.804     1000 
 2770000   0.62534191   -1.5092846   0.93707485  -0.57220975   0.13135751    11412.592     1000 
 2772000   0.64918577   -1.5520289   0.97280487  -0.57922399   0.13539675    11489.056     1000 
 2774000   0.65818506   -1.5591084   0.98629032   -0.5728181   0.13528896    11541.865     1000 
 2776000   0.63809139   -1.5336826   0.95617995  -0.57750261   0.14212356    11412.746     1000 
 2778000   0.63376297   -1.5341951   0.94969381  -0.58450128   0.12621958    11535.103     1000 
 2780000   0.68030217   -1.6020494    1.0194328  -0.58261663   0.12767327    11691.103     1000 
 2782000   0.64552595   -1.5917006   0.96732064  -0.62437998   0.11975687    11777.576     1000 
 2784000   0.61651117   -1.5669894     0.923842  -0.64314744   0.13994858    11501.282     1000 
 2786000   0.64354125   -1.5587174   0.96434656  -0.59437085   0.13035522    11558.685     1000 
 2788000   0.65005873   -1.5682888     0.974113  -0.59417579    0.1460164    11433.084     1000 
 2790000   0.65267515   -1.6107697   0.97803371  -0.63273603   0.13001419    11587.932     1000 
 2792000    0.6890626   -1.6127728    1.0325603  -0.58021246   0.12672449    11815.456     1000 
 2794000   0.65463883   -1.5447926   0.98097629  -0.56381635   0.13727717    11522.747     1000 
 2796000   0.65372365   -1.5713465   0.97960489  -0.59174159   0.13447653    11529.148     1000 
 2798000   0.63534673   -1.5516911   0.95206708  -0.59962403   0.13406568    11400.976     1000 
 2800000   0.66090476   -1.5350659   0.99036578  -0.54470015      0.12568    11565.197     1000 
 2802000    0.6714845   -1.5944311    1.0062195  -0.58821158   0.12963028    11489.585     1000 
 2804000   0.62885281   -1.5544414   0.94233593  -0.61210547   0.13280637    11696.338     1000 
 2806000   0.65187159   -1.5762997   0.97682958  -0.59947012   0.13241848    11528.113     1000 
 2808000   0.64515211   -1.5611481   0.96676044  -0.59438767   0.11107988    11859.418     1000 
 2810000   0.63820449   -1.5707548   0.95634943  -0.61440541   0.13186657    11616.782     1000 
 2812000   0.66035538   -1.5808842   0.98954254  -0.59134164   0.12742865    11658.018     1000 
 2814000   0.63750696   -1.5625729   0.95530418  -0.60726872   0.13575261    11435.533     1000 
 2816000   0.62985564   -1.5855474   0.94383867  -0.64170873   0.12913659     11758.29     1000 
 2818000   0.65437515   -1.5872762   0.98058117  -0.60669508    0.1237343    11588.681     1000 
 2820000   0.66580846   -1.5747599   0.99771397  -0.57704594   0.12787125    11642.424     1000 
 2822000   0.59764927   -1.5319268   0.89557743  -0.63634941   0.12211952    11489.427     1000 
 2824000   0.64696998   -1.5980664   0.96948451  -0.62858192    0.1310409    11598.667     1000 
 2826000   0.66956993   -1.6206538    1.0033505  -0.61730326   0.12103971    11827.818     1000 
 2828000   0.64119372   -1.5758057    0.9608288  -0.61497687    0.1172268     11666.25     1000 
 2830000    0.6290086   -1.5471015   0.94256939  -0.60453214   0.12407766    11514.746     1000 
 2832000   0.62262424   -1.6127955   0.93300242  -0.67979312   0.13584669     11516.17     1000 
 2834000   0.64513128   -1.5653762   0.96672923  -0.59864702   0.12948882    11605.736     1000 
 2836000   0.62347235   -1.5640115   0.93427331  -0.62973815   0.15533742    11315.406     1000 
 2838000   0.67157809   -1.5989164    1.0063598  -0.59255663   0.12073853     11654.88     1000 
 2840000   0.65092016   -1.5594233   0.97540386  -0.58401948   0.14151584    11342.713     1000 
 2842000   0.64632808   -1.5647256   0.96852262  -0.59620295     0.136549    11436.942     1000 
 2844000   0.65662698   -1.5986278   0.98395552  -0.61467228   0.12943115    11625.327     1000 
 2846000   0.64779408   -1.5516096   0.97071943   -0.5808902   0.13237566    11787.098     1000 
 2848000    0.6419275   -1.6081168   0.96192836  -0.64618848   0.12920079    11641.586     1000 
 2850000   0.63030479   -1.5439196   0.94451173  -0.59940784   0.12067391    11578.216     1000 
 2852000   0.68404829   -1.5478719    1.0250464  -0.52282555   0.13067451    11744.848     1000 
 2854000   0.65484321   -1.4737763   0.98128255  -0.49249375   0.13769212    11574.413     1000 
 2856000   0.64107955   -1.5494671   0.96065771  -0.58880934    0.1318872    11743.423     1000 
 2858000   0.68332877   -1.5467848    1.0239682  -0.52281661    0.1274582    11547.691     1000 
 2860000   0.64192509   -1.5867127   0.96192475  -0.62478797   0.11663518    11776.673     1000 
 2862000   0.63574856   -1.5886587   0.95266922  -0.63598948   0.12999669     11531.77     1000 
 2864000   0.66822683   -1.5846758    1.0013379  -0.58333788   0.13567803    11471.932     1000 
 2866000   0.64630183   -1.4997315   0.96848329   -0.5312482   0.12601636    11605.997     1000 
 2868000   0.62187119   -1.5676439   0.93187398  -0.63576989   0.12481799    11648.456     1000 
 2870000   0.65831544   -1.5229822   0.98648569  -0.53649647   0.13282364    11603.852     1000 
 2872000   0.65524599   -1.5470239   0.98188612  -0.56513782   0.12010706    11753.863     1000 
 2874000   0.64377239   -1.5521749   0.96469293  -0.58748194   0.13102733    11599.904     1000 
 2876000   0.65412796   -1.5555632   0.98021075  -0.57535248   0.14048947    11498.957     1000 
 2878000   0.64480286   -1.5565495   0.96623708  -0.59031237   0.11943018    11864.247     1000 
 2880000   0.66520139   -1.5785364   0.99680428  -0.58173213   0.13527366    11471.644     1000 
 2882000   0.64176348   -1.6409026   0.96168257  -0.67922005   0.13480623    11595.284     1000 
 2884000   0.67384408   -1.5233266    1.0097553  -0.51357125   0.13234477    11413.882     1000 
 2886000   0.63807677    -1.579613   0.95615804  -0.62345497   0.12333033    11634.371     1000 
 2888000     0.701581   -1.5329913    1.0513191  -0.48167219     0.138526    11721.556     1000 
 2890000    0.6618823   -1.5731275   0.99183062   -0.5812969   0.12742669    11570.751     1000 
 2892000   0.61495825   -1.5790589   0.92151493  -0.65754396   0.12665271    11616.421     1000 
 2894000   0.64121623   -1.5209599   0.96086252  -0.56009742   0.13189889    11459.543     1000 
 2896000   0.64405699   -1.6098245    0.9651194  -0.64470514   0.13276394    11420.499     1000 
 2898000   0.66247183   -1.5496334   0.99271403  -0.55691935   0.13044219    11583.683     1000 
 2900000   0.62951692   -1.6317631   0.94333111  -0.68843203   0.13945996    11567.856     1000 
 2902000    0.6450774   -1.6208748   0.96664849   -0.6542263   0.11467186    11646.154     1000 
 2904000   0.66560908   -1.5787362   0.99741521  -0.58132096   0.11996212    11611.534     1000 
 2906000   0.61052023   -1.5585538   0.91486456  -0.64368923   0.13522296    11410.778     1000 
 2908000   0.62030035   -1.5500978   0.92952007  -0.62057774   0.12197138    11612.524     1000 
 2910000   0.64261977    -1.508121   0.96296573  -0.54515529   0.12588385    11615.644     1000 
 2912000   0.68151315   -1.5884195    1.0212475  -0.56717202   0.13500323     11578.05     1000 
 2914000   0.65547235   -1.5805513   0.98222531    -0.598326   0.11560418    11846.416     1000 
 2916000   0.64518366   -1.6412497   0.96680772  -0.67444194   0.12355875    11596.856     1000 
 2918000   0.66015292   -1.5418243   0.98923916   -0.5525851   0.13945594    11527.119     1000 
 2920000   0.66463914   -1.5373774   0.99596176  -0.54141567   0.13237161    11555.108     1000 
 2922000   0.66051281   -1.5597847   0.98977845  -0.57000622   0.12974396    11638.275     1000 
 2924000   0.65138591   -1.5409777   0.97610179  -0.56487588   0.13858884    11538.733     1000 
 2926000   0.66672956   -1.5471894   0.99909424  -0.54809512   0.13987382     11445.56     1000 
 2928000    0.6351563   -1.5570144   0.95178172  -0.60523269   0.13461116    11579.447     1000 
 2930000   0.65505163   -1.5113222   0.98159487  -0.52972735   0.12792875    11560.479     1000 
 2932000   0.66246331   -1.5646768   0.99270127  -0.57197557   0.13821081    11538.168     1000 
 2934000   0.66818121   -1.5216823    1.0012695  -0.52041275   0.13331228    11583.963     1000 
 2936000   0.67251126   -1.5946295    1.0077581  -0.58687133   0.11901495    11834.394     1000 
 2938000   0.66957954   -1.6063338    1.0033649  -0.60296888   0.13175991    11604.535     1000 
 2940000   0.66592092   -1.6050832    0.9978825  -0.60720073   0.13071275    11720.473     1000 
 2942000   0.64840161   -1.5358348   0.97162981  -0.56420497   0.12729207    11509.604     1000 
 2944000   0.66412705    -1.558697   0.99519439  -0.56350261   0.13538142    11528.882     1000 
 2946000   0.63326862   -1.5491962   0.94895303  -0.60024315   0.13871302    11484.993     1000 
 2948000   0.65624112   -1.5913701   0.98337732  -0.60799278   0.13049928    11661.568     1000 
 2950000   0.62941995   -1.5730682   0.94318579  -0.62988236   0.12465678    11618.706     1000 
 2952000   0.65877577   -1.5563589   0.98717549  -0.56918337   0.12072586    11812.609     1000 
 2954000    0.6601855    -1.519526   0.98928797  -0.53023802   0.12850185    11609.966     1000 
 2956000   0.63552105    -1.563276   0.95232829  -0.61094772   0.11117177    11941.894     1000 
 2958000   0.65309852    -1.618842   0.97866813  -0.64017391   0.11592586     11645.73     1000 
 2960000   0.65432431   -1.5552625   0.98050498  -0.57475752   0.13752268    11437.731     1000 
 2962000   0.62059019   -1.5581358    0.9299544  -0.62818139   0.12827613    11583.698     1000 
 2964000   0.65556621    -1.625884   0.98236597  -0.64351806    0.1267155    11708.844     1000 
 2966000   0.66093337   -1.5303518   0.99040866  -0.53994317   0.12972738    11622.345     1000 
 2968000   0.65043098   -1.4864987   0.97467082  -0.51182786    0.1247207    11734.383     1000 
 2970000   0.70989767   -1.5731936    1.0637817  -0.50941195   0.14051143    11451.455     1000 
 2972000   0.69064825   -1.6052173    1.0349364   -0.5702809   0.12870266    11662.843     1000 
 2974000   0.67846541   -1.5256694    1.0166804  -0.50898895   0.13378966    11634.913     1000 
 2976000   0.64723322   -1.5682919   0.96987898  -0.59841292    0.1358084    11611.922     1000 
 2978000   0.64120531   -1.5518869   0.96084616  -0.59104078   0.13067934    11540.823     1000 
 2980000   0.68771097   -1.5572153    1.0305349  -0.52668045   0.13108694    11588.959     1000 
 2982000    0.6548834   -1.5267028   0.98134277  -0.54535998   0.13008116    11560.708     1000 
 2984000   0.63700907   -1.5564049   0.95455808  -0.60184686   0.12935857     11657.48     1000 
 2986000   0.63341774   -1.5981643   0.94917648  -0.64898784    0.1315774    11557.235     1000 
 2988000   0.65508529   -1.5607406   0.98164531  -0.57909525   0.12391247    11747.396     1000 
 2990000   0.63571068   -1.5727097   0.95261246   -0.6200972   0.12809636    11595.741     1000 
 2992000   0.65563365   -1.5637934   0.98246703  -0.58132634   0.12564935    11541.665     1000 
 2994000   0.66092281   -1.5483476   0.99039283  -0.55795475   0.13930864    11438.342     1000 
 2996000   0.63838711    -1.550643   0.95662308  -0.59401994   0.12252711    11706.642     1000 
 2998000     0.643946    -1.550152   0.96495308  -0.58519888   0.14476129    11510.281     1000 
 3000000   0.66730467   -1.5610808   0.99995606   -0.5611247   0.13187846    11477.368     1000 
Loop time of 9559.51 on 1 procs for 3000000 steps with 1000 atoms

Performance: 135571.812 tau/day, 313.824 timesteps/s
100.0% CPU use with 1 MPI tasks x 1 OpenMP threads

MPI task timing breakdown:
Section |  min time  |  avg time  |  max time  |%varavg| %total
---------------------------------------------------------------
Pair    | 8603.1     | 8603.1     | 8603.1     |   0.0 | 90.00
Neigh   | 634.74     | 634.74     | 634.74     |   0.0 |  6.64
Comm    | 113.01     | 113.01     | 113.01     |   0.0 |  1.18
Output  | 0.045066   | 0.045066   | 0.045066   |   0.0 |  0.00
Modify  | 187.5      | 187.5      | 187.5      |   0.0 |  1.96
Other   |            | 21.12      |            |       |  0.22

Nlocal:        1000.00 ave        1000 max        1000 min
Histogram: 1 0 0 0 0 0 0 0 0 0
Nghost:        4283.00 ave        4283 max        4283 min
Histogram: 1 0 0 0 0 0 0 0 0 0
Neighs:        103660.0 ave      103660 max      103660 min
Histogram: 1 0 0 0 0 0 0 0 0 0

Total # of neighbors = 103660
Ave neighs/atom = 103.66000
Neighbor list builds = 150000
Dangerous builds not checked

Total wall time: 2:39:19
