LAMMPS (29 Sep 2021 - Update 2)
OMP_NUM_THREADS environment is not set. Defaulting to 1 thread. (src/comm.cpp:98)
  using 1 OpenMP thread(s) per MPI task
# ----------------------- Inicialização -----------------------

units			lj
atom_style 		atomic
dimension 		3
boundary 		p p p

# -------------------- Criação dos Átomos ---------------------

read_data 		topologia.txt
Reading data file ...
  orthogonal box = (0.0000000 0.0000000 0.0000000) to (21.540000 21.540000 21.540000)
  1 by 1 by 1 MPI processor grid
  reading atoms ...
  1000 atoms
  read_data CPU = 0.002 seconds

velocity 		all create ${temp} 87287 rot yes dist gaussian
velocity 		all create 0.49 87287 rot yes dist gaussian

# ------------------ Interação Interatômica -------------------

pair_style		table linear 1600
pair_coeff		1 1 force.table AA 8.0
WARNING: 3 of 1600 force values in table AA are inconsistent with -dE/dr.
WARNING:  Should only be flagged at inflection points (src/pair_table.cpp:465)
pair_coeff		1 2 force.table AB 8.0
WARNING: 1 of 1600 force values in table AB are inconsistent with -dE/dr.
WARNING:  Should only be flagged at inflection points (src/pair_table.cpp:465)
pair_coeff		2 2 force.table BB 8.0
pair_write		1 1 1600 r 0.008 8.0 table.check AA
Appending to table file table.check with DATE: 2023-07-05
Neighbor list info ...
  update every 1 steps, delay 10 steps, check yes
  max neighbors/atom: 2000, page size: 100000
  master list distance cutoff = 8.3
  ghost atom cutoff = 8.3
  binsize = 4.15, bins = 6 6 6
  1 neighbor lists, perpetual/occasional/extra = 1 0 0
  (1) pair table, perpetual
      attributes: half, newton on
      pair build: half/bin/atomonly/newton
      stencil: half/bin/3d
      bin: standard
pair_write		1 2 1600 r 0.008 8.0 table.check AB
Appending to table file table.check with DATE: 2023-07-05
pair_write		2 2 1600 r 0.008 8.0 table.check BB
Appending to table file table.check with DATE: 2023-07-05

neighbor 		0.3 bin
neigh_modify		every 20 delay 0 check no

# ------------------------- Ensemble --------------------------------------

fix 1			all npt temp ${temp} ${temp} 0.5 iso ${press} ${press} 5
fix 1			all npt temp 0.49 ${temp} 0.5 iso ${press} ${press} 5
fix 1			all npt temp 0.49 0.49 0.5 iso ${press} ${press} 5
fix 1			all npt temp 0.49 0.49 0.5 iso 0.13 ${press} 5
fix 1			all npt temp 0.49 0.49 0.5 iso 0.13 0.13 5

# ---------------------- Função de Distribuição Radial -----------------------

#compute RDF 		all rdf 2000 1 1 1 2 2 2
#fix 2 			all ave/time 1 2000 2000 c_RDF[*] file rdf.data mode vector

# ------------------------- Execução ---------------------------

timestep 		0.005
thermo_style		custom step temp pe ke etotal press vol atoms
thermo			2000
run			3000000
Per MPI rank memory allocation (min/avg/max) = 3.125 | 3.125 | 3.125 Mbytes
Step Temp PotEng KinEng TotEng Press Volume Atoms 
       0         0.49  -0.99524352     0.734265  -0.26097852    0.1171539    9993.9483     1000 
    2000   0.47736403   -1.9336484   0.71533001   -1.2183184   0.13438635    11379.224     1000 
    4000   0.47739405   -1.9581594   0.71537498   -1.2427844   0.13124056    11269.108     1000 
    6000   0.47837386   -1.9412631   0.71684323   -1.2244199   0.12811097    11483.359     1000 
    8000   0.50414192   -1.9530456   0.75545667   -1.1975889   0.12650841    11411.084     1000 
   10000   0.48070312    -1.951135   0.72033363   -1.2308013   0.12159124    11382.475     1000 
   12000   0.50079631   -1.9939542   0.75044328   -1.2435109   0.13180359     11379.45     1000 
   14000   0.47008449   -1.9312883    0.7044216   -1.2268667    0.1208901    11538.209     1000 
   16000   0.50286054   -1.9395444   0.75353652   -1.1860079   0.14117454    11328.508     1000 
   18000   0.48519185   -1.9104463   0.72705999   -1.1833863   0.13400509    11498.462     1000 
   20000    0.4852534   -1.9605209   0.72715221   -1.2333687   0.12673319    11335.831     1000 
   22000   0.47930848   -1.9536673   0.71824375   -1.2354236   0.13594378    11349.459     1000 
   24000   0.50445552   -1.9482933   0.75592659   -1.1923667   0.12465822    11462.486     1000 
   26000   0.47123531     -1.94372   0.70614612   -1.2375739   0.13702575    11234.231     1000 
   28000   0.46756027   -1.9765618   0.70063906   -1.2759228   0.11895472    11461.778     1000 
   30000   0.50878295   -1.9120346   0.76241124   -1.1496233   0.12868317    11518.261     1000 
   32000   0.50209783   -1.9413603   0.75239359   -1.1889667   0.13283555    11316.577     1000 
   34000   0.49460495   -1.9421918   0.74116552   -1.2010263   0.13242452    11280.717     1000 
   36000   0.50238723   -1.9283565   0.75282726   -1.1755293   0.12941197    11307.427     1000 
   38000   0.50539793   -2.0103419    0.7573388   -1.2530031   0.12820599    11327.271     1000 
   40000   0.48780921   -1.9422011    0.7309821    -1.211219   0.12633392    11541.043     1000 
   42000   0.47677005   -1.9529384   0.71443992   -1.2384985   0.12356671    11469.495     1000 
   44000    0.4770748   -1.9576687   0.71489659   -1.2427721   0.12102829    11555.506     1000 
   46000   0.49649035    -1.936873   0.74399079   -1.1928823   0.12153077    11515.607     1000 
   48000   0.49232283   -1.9865902   0.73774577   -1.2488445    0.1349132    11406.665     1000 
   50000   0.48900737   -1.9634678   0.73277754   -1.2306903   0.12984922    11396.032     1000 
   52000   0.48611578   -1.9905831   0.72844449   -1.2621386   0.13074526    11411.503     1000 
   54000   0.49979512   -1.9475537   0.74894298   -1.1986107   0.13242598    11504.777     1000 
   56000   0.50386243   -1.9713787   0.75503785   -1.2163408   0.13703131    11439.015     1000 
   58000    0.4698529   -1.9690636   0.70407457    -1.264989   0.14500971     11299.28     1000 
   60000   0.47876816   -1.9044808   0.71743409   -1.1870467   0.13080356     11302.16     1000 
   62000   0.50000149   -1.9751694   0.74925224   -1.2259172   0.11748263    11555.579     1000 
   64000   0.49196559   -1.9676054   0.73721044   -1.2303949   0.11805146    11509.866     1000 
   66000   0.48255346   -1.9293492   0.72310637   -1.2062428   0.12643323    11410.114     1000 
   68000   0.46316423   -1.9582077    0.6940516   -1.2641561   0.13168481    11338.282     1000 
   70000   0.49677465   -1.9579415   0.74441681   -1.2135247   0.12660022    11481.929     1000 
   72000   0.48492117   -1.9888539   0.72665437   -1.2621995   0.13642869    11361.643     1000 
   74000    0.4960363   -1.9184732   0.74331039   -1.1751628   0.12957598    11215.463     1000 
   76000   0.48595636   -1.9702353    0.7282056   -1.2420297   0.12256715    11483.033     1000 
   78000   0.48798339   -1.9005452    0.7312431   -1.1693021   0.12442691    11437.029     1000 
   80000   0.49640035   -1.9741655   0.74385593   -1.2303096   0.13208706    11328.222     1000 
   82000   0.48834204    -1.971531   0.73178055   -1.2397505    0.1401885    11250.641     1000 
   84000   0.49370582    -1.950026   0.73981818   -1.2102078   0.12859837    11363.087     1000 
   86000   0.51834243   -1.9667636   0.77673614   -1.1900275   0.14265356    11224.229     1000 
   88000   0.50315908   -1.9707442   0.75398389   -1.2167603   0.12848267    11474.665     1000 
   90000   0.48855977   -1.9578371   0.73210681   -1.2257303   0.11920953    11339.071     1000 
   92000   0.49499455   -1.9859447   0.74174933   -1.2441954   0.12394211    11480.356     1000 
   94000   0.49680219   -1.9395102   0.74445808   -1.1950521   0.12894347    11373.951     1000 
   96000   0.46668502   -1.9439126    0.6993275   -1.2445851   0.13046293    11377.656     1000 
   98000   0.49930362   -1.9553799   0.74820648   -1.2071734     0.131434    11396.108     1000 
  100000    0.4881424   -1.9289002   0.73148139   -1.1974188   0.13706401    11331.984     1000 
  102000   0.50507148   -1.9464909   0.75684961   -1.1896413   0.13653686      11377.5     1000 
  104000   0.47683617   -1.9729947     0.714539   -1.2584558   0.13674115    11324.724     1000 
  106000   0.47593637   -1.9652821   0.71319066   -1.2520915   0.12830956    11414.908     1000 
  108000   0.49695923   -1.9534181    0.7446934   -1.2087247   0.14588991     11294.31     1000 
  110000   0.48891497    -1.973416   0.73263909   -1.2407769   0.11789245    11492.526     1000 
  112000   0.48299074   -1.9537516   0.72376163   -1.2299899   0.12970099    11360.274     1000 
  114000   0.48498168   -1.9761072   0.72674505   -1.2493622   0.13153446    11382.756     1000 
  116000   0.46485582   -1.9498191   0.69658645   -1.2532326    0.1299191    11357.904     1000 
  118000   0.50075408   -1.9511724   0.75037999   -1.2007924   0.13033603    11440.251     1000 
  120000   0.48292066   -1.9836609    0.7236566   -1.2600043   0.12913298    11521.534     1000 
  122000   0.47935586   -1.8859737   0.71831475    -1.167659   0.14318239    11189.029     1000 
  124000   0.49316116   -1.9615915     0.739002   -1.2225895   0.13055216    11356.115     1000 
  126000   0.46353556    -1.929935   0.69460804   -1.2353269   0.11851301    11321.888     1000 
  128000   0.49588707    -1.943509   0.74308678   -1.2004222   0.12083035    11441.662     1000 
  130000   0.48748183   -1.9828067   0.73049152   -1.2523152   0.11696634    11566.276     1000 
  132000   0.49251163   -1.9502713   0.73802867   -1.2122426   0.12969311    11369.341     1000 
  134000   0.47113064   -1.9159156   0.70598926   -1.2099263   0.12306231    11491.433     1000 
  136000   0.46825978    -1.973741   0.70168729   -1.2720537   0.13089667    11393.663     1000 
  138000   0.49207631   -1.9507172   0.73737635   -1.2133408   0.12741461    11401.468     1000 
  140000   0.47924751   -1.9685151    0.7181524   -1.2503627   0.13263072    11373.159     1000 
  142000   0.47114314   -1.9775538     0.706008   -1.2715458   0.12274944    11428.354     1000 
  144000   0.48929846    -1.959623   0.73321374   -1.2264092   0.13521943    11393.628     1000 
  146000    0.5217637   -1.9115304   0.78186291   -1.1296675   0.14266973    11389.951     1000 
  148000   0.47492106   -1.9641794    0.7116692   -1.2525102   0.12945292    11406.758     1000 
  150000    0.4874158    -1.925955   0.73039258   -1.1955624   0.12445309     11334.25     1000 
  152000   0.51748197   -1.9767128   0.77544673    -1.201266   0.12047351     11512.83     1000 
  154000    0.5048619   -1.9625147   0.75653556   -1.2059791   0.13023551    11410.418     1000 
  156000   0.51120405   -1.9705212   0.76603926   -1.2044819   0.13582968    11273.415     1000 
  158000   0.49083263   -1.9045038    0.7355127   -1.1689911   0.13265324    11317.372     1000 
  160000   0.48409775   -1.9388311   0.72542047   -1.2134107   0.12712891     11528.27     1000 
  162000   0.49302844   -1.9836538   0.73880312   -1.2448507   0.13818457    11454.233     1000 
  164000   0.49356228   -1.9720652   0.73960308   -1.2324621    0.1247943    11501.437     1000 
  166000   0.48013733   -1.9132252   0.71948579   -1.1937394   0.13623683    11186.215     1000 
  168000   0.48541892    -1.904947   0.72740026   -1.1775468   0.12159581    11467.991     1000 
  170000   0.50133929    -1.869569   0.75125692   -1.1183121    0.1457764    11088.328     1000 
  172000   0.48899601   -1.9212507   0.73276051   -1.1884902   0.13791249     11277.43     1000 
  174000   0.47445661   -1.9574408   0.71097323   -1.2464676    0.1359165    11190.401     1000 
  176000    0.5035011    -1.944457   0.75449641   -1.1899606   0.12466557    11467.072     1000 
  178000   0.49072541   -2.0027625   0.73535203   -1.2674105   0.13314624    11400.311     1000 
  180000   0.48870281    -1.984663   0.73232117   -1.2523418   0.11863686    11485.982     1000 
  182000   0.50759011   -1.9272099   0.76062378   -1.1665862   0.13095509    11360.859     1000 
  184000   0.48504693   -1.9571502   0.72684283   -1.2303073   0.12976512    11373.726     1000 
  186000   0.50969691    -1.917804   0.76378082   -1.1540231   0.13020813    11378.951     1000 
  188000   0.48551048   -1.9541426   0.72753746   -1.2266051   0.12858409     11378.54     1000 
  190000   0.48006343   -1.9743467   0.71937505   -1.2549717   0.12235606    11457.334     1000 
  192000   0.46235997   -1.9287121   0.69284641   -1.2358656    0.1383611    11252.738     1000 
  194000   0.47691819   -1.9227461   0.71466191   -1.2080842   0.13676564    11375.876     1000 
  196000   0.48643711   -1.9101283   0.72892601   -1.1812023   0.14197201    11312.859     1000 
  198000   0.47167462   -1.9314165   0.70680441   -1.2246121   0.13757292    11273.169     1000 
  200000   0.49832877   -1.9613114   0.74674566   -1.2145657   0.11729254    11495.678     1000 
  202000   0.48724959    -2.007102   0.73014352   -1.2769585   0.12829513    11432.756     1000 
  204000   0.48392405   -1.9246972   0.72516019    -1.199537   0.12672349    11430.422     1000 
  206000   0.50421977   -1.9572138   0.75557332   -1.2016405    0.1187667    11488.342     1000 
  208000     0.480976    -1.952228   0.72074254   -1.2314855   0.12666893    11419.779     1000 
  210000   0.50672308   -1.9364525   0.75932453    -1.177128   0.13581333    11541.976     1000 
  212000   0.48576142   -1.8840005   0.72791349    -1.156087   0.13597684    11192.963     1000 
  214000   0.49296587   -1.9022628   0.73870935   -1.1635534   0.12523376    11353.458     1000 
  216000    0.4762127   -1.9412466   0.71360473   -1.2276419   0.13704646     11488.55     1000 
  218000   0.48124079   -1.9840643   0.72113932    -1.262925   0.12703005    11471.023     1000 
  220000   0.49752731   -1.9194991   0.74554467   -1.1739545   0.12973535    11380.372     1000 
  222000   0.47595766   -1.9594327   0.71322256   -1.2462101   0.12659854    11387.031     1000 
  224000   0.50625022   -1.9453428   0.75861596   -1.1867269   0.12918041    11357.663     1000 
  226000   0.47651718   -1.9377685   0.71406099   -1.2237076   0.14137677    11283.652     1000 
  228000   0.49484729   -1.9003755   0.74152866   -1.1588469   0.13480957    11281.865     1000 
  230000   0.49749798   -1.9595413   0.74550072   -1.2140406   0.13044922    11391.072     1000 
  232000   0.50418005   -2.0062398   0.75551381    -1.250726   0.13751384     11305.95     1000 
  234000   0.49602517   -1.9330944   0.74329372   -1.1898007   0.13482091     11265.61     1000 
  236000   0.50778924   -1.9511311   0.76092217    -1.190209   0.13336167    11401.315     1000 
  238000   0.50956978   -1.9205539   0.76359032   -1.1569636   0.12370671    11397.456     1000 
  240000   0.49805709   -1.9414754   0.74633855   -1.1951368   0.12990352    11435.086     1000 
  242000   0.49665127   -1.9573341   0.74423192   -1.2131022   0.13181567     11502.29     1000 
  244000   0.49541339    -1.940377   0.74237696       -1.198   0.13563508    11395.876     1000 
  246000   0.48947234   -1.9711791    0.7334743   -1.2377048    0.1281995    11411.725     1000 
  248000   0.50432915   -1.9008844   0.75573723   -1.1451472   0.14373269    11162.068     1000 
  250000   0.52174696   -1.9398134   0.78183782   -1.1579756   0.13865413    11416.654     1000 
  252000   0.47959839   -1.9212652   0.71867818    -1.202587   0.12312474    11453.051     1000 
  254000   0.48572415   -1.9888116   0.72785764   -1.2609539   0.13716066    11295.592     1000 
  256000   0.48755718   -1.9416644   0.73060444     -1.21106   0.13104559    11397.178     1000 
  258000   0.49191597   -1.9248058   0.73713608   -1.1876697    0.1265904    11455.436     1000 
  260000   0.48584362   -1.9658589   0.72803666   -1.2378222   0.13392075    11377.145     1000 
  262000   0.48005953   -1.9335436   0.71936921   -1.2141744   0.13380364    11334.482     1000 
  264000   0.48434791   -1.9134614   0.72579534   -1.1876661   0.13206628    11262.385     1000 
  266000   0.48117435   -1.9151858   0.72103976   -1.1941461    0.1339367    11271.892     1000 
  268000   0.49514179   -1.8998782   0.74196998   -1.1579083   0.13514407    11268.718     1000 
  270000   0.48440999   -1.9252664   0.72588837   -1.1993781   0.13267994    11305.242     1000 
  272000   0.49367842    -1.938298   0.73977712   -1.1985209   0.12814458    11366.788     1000 
  274000   0.49001842   -1.9407239    0.7342926   -1.2064313   0.12398651    11393.537     1000 
  276000   0.49443001   -1.9357745   0.74090337   -1.1948712   0.13559196     11338.28     1000 
  278000   0.48997055   -1.8913372   0.73422086   -1.1571164   0.13622127    11294.168     1000 
  280000   0.48618414    -1.926526   0.72854693    -1.197979   0.13525095    11310.395     1000 
  282000   0.48218551   -1.9350219   0.72255499    -1.212467   0.12772833    11488.205     1000 
  284000   0.48099154    -1.976507   0.72076583   -1.2557412   0.12128478    11365.629     1000 
  286000   0.49034663   -1.9143245   0.73478442   -1.1795401    0.1263546     11436.77     1000 
  288000   0.45398043    -1.952757   0.68028967   -1.2724673     0.125284    11405.603     1000 
  290000    0.4825257   -1.9585718   0.72306476    -1.235507   0.13078544    11354.073     1000 
  292000   0.46736807   -1.9738977   0.70035106   -1.2735467   0.13890571    11437.755     1000 
  294000   0.47502434   -1.9315947   0.71182397   -1.2197707   0.11673663    11371.384     1000 
  296000   0.49727904   -1.9856853   0.74517264   -1.2405126   0.13645047    11343.137     1000 
  298000   0.48903728   -1.9446193   0.73282237   -1.2117969    0.1323378    11310.849     1000 
  300000   0.51189186   -1.9665745   0.76706996   -1.1995046   0.14517029    11300.683     1000 
  302000   0.49226726   -1.9449077   0.73766249   -1.2072452   0.13385722    11398.856     1000 
  304000   0.49205486   -1.9537057    0.7373442   -1.2163615   0.12942449    11457.277     1000 
  306000    0.4758738   -1.9712359   0.71309689    -1.258139   0.12827959    11453.022     1000 
  308000   0.47915908   -1.9572578   0.71801989   -1.2392379    0.1214279    11402.629     1000 
  310000   0.48286614   -1.9251967   0.72357491   -1.2016217   0.12512878    11486.218     1000 
  312000   0.49521405   -1.9390887   0.74207825   -1.1970104   0.13934935    11334.139     1000 
  314000   0.51987931   -1.9299305   0.77903914   -1.1508914   0.14494139    11268.999     1000 
  316000   0.49207878   -1.9430958   0.73738005   -1.2057157   0.13181332    11436.952     1000 
  318000   0.48583109   -1.9704535   0.72801789   -1.2424357   0.12861708    11499.455     1000 
  320000   0.49157254    -1.961374   0.73662146   -1.2247525   0.12518149    11451.461     1000 
  322000   0.49104158   -1.9632111   0.73582581   -1.2273853   0.14428943    11357.809     1000 
  324000   0.49337108     -1.93918   0.73931656   -1.1998634   0.13016854     11427.78     1000 
  326000   0.50731647   -1.9550501   0.76021373   -1.1948364   0.12357448    11527.362     1000 
  328000   0.49228551   -1.9470159   0.73768983    -1.209326   0.12634676    11484.519     1000 
  330000    0.4610414   -1.9407973   0.69087053   -1.2499268    0.1236699    11343.036     1000 
  332000   0.48609991   -1.9687778   0.72842071   -1.2403571   0.11588436      11503.7     1000 
  334000   0.48411538   -1.9456161    0.7254469   -1.2201692   0.11971318    11515.822     1000 
  336000   0.47504266   -1.9275746   0.71185142   -1.2157232   0.13440928    11466.327     1000 
  338000   0.51808962   -1.9593308    0.7763573   -1.1829735   0.10849243    11662.383     1000 
  340000   0.51292982   -1.9472758   0.76862533   -1.1786504   0.11906125    11488.193     1000 
  342000   0.47458046   -1.9574107   0.71115881   -1.2462519   0.13259225    11388.793     1000 
  344000   0.48654604   -1.9525859   0.72908924   -1.2234966     0.140441    11277.943     1000 
  346000   0.48968495   -1.9692837    0.7337929   -1.2354908   0.12919382     11373.85     1000 
  348000   0.50573279   -1.9386343   0.75784058   -1.1807937   0.14157428    11225.369     1000 
  350000   0.49445384   -1.9597223   0.74093909   -1.2187832   0.12520085    11378.585     1000 
  352000   0.49277647   -1.9363605   0.73842555    -1.197935   0.12357735     11506.75     1000 
  354000   0.50172787   -1.9553288   0.75183921   -1.2034896   0.12406583    11469.164     1000 
  356000     0.495288   -1.9274508   0.74218907   -1.1852618   0.14281775    11310.211     1000 
  358000   0.48384003   -1.9302505   0.72503428   -1.2052163   0.13416037    11313.768     1000 
  360000   0.50098133   -1.9304949   0.75072052   -1.1797744   0.13137559    11331.326     1000 
  362000   0.49542146   -1.9752351   0.74238906    -1.232846   0.12847708    11393.648     1000 
  364000   0.49562995   -1.9287574   0.74270149   -1.1860559   0.13080906    11443.121     1000 
  366000   0.48051177   -1.9817124   0.72004689   -1.2616655   0.12908475    11332.947     1000 
  368000   0.47915988    -1.930894   0.71802108   -1.2128729   0.11400859    11561.396     1000 
  370000   0.48965068   -1.9204229   0.73374154   -1.1866814   0.13671342    11210.675     1000 
  372000    0.5184914   -1.9467936   0.77695937   -1.1698342   0.13029255    11306.164     1000 
  374000   0.48416342   -1.9612522   0.72551889   -1.2357333   0.12994112    11391.226     1000 
  376000   0.49160162   -1.9375665   0.73666503   -1.2009015    0.1289019    11336.434     1000 
  378000   0.50254317   -1.9852456   0.75306094   -1.2321847   0.12324875    11639.495     1000 
  380000   0.49515879   -1.9090446   0.74199545   -1.1670491   0.13430655    11403.304     1000 
  382000   0.48635654   -1.9510452   0.72880527   -1.2222399   0.13247487    11484.347     1000 
  384000   0.47465323   -1.9603169   0.71126787    -1.249049   0.13556437    11206.415     1000 
  386000   0.49756911    -1.920314   0.74560732   -1.1747067   0.13431055    11279.623     1000 
  388000   0.48388551   -1.9309519   0.72510244   -1.2058495   0.13058142    11308.925     1000 
  390000   0.48912887   -1.9056279   0.73295962   -1.1726683   0.14491185    11319.204     1000 
  392000   0.50265993   -1.9231653    0.7532359   -1.1699294   0.12416075    11353.195     1000 
  394000   0.49218852   -1.9548121    0.7375445   -1.2172676   0.13887756    11293.581     1000 
  396000   0.49191262   -1.9256591   0.73713107    -1.188528   0.14045499    11304.688     1000 
  398000   0.48743013   -1.9230956   0.73041405   -1.1926816    0.1393591    11175.478     1000 
  400000   0.48464393   -1.9311598   0.72623893   -1.2049209   0.13410338    11376.623     1000 
  402000   0.49182908   -2.0103276   0.73700587   -1.2733217   0.12700149    11372.297     1000 
  404000   0.46764058   -1.9568601   0.70075942   -1.2561007   0.13432061    11323.601     1000 
  406000   0.49517579   -1.9688206   0.74202091   -1.2267997   0.12947969    11457.687     1000 
  408000   0.46995436   -1.9342204   0.70422661   -1.2299938   0.14201593    11201.588     1000 
  410000   0.46857463    -1.949595   0.70215909   -1.2474359   0.14556253      11223.2     1000 
  412000   0.48978173   -1.9394893   0.73393792   -1.2055514   0.12072486    11380.132     1000 
  414000   0.48962201   -1.8485527   0.73369858   -1.1148541   0.13159035    11285.159     1000 
  416000   0.49478751   -1.9236347   0.74143909   -1.1821956   0.13191363    11335.364     1000 
  418000   0.50181485   -1.9492446   0.75196955    -1.197275   0.12196141    11526.262     1000 
  420000   0.51125016   -1.9554681   0.76610837   -1.1893597   0.12161475     11548.91     1000 
  422000   0.48999825    -1.892796   0.73426238   -1.1585336   0.13600992    11162.769     1000 
  424000   0.48966369   -1.9784247   0.73376104   -1.2446636   0.13761216    11343.898     1000 
  426000   0.48193748   -1.9594094   0.72218331   -1.2372261   0.12642128     11300.42     1000 
  428000   0.50541567   -1.9555802   0.75736539   -1.1982148   0.13115339    11343.276     1000 
  430000   0.49718888   -1.9374139   0.74503754   -1.1923764   0.13487562    11311.044     1000 
  432000    0.4922795   -1.8968584   0.73768083   -1.1591775   0.13136573    11387.108     1000 
  434000   0.48045866   -1.9890496    0.7199673   -1.2690823   0.12046058     11471.95     1000 
  436000   0.48527015   -1.9226999   0.72717732   -1.1955226   0.13432127    11306.474     1000 
  438000    0.4852513   -2.0094716   0.72714908   -1.2823225   0.12423149    11544.098     1000 
  440000   0.47652896   -1.9261476   0.71407865   -1.2120689   0.11746529    11419.847     1000 
  442000   0.47979276   -1.9186101   0.71896944   -1.1996406   0.12676818    11240.867     1000 
  444000   0.48983104   -1.8980911   0.73401181   -1.1640793   0.13855546    11216.484     1000 
  446000   0.50125023   -1.9338484   0.75112347   -1.1827249   0.11804002     11445.84     1000 
  448000   0.48404115    -1.893973   0.72533566   -1.1686373   0.13138145    11294.337     1000 
  450000   0.48608295    -1.946196    0.7283953   -1.2178007   0.12355435    11551.659     1000 
  452000   0.49981932   -1.9463369   0.74897925   -1.1973576    0.1436027    11309.309     1000 
  454000   0.51071864   -1.9778144   0.76531188   -1.2125025   0.13372635    11416.169     1000 
  456000   0.49415642   -1.9041381   0.74049339   -1.1636447   0.13281143    11306.098     1000 
  458000   0.47967879   -1.9631197   0.71879866   -1.2443211   0.12801843    11419.076     1000 
  460000   0.49456209   -1.9195043   0.74110129   -1.1784031   0.13126648    11369.394     1000 
  462000   0.48844125   -1.9453941   0.73192922   -1.2134649   0.12433888    11491.818     1000 
  464000   0.48480868   -1.9965813   0.72648581   -1.2700955   0.11333264    11532.509     1000 
  466000   0.47757214   -1.9822154   0.71564185   -1.2665736   0.12044464    11480.811     1000 
  468000   0.49469573   -1.9993459   0.74130155   -1.2580444   0.12625298    11441.995     1000 
  470000   0.49613794   -2.0100142    0.7434627   -1.2665515   0.11335518    11516.623     1000 
  472000   0.49382134   -1.9145595   0.73999128   -1.1745682    0.1300192    11399.892     1000 
  474000   0.51068451   -1.9317681   0.76526073   -1.1665074   0.13200402    11434.738     1000 
  476000    0.5059225    -1.913737   0.75812487   -1.1556121   0.12832055    11425.851     1000 
  478000   0.48974657   -2.0005131   0.73388524   -1.2666279   0.12417641    11419.787     1000 
  480000   0.48050289    -2.035506   0.72003358   -1.3154724   0.12281433    11457.981     1000 
  482000   0.46683533    -1.976266   0.69955275   -1.2767132    0.1289578    11345.592     1000 
  484000   0.50103574    -1.999462   0.75080206     -1.24866   0.13372768    11434.515     1000 
  486000   0.49579283   -1.9888486   0.74294556    -1.245903   0.12619544    11369.112     1000 
  488000   0.46185356   -1.9184487   0.69208756   -1.2263611   0.11299038    11426.489     1000 
  490000   0.48319985   -1.9468732   0.72407498   -1.2227983   0.13479208    11330.814     1000 
  492000   0.49618732   -1.9932926    0.7435367   -1.2497559   0.12853673     11479.52     1000 
  494000   0.48999798   -1.9192679   0.73426197   -1.1850059   0.12449447    11339.023     1000 
  496000   0.48692595    -1.926502   0.72965854   -1.1968434   0.13918055    11383.808     1000 
  498000   0.48006397   -1.9297566   0.71937586   -1.2103808   0.14106883    11339.741     1000 
  500000   0.49332708   -1.9475454   0.73925063   -1.2082948   0.12167264    11403.103     1000 
  502000   0.50443792   -2.0140656   0.75590022   -1.2581654    0.1128762      11596.1     1000 
  504000   0.49966071   -1.9656298   0.74874158   -1.2168882   0.12980256    11368.284     1000 
  506000   0.48321482   -1.9466341    0.7240974   -1.2225367   0.11974605    11541.056     1000 
  508000   0.49684897   -1.9149425   0.74452818   -1.1704143   0.14447603    11261.257     1000 
  510000   0.49599312    -1.918888   0.74324568   -1.1756423   0.12599053    11416.256     1000 
  512000   0.47853081   -1.9765918   0.71707842   -1.2595133    0.1258542      11506.9     1000 
  514000   0.49584365   -1.9567592   0.74302171   -1.2137375    0.1239994    11359.578     1000 
  516000    0.4908495    -1.963257   0.73553798    -1.227719   0.14263016    11287.884     1000 
  518000   0.48194459    -1.974525   0.72219396    -1.252331   0.12747288    11391.462     1000 
  520000   0.51136193   -1.9162689   0.76627584    -1.149993   0.13390201    11346.825     1000 
  522000   0.50223683   -1.9451415   0.75260189   -1.1925396   0.12261207    11582.538     1000 
  524000   0.49599282    -1.923814   0.74324524   -1.1805688   0.13563533    11342.672     1000 
  526000   0.49151063   -1.9017661   0.73652868   -1.1652374   0.13923394    11295.502     1000 
  528000   0.47745093   -1.9454216   0.71546022   -1.2299614   0.13866144    11345.108     1000 
  530000   0.47835268    -1.935625   0.71681148   -1.2188135   0.13533656    11385.678     1000 
  532000    0.4786783   -2.0191134   0.71729943   -1.3018139   0.12406698    11470.377     1000 
  534000   0.47901105   -1.9653986   0.71779806   -1.2476006   0.13311676    11367.841     1000 
  536000   0.48311231   -1.9275836    0.7239438   -1.2036398   0.12561063    11512.721     1000 
  538000   0.51182991   -1.9717377   0.76697713   -1.2047606   0.13301157    11314.924     1000 
  540000    0.4875296   -1.8752747    0.7305631   -1.1447116   0.13930148    11354.697     1000 
  542000   0.47514785   -1.9783466   0.71200905   -1.2663376   0.12110847    11402.146     1000 
  544000   0.48230918   -1.9742034    0.7227403   -1.2514631    0.1323246    11346.531     1000 
  546000   0.48875506   -1.9203288   0.73239945   -1.1879293   0.13058392    11366.455     1000 
  548000   0.49363919   -1.9602478   0.73971833   -1.2205294   0.12769642     11497.76     1000 
  550000   0.49738892   -1.9165474    0.7453373   -1.1712101   0.14021617    11359.327     1000 
  552000   0.47942731   -1.9492135   0.71842183   -1.2307917   0.12934256    11342.603     1000 
  554000   0.47630094    -1.942319   0.71373695   -1.2285821    0.1330759    11280.642     1000 
  556000   0.50429574   -1.9182026   0.75568716   -1.1625154   0.14496545    11267.374     1000 
  558000   0.49954548   -1.9083772    0.7485689   -1.1598083   0.13304749    11295.987     1000 
  560000   0.48071566   -1.9661254   0.72035242    -1.245773    0.1207433    11452.196     1000 
  562000   0.47739937   -1.9220108   0.71538295   -1.2066278   0.12941731    11334.122     1000 
  564000   0.46842016   -1.9410972   0.70192761   -1.2391696   0.14158337    11218.585     1000 
  566000   0.48563506   -1.9399173   0.72772413   -1.2121931    0.1142455     11591.74     1000 
  568000   0.50419995   -1.9898252   0.75554362   -1.2342816   0.13071182    11466.634     1000 
  570000    0.4671415   -2.0125565   0.70001154   -1.3125449   0.11942985    11424.579     1000 
  572000   0.48834281   -1.9274037    0.7317817   -1.1956219   0.12715374    11386.437     1000 
  574000   0.51483425   -1.9062896   0.77147913   -1.1348105   0.13333663    11281.188     1000 
  576000    0.4959973    -1.941066   0.74325195   -1.1978141   0.13262592    11368.809     1000 
  578000   0.48080973   -1.9134968   0.72049337   -1.1930034   0.12355687    11441.639     1000 
  580000   0.48696555   -1.9292542   0.72971788   -1.1995363   0.13253327    11397.578     1000 
  582000    0.4704403   -1.9343629   0.70495479   -1.2294081   0.14343026    11223.442     1000 
  584000   0.47863779   -1.9427658   0.71723872   -1.2255271   0.13179389    11267.653     1000 
  586000    0.4882587    -1.938458   0.73165566   -1.2068023   0.11696416    11502.949     1000 
  588000    0.5017515   -1.9239124   0.75187462   -1.1720378   0.11524734    11389.237     1000 
  590000   0.47602718   -1.9464921   0.71332673   -1.2331654   0.13370497    11269.614     1000 
  592000   0.49843838    -1.996601   0.74690991   -1.2496911    0.1287271    11451.446     1000 
  594000    0.5019813   -1.9911482   0.75221898   -1.2389292   0.13153238    11507.365     1000 
  596000   0.47246346   -1.9063911    0.7079865   -1.1984046   0.12015349     11448.09     1000 
  598000   0.47328993   -1.9022011   0.70922497   -1.1929761   0.13876745     11348.44     1000 
  600000   0.48110655   -1.9249312   0.72093816    -1.203993   0.12134213    11326.093     1000 
  602000   0.47370821   -1.9302173   0.70985175   -1.2203655   0.12348554     11411.59     1000 
  604000   0.50584478   -1.9217522   0.75800841   -1.1637438   0.12892058    11324.539     1000 
  606000   0.48703495   -1.9450692   0.72982188   -1.2152473   0.12649142    11432.535     1000 
  608000   0.47517024   -1.9434078   0.71204261   -1.2313652   0.12316483    11298.836     1000 
  610000   0.52494451   -1.9989831   0.78662935   -1.2123537   0.13096801    11479.379     1000 
  612000   0.51042435   -1.9460981   0.76487089   -1.1812272   0.12610349    11385.539     1000 
  614000   0.50673945   -1.9330379   0.75934906   -1.1736889   0.13480953    11394.454     1000 
  616000   0.51254574   -1.9483135   0.76804979   -1.1802637   0.13341956    11395.168     1000 
  618000    0.4611348   -1.9859424    0.6910105   -1.2949319   0.12512394    11450.024     1000 
  620000   0.50138308   -1.9403139   0.75132254   -1.1889914   0.11813951     11549.58     1000 
  622000     0.500786   -1.9735356   0.75042782   -1.2231078   0.13732202    11181.605     1000 
  624000   0.48499786   -1.9437377   0.72676929   -1.2169685   0.13551114    11297.475     1000 
  626000   0.49759656   -1.9750241   0.74564844   -1.2293757   0.12738117    11440.843     1000 
  628000   0.49071439   -1.9011179   0.73533551   -1.1657824    0.1387982    11288.474     1000 
  630000   0.49292125   -1.9527866    0.7386425   -1.2141442    0.1241409     11508.61     1000 
  632000   0.46584204   -1.9808993    0.6980643    -1.282835   0.11686363    11499.212     1000 
  634000   0.49162912   -1.9656612   0.73670624    -1.228955    0.1356979     11426.98     1000 
  636000   0.47900431   -1.9133587   0.71778795   -1.1955708   0.12472645    11435.323     1000 
  638000   0.50596082   -1.9992192   0.75818229    -1.241037   0.13317966    11414.416     1000 
  640000   0.47310956   -1.9228104   0.70895467   -1.2138557   0.12304187    11421.548     1000 
  642000   0.50759059   -1.9672489    0.7606245   -1.2066244   0.12098876    11500.174     1000 
  644000   0.48570894   -1.9982208   0.72783485   -1.2703859   0.11908701    11395.883     1000 
  646000   0.48056255   -1.9287337   0.72012298   -1.2086107    0.1215424    11432.788     1000 
  648000   0.50267614   -1.8904833   0.75326019   -1.1372231   0.12408256     11443.69     1000 
  650000   0.48765756   -2.0072322   0.73075485   -1.2764773   0.12062068    11452.787     1000 
  652000   0.49547538   -1.9299213   0.74246986   -1.1874514   0.14000133    11228.881     1000 
  654000   0.48009334   -1.9742403   0.71941987   -1.2548205   0.13121813    11340.474     1000 
  656000   0.49076401   -1.9416163   0.73540986   -1.2062065    0.1285254     11408.34     1000 
  658000   0.49046965   -1.9098204   0.73496877   -1.1748517   0.13810307    11277.419     1000 
  660000   0.51805688   -1.9334173   0.77630823   -1.1571091   0.12784098     11402.89     1000 
  662000   0.49752003   -1.9324005   0.74553377   -1.1868667    0.1363916    11342.595     1000 
  664000   0.49526885   -1.9110996   0.74216037   -1.1689393   0.13246394    11365.477     1000 
  666000   0.48267996   -1.9592888   0.72329593   -1.2359929   0.11987519    11438.318     1000 
  668000   0.48801991   -1.9012323   0.73129784   -1.1699344   0.12676134    11309.173     1000 
  670000   0.48025295    -1.968081   0.71965904    -1.248422   0.13211312    11372.383     1000 
  672000   0.48641208    -1.935963    0.7288885   -1.2070745    0.1289027    11409.043     1000 
  674000   0.48174796   -1.9189467   0.72189932   -1.1970474   0.13841116    11269.285     1000 
  676000   0.49908094   -1.9299404   0.74787279   -1.1820676   0.13024908     11441.78     1000 
  678000   0.48796261   -2.0058068   0.73121197   -1.2745949   0.13188167    11402.067     1000 
  680000   0.49797439   -1.9730598   0.74621462   -1.2268452   0.13204293    11369.638     1000 
  682000    0.4720089   -1.9180842   0.70730534   -1.2107788   0.13064934    11297.065     1000 
  684000     0.500691   -1.9832967   0.75028547   -1.2330113   0.13357525    11425.924     1000 
  686000   0.50553222   -1.9642687   0.75754004   -1.2067287    0.1200392    11465.123     1000 
  688000   0.50891685   -1.9572473    0.7626119   -1.1946354   0.13918312    11263.828     1000 
  690000   0.48274384   -1.9527428   0.72339165   -1.2293512   0.12853287    11380.816     1000 
  692000   0.46907533   -1.9270534   0.70290939    -1.224144   0.12999104    11393.171     1000 
  694000   0.49226072    -1.930043   0.73765269   -1.1923904   0.13122439    11392.768     1000 
  696000   0.50390472   -2.0131568   0.75510123   -1.2580556   0.12149591    11500.371     1000 
  698000   0.49602595   -1.9451757   0.74329489   -1.2018808   0.12984514    11559.775     1000 
  700000   0.46298216   -1.9394048   0.69377877    -1.245626   0.12923173    11338.391     1000 
  702000   0.47482523   -1.9702892   0.71152561   -1.2587636   0.12095345    11484.412     1000 
  704000    0.4897655   -1.9308608   0.73391361   -1.1969472   0.11339637    11408.442     1000 
  706000   0.48881957   -1.8852623   0.73249613   -1.1527661   0.12518491    11400.729     1000 
  708000   0.49645161   -1.9350138   0.74393274    -1.191081   0.12602741    11416.743     1000 
  710000   0.48609445   -1.9606631   0.72841254   -1.2322505   0.13624824    11227.626     1000 
  712000   0.48243401   -1.9572013   0.72292736    -1.234274   0.13365001    11349.936     1000 
  714000   0.51182194   -2.0064955   0.76696518   -1.2395303   0.13904709    11436.954     1000 
  716000   0.50330995   -1.9436649   0.75420997   -1.1894549   0.12203872     11342.12     1000 
  718000   0.47451613    -1.904158   0.71106242   -1.1930955   0.12964104    11418.467     1000 
  720000   0.49484805   -1.9685825    0.7415298   -1.2270527   0.12915723    11368.534     1000 
  722000   0.48865802   -1.9941606   0.73225404   -1.2619066   0.12294163    11534.208     1000 
  724000   0.48106937   -1.9720569   0.72088244   -1.2511744   0.12157326    11513.549     1000 
  726000   0.48757139   -1.9700314   0.73062573   -1.2394056   0.13680899    11391.233     1000 
  728000   0.48233882   -2.0281508   0.72278472   -1.3053661   0.13431234    11391.715     1000 
  730000   0.49156412   -1.9689104   0.73660884   -1.2323016   0.12735545    11447.368     1000 
  732000   0.48008428   -1.9309166   0.71940629   -1.2115103   0.13322342    11278.264     1000 
  734000   0.50932448   -1.9265564   0.76322273   -1.1633336   0.13294878    11365.164     1000 
  736000   0.49919621    -1.943172   0.74804552   -1.1951265   0.13167016    11433.745     1000 
  738000   0.47408843   -1.9893209   0.71042151   -1.2788994   0.12102037    11406.209     1000 
  740000   0.49740092   -1.8653633   0.74535527    -1.120008   0.13726551    11141.266     1000 
  742000   0.49985182   -1.9233263   0.74902795   -1.1742984    0.1317216     11375.75     1000 
  744000   0.49707808   -1.9526412    0.7448715   -1.2077697   0.12128142    11404.775     1000 
  746000   0.46648634   -1.9901242   0.69902978   -1.2910945   0.12463846    11511.502     1000 
  748000    0.4838228   -1.9503208   0.72500846   -1.2253124   0.13353333    11349.191     1000 
  750000   0.48219056   -1.9626604   0.72256255   -1.2400978   0.13232794    11270.813     1000 
  752000   0.49031289   -1.9629683   0.73473386   -1.2282345   0.11991035    11460.828     1000 
  754000   0.49561691   -1.9326097   0.74268193   -1.1899277   0.12799853    11439.151     1000 
  756000   0.49994389   -1.8897656   0.74916592   -1.1405997   0.12504104    11388.896     1000 
  758000   0.49548031   -1.9124795   0.74247725   -1.1700022   0.12599182    11358.139     1000 
  760000   0.50707454   -1.9795119    0.7598512   -1.2196607   0.13295495    11411.597     1000 
  762000   0.49878898   -2.0221316   0.74743528   -1.2746963   0.13893362    11350.332     1000 
  764000   0.45842124   -1.8941105   0.68694423   -1.2071662   0.13611349    11260.685     1000 
  766000    0.5050889   -1.9166698   0.75687572   -1.1597941   0.14563202    11237.305     1000 
  768000   0.49868304    -1.908592   0.74727654   -1.1613154   0.12626744    11429.471     1000 
  770000   0.49083141   -1.9335793   0.73551087   -1.1980684   0.11954078    11479.298     1000 
  772000   0.49903571   -1.9352797   0.74780501   -1.1874747    0.1366445    11405.067     1000 
  774000   0.50768158   -1.9226306   0.76076085   -1.1618698   0.13899872    11188.897     1000 
  776000   0.48190164   -1.9622716   0.72212961   -1.2401419   0.12930363    11256.045     1000 
  778000    0.4855939   -1.9286875   0.72766245    -1.201025   0.13213509    11376.503     1000 
  780000    0.4794171   -1.9481965   0.71840652     -1.22979   0.12848002    11304.136     1000 
  782000   0.49455824   -1.9509442   0.74109552   -1.2098487   0.12513321    11369.042     1000 
  784000   0.51379922   -1.9604039   0.76992813   -1.1904757    0.1290795    11371.673     1000 
  786000   0.48426791   -1.9314921   0.72567546   -1.2058167   0.13442588    11358.341     1000 
  788000   0.47944161   -1.9870934   0.71844325   -1.2686502   0.12927368    11459.913     1000 
  790000   0.50764888   -1.9199013   0.76071185   -1.1591895    0.1294262    11381.472     1000 
  792000   0.48606232   -1.9778919   0.72836438   -1.2495275    0.1342622    11298.855     1000 
  794000   0.48754021   -1.9347638     0.730579   -1.2041848   0.12551045    11428.587     1000 
  796000   0.49237429   -1.9570468   0.73782287    -1.219224    0.1344263    11340.586     1000 
  798000   0.49256198   -1.9358206   0.73810413   -1.1977165   0.13459758     11262.61     1000 
  800000   0.49556895   -1.9616681   0.74261008    -1.219058   0.13745327    11347.259     1000 
  802000   0.48677657   -1.9406358   0.72943469   -1.2112011   0.12293027    11539.541     1000 
  804000   0.47286968     -1.94729   0.70859521   -1.2386948   0.13576185    11201.303     1000 
  806000   0.47489455   -1.9532152   0.71162948   -1.2415858   0.12654669    11450.478     1000 
  808000   0.49324638   -1.9368377    0.7391297    -1.197708   0.12540978     11342.92     1000 
  810000   0.47219307   -1.9457535   0.70758131   -1.2381721   0.12336781    11386.784     1000 
  812000   0.48011401   -1.9283778   0.71945084    -1.208927   0.11804424    11454.052     1000 
  814000   0.49444665   -1.9470365    0.7409283   -1.2061082   0.13467531    11337.881     1000 
  816000   0.49042754   -1.9513178   0.73490566   -1.2164121   0.13669908    11317.499     1000 
  818000   0.50399859   -1.9399175   0.75524189   -1.1846756   0.13922271    11329.185     1000 
  820000   0.51222637   -1.9716116   0.76757121   -1.2040404   0.11612298    11540.975     1000 
  822000    0.4903592    -2.001607   0.73480325   -1.2668038   0.12252064    11419.409     1000 
  824000   0.45923869   -1.9543489   0.68816918   -1.2661797   0.12483034    11427.845     1000 
  826000   0.50392386   -1.9409954   0.75512991   -1.1858655   0.13648833    11421.942     1000 
  828000   0.47660965   -1.9119883   0.71419956   -1.1977887   0.13656785    11316.106     1000 
  830000   0.49180999   -1.9651008   0.73697727   -1.2281235   0.13248116    11357.972     1000 
  832000   0.48178597   -1.9382081   0.72195628   -1.2162519    0.1254916    11434.118     1000 
  834000   0.47953899   -1.9279109   0.71858918   -1.2093217   0.14480119    11220.596     1000 
  836000   0.48453465   -1.9637968   0.72607517   -1.2377216   0.12077579    11466.756     1000 
  838000    0.4916242    -1.911453   0.73669887   -1.1747541   0.13716562    11217.887     1000 
  840000   0.50156036   -1.9877606    0.7515882   -1.2361724   0.12628099    11501.561     1000 
  842000   0.48920685   -2.0008455   0.73307647    -1.267769   0.13394289    11335.479     1000 
  844000   0.49268209   -1.8961974   0.73828411   -1.1579133    0.1295126    11359.467     1000 
  846000   0.50402749   -2.0149937   0.75528519   -1.2597085   0.13063806    11326.559     1000 
  848000   0.50870654   -1.9979466   0.76229676   -1.2356498   0.12810247    11475.815     1000 
  850000   0.50673547   -1.9375657   0.75934311   -1.1782226   0.13397013    11473.921     1000 
  852000   0.50843676   -1.9401368   0.76189248   -1.1782443   0.14237923    11226.352     1000 
  854000   0.49567343   -1.9522448   0.74276664   -1.2094782   0.14197849    11288.169     1000 
  856000   0.46953985   -1.9317731   0.70360547   -1.2281676   0.13256083    11306.555     1000 
  858000   0.48139917   -1.9764639   0.72137665   -1.2550873   0.11086784    11555.234     1000 
  860000   0.50842065   -1.9564169   0.76186834   -1.1945486   0.12869974    11391.591     1000 
  862000   0.47161085   -1.9959023   0.70670886   -1.2891934   0.11968295    11493.031     1000 
  864000   0.49662852   -1.9798849   0.74419784   -1.2356871   0.13825372    11276.047     1000 
  866000   0.48980172   -1.9450065   0.73396788   -1.2110386   0.12561594    11370.569     1000 
  868000   0.47992148    -1.933995   0.71916234   -1.2148326   0.13565088      11362.3     1000 
  870000   0.50215831   -1.9706848   0.75248423   -1.2182006   0.11668499    11517.047     1000 
  872000   0.48644764   -1.9798582   0.72894179   -1.2509164   0.12512228    11462.326     1000 
  874000   0.47241314   -1.9260385   0.70791109   -1.2181274   0.12550472    11282.394     1000 
  876000   0.48636456   -1.9561431   0.72881729   -1.2273258   0.12581307    11526.037     1000 
  878000   0.50036097   -1.9677624   0.74979092   -1.2179715   0.13706721    11294.033     1000 
  880000   0.49183894    -1.926418   0.73702065   -1.1893974   0.13435599    11456.717     1000 
  882000    0.4940166   -1.9751261   0.74028387   -1.2348423   0.12553619    11461.824     1000 
  884000   0.49836279   -1.9228123   0.74679664   -1.1760157   0.12973814    11463.912     1000 
  886000   0.51508409   -1.9350631   0.77185351   -1.1632096   0.14022046    11230.015     1000 
  888000   0.48762444    -1.937261   0.73070522   -1.2065558   0.12535184    11457.584     1000 
  890000   0.49828605    -1.942576   0.74668165   -1.1958944   0.13751301     11279.03     1000 
  892000   0.48351907   -1.9620741   0.72455333   -1.2375208   0.13497407    11344.823     1000 
  894000   0.49424032   -1.9634318   0.74061912   -1.2228127   0.13298776    11383.823     1000 
  896000    0.4863832   -1.8896571   0.72884523   -1.1608118   0.12077187    11389.515     1000 
  898000   0.49656973   -1.9417501   0.74410974   -1.1976404   0.13077572    11367.278     1000 
  900000   0.48153549   -1.9265009   0.72158093     -1.20492   0.14470546    11320.158     1000 
  902000   0.45984349   -1.9395237   0.68907548   -1.2504482   0.11930391    11406.816     1000 
  904000   0.47268235   -1.9523857    0.7083145   -1.2440712   0.13727091    11316.686     1000 
  906000   0.49562253   -1.9847777   0.74269036   -1.2420874   0.13390007    11415.146     1000 
  908000   0.49542506   -1.9662603   0.74239445   -1.2238659   0.12478361    11372.288     1000 
  910000   0.48983625   -1.9393669   0.73401962   -1.2053472   0.13601651    11359.964     1000 
  912000   0.48729906   -1.9436401   0.73021765   -1.2134224   0.13112436    11372.461     1000 
  914000   0.47977856   -2.0058921   0.71894818   -1.2869439   0.13160453    11429.155     1000 
  916000   0.49903646   -1.9383164   0.74780613   -1.1905103   0.13953841    11233.566     1000 
  918000   0.49600451    -1.950447   0.74326276   -1.2071842   0.12236118    11311.724     1000 
  920000   0.50488614   -1.9851926   0.75657189   -1.2286207   0.12468154    11448.177     1000 
  922000   0.51198305   -1.9939678    0.7672066   -1.2267612   0.13433962     11427.08     1000 
  924000   0.48624487   -1.9202112   0.72863794   -1.1915732   0.13990814    11345.792     1000 
  926000   0.48156629   -1.8841966   0.72162708   -1.1625695   0.12755762    11281.837     1000 
  928000     0.513402   -1.9743062    0.7693329   -1.2049733   0.13006599    11374.746     1000 
  930000   0.49401489   -1.9680219   0.74028131   -1.2277406   0.12731338     11515.71     1000 
  932000   0.48831909   -1.8868525   0.73174615   -1.1551063   0.13919584    11093.757     1000 
  934000   0.46077359   -1.9157291   0.69046923   -1.2252599   0.12190084    11420.617     1000 
  936000   0.47881031   -1.9168767   0.71749725   -1.1993794   0.13768173    11288.939     1000 
  938000   0.49690897   -1.9295886   0.74461808   -1.1849705    0.1297473    11367.263     1000 
  940000   0.48366024    -1.895892   0.72476487   -1.1711272   0.13532208    11344.518     1000 
  942000   0.49167763   -2.0163258   0.73677893   -1.2795468   0.12362796    11466.058     1000 
  944000   0.49058305   -1.9378552    0.7351387   -1.2027165   0.14041687    11175.062     1000 
  946000   0.48059742   -1.9484114   0.72017524   -1.2282362   0.13396623    11388.818     1000 
  948000   0.47963863   -1.9445857   0.71873848   -1.2258472   0.12823253    11400.457     1000 
  950000   0.49328142   -1.9141434   0.73918221   -1.1749612   0.14063531    11263.915     1000 
  952000   0.49760829   -1.9395123   0.74566602   -1.1938462   0.13625666    11386.593     1000 
  954000   0.48906399   -1.9163677   0.73286239   -1.1835053   0.12081397    11469.102     1000 
  956000   0.48174251   -1.9842965   0.72189116   -1.2624053   0.14027811    11296.916     1000 
  958000   0.48513474   -1.9147874    0.7269744    -1.187813   0.12671998    11262.465     1000 
  960000   0.51517029    -1.993272   0.77198268   -1.2212893   0.13792265    11351.819     1000 
  962000   0.50051249   -1.9434268   0.75001797   -1.1934089   0.13509996    11324.907     1000 
  964000   0.49188041   -1.9180517    0.7370828   -1.1809689   0.14285077    11258.573     1000 
  966000   0.48071634   -1.9333268   0.72035343   -1.2129734   0.12479496    11385.393     1000 
  968000   0.49274473   -1.9440291   0.73837798   -1.2056511   0.13061176    11381.821     1000 
  970000   0.49610415   -1.9566576   0.74341208   -1.2132456   0.13691439    11401.241     1000 
  972000   0.47021809   -1.8853692   0.70462181   -1.1807474   0.12710805    11267.007     1000 
  974000   0.49915617    -1.986711   0.74798552   -1.2387255   0.13878707     11293.52     1000 
  976000    0.4982255   -1.9181828   0.74659092   -1.1715919   0.11929138    11356.721     1000 
  978000   0.49041067   -1.9271084   0.73488038    -1.192228   0.12669599    11487.254     1000 
  980000   0.49989884   -1.9801279   0.74909841   -1.2310295   0.13141045    11411.438     1000 
  982000   0.49092034   -1.9244144   0.73564413   -1.1887703   0.12855385    11374.314     1000 
  984000   0.50751517   -1.9083751   0.76051148   -1.1478636   0.13701631    11272.927     1000 
  986000   0.50170452    -2.019454   0.75180422   -1.2676498   0.13143553    11436.473     1000 
  988000   0.49111379   -1.9785325   0.73593401   -1.2425985   0.12461816    11410.374     1000 
  990000   0.48803691   -1.9245062    0.7313233   -1.1931829   0.13049213    11407.168     1000 
  992000   0.49554737   -1.9483797   0.74257773   -1.2058019   0.12989322    11424.944     1000 
  994000   0.47445027   -1.9557563   0.71096372   -1.2447926   0.14171741    11297.863     1000 
  996000   0.48316801   -1.9121085   0.72402726   -1.1880813    0.1230472    11390.286     1000 
  998000   0.49855725   -1.9276592   0.74708804   -1.1805711   0.12917163    11358.404     1000 
 1000000   0.48690299   -1.9602912   0.72962413    -1.230667   0.13067084     11381.56     1000 
 1002000   0.48116071   -1.9598106   0.72101932   -1.2387913    0.1426526    11304.935     1000 
 1004000   0.49717324   -1.9531484   0.74501409   -1.2081343   0.13133541    11421.596     1000 
 1006000   0.49860453   -1.9126775   0.74715889   -1.1655186   0.12317723    11533.659     1000 
 1008000   0.49150188   -1.9727385   0.73651556   -1.2362229   0.13513618    11343.853     1000 
 1010000   0.48367776   -1.9064853   0.72479112   -1.1816942    0.1303632    11355.903     1000 
 1012000   0.46958521   -1.9731674   0.70367344   -1.2694939   0.12230507    11440.066     1000 
 1014000   0.49790992   -1.9491944   0.74611802   -1.2030764   0.12463623    11418.868     1000 
 1016000   0.49659482   -1.9756318   0.74414733   -1.2314845   0.13533267    11428.024     1000 
 1018000   0.48932055   -1.9671473   0.73324685   -1.2339004   0.12601434    11491.188     1000 
 1020000   0.49890539   -1.9520116   0.74760973   -1.2044018   0.12604647    11468.364     1000 
 1022000   0.46355067    -1.991873   0.69463068   -1.2972423   0.13218102     11386.45     1000 
 1024000   0.50644557   -1.9315816   0.75890869    -1.172673   0.12754613    11286.347     1000 
 1026000   0.46378938   -1.9422438   0.69498839   -1.2472554    0.1253182    11432.123     1000 
 1028000    0.4876561    -1.973769   0.73075266   -1.2430164    0.1211675    11488.324     1000 
 1030000   0.49354638   -1.9484257   0.73957925   -1.2088464   0.13097483    11437.339     1000 
 1032000    0.4743697   -1.9380951   0.71084299   -1.2272521   0.12303405    11483.798     1000 
 1034000   0.47980368   -1.9519682   0.71898582   -1.2329824   0.13333984    11278.725     1000 
 1036000    0.4776556   -1.9415403   0.71576692   -1.2257734   0.12710208     11403.32     1000 
 1038000   0.49027809   -1.9565234   0.73468171   -1.2218417   0.12611612    11510.616     1000 
 1040000   0.50063129   -1.9500989   0.75019599   -1.1999029   0.14286185    11315.974     1000 
 1042000   0.49000527   -1.9143941   0.73427289   -1.1801212   0.13057095    11370.935     1000 
 1044000   0.50889252   -1.9617864   0.76257544   -1.1992109   0.11669958    11533.299     1000 
 1046000   0.47026749   -1.9199532   0.70469584   -1.2152574   0.12900945    11371.205     1000 
 1048000   0.49530663   -1.8850702   0.74221699   -1.1428532   0.13551449    11345.826     1000 
 1050000   0.50878844    -1.958835   0.76241948   -1.1964155   0.10857053    11485.076     1000 
 1052000   0.49430573   -1.9365378   0.74071713   -1.1958207   0.12500289    11541.958     1000 
 1054000   0.49604889   -1.9515247   0.74332925   -1.2081955   0.12666593    11432.911     1000 
 1056000   0.49705688   -1.9250936   0.74483973   -1.1802539   0.12581696    11322.705     1000 
 1058000   0.48866865   -2.0271019   0.73226997    -1.294832   0.11155141    11630.678     1000 
 1060000   0.50248246   -1.9699638   0.75296996   -1.2169939   0.12697917    11433.193     1000 
 1062000   0.47059194   -1.9036028   0.70518202   -1.1984208   0.12421036    11253.612     1000 
 1064000    0.4731029   -1.9411007    0.7089447   -1.2321561   0.11834976    11488.976     1000 
 1066000   0.48144351    -1.944214    0.7214431   -1.2227709   0.11505217    11537.535     1000 
 1068000   0.50047659   -1.9152028   0.74996418   -1.1652387   0.13134043    11360.384     1000 
 1070000    0.4776002   -1.9521486    0.7156839   -1.2364647   0.13522716    11439.721     1000 
 1072000   0.51660362   -1.9595519   0.77413052   -1.1854213   0.14822418        11337     1000 
 1074000   0.49577135   -1.9779831   0.74291336   -1.2350697   0.12926698    11485.259     1000 
 1076000   0.49595566   -1.9251353   0.74318956   -1.1819458   0.13280245    11246.723     1000 
 1078000   0.48854222   -1.9567036   0.73208052   -1.2246231   0.13437484    11333.293     1000 
 1080000   0.48499734    -1.954758   0.72676851   -1.2279894   0.13452464    11412.572     1000 
 1082000   0.49351137    -1.923703   0.73952678   -1.1841763   0.12996724    11351.797     1000 
 1084000   0.49700135   -1.9371648   0.74475652   -1.1924083   0.12677853    11408.392     1000 
 1086000   0.49297718   -1.9388319    0.7387263   -1.2001056   0.13168676    11284.921     1000 
 1088000   0.47801087   -1.9875338   0.71629929   -1.2712345    0.1337032    11364.759     1000 
 1090000   0.50981207   -1.9758478   0.76395338   -1.2118944   0.12223078    11608.415     1000 
 1092000   0.48035495    -1.858231   0.71981189   -1.1384191   0.13060928    11302.862     1000 
 1094000   0.51074903   -1.9651276   0.76535741   -1.1997702   0.13826764    11443.191     1000 
 1096000    0.4798944   -1.9070142   0.71912175   -1.1878925   0.12729978    11483.245     1000 
 1098000   0.48345072   -2.0023058   0.72445091   -1.2778549   0.12644666    11448.001     1000 
 1100000   0.49247922   -1.9809056   0.73798011   -1.2429255   0.13651287    11379.795     1000 
 1102000   0.49625562   -1.9330386   0.74363904   -1.1893996   0.13222222    11385.313     1000 
 1104000   0.47416011   -1.9381771   0.71052892   -1.2276481   0.13513378    11300.654     1000 
 1106000   0.49200239   -1.9242535   0.73726558   -1.1869879   0.11579061    11445.065     1000 
 1108000   0.49606485   -2.0141117   0.74335317   -1.2707586    0.1376767    11384.819     1000 
 1110000   0.51597734   -1.9928245   0.77319205   -1.2196324   0.12314166     11493.78     1000 
 1112000   0.46596611   -1.9894777   0.69825022   -1.2912275   0.13132455    11352.002     1000 
 1114000   0.49893994   -1.9122156   0.74766151   -1.1645541   0.12175771    11457.265     1000 
 1116000   0.49465256    -1.962591   0.74123686   -1.2213541   0.13417503     11355.71     1000 
 1118000   0.49090004   -1.9674483   0.73561371   -1.2318346   0.13070658    11444.888     1000 
 1120000   0.48523572   -1.9431207   0.72712573    -1.215995   0.12271542    11462.266     1000 
 1122000   0.48351234   -1.9101813   0.72454324   -1.1856381   0.13476415    11408.207     1000 
 1124000   0.48939426   -1.9343918    0.7333573   -1.2010345   0.13826892    11339.034     1000 
 1126000   0.48666798   -1.9534807   0.72927196   -1.2242087   0.12768404    11485.468     1000 
 1128000   0.47668735   -1.9732046   0.71431599   -1.2588886   0.11819244    11383.935     1000 
 1130000   0.47840364   -1.9892464   0.71688786   -1.2723585   0.11954958    11502.165     1000 
 1132000   0.47092474   -1.9082688   0.70568073    -1.202588   0.12494412    11421.775     1000 
 1134000     0.489785   -1.9518491   0.73394282   -1.2179063   0.11855528     11545.52     1000 
 1136000    0.5104172   -1.9222171   0.76486017    -1.157357   0.13863009    11410.307     1000 
 1138000   0.50434508   -1.9632197    0.7557611   -1.2074586    0.1328549    11323.337     1000 
 1140000   0.51629169   -1.9360927    0.7736631   -1.1624296   0.13667543     11338.75     1000 
 1142000   0.47967234   -1.9602621     0.718789   -1.2414731   0.11492256    11582.054     1000 
 1144000   0.48172339    -1.952062   0.72186251   -1.2301995   0.12196437    11382.663     1000 
 1146000   0.48163067   -1.9457726   0.72172356    -1.224049   0.13053217    11322.849     1000 
 1148000   0.48360171    -1.954523   0.72467717   -1.2298458   0.14040337    11316.942     1000 
 1150000   0.49320105   -1.9422598   0.73906177    -1.203198   0.12843306     11427.49     1000 
 1152000   0.48449756   -1.9657494   0.72601959   -1.2397298   0.13270219    11286.258     1000 
 1154000   0.49212359   -1.9141249    0.7374472   -1.1766777   0.12751057    11336.134     1000 
 1156000   0.49043491   -1.9312876   0.73491672   -1.1963709   0.14207961    11316.477     1000 
 1158000   0.49833301   -1.9419267   0.74675201   -1.1951747   0.13308108    11389.587     1000 
 1160000   0.51254138    -1.948475   0.76804325   -1.1804318   0.13967844    11300.986     1000 
 1162000   0.48111837   -1.9597249   0.72095588    -1.238769   0.13584061    11296.139     1000 
 1164000   0.48321816   -1.9605786   0.72410241   -1.2364762   0.14420183     11281.03     1000 
 1166000   0.47522507   -1.9641343   0.71212476   -1.2520095   0.12978537    11438.856     1000 
 1168000   0.49441455   -2.0081251   0.74088021   -1.2672449   0.14095382     11340.84     1000 
 1170000   0.50066443   -2.0286185   0.75024565   -1.2783729    0.1329406    11358.511     1000 
 1172000    0.5044966   -1.9516829   0.75598816   -1.1956948   0.13385402    11388.543     1000 
 1174000   0.49550478   -1.9274804   0.74251391   -1.1849665    0.1401571    11297.529     1000 
 1176000   0.48415931   -1.9636581   0.72551273   -1.2381454   0.12568065    11480.409     1000 
 1178000   0.48013869   -1.9621249   0.71948783   -1.2426371   0.12428057     11543.46     1000 
 1180000   0.47657084   -1.9352624    0.7141414    -1.221121   0.12774908    11371.473     1000 
 1182000    0.5017319    -1.971791   0.75184526   -1.2199458   0.12121315    11347.573     1000 
 1184000   0.49623953   -1.9772531   0.74361493   -1.2336381   0.13420932    11298.304     1000 
 1186000   0.48156552   -1.9947343   0.72162594   -1.2731084   0.11762071    11650.317     1000 
 1188000   0.50574977   -1.9492894   0.75786603   -1.1914233   0.13902262    11397.367     1000 
 1190000   0.50201769   -1.9682616   0.75227351   -1.2159881   0.13514211    11445.594     1000 
 1192000   0.48630251     -1.96196   0.72872431   -1.2332357   0.13394492    11375.565     1000 
 1194000   0.49385807   -1.9587065   0.74004632   -1.2186602   0.12277294     11539.14     1000 
 1196000   0.50578535   -1.9598551   0.75791934   -1.2019357   0.12175038    11486.468     1000 
 1198000   0.50401723    -1.872259   0.75526982   -1.1169891   0.13057673    11336.163     1000 
 1200000   0.47825704   -1.9849736   0.71666818   -1.2683054   0.12902041    11437.874     1000 
 1202000   0.47886387   -1.9561443    0.7175775   -1.2385668   0.12312982    11431.808     1000 
 1204000   0.49377139   -1.9419672   0.73991643   -1.2020508   0.12848958    11407.734     1000 
 1206000   0.50086759   -1.9557983   0.75055008   -1.2052482   0.12588813    11414.664     1000 
 1208000   0.50648589   -1.9350728   0.75896911   -1.1761037   0.12687749    11308.843     1000 
 1210000   0.50055802    -1.953354   0.75008619   -1.2032678   0.12869797    11463.977     1000 
 1212000   0.49858751   -1.9761799   0.74713339   -1.2290465   0.11980942    11509.311     1000 
 1214000   0.48588106   -1.9036393   0.72809277   -1.1755465   0.13201209    11342.203     1000 
 1216000   0.47901085   -1.9447044   0.71779775   -1.2269067   0.13387659    11351.056     1000 
 1218000   0.48922146   -1.9748044   0.73309836   -1.2417061   0.12690373    11461.207     1000 
 1220000   0.49566811   -1.9529074   0.74275867   -1.2101487   0.13779464     11305.06     1000 
 1222000   0.48850379   -1.9714899   0.73202292    -1.239467   0.11995469    11595.429     1000 
 1224000   0.47457861   -1.9814759   0.71115604   -1.2703198   0.12945761    11544.115     1000 
 1226000     0.483816    -1.961089   0.72499828   -1.2360907   0.13511957    11333.749     1000 
 1228000   0.49981205   -1.9044889   0.74896836   -1.1555205   0.12221877    11362.405     1000 
 1230000   0.48743321   -1.9786478   0.73041866   -1.2482291   0.11493603    11427.497     1000 
 1232000   0.50304756   -1.9667518   0.75381676    -1.212935   0.11648258    11543.774     1000 
 1234000   0.49206764   -1.9204833   0.73736335   -1.1831199   0.12815283    11298.602     1000 
 1236000   0.48867284   -1.9531701   0.73227625   -1.2208939   0.12715505    11399.281     1000 
 1238000   0.49372113   -1.9776423   0.73984111   -1.2378011   0.11846332     11445.06     1000 
 1240000   0.48483293   -1.8898675   0.72652214   -1.1633454   0.13985187     11363.74     1000 
 1242000   0.47392825   -1.9507542   0.71018148   -1.2405727   0.11793896    11442.969     1000 
 1244000   0.48743569   -1.8982144   0.73042238    -1.167792   0.14046979    11259.877     1000 
 1246000   0.48245523   -1.9573769   0.72295916   -1.2344177   0.12903844    11336.316     1000 
 1248000   0.48496904   -1.9331554    0.7267261   -1.2064293   0.12106884    11580.511     1000 
 1250000   0.48060313   -1.9964724   0.72018379   -1.2762886   0.12932058    11542.028     1000 
 1252000   0.50697359   -1.9235484   0.75969993   -1.1638484   0.12358086    11420.326     1000 
 1254000   0.49020324   -1.9361527   0.73456956   -1.2015832   0.13013801     11347.32     1000 
 1256000   0.50513196    -1.913505   0.75694024   -1.1565648   0.13946534    11341.729     1000 
 1258000   0.46660374   -1.9304771   0.69920571   -1.2312714   0.12635314     11468.01     1000 
 1260000   0.47614305   -1.9342214   0.71350036    -1.220721   0.13664748    11222.665     1000 
 1262000   0.50606762   -1.9657247   0.75834233   -1.2073824   0.13338584     11255.73     1000 
 1264000   0.47984686   -1.9219629   0.71905052   -1.2029123   0.12302104    11415.787     1000 
 1266000   0.49607803   -1.9672161   0.74337293   -1.2238432   0.13228624    11474.342     1000 
 1268000   0.51441775   -1.9829606     0.770855   -1.2121056     0.127993    11536.106     1000 
 1270000   0.47103543   -1.9503026   0.70584659    -1.244456   0.13337905    11350.969     1000 
 1272000   0.48491095   -1.9133417   0.72663905   -1.1867027   0.12224189    11375.549     1000 
 1274000   0.49832939     -1.96283   0.74674659   -1.2160834    0.1302954    11390.189     1000 
 1276000    0.4978243    -1.945465   0.74598971   -1.1994752   0.14308135    11301.148     1000 
 1278000   0.47266805   -1.9534822   0.70829307   -1.2451891   0.11372137    11462.825     1000 
 1280000   0.49043214   -1.9351815   0.73491257   -1.2002689   0.12770074    11386.539     1000 
 1282000   0.49421802   -1.9776311    0.7405857   -1.2370454   0.13068883    11360.118     1000 
 1284000   0.49260384   -1.9681317   0.73816685   -1.2299649   0.12200021    11512.291     1000 
 1286000   0.49383121    -1.996936   0.74000606   -1.2569299   0.12894493    11370.712     1000 
 1288000   0.48851096   -1.9460844   0.73203368   -1.2140507     0.137832    11109.966     1000 
 1290000   0.51137778   -1.9349262    0.7662996   -1.1686266   0.13156064    11418.677     1000 
 1292000   0.51772604    -1.877692   0.77581246   -1.1018795   0.13925241    11299.849     1000 
 1294000   0.50843731   -1.9738244   0.76189331   -1.2119311    0.1337066     11359.03     1000 
 1296000   0.48791914   -1.9498052   0.73114683   -1.2186583   0.12727068    11332.797     1000 
 1298000   0.49489963   -1.9465696   0.74160709   -1.2049625    0.1359137    11335.059     1000 
 1300000   0.47579808   -1.9440628   0.71298343   -1.2310793   0.13092933     11340.32     1000 
 1302000   0.48213386   -1.9605176   0.72247759     -1.23804   0.11867695    11527.077     1000 
 1304000   0.48388191   -1.9478167   0.72509704   -1.2227197   0.12437578    11466.271     1000 
 1306000   0.48409892   -1.9263483   0.72542223    -1.200926   0.13500415    11335.258     1000 
 1308000   0.48284428   -1.9415528   0.72354216   -1.2180106   0.13765283    11496.929     1000 
 1310000   0.49160624   -1.9582208   0.73667195   -1.2215489   0.13605267    11313.948     1000 
 1312000   0.48549311   -1.9688146   0.72751142   -1.2413032    0.1267724    11433.818     1000 
 1314000   0.47175919   -1.9564109   0.70693115   -1.2494797   0.13101097    11307.489     1000 
 1316000   0.50172261   -1.9750393   0.75183133    -1.223208    0.1350841    11436.464     1000 
 1318000   0.48677301   -1.9774839   0.72942936   -1.2480545   0.13502675    11358.947     1000 
 1320000   0.50148184    -1.969947   0.75147054   -1.2184765   0.12691979    11357.139     1000 
 1322000   0.46901479   -1.9982711   0.70281866   -1.2954524   0.12893802    11422.392     1000 
 1324000   0.48426832    -1.950198   0.72567608   -1.2245219   0.13100564    11277.499     1000 
 1326000   0.51800827   -2.0114055   0.77623539   -1.2351701   0.12004169    11556.574     1000 
 1328000   0.47863076   -1.9462031    0.7172282   -1.2289749   0.12363791    11487.012     1000 
 1330000   0.49449608   -1.9363687   0.74100238   -1.1953663   0.11629615    11550.961     1000 
 1332000   0.48427475   -1.9123142   0.72568572   -1.1866285   0.13360184    11263.305     1000 
 1334000   0.47776423   -1.9560964   0.71592971   -1.2401667    0.1259865    11409.658     1000 
 1336000   0.49378081   -1.9172705   0.73993054     -1.17734   0.13086247    11478.973     1000 
 1338000   0.47320808   -2.0194218    0.7091023   -1.3103195   0.12035022    11521.094     1000 
 1340000   0.48768174   -1.9718705   0.73079109   -1.2410794    0.1321742    11319.533     1000 
 1342000   0.49110761   -1.9755717   0.73592475   -1.2396469   0.12686369    11404.736     1000 
 1344000   0.49434635   -1.9378878     0.740778   -1.1971098   0.12606944    11489.841     1000 
 1346000   0.48248135   -1.9827511    0.7229983   -1.2597528   0.12053801    11428.375     1000 
 1348000   0.49797898   -1.9809899    0.7462215   -1.2347684   0.12527245    11519.231     1000 
 1350000   0.47176113   -1.9631711   0.70693406   -1.2562371   0.13879964    11267.433     1000 
 1352000   0.49784827   -1.9471639   0.74602563   -1.2011383   0.12711228     11507.06     1000 
 1354000   0.49979121   -1.9345087   0.74893712   -1.1855716   0.11641619    11404.878     1000 
 1356000   0.51128052    -1.986775   0.76615385   -1.2206212   0.13484458    11364.308     1000 
 1358000   0.50958941   -1.9586033   0.76361974   -1.1949835    0.1394958    11330.061     1000 
 1360000   0.49577907   -1.9598748   0.74292493   -1.2169499   0.12662689    11474.452     1000 
 1362000   0.47804392   -1.9095992   0.71634881   -1.1932504   0.12543246    11363.259     1000 
 1364000   0.49118691    -1.955133   0.73604358   -1.2190894   0.14699043     11275.97     1000 
 1366000   0.46872428   -1.9891742   0.70238334   -1.2867908   0.12795369    11456.245     1000 
 1368000   0.50815583   -1.8681632   0.76147151   -1.1066917   0.12485802    11205.332     1000 
 1370000   0.49931456   -1.9266381   0.74822287   -1.1784153   0.13612722    11375.077     1000 
 1372000   0.52364318    -1.949128    0.7846793   -1.1644487   0.12934928    11377.004     1000 
 1374000   0.48030751   -1.9105342   0.71974081   -1.1907934   0.14141137    11333.391     1000 
 1376000   0.49493317   -1.9252438   0.74165735   -1.1835864   0.13463191    11333.309     1000 
 1378000   0.49242189   -1.9523508   0.73789421   -1.2144566   0.12518639    11503.966     1000 
 1380000   0.47313228   -1.9300259   0.70898872   -1.2210372   0.13097246    11319.539     1000 
 1382000   0.49130873   -1.9246822   0.73622614    -1.188456   0.14628853    11200.659     1000 
 1384000   0.47963888   -1.9325058   0.71873887   -1.2137669   0.12148574    11394.185     1000 
 1386000   0.48928289   -1.9443716   0.73319041   -1.2111812   0.12617092    11327.379     1000 
 1388000   0.48331747   -1.9795272   0.72425123    -1.255276   0.12678501    11461.166     1000 
 1390000   0.48342346   -1.9356907   0.72441006   -1.2112806   0.13208306    11301.033     1000 
 1392000    0.4849447   -1.9468236   0.72668963   -1.2201339   0.14083952    11380.351     1000 
 1394000   0.45779868   -1.9404902   0.68601133   -1.2544788   0.11184697    11514.355     1000 
 1396000   0.49840572   -1.9414502   0.74686098   -1.1945892   0.13110521     11180.13     1000 
 1398000   0.50507534   -1.9692028    0.7568554   -1.2123474   0.12470436    11415.046     1000 
 1400000   0.47479906   -1.9223476   0.71148639   -1.2108612   0.12972912    11331.902     1000 
 1402000   0.51038816   -1.9413087   0.76481665   -1.1764921   0.13963717    11379.345     1000 
 1404000   0.46495792   -1.9924257   0.69673944   -1.2956863   0.12726013    11380.267     1000 
 1406000   0.48196866   -1.9788401   0.72223003   -1.2566101   0.12911382    11378.728     1000 
 1408000   0.47472901    -1.961835   0.71138142   -1.2504535   0.13599406    11338.453     1000 
 1410000   0.49420202   -1.9735013   0.74056173   -1.2329396   0.12109867     11486.72     1000 
 1412000   0.47503649   -1.9529784   0.71184219   -1.2411362   0.13839765    11329.245     1000 
 1414000   0.48892239    -1.946218    0.7326502   -1.2135678   0.13037677    11465.004     1000 
 1416000   0.50610878   -1.9317407   0.75840401   -1.1733367   0.11579606    11595.538     1000 
 1418000   0.48353924   -1.8971503   0.72458356   -1.1725667   0.13624465    11302.876     1000 
 1420000   0.48736293   -1.9285949   0.73031335   -1.1982816   0.13895867    11325.399     1000 
 1422000   0.49569307   -1.9291996   0.74279607   -1.1864035   0.13333855    11266.011     1000 
 1424000   0.49391567    -1.900333   0.74013263   -1.1602004   0.13229497     11360.31     1000 
 1426000   0.48575965   -1.9275416   0.72791084   -1.1996308   0.13675546    11294.445     1000 
 1428000   0.50060095   -1.9593138   0.75015053   -1.2091633   0.13555595    11320.963     1000 
 1430000   0.48536891    -1.984537   0.72732532   -1.2572117   0.13400632    11221.218     1000 
 1432000   0.51168872   -1.9586008   0.76676555   -1.1918352   0.12845168    11350.877     1000 
 1434000   0.48261026   -1.9272793   0.72319148   -1.2040878    0.1236186    11449.598     1000 
 1436000   0.48076425   -1.9126731   0.72042523   -1.1922479   0.13493603    11355.104     1000 
 1438000   0.49249502    -1.970267   0.73800379   -1.2322632   0.12437539    11438.419     1000 
 1440000    0.5057087   -1.9755792   0.75780449   -1.2177747   0.13586563     11383.58     1000 
 1442000   0.49317844   -1.9602084    0.7390279   -1.2211805   0.13666538    11269.643     1000 
 1444000   0.47711067   -1.9943545   0.71495033   -1.2794041   0.12737514    11500.081     1000 
 1446000   0.49610402   -1.9535158   0.74341188   -1.2101039   0.13488789     11296.96     1000 
 1448000   0.47569122   -1.9772891    0.7128233   -1.2644658   0.12714273    11470.321     1000 
 1450000   0.48424244   -1.9371669    0.7256373   -1.2115296    0.1292141    11407.596     1000 
 1452000     0.501023   -1.9609555   0.75078297   -1.2101725   0.12109239    11480.478     1000 
 1454000   0.47819266   -1.9505168    0.7165717   -1.2339451   0.12460994    11443.822     1000 
 1456000   0.50264854   -1.9311222   0.75321884   -1.1779034   0.12181837    11514.336     1000 
 1458000    0.4917859   -1.9169376   0.73694117   -1.1799964    0.1389243    11207.777     1000 
 1460000   0.47230746   -2.0045333   0.70775273   -1.2967805   0.13383066    11485.254     1000 
 1462000   0.51915851   -1.9633594   0.77795903   -1.1854004   0.13027437    11399.339     1000 
 1464000   0.50174487   -1.9352019   0.75186469   -1.1833372   0.14431203    11381.429     1000 
 1466000   0.49438043   -1.9545106   0.74082908   -1.2136815   0.13142568    11339.038     1000 
 1468000   0.50040203   -1.9825044   0.74985245    -1.232652   0.13442515    11411.853     1000 
 1470000   0.49722306   -1.9920647   0.74508876   -1.2469759   0.12419582    11463.568     1000 
 1472000   0.51464512   -1.9403717   0.77119572    -1.169176   0.13635425    11245.075     1000 
 1474000   0.49704318   -1.9373777    0.7448192   -1.1925585    0.1345321    11317.801     1000 
 1476000   0.48565369    -1.927124   0.72775206   -1.1993719   0.13335435    11377.382     1000 
 1478000   0.48202514   -1.9391276   0.72231467    -1.216813   0.13485967    11304.186     1000 
 1480000   0.48071547   -1.9380838   0.72035213   -1.2177317   0.12868529    11402.886     1000 
 1482000   0.48944518   -1.9110472    0.7334336   -1.1776136   0.13321258    11289.199     1000 
 1484000   0.49019201    -1.964169   0.73455273   -1.2296163   0.13931439     11306.66     1000 
 1486000    0.5021502   -1.9248817   0.75247207   -1.1724096   0.12592918    11470.591     1000 
 1488000   0.47121193   -1.9436837   0.70611108   -1.2375726   0.12738236    11512.225     1000 
 1490000   0.49199112   -1.9690191   0.73724869   -1.2317704   0.12242096    11490.052     1000 
 1492000   0.48397255   -2.0248261   0.72523287   -1.2995932   0.13292935    11398.806     1000 
 1494000   0.47264351   -1.9620998   0.70825631   -1.2538435   0.13003911    11440.601     1000 
 1496000   0.48631187   -1.9246879   0.72873833   -1.1959495   0.12289562    11436.807     1000 
 1498000   0.51201132   -1.9608449   0.76724897   -1.1935959   0.14154297    11291.809     1000 
 1500000   0.48978232    -1.992565   0.73393881   -1.2586262   0.12216372    11550.221     1000 
 1502000   0.51433628   -1.9105418   0.77073291   -1.1398089   0.13843458    11350.702     1000 
 1504000   0.48083481   -1.9010409   0.72053096   -1.1805099   0.12720433     11377.75     1000 
 1506000   0.48979152   -1.9676621   0.73395259   -1.2337095   0.12816612    11371.011     1000 
 1508000   0.47572236   -1.9853798   0.71286996   -1.2725098   0.12384932    11548.812     1000 
 1510000   0.47857702   -1.9118516   0.71714767   -1.1947039   0.12784048    11282.934     1000 
 1512000   0.50639124   -1.9779251   0.75882728   -1.2190978   0.12134269    11398.853     1000 
 1514000   0.49743415   -1.9283724   0.74540507   -1.1829673    0.1311697     11424.66     1000 
 1516000   0.51084602   -1.9301048   0.76550277    -1.164602    0.1306664    11508.127     1000 
 1518000   0.48568605   -1.9713588   0.72780055   -1.2435582   0.12530429    11445.163     1000 
 1520000   0.49482114   -1.9833259   0.74148948   -1.2418364   0.12491771    11529.537     1000 
 1522000   0.50571431   -1.9273525    0.7578129   -1.1695396   0.12704781    11405.828     1000 
 1524000   0.48447132   -1.9520921   0.72598027   -1.2261119   0.13013853    11450.953     1000 
 1526000   0.49085112   -1.9821514    0.7355404    -1.246611   0.12775053    11452.157     1000 
 1528000   0.50047219   -1.8948922   0.74995758   -1.1449346   0.13707643    11187.808     1000 
 1530000   0.48686002   -1.9732516   0.72955974   -1.2436919   0.12759209    11331.197     1000 
 1532000   0.48628524   -1.9661586   0.72869843   -1.2374602   0.12257942    11420.505     1000 
 1534000   0.48645885   -1.9661308   0.72895859   -1.2371722   0.14082762    11350.555     1000 
 1536000   0.49052673   -1.9579155    0.7350543   -1.2228612   0.12487688    11441.112     1000 
 1538000   0.47335957   -1.9634436   0.70932932   -1.2541143   0.11724675    11584.512     1000 
 1540000   0.49192891   -1.9463019   0.73715547   -1.2091464   0.13210665    11289.685     1000 
 1542000   0.47720568   -1.9358875    0.7150927   -1.2207948    0.1297951    11367.728     1000 
 1544000   0.48341462   -1.9486775   0.72439681   -1.2242807   0.14355571    11190.004     1000 
 1546000   0.49520741   -1.9635652    0.7420683   -1.2214969   0.12618609    11501.279     1000 
 1548000    0.4955009   -1.9616854    0.7425081   -1.2191774   0.13233859    11272.877     1000 
 1550000    0.4762459   -1.9965732   0.71365447   -1.2829187   0.13177868    11430.246     1000 
 1552000   0.47872794   -1.9334332   0.71737382   -1.2160594    0.1301889    11309.763     1000 
 1554000   0.47259487   -2.0088351   0.70818341   -1.3006517   0.12785829    11445.576     1000 
 1556000   0.48682489   -1.9283953   0.72950709   -1.1988882   0.12460792    11529.454     1000 
 1558000   0.48475589   -1.9490618    0.7264067   -1.2226551   0.13999172    11420.046     1000 
 1560000   0.49054575   -1.9477994   0.73508281   -1.2127166   0.13345594    11356.218     1000 
 1562000   0.47952866   -1.9635465   0.71857369   -1.2449728   0.13139845    11306.537     1000 
 1564000   0.46041401   -1.9940003   0.68993039   -1.3040699   0.11973213    11516.626     1000 
 1566000   0.50871004   -1.9018272     0.762302   -1.1395252   0.13952615    11281.614     1000 
 1568000   0.49743867   -1.9627613   0.74541185   -1.2173494   0.14085053    11394.534     1000 
 1570000   0.48993452   -1.9421876   0.73416688   -1.2080207   0.13380996    11364.169     1000 
 1572000   0.47989715   -1.8977591   0.71912588   -1.1786333   0.13343996    11371.748     1000 
 1574000    0.4797946   -1.9653838   0.71897221   -1.2464116   0.12449752     11593.94     1000 
 1576000   0.48877229   -1.9725137   0.73242527   -1.2400884   0.13650636    11232.474     1000 
 1578000   0.49373413   -2.0075688    0.7398606   -1.2677082   0.13646242    11386.458     1000 
 1580000   0.48318897    -1.986469   0.72405867   -1.2624103     0.128189    11454.173     1000 
 1582000     0.501955   -1.9912897   0.75217957   -1.2391101   0.12619398    11502.637     1000 
 1584000   0.50123527   -1.9317638   0.75110106   -1.1806627   0.13563152     11207.36     1000 
 1586000   0.51680194   -1.9531995   0.77442771   -1.1787718   0.13253158    11430.719     1000 
 1588000   0.48300115   -1.9507146   0.72377723   -1.2269373    0.1316738    11275.679     1000 
[...]
 2614000   0.48064197   -1.9058286     0.720242   -1.1855866   0.13941305    11293.489     1000 
 2616000   0.49642493   -1.9650119   0.74389275   -1.2211191   0.13011472    11460.265     1000 
 2618000    0.4822863   -1.9488913   0.72270601   -1.2261853   0.12820384    11409.257     1000 
 2620000   0.51073254   -1.9729462   0.76533272   -1.2076135   0.13162383      11455.3     1000 
 2622000   0.49834944   -1.9742632   0.74677664   -1.2274865   0.13098434    11371.626     1000 
 2624000   0.49063756   -1.9545356   0.73522039   -1.2193152   0.13121811    11372.449     1000 
 2626000   0.48248378   -1.9845801   0.72300195   -1.2615782   0.13018481    11421.259     1000 
 2628000   0.49163511   -1.9285017   0.73671521   -1.1917865   0.13533542    11322.902     1000 
 2630000   0.48199586   -1.9261643    0.7222708   -1.2038935   0.13154055     11349.66     1000 
 2632000   0.48502275   -1.9571305    0.7268066   -1.2303239   0.13333274    11489.323     1000 
 2634000   0.48493334   -1.9615378    0.7266726   -1.2348652   0.13413627     11361.97     1000 
 2636000   0.48030379   -1.9582026   0.71973523   -1.2384674    0.1316243    11446.177     1000 
 2638000   0.50160353     -1.96853   0.75165289   -1.2168771   0.12371757     11382.11     1000 
 2640000   0.48570007   -1.9373472   0.72782155   -1.2095257   0.11432427    11544.185     1000 
 2642000   0.49150537   -1.8723542   0.73652079   -1.1358334   0.13193966    11515.673     1000 
 2644000   0.49112318   -1.9463954   0.73594808   -1.2104473   0.12354896    11480.441     1000 
 2646000   0.48991031   -1.9518097    0.7341306   -1.2176791   0.13381401    11341.299     1000 
 2648000    0.4911574   -1.9912444   0.73599937   -1.2552451   0.12731038    11363.195     1000 
 2650000    0.5033136   -1.9720077   0.75421544   -1.2177923   0.12634119     11403.23     1000 
 2652000   0.49912305   -1.9067416    0.7479359   -1.1588057   0.12353935    11353.313     1000 
 2654000   0.48683058   -1.9577295   0.72951562   -1.2282139   0.12124524    11470.038     1000 
 2656000   0.48327911   -1.8964648   0.72419375    -1.172271    0.1353009    11223.313     1000 
 2658000   0.49161376   -1.9430964   0.73668322   -1.2064132   0.12414286    11314.269     1000 
 2660000   0.49991942   -1.9564678   0.74912925   -1.2073386   0.12678064    11498.958     1000 
 2662000   0.48192363   -2.0068034   0.72216255   -1.2846408   0.12034021    11517.508     1000 
 2664000   0.48225101   -1.9478635   0.72265314   -1.2252103    0.1328884    11359.596     1000 
 2666000    0.4961588   -1.9423092   0.74349397   -1.1988152   0.13709094    11414.739     1000 
 2668000   0.45906388    -1.973433   0.68790722   -1.2855258   0.13234516    11451.313     1000 
 2670000   0.48927692   -1.9678296   0.73318147   -1.2346482   0.12662718    11445.851     1000 
 2672000   0.48252654   -1.9653771   0.72306602   -1.2423111   0.11771921     11546.83     1000 
 2674000   0.50579298   -1.9252808   0.75793078     -1.16735   0.13067229    11336.733     1000 
 2676000   0.48082019   -1.9163455   0.72050905   -1.1958365   0.12570314    11536.753     1000 
 2678000   0.49807617   -1.8875573   0.74636714   -1.1411902   0.14013309    11292.534     1000 
 2680000    0.4879341   -1.9429051   0.73116924   -1.2117358   0.13108867    11472.546     1000 
 2682000   0.48671197   -1.9722374   0.72933789   -1.2428995   0.12349032    11479.895     1000 
 2684000    0.4848271   -1.9654047   0.72651341   -1.2388913   0.13103652    11440.625     1000 
 2686000   0.48867058   -1.9186052   0.73227287   -1.1863324   0.13346884    11378.119     1000 
 2688000   0.48680067    -1.949299   0.72947081   -1.2198282   0.13846184    11352.232     1000 
 2690000   0.47833241   -1.9558718   0.71678112   -1.2390907   0.13868051    11424.178     1000 
 2692000   0.48062472   -1.9519177   0.72021614   -1.2317016   0.14321832    11202.456     1000 
 2694000   0.48304091    -1.919045   0.72383681   -1.1952082   0.13879904    11208.392     1000 
 2696000   0.47990357    -1.932699   0.71913551   -1.2135635   0.13864847    11311.291     1000 
 2698000   0.47839331   -1.9792086   0.71687237   -1.2623363   0.12544806    11431.595     1000 
 2700000   0.51008521   -1.9820189   0.76436268   -1.2176562   0.11384926    11599.605     1000 
 2702000   0.48990952   -1.8959268   0.73412941   -1.1617974   0.14969204    11303.928     1000 
 2704000   0.50371602   -1.9694733   0.75481846   -1.2146548   0.12387276    11432.986     1000 
 2706000   0.50583642   -1.9311727   0.75799587   -1.1731769   0.13899266     11274.02     1000 
 2708000   0.47416809   -1.9825457   0.71054088   -1.2720049   0.11947724     11499.06     1000 
 2710000   0.48646129   -1.9145577   0.72896224   -1.1855955   0.12892122    11437.841     1000 
 2712000   0.48410746    -1.897327   0.72543503   -1.1718919   0.11661083    11513.721     1000 
 2714000   0.49159984   -1.9804682   0.73666235   -1.2438059   0.12633423    11426.026     1000 
 2716000   0.49472387    -1.897002   0.74134372   -1.1556583   0.14002157     11222.73     1000 
 2718000   0.51188086   -1.9193001   0.76705347   -1.1522467   0.13743328    11454.985     1000 
 2720000   0.48900124   -1.9227724   0.73276836   -1.1900041   0.13102071    11432.808     1000 
 2722000   0.50458387   -1.9451631   0.75611894   -1.1890441   0.13229258    11382.215     1000 
 2724000   0.51554627   -1.8952506   0.77254608   -1.1227046   0.13879189    11362.866     1000 
 2726000   0.49623046   -1.9585185   0.74360135   -1.2149171   0.12797879    11326.031     1000 
 2728000    0.5037173    -1.940763   0.75482037   -1.1859427   0.13468889    11352.902     1000 
 2730000   0.48514223   -1.9421261   0.72698563   -1.2151405   0.13094952    11309.832     1000 
 2732000   0.48840006   -1.9188865   0.73186749    -1.187019   0.12483229    11372.082     1000 
 2734000   0.49192621   -1.9483865   0.73715143   -1.2112351   0.13700517    11274.391     1000 
 2736000   0.48003634   -1.9711519   0.71933446   -1.2518175   0.12451613    11512.844     1000 
 2738000   0.49848185   -1.9702544   0.74697506   -1.2232794   0.12925493    11327.426     1000 
 2740000   0.49874144   -1.9899506   0.74736405   -1.2425866   0.12923948    11572.737     1000 
 2742000   0.48220291   -1.9679521   0.72258105   -1.2453711   0.13480725    11386.035     1000 
 2744000    0.4974861   -1.9725977   0.74548292   -1.2271148   0.12215579    11570.337     1000 
 2746000   0.48895083   -1.9305258   0.73269282    -1.197833    0.1256547    11430.308     1000 
 2748000   0.48175947   -1.9036109   0.72191657   -1.1816944   0.14753476    11082.094     1000 
 2750000   0.47774635   -1.9153088    0.7159029   -1.1994059   0.12701159    11341.705     1000 
 2752000    0.4734044   -1.8700771   0.70939649   -1.1606806   0.13682981    11223.722     1000 
 2754000   0.50268902   -1.9895292   0.75327949   -1.2362497   0.12294558    11612.361     1000 
 2756000    0.4974028   -1.9808214   0.74535809   -1.2354633   0.12692642     11375.49     1000 
 2758000   0.48554398   -1.9089826   0.72758765    -1.181395   0.14310944    11254.322     1000 
 2760000   0.48500947   -1.9708113   0.72678669   -1.2440246   0.12584877    11402.482     1000 
 2762000   0.45879135   -1.9446669   0.68749884    -1.257168    0.1243227    11400.976     1000 
 2764000   0.46557487   -1.9155125   0.69766394   -1.2178486   0.14381993    11171.338     1000 
 2766000   0.49954418   -1.9696264   0.74856695   -1.2210595   0.12447539     11439.28     1000 
 2768000    0.4954529   -1.9466515   0.74243617   -1.2042153   0.13457257    11383.631     1000 
 2770000   0.47674542    -1.990809   0.71440301    -1.276406   0.12736894    11498.862     1000 
 2772000   0.48722213   -2.0038235   0.73010236   -1.2737211   0.13671061    11379.523     1000 
 2774000   0.49158474   -2.0050029   0.73663973   -1.2683632   0.13489916    11468.879     1000 
 2776000   0.49702811   -1.9593915   0.74479662   -1.2145949   0.12995617    11348.829     1000 
 2778000    0.4900878   -1.9710777   0.73439657   -1.2366811   0.12998302     11455.49     1000 
 2780000   0.52394838   -1.9355908   0.78513665   -1.1504541   0.13522493    11337.917     1000 
 2782000   0.48990538    -1.975079   0.73412322   -1.2409558   0.11361205     11644.32     1000 
 2784000   0.48271471   -1.9214141   0.72334799   -1.1980662   0.14110318    11338.685     1000 
 2786000   0.50108572   -1.9093426   0.75087695   -1.1584657   0.13684478    11433.373     1000 
 2788000   0.48343375   -1.9843709   0.72442548   -1.2599454   0.12614108    11429.772     1000 
 2790000   0.48453815   -1.9567304   0.72608042     -1.23065    0.1169605    11569.039     1000 
 2792000   0.46832837    -1.948703   0.70179006    -1.246913   0.12674504    11377.172     1000 
 2794000   0.48950028   -1.9805382   0.73351617    -1.247022   0.13404191     11349.78     1000 
 2796000   0.50306354   -1.9401553   0.75384072   -1.1863146     0.128975    11345.442     1000 
 2798000   0.49203144    -1.915433   0.73730911   -1.1781238   0.12121891    11460.102     1000 
 2800000   0.49133889   -1.9627045   0.73627132   -1.2264331    0.1304808    11366.159     1000 
 2802000   0.50628481   -1.8941394   0.75866778   -1.1354716   0.13829711    11250.589     1000 
 2804000     0.497722   -1.9739246   0.74583642   -1.2280882   0.13330481    11408.986     1000 
 2806000   0.50193811   -1.8925874   0.75215426   -1.1404331   0.14307445    11255.916     1000 
 2808000      0.50487    -1.911435   0.75654769   -1.1548873   0.13152188    11447.073     1000 
 2810000   0.47246819   -1.9778023   0.70799358   -1.2698087   0.12660072    11406.984     1000 
 2812000   0.49548961   -1.9791054   0.74249118   -1.2366143   0.13098336     11406.31     1000 
 2814000   0.48379593   -1.9670146    0.7249682   -1.2420464   0.11933925    11360.398     1000 
 2816000   0.49040706   -1.9668265   0.73487497   -1.2319515   0.12019226     11499.62     1000 
 2818000   0.49071697   -1.9526798   0.73533937   -1.2173404   0.14042528    11311.574     1000 
 2820000   0.49446915   -1.9603565   0.74096202   -1.2193944   0.11840711    11544.886     1000 
 2822000   0.50016583   -1.9219322   0.74949849   -1.1724337   0.12544319    11455.431     1000 
 2824000   0.48545595   -1.9602321   0.72745574   -1.2327763   0.12354762     11514.12     1000 
 2826000     0.507555   -1.9678937   0.76057116   -1.2073225   0.12950919    11523.042     1000 
 2828000   0.46908012   -1.9639878   0.70291656   -1.2610713   0.13232857    11352.174     1000 
 2830000   0.47794593   -1.9735441   0.71620197   -1.2573422    0.1134634    11633.112     1000 
 2832000   0.47816193    -1.924529   0.71652565   -1.2080034   0.13313706    11213.453     1000 
 2834000   0.50695926   -1.9623896   0.75967845   -1.2027111   0.12558684    11322.144     1000 
 2836000    0.4833011   -1.9878568   0.72422669   -1.2636301   0.13630797    11349.328     1000 
 2838000   0.48827408   -1.9668277   0.73167871    -1.235149   0.14440654    11249.996     1000 
 2840000    0.5017938   -1.9761093     0.751938   -1.2241713   0.11876926    11605.735     1000 
 2842000   0.49265599   -1.9066541     0.738245   -1.1684091   0.13348448    11337.367     1000 
 2844000   0.51190124   -1.9723788     0.767084   -1.2052948   0.12667923    11521.076     1000 
 2846000   0.49627513   -1.9854821   0.74366829   -1.2418138   0.12839915    11477.834     1000 
 2848000   0.49485701    -1.945851   0.74154323   -1.2043078   0.12205787    11428.547     1000 
 2850000   0.51365303   -1.9573207   0.76970907   -1.1876117   0.12646273    11491.619     1000 
 2852000   0.50142205   -1.9627983   0.75138094   -1.2114174   0.12962933    11348.627     1000 
 2854000   0.48594787   -1.9284243   0.72819288   -1.2002314   0.13015245    11302.354     1000 
 2856000   0.47247053   -1.9826514    0.7079971   -1.2746543   0.12607318    11397.136     1000 
 2858000   0.48146772   -1.9263089   0.72147938   -1.2048295   0.14032346    11269.881     1000 
 2860000   0.48477299   -1.9603594   0.72643233   -1.2339271   0.13658332     11425.33     1000 
 2862000   0.50420137    -1.979602   0.75554576   -1.2240563   0.12303269    11444.622     1000 
 2864000   0.49349111   -1.9299048   0.73949643   -1.1904084   0.11916015    11523.377     1000 
 2866000   0.47713204   -1.9604963   0.71498236   -1.2455139   0.12119424    11413.539     1000 
 2868000   0.47476451   -1.9630241   0.71143462   -1.2515894   0.13545335    11292.151     1000 
 2870000   0.49649052   -1.9024827   0.74399104   -1.1584917    0.1458658    11246.606     1000 
 2872000    0.4691405   -1.9284656   0.70300704   -1.2254586   0.12959465    11380.861     1000 
 2874000    0.4815777   -1.9630371   0.72164419   -1.2413929   0.12729272    11533.956     1000 
 2876000    0.4767929   -1.9469784   0.71447417   -1.2325043   0.11913445    11541.738     1000 
 2878000   0.47695875   -1.9172108   0.71472269   -1.2024881   0.12909091    11375.745     1000 
 2880000   0.48760886   -1.9806977   0.73068188   -1.2500158   0.11644009    11554.107     1000 
 2882000   0.48754299   -1.9565082   0.73058318    -1.225925   0.11698824    11532.501     1000 
 2884000   0.49911823   -1.9242871   0.74792866   -1.1763584   0.12904058    11482.253     1000 
 2886000   0.50467742   -1.9275381   0.75625912    -1.171279   0.12979634    11397.887     1000 
 2888000   0.49794345   -1.9193752   0.74616825   -1.1732069   0.14915775    11145.201     1000 
 2890000   0.49780664   -1.9051613   0.74596325   -1.1591981   0.11289961    11533.285     1000 
 2892000    0.4671277   -1.9527109   0.69999087     -1.25272   0.12045609    11460.698     1000 
 2894000   0.50618259   -1.9379224   0.75851461   -1.1794078   0.13334516    11244.617     1000 
 2896000   0.48587963   -1.8972208   0.72809063   -1.1691302   0.13833836    11253.921     1000 
 2898000   0.49730279   -1.9657981   0.74520823   -1.2205899    0.1402219    11206.517     1000 
 2900000   0.50178671    -1.959741   0.75192739   -1.2078136     0.132934    11343.473     1000 
 2902000   0.47271759   -1.9607253   0.70836731    -1.252358   0.13623344    11369.269     1000 
 2904000   0.47461123   -1.9864355   0.71120492   -1.2752306   0.13262332     11348.82     1000 
 2906000   0.46245853   -1.9646354    0.6929941   -1.2716413   0.13262095    11429.953     1000 
 2908000   0.49631003   -1.9470977   0.74372058   -1.2033772   0.12967027    11229.792     1000 
 2910000   0.50995164   -2.0271239   0.76416254   -1.2629613   0.12459191    11534.782     1000 
 2912000    0.5168081   -1.9070556   0.77443693   -1.1326187   0.13755059    11344.213     1000 
 2914000   0.48624107   -1.9420124   0.72863225   -1.2133801   0.13517103    11374.644     1000 
 2916000   0.48555972   -1.9493346   0.72761123   -1.2217234   0.13330342    11227.918     1000 
 2918000   0.49751909   -1.9440011   0.74553235   -1.1984688   0.11929732    11541.833     1000 
 2920000   0.48631758   -2.0016111   0.72874689   -1.2728642   0.12289807    11523.392     1000 
 2922000    0.5158338   -1.9740161   0.77297695   -1.2010391    0.1322985    11346.859     1000 
 2924000   0.47236597   -1.9769201   0.70784041   -1.2690797   0.12114114    11508.372     1000 
 2926000   0.48030805   -1.9466505   0.71974161   -1.2269089   0.11979426    11484.616     1000 
 2928000   0.50535337    -1.953257   0.75727202   -1.1959849   0.11073497    11565.668     1000 
 2930000   0.48646971   -1.9664372   0.72897486   -1.2374623   0.12572371    11447.957     1000 
 2932000   0.50172525   -1.9595662   0.75183528   -1.2077309   0.11407981    11608.962     1000 
 2934000   0.49360119   -1.9618832   0.73966139   -1.2222218   0.14109719     11274.82     1000 
 2936000   0.50050773    -1.918005   0.75001083   -1.1679942   0.13434949    11277.146     1000 
 2938000   0.50316584   -1.9152878   0.75399401   -1.1612938   0.12595951    11303.475     1000 
 2940000   0.48197275   -1.9535032   0.72223617    -1.231267   0.12271142    11520.663     1000 
 2942000   0.49668776   -1.9957327   0.74428661    -1.251446   0.12253899    11523.271     1000 
 2944000   0.48928779   -1.9778047   0.73319775    -1.244607   0.14306185    11284.015     1000 
 2946000   0.46997827   -1.9674621   0.70426244   -1.2631997   0.12773599    11351.806     1000 
 2948000   0.49169674   -1.9361103   0.73680756   -1.1993027   0.14822165     11251.64     1000 
 2950000   0.48341386   -1.9687133   0.72439567   -1.2443176   0.13553796    11244.267     1000 
 2952000   0.48733914   -1.9320881    0.7302777   -1.2018104   0.13081573    11418.284     1000 
 2954000   0.48703631   -1.9390148    0.7298239   -1.2091909   0.13715822     11294.91     1000 
 2956000   0.47991025   -1.9845747    0.7191455   -1.2654292   0.11963578    11381.166     1000 
 2958000   0.49658528   -1.9842461   0.74413304   -1.2401131   0.13319965    11421.167     1000 
 2960000   0.50559371   -1.9740723   0.75763217   -1.2164402     0.119672    11467.748     1000 
 2962000   0.48467747   -2.0018533   0.72628919   -1.2755641   0.13545043    11489.275     1000 
 2964000   0.48522641   -1.9730053   0.72711178   -1.2458935   0.12258154    11444.045     1000 
 2966000   0.49573658   -1.9555572   0.74286127    -1.212696   0.12917497    11337.949     1000 
 2968000   0.47010415   -1.9743016   0.70445107   -1.2698506   0.12988434    11513.726     1000 
 2970000   0.49948658   -1.9388646   0.74848065   -1.1903839   0.13246338    11291.373     1000 
 2972000     0.491691   -1.9046833   0.73679897   -1.1678843   0.14186554    11334.515     1000 
 2974000    0.4899944   -1.9934503   0.73425661   -1.2591937   0.13227689    11505.652     1000 
 2976000   0.49076026   -1.9210746   0.73540425   -1.1856704   0.12125909    11493.309     1000 
 2978000   0.47707492   -1.9376358   0.71489677    -1.222739    0.1349816    11402.928     1000 
 2980000    0.4995495   -1.9296272   0.74857492   -1.1810522   0.12659084     11315.99     1000 
 2982000   0.49338495   -1.9331172   0.73933735   -1.1937799    0.1389739    11271.909     1000 
 2984000   0.50721072   -1.9482991   0.76005526   -1.1882438   0.13173085    11218.278     1000 
 2986000   0.50095893   -1.9183331   0.75068696   -1.1676461   0.13100021    11484.297     1000 
 2988000   0.49294059   -1.9866938   0.73867147   -1.2480223   0.12286879     11573.64     1000 
 2990000   0.47491852   -1.9738827    0.7116654   -1.2622173    0.1356645    11397.536     1000 
 2992000   0.50988485   -1.9643989   0.76406245   -1.2003365   0.12534224    11476.798     1000 
 2994000   0.48885193   -1.9296373   0.73254462   -1.1970927   0.12445473    11479.123     1000 
 2996000   0.49128462   -1.9750822      0.73619   -1.2388922    0.1238638    11306.992     1000 
 2998000   0.49198356   -1.9675865   0.73723737   -1.2303492   0.14023958    11311.669     1000 
 3000000   0.47793124   -1.9490523   0.71617996   -1.2328723   0.12892193    11313.967     1000 
Loop time of 9616.81 on 1 procs for 3000000 steps with 1000 atoms

Performance: 134764.075 tau/day, 311.954 timesteps/s
100.0% CPU use with 1 MPI tasks x 1 OpenMP threads

MPI task timing breakdown:
Section |  min time  |  avg time  |  max time  |%varavg| %total
---------------------------------------------------------------
Pair    | 8668.6     | 8668.6     | 8668.6     |   0.0 | 90.14
Neigh   | 627.81     | 627.81     | 627.81     |   0.0 |  6.53
Comm    | 111.15     | 111.15     | 111.15     |   0.0 |  1.16
Output  | 0.044535   | 0.044535   | 0.044535   |   0.0 |  0.00
Modify  | 188.06     | 188.06     | 188.06     |   0.0 |  1.96
Other   |            | 21.14      |            |       |  0.22

Nlocal:        1000.00 ave        1000 max        1000 min
Histogram: 1 0 0 0 0 0 0 0 0 0
Nghost:        4270.00 ave        4270 max        4270 min
Histogram: 1 0 0 0 0 0 0 0 0 0
Neighs:        104935.0 ave      104935 max      104935 min
Histogram: 1 0 0 0 0 0 0 0 0 0

Total # of neighbors = 104935
Ave neighs/atom = 104.93500
Neighbor list builds = 150000
Dangerous builds not checked

Total wall time: 2:40:16
