LAMMPS (29 Sep 2021 - Update 2)
OMP_NUM_THREADS environment is not set. Defaulting to 1 thread. (src/comm.cpp:98)
  using 1 OpenMP thread(s) per MPI task
# ----------------------- Inicialização -----------------------

units			lj
atom_style 		atomic
dimension 		3
boundary 		p p p

# -------------------- Criação dos Átomos ---------------------

read_data 		topologia.txt
Reading data file ...
  orthogonal box = (0.0000000 0.0000000 0.0000000) to (21.540000 21.540000 21.540000)
  1 by 1 by 1 MPI processor grid
  reading atoms ...
  1000 atoms
  read_data CPU = 0.003 seconds

velocity 		all create ${temp} 87287 rot yes dist gaussian
velocity 		all create 0.85 87287 rot yes dist gaussian

# ------------------ Interação Interatômica -------------------

pair_style		table linear 1600
pair_coeff		1 1 force.table AA 8.0
WARNING: 3 of 1600 force values in table AA are inconsistent with -dE/dr.
WARNING:  Should only be flagged at inflection points (src/pair_table.cpp:465)
pair_coeff		1 2 force.table AB 8.0
WARNING: 1 of 1600 force values in table AB are inconsistent with -dE/dr.
WARNING:  Should only be flagged at inflection points (src/pair_table.cpp:465)
pair_coeff		2 2 force.table BB 8.0
pair_write		1 1 1600 r 0.008 8.0 table.check AA
Appending to table file table.check with DATE: 2023-07-05
Neighbor list info ...
  update every 1 steps, delay 10 steps, check yes
  max neighbors/atom: 2000, page size: 100000
  master list distance cutoff = 8.3
  ghost atom cutoff = 8.3
  binsize = 4.15, bins = 6 6 6
  1 neighbor lists, perpetual/occasional/extra = 1 0 0
  (1) pair table, perpetual
      attributes: half, newton on
      pair build: half/bin/atomonly/newton
      stencil: half/bin/3d
      bin: standard
pair_write		1 2 1600 r 0.008 8.0 table.check AB
Appending to table file table.check with DATE: 2023-07-05
pair_write		2 2 1600 r 0.008 8.0 table.check BB
Appending to table file table.check with DATE: 2023-07-05

neighbor 		0.3 bin
neigh_modify		every 20 delay 0 check no

# ------------------------- Ensemble --------------------------------------

fix 1			all npt temp ${temp} ${temp} 0.5 iso ${press} ${press} 5
fix 1			all npt temp 0.85 ${temp} 0.5 iso ${press} ${press} 5
fix 1			all npt temp 0.85 0.85 0.5 iso ${press} ${press} 5
fix 1			all npt temp 0.85 0.85 0.5 iso 0.13 ${press} 5
fix 1			all npt temp 0.85 0.85 0.5 iso 0.13 0.13 5

# ---------------------- Função de Distribuição Radial -----------------------

#compute RDF 		all rdf 2000 1 1 1 2 2 2
#fix 2 			all ave/time 1 2000 2000 c_RDF[*] file rdf.data mode vector

# ------------------------- Execução ---------------------------

timestep 		0.005
thermo_style		custom step temp pe ke etotal press vol atoms
thermo			2000
run			3000000
Per MPI rank memory allocation (min/avg/max) = 3.125 | 3.125 | 3.125 Mbytes
Step Temp PotEng KinEng TotEng Press Volume Atoms 
       0         0.85  -0.99524352     1.273725   0.27848148   0.15313967    9993.9483     1000 
    2000   0.84654497   -1.2352212    1.2685476  0.033326398   0.13480351    12129.851     1000 
    4000   0.87053245    -1.255473    1.3044929  0.049019921   0.14060197    12072.719     1000 
    6000   0.84359947   -1.2494876    1.2641338  0.014646249    0.1211704    12145.054     1000 
    8000   0.79816002   -1.2624411    1.1960428 -0.066398309   0.13538374    11951.765     1000 
   10000   0.83315147   -1.1906156    1.2484775  0.057861889   0.12203175    12398.924     1000 
   12000   0.84709102   -1.2073743    1.2693659  0.061991605   0.12784533    12289.327     1000 
   14000   0.85229036   -1.2575985    1.2771571   0.01955864   0.11808114    12360.366     1000 
   16000   0.87864397   -1.2411495     1.316648  0.075498519   0.14362343    11803.751     1000 
   18000   0.85073297   -1.2773206    1.2748234 -0.0024972148   0.13326705    12047.299     1000 
   20000   0.82692155   -1.2173037    1.2391419   0.02183819   0.12840356    12360.167     1000 
   22000   0.84742734   -1.2221045    1.2698699  0.047765416   0.12890774    12350.944     1000 
   24000   0.90553608    -1.192708    1.3569458   0.16423781   0.14223588    12099.454     1000 
   26000   0.83103405   -1.2307951    1.2453045  0.014509441   0.11666002    12423.391     1000 
   28000   0.84226527   -1.2333232    1.2621345  0.028811314   0.13596551    12044.297     1000 
   30000   0.84838084   -1.2249124    1.2712987  0.046386254   0.12334228      12183.4     1000 
   32000   0.86039167   -1.2515467    1.2892969  0.037750227   0.12837451    12304.066     1000 
   34000   0.87234209   -1.1938457    1.3072046   0.11335888   0.13490616    12339.348     1000 
   36000   0.86643992   -1.2856022    1.2983602   0.01275805   0.12802056    12312.346     1000 
   38000    0.8238906   -1.2650711    1.2346001 -0.030471084   0.11503472    12371.159     1000 
   40000   0.84245084   -1.1895718    1.2624126  0.072840742    0.1364123    12093.889     1000 
   42000   0.83426359   -1.2405193     1.250144 0.0096246723   0.12185498    12260.055     1000 
   44000   0.82637659   -1.2961747    1.2383253 -0.057849373   0.12242448    12357.053     1000 
   46000   0.80510459   -1.3069101    1.2064492  -0.10046084   0.12440281    12045.316     1000 
   48000   0.85317224   -1.2528261    1.2784786  0.025652498   0.14836692    11738.231     1000 
   50000   0.84815582   -1.2425701    1.2709615  0.028391443   0.12791482    12051.011     1000 
   52000   0.84276202   -1.2244028    1.2628789  0.038476116   0.13113004    12283.202     1000 
   54000   0.84988405    -1.217454    1.2735512  0.056097235   0.12745231    12256.834     1000 
   56000   0.82582413   -1.3041707    1.2374975 -0.066673264   0.14051126    12153.335     1000 
   58000   0.84186389   -1.2279678     1.261533  0.033565185   0.13195748    11916.226     1000 
   60000   0.85036275   -1.2575689    1.2742686  0.016699677   0.13864853    12143.653     1000 
   62000   0.83614074   -1.2449474    1.2529569 0.0080094875   0.13451323    12208.267     1000 
   64000   0.85057832    -1.231707    1.2745916  0.042884601   0.11020465    12495.084     1000 
   66000   0.87649769   -1.2126499    1.3134318   0.10078188   0.13247873     12358.06     1000 
   68000   0.84810457   -1.2744791    1.2708847 -0.0035943829   0.13061495    12190.261     1000 
   70000   0.87716489   -1.1548018    1.3144316   0.15962977   0.12509038    12387.208     1000 
   72000   0.85070506   -1.2261517    1.2747815    0.0486298   0.12881683    12165.392     1000 
   74000   0.87889141   -1.1840576    1.3170188   0.13296122   0.14319765    11853.048     1000 
   76000   0.88917103   -1.2295644    1.3324228   0.10285842   0.12268154    12199.091     1000 
   78000    0.8433896   -1.2145291    1.2638193  0.049290187   0.12502749    12442.089     1000 
   80000    0.8229321   -1.2860698    1.2331638 -0.052906086   0.13178583    12096.172     1000 
   82000   0.85540086   -1.2190221    1.2818182  0.062796091   0.13323861    12011.595     1000 
   84000   0.86333096    -1.211329    1.2937015  0.082372429   0.12925994    12196.304     1000 
   86000   0.86781428   -1.1983301    1.3004197    0.1020896   0.12730712     12225.84     1000 
   88000   0.84354105   -1.2154917    1.2640463  0.048554575   0.12725207    12294.855     1000 
   90000   0.85524913   -1.2101801    1.2815908  0.071410756     0.136502     11963.38     1000 
   92000    0.8519439   -1.1976851    1.2766379  0.078952884   0.12259111    12239.108     1000 
   94000   0.81747943   -1.2550034    1.2249929 -0.030010477   0.12390824    12099.284     1000 
   96000   0.82620316   -1.2650605    1.2380654 -0.026995074   0.11167485     12281.02     1000 
   98000   0.85583012   -1.2295952    1.2824614   0.05286629   0.12769246    12182.905     1000 
  100000   0.86354647   -1.2348635    1.2940244  0.059160871   0.12245224    12392.299     1000 
  102000   0.85814589   -1.2465756    1.2859316  0.039355976   0.12844313    12260.964     1000 
  104000   0.80571138   -1.2467612    1.2073585 -0.039402679   0.13023693    12037.385     1000 
  106000   0.82506962   -1.1914401    1.2363668  0.044926714   0.12659575    12049.795     1000 
  108000   0.85889053   -1.2411925    1.2870475  0.045854943   0.12755518    12023.075     1000 
  110000   0.85995686   -1.2495096    1.2886453  0.039135755   0.12685166     12156.18     1000 
  112000   0.86623879   -1.2278775    1.2980588  0.070181351    0.1172361    12329.014     1000 
  114000   0.82338787   -1.2376067    1.2338467 -0.0037599229   0.13673001    11885.862     1000 
  116000   0.86920307    -1.245442    1.3025008  0.057058761     0.129854    11994.068     1000 
  118000   0.84821145   -1.2322383    1.2710449  0.038806549   0.13542761    12109.456     1000 
  120000   0.82865933   -1.1901818     1.241746  0.051564191   0.12823889    12120.035     1000 
  122000   0.84274416   -1.2443712    1.2628521  0.018480909   0.13206685     12067.54     1000 
  124000    0.8596271   -1.2358051    1.2881512  0.052346093   0.13055395     11950.88     1000 
  126000   0.82698137   -1.2578753    1.2392316 -0.018643759   0.12514457    12088.952     1000 
  128000   0.85432767   -1.2186382      1.28021  0.061571811   0.14006367    11964.064     1000 
  130000   0.85703074   -1.2330679    1.2842606  0.051192654   0.13391558    11955.958     1000 
  132000   0.87251482   -1.2942773    1.3074635  0.013186128    0.1364961    12127.775     1000 
  134000   0.85772319   -1.2350881    1.2852982  0.050210144   0.13362048    12045.213     1000 
  136000   0.83836768    -1.205814     1.256294  0.050479942   0.14160903    11876.813     1000 
  138000    0.8477547   -1.2243707    1.2703604  0.045989748     0.125101    12162.581     1000 
  140000   0.80635219   -1.2205712    1.2083188 -0.012252404   0.10210352    12524.603     1000 
  142000   0.84466308   -1.2503349    1.2657276  0.015392762   0.13198932    12136.641     1000 
  144000   0.84764502   -1.2529815    1.2701961  0.017214584   0.12033188    12533.099     1000 
  146000   0.86505918    -1.188174    1.2962912   0.10811716   0.12155578    12417.058     1000 
  148000   0.89786746   -1.2538598    1.3454544  0.091594593   0.13590321    12069.679     1000 
  150000   0.88418348   -1.2269888    1.3249489  0.097960152   0.13034992    12212.546     1000 
  152000   0.84941976    -1.205654    1.2728555  0.067201529   0.13732731    12064.432     1000 
  154000   0.83824896   -1.1663502    1.2561161  0.089765824   0.13545613    12012.571     1000 
  156000   0.88058461   -1.2342702     1.319556  0.085285794   0.13989892    12043.542     1000 
  158000   0.86972322   -1.2663387    1.3032802  0.036941503   0.13239495    12147.303     1000 
  160000   0.85332649   -1.2343184    1.2787097  0.044391304   0.12035385     12207.09     1000 
  162000   0.84226774   -1.1768082    1.2621382  0.085330044   0.11857152    12332.267     1000 
  164000   0.88266957    -1.253576    1.3226804  0.069104368    0.1253862    12432.813     1000 
  166000   0.82593755   -1.2324775    1.2376674 0.0051899383   0.12768361    12328.476     1000 
  168000   0.81993997   -1.2635973      1.22868 -0.034917233    0.1288768     12252.91     1000 
  170000   0.86560867   -1.2568032    1.2971146  0.040311368   0.12931895      12128.8     1000 
  172000   0.85162789   -1.2710098    1.2761644 0.0051546331   0.12643744     12170.26     1000 
  174000   0.85059683   -1.2256853    1.2746193  0.048934023   0.12674893    12193.883     1000 
  176000    0.8851441   -1.2718302    1.3263884  0.054558203   0.13098925    11961.153     1000 
  178000   0.86483333   -1.2647843    1.2959527  0.031168425   0.11662856    12515.107     1000 
  180000   0.84367159    -1.212113    1.2642419   0.05212883   0.12365061    12019.246     1000 
  182000   0.86771574   -1.2510698     1.300272  0.049202224   0.12032558    12283.706     1000 
  184000   0.89519717   -1.2049178     1.341453   0.13653515   0.15031404    12072.898     1000 
  186000   0.85954791   -1.2265643    1.2880325  0.061468291   0.11316603    12377.081     1000 
  188000   0.87504155   -1.2498665    1.3112498  0.061383226   0.12763558    12184.189     1000 
  190000   0.86411933   -1.2111185    1.2948828  0.083764312    0.1231879    12292.252     1000 
  192000   0.83687164   -1.2590883    1.2540522 -0.0050361076   0.13092669    11899.286     1000 
  194000   0.84089648   -1.2713231    1.2600834 -0.011239739   0.14091286    11839.799     1000 
  196000   0.82796894    -1.214439    1.2407114  0.026272415   0.13467885    12028.196     1000 
  198000   0.91624905   -1.2515329    1.3729992   0.12146626   0.14564104    12075.798     1000 
  200000   0.84713895   -1.2577278    1.2694377  0.011709928   0.12175462    12004.299     1000 
  202000   0.87840227   -1.2313895    1.3162858  0.084896307    0.1355628    12272.534     1000 
  204000   0.84191872    -1.221337    1.2616152  0.040278223   0.12131741    12416.034     1000 
  206000   0.85084375   -1.1796387    1.2749894  0.095350701   0.13817194    11969.317     1000 
  208000   0.83188172   -1.2094479    1.2465748   0.03712689   0.13518106    12013.434     1000 
  210000    0.8247392   -1.2224346    1.2358717  0.013437123   0.12783049    12322.724     1000 
  212000   0.84824294   -1.3104867     1.271092 -0.039394659   0.12191418    12396.823     1000 
  214000   0.86938019   -1.2275752    1.3027662  0.075190969   0.12056794    12214.357     1000 
  216000   0.83441023   -1.1893178    1.2503637   0.06104597     0.133098    11896.733     1000 
  218000    0.8869677   -1.1869454    1.3291211   0.14217567   0.13609399     12006.27     1000 
  220000   0.87976582   -1.2145006    1.3183291    0.1038285    0.1426478    11608.649     1000 
  222000   0.85814706   -1.2218733    1.2859334  0.064060088   0.13422952    12286.818     1000 
  224000   0.85165064   -1.2197679    1.2761985  0.056430556   0.12038794    12464.678     1000 
  226000   0.83796646   -1.2274007    1.2556927  0.028292055   0.12784307    12128.361     1000 
  228000   0.83380727   -1.1865819    1.2494602  0.062878252   0.13099804    12133.366     1000 
  230000   0.83692034    -1.192151    1.2541251  0.061974122   0.14140565    12065.829     1000 
  232000   0.85479272   -1.2294218    1.2809069  0.051485137   0.12136403    12447.533     1000 
  234000   0.83779453   -1.2791176    1.2554351 -0.023682507   0.13102798    12122.572     1000 
  236000   0.85611626   -1.2194634    1.2828902  0.063426805   0.12881854    11939.262     1000 
  238000   0.86050002   -1.2327552    1.2894593  0.056704037   0.13873916    11998.016     1000 
  240000   0.84330787   -1.2062612    1.2636968    0.0574356   0.13520951    12001.753     1000 
  242000   0.84738281   -1.2309085    1.2698031  0.038894668   0.12751906     12209.64     1000 
  244000   0.85757686   -1.2711613    1.2850789  0.013917664   0.13821315    11953.996     1000 
  246000   0.82879638   -1.1624765    1.2419514   0.07947484   0.12759152    12025.062     1000 
  248000   0.83868185   -1.2288323    1.2567647  0.027932401    0.1303999    12192.954     1000 
  250000   0.86007088   -1.2506259    1.2888162  0.038190283   0.14021539    11933.576     1000 
  252000   0.87912517   -1.2847208    1.3173691  0.032648305   0.12408155    12231.857     1000 
  254000   0.82864041   -1.2787888    1.2417177 -0.037071101   0.12613203    12144.725     1000 
  256000   0.82238185   -1.2240312    1.2323392 0.0083080057   0.13354356    12174.678     1000 
  258000    0.8636964    -1.241558    1.2942491  0.052691031   0.14524849     11899.51     1000 
  260000   0.80732324   -1.2186685    1.2097739 -0.0088946484   0.12633688    12293.243     1000 
  262000   0.91840134   -1.2521635    1.3762244   0.12406087    0.1450736     12212.44     1000 
  264000   0.85833285   -1.2563419    1.2862118  0.029869859   0.12363312    12160.395     1000 
  266000   0.85189107   -1.2086497    1.2765588  0.067909034   0.14139222     11849.86     1000 
  268000   0.82486054   -1.1737601    1.2360535  0.062293462    0.1266474    12303.923     1000 
  270000   0.82925314   -1.2371675    1.2426358 0.0054682998   0.13152598    12097.007     1000 
  272000   0.85073129   -1.2282907    1.2748208  0.046530175   0.13803821    11974.683     1000 
  274000   0.82402952   -1.2392121    1.2348082 -0.004403847   0.12629774    12457.405     1000 
  276000   0.85258163   -1.2753094    1.2775936 0.0022841289   0.13561141     12217.35     1000 
  278000   0.85954922   -1.2066908    1.2880345  0.081343737   0.13618116    11866.449     1000 
  280000   0.81600586    -1.213886    1.2227848  0.008898782   0.12653646    12123.829     1000 
  282000   0.88171857   -1.2620131    1.3212553  0.059242198    0.1476783    11655.095     1000 
  284000   0.82360903   -1.2282233    1.2341781 0.0059548567   0.13565526    12058.154     1000 
  286000    0.8597041   -1.2383297    1.2882666  0.049936878   0.11521522    12414.322     1000 
  288000   0.87626691   -1.2468657     1.313086  0.066220274   0.13107869     12134.35     1000 
  290000   0.88434791   -1.2825598    1.3251953  0.042635583   0.12686735    12248.937     1000 
  292000   0.85945547   -1.2437393     1.287894  0.044154705   0.12568366    12416.761     1000 
  294000   0.79679553   -1.1466545    1.1939981  0.047343591   0.13183575    12182.651     1000 
  296000   0.86509481   -1.2531028    1.2963446   0.04324179   0.13207128    12215.468     1000 
  298000   0.84973395   -1.2898189    1.2733263 -0.016492558    0.1420412    11897.704     1000 
  300000   0.84608241   -1.3008526    1.2678545 -0.032998095   0.13205241    12175.338     1000 
  302000   0.85805747   -1.2494235    1.2857991  0.036375582   0.13712262    11942.977     1000 
  304000   0.82248844   -1.1901155    1.2324989  0.042383468   0.12037755    12389.289     1000 
  306000   0.84635533   -1.2369777    1.2682635  0.031285725   0.12826551    12286.026     1000 
  308000   0.85860567   -1.2243601    1.2866206  0.062260518   0.12733945    12130.959     1000 
  310000   0.85649272   -1.2229563    1.2834543  0.060498071   0.13775889    11943.419     1000 
  312000   0.87218846   -1.2366719    1.3069744  0.070302455   0.13373396    11907.274     1000 
  314000   0.85556095   -1.3204613    1.2820581 -0.038403251   0.13045011    11937.337     1000 
  316000   0.85354095   -1.2006829    1.2790311  0.078348215   0.12636938    12198.062     1000 
  318000    0.8502154   -1.2839302    1.2740478 -0.0098823829   0.13137916    12450.449     1000 
  320000   0.92101163   -1.2584925    1.3801359   0.12164343   0.13828046    12014.343     1000 
  322000   0.82690936   -1.1810828    1.2391237  0.058040857   0.12998274    12040.576     1000 
  324000   0.84569051    -1.167738    1.2672672  0.099529185   0.14035466    11841.948     1000 
  326000   0.83068474   -1.2748479    1.2447811 -0.030066811   0.12549104    11967.173     1000 
  328000   0.88804088   -1.2201425    1.3307293   0.11058674   0.13105255    12291.151     1000 
  330000   0.85592213   -1.2381879    1.2825993  0.044411373   0.12573876    12097.529     1000 
  332000   0.84755865   -1.2338698    1.2700666  0.036196814   0.13470795    12154.819     1000 
  334000   0.84986557   -1.2589977    1.2735235  0.014525864   0.12406076    12301.955     1000 
  336000    0.8764499   -1.1466705    1.3133602   0.16668968   0.14394653    11833.711     1000 
  338000   0.91133125    -1.252293    1.3656299   0.11333692   0.13241142    12071.083     1000 
  340000    0.8164856     -1.18066    1.2235037  0.042843706   0.12405144    12302.909     1000 
  342000   0.85377825   -1.2386266    1.2793867  0.040760067   0.13097654    12235.408     1000 
  344000   0.83979386   -1.2887159    1.2584311 -0.030284809   0.12420515    12049.153     1000 
  346000   0.82320761   -1.2656426    1.2335766 -0.032066041   0.13467906    11969.626     1000 
  348000   0.88646494   -1.2667059    1.3283677  0.061661858   0.13213529    12010.098     1000 
  350000   0.84562697   -1.1969254     1.267172  0.070246582   0.12069889    12285.159     1000 
  352000   0.83573916   -1.2522622    1.2523551 9.2965239e-05    0.1403349    11788.401     1000 
  354000   0.87194832   -1.2334604    1.3066146  0.073154125   0.12560626    12207.953     1000 
  356000   0.82253293   -1.2417337    1.2325656 -0.0091681277   0.12712976    12102.305     1000 
  358000     0.846549   -1.2196706    1.2685537  0.048883062   0.12921934     12242.45     1000 
  360000    0.8979655   -1.2745961    1.3456013  0.071005148   0.12211161    12338.907     1000 
  362000   0.86131483   -1.1479273    1.2906803   0.14275296   0.13677107    12001.339     1000 
  364000     0.808681   -1.3020624    1.2118085 -0.090253918   0.11977263    12493.482     1000 
  366000   0.84622445   -1.2787873    1.2680673 -0.010719946    0.1318246    12016.492     1000 
  368000   0.85199137   -1.2744224    1.2767091 0.0022866287   0.12628975    12136.194     1000 
  370000   0.83053832   -1.2395654    1.2445617 0.0049962907   0.12605206    12129.406     1000 
  372000   0.79398712   -1.2105549    1.1897897 -0.020765171   0.13012965    12299.626     1000 
  374000   0.91602935   -1.2384796      1.37267   0.13419036   0.12796004    12270.368     1000 
  376000   0.86630398   -1.1984226    1.2981565  0.099733899   0.14053067    12002.655     1000 
  378000   0.86784244   -1.2221592    1.3004619  0.078302674   0.13075136    12190.566     1000 
  380000   0.84585222   -1.2526528    1.2675096  0.014856771     0.137088    12023.689     1000 
  382000    0.8515277   -1.2060484    1.2760143  0.069965823   0.14254844     11783.67     1000 
  384000   0.87663811   -1.2038041    1.3136422   0.10983807   0.13145897    12372.252     1000 
  386000   0.85090272    -1.218873    1.2750777  0.056204736   0.12047453    12092.427     1000 
  388000   0.85024299   -1.2386634    1.2740891   0.03542569   0.12141923    12262.009     1000 
  390000    0.8295509   -1.1948723     1.243082  0.048209708   0.12525822    12320.964     1000 
  392000   0.85932287   -1.2332283    1.2876953  0.054467024   0.12533102    12215.139     1000 
  394000   0.84490465   -1.2647816    1.2660896 0.0013080439    0.1234712    12386.106     1000 
  396000     0.884641   -1.2536394    1.3256345  0.071995164    0.1307049    12366.224     1000 
  398000   0.86428717   -1.2330029    1.2951343  0.062131443   0.12769927    12017.895     1000 
  400000   0.82850731    -1.255359    1.2415182 -0.013840821   0.12968509    12166.584     1000 
  402000   0.78622654   -1.2353973    1.1781605  -0.05723687   0.13347036     12007.07     1000 
  404000   0.87438984   -1.2818964    1.3102732  0.028376759   0.13616883    12009.735     1000 
  406000   0.87849564   -1.2129809    1.3164257    0.1034448   0.14208669    11876.272     1000 
  408000   0.84540512   -1.1994656    1.2668396   0.06737392   0.12837846    12088.536     1000 
  410000   0.85987787   -1.1661393     1.288527   0.12238769   0.13775329    12043.674     1000 
  412000   0.87139645   -1.2629961    1.3057876  0.042791463   0.13583436    12076.268     1000 
  414000   0.80543902   -1.2125272    1.2069504 -0.0055768345   0.13456324    11950.454     1000 
  416000   0.88332264   -1.2246465     1.323659  0.099012484   0.13611334    12059.609     1000 
  418000   0.85111783   -1.3133635    1.2754001 -0.037963449   0.13043345    12377.908     1000 
  420000   0.84262313   -1.2138101    1.2626708  0.048860673   0.12849339    12126.515     1000 
  422000   0.83354294   -1.2256627    1.2490641  0.023401396   0.12916085    12160.526     1000 
  424000   0.82201109   -1.1868558    1.2317836  0.044927841    0.1362904    12087.113     1000 
  426000    0.8630907   -1.2375985    1.2933414  0.055742907   0.14067224     11971.49     1000 
  428000   0.85893275    -1.207708    1.2871107  0.079402724   0.13141113    12054.038     1000 
  430000    0.8654483   -1.1623042    1.2968743   0.13457008   0.13815321    12046.467     1000 
  432000   0.86951466   -1.2746792    1.3029677  0.028288543   0.12778563     12209.27     1000 
  434000    0.8285842   -1.2590165    1.2416334 -0.017383033   0.13865944     11928.31     1000 
  436000    0.8409089   -1.1941512     1.260102  0.065950814   0.12480229    12234.241     1000 
  438000   0.85538937   -1.2007962     1.281801  0.081004736   0.13302757    12188.436     1000 
  440000    0.8508753   -1.2429691    1.2750366  0.032067513   0.14493905    11828.814     1000 
  442000   0.85919497   -1.2489128    1.2875037  0.038590897   0.13391059    12116.852     1000 
  444000   0.82309302   -1.2174091    1.2334049  0.015995751   0.12043423     12133.54     1000 
  446000   0.84885457   -1.2401546    1.2720086  0.031853968   0.12879472    12089.514     1000 
  448000   0.81567709   -1.1962755    1.2222921  0.026016659   0.13245066    12121.214     1000 
  450000   0.83438001   -1.2480418    1.2503184  0.002276619   0.12090439    12214.151     1000 
  452000    0.8607876   -1.2160691    1.2898902  0.073821095   0.12555128    12137.085     1000 
  454000   0.83104147   -1.2588078    1.2453157  -0.01349216   0.13120069    12283.116     1000 
  456000    0.7915138   -1.2366817    1.1860834 -0.050598315   0.12109978    11954.962     1000 
  458000   0.84596207   -1.2319357    1.2676742  0.035738456   0.13622611    11970.669     1000 
  460000   0.83986215    -1.198173    1.2585334  0.060360423   0.12377166    12290.525     1000 
  462000   0.90260639   -1.2587828    1.3525557  0.093772892   0.13282402    12265.823     1000 
  464000   0.82772313   -1.2135355    1.2403431  0.026807596   0.11859073    12336.276     1000 
  466000   0.88951203   -1.1792791    1.3329338   0.15365468   0.13001836    12094.542     1000 
  468000   0.86881801   -1.2330719    1.3019238  0.068851941   0.12239269    12268.101     1000 
  470000   0.82283664   -1.2019817    1.2330207  0.031038999   0.12510113    12333.524     1000 
  472000   0.89226065   -1.2141013    1.3370526   0.12295133   0.13013647    12335.209     1000 
  474000    0.8130138   -1.2459555    1.2183012 -0.027654353   0.14255479     11897.42     1000 
  476000   0.83619188   -1.2190401    1.2530335   0.03399346   0.13676927    12063.159     1000 
  478000   0.87458095   -1.2053835    1.3105596   0.10517609   0.14751683    11796.538     1000 
  480000    0.8995454   -1.2767043    1.3479688  0.071264454   0.12927529    12085.521     1000 
  482000    0.8671477   -1.2095518    1.2994208  0.089868999   0.12900385    12014.325     1000 
  484000   0.85225874   -1.2452761    1.2771097  0.031833612   0.13346264    12142.683     1000 
  486000   0.83306488   -1.2016717    1.2483477  0.046675966   0.14090754    12053.474     1000 
  488000   0.84840213    -1.302724    1.2713306  -0.03139338   0.13251013    12085.982     1000 
  490000   0.84466778    -1.257929    1.2657347 0.0078056485   0.12635033    12467.608     1000 
  492000    0.8709734   -1.2334639    1.3051536  0.071689713   0.13338477    12235.877     1000 
  494000    0.8543237   -1.2305412    1.2802041  0.049662896   0.15278677    11871.588     1000 
  496000   0.87325134   -1.2312102    1.3085671  0.077356899   0.13429584     12022.63     1000 
  498000   0.81566668   -1.2340468    1.2222765 -0.011770285   0.11771682    12305.999     1000 
  500000   0.85718793   -1.1490056    1.2844961   0.13549053   0.13178245    12284.784     1000 
  502000    0.7964144   -1.2608259     1.193427 -0.067398964   0.12708604    12245.505     1000 
  504000    0.8478428   -1.1862022    1.2704924  0.084290216   0.14282887    11931.079     1000 
  506000   0.84480408   -1.1880941    1.2659389  0.077844858   0.12572004    12196.404     1000 
  508000   0.86009363   -1.2672024    1.2888503   0.02164791   0.12646047    12236.247     1000 
  510000   0.86115452   -1.2142838    1.2904401  0.076156232   0.13422653    11984.019     1000 
  512000   0.86166401   -1.2440714    1.2912035  0.047132155   0.13491644    12099.799     1000 
  514000   0.85239961   -1.2783389    1.2773208 -0.0010181161   0.12668441    12283.265     1000 
  516000   0.85232273   -1.2236304    1.2772056  0.053575178   0.13221989    12272.713     1000 
  518000   0.86256245   -1.2547743    1.2925498   0.03777554   0.13259744    12108.822     1000 
  520000   0.86372465   -1.2374092    1.2942914  0.056882205   0.12628831    12257.937     1000 
  522000   0.82632915   -1.2470742    1.2382542 -0.0088199977   0.12134792     12128.93     1000 
  524000   0.88218138   -1.1644281    1.3219488   0.15752066   0.13036833    12168.926     1000 
  526000   0.86292882   -1.2529547    1.2930988  0.040144155   0.13284367    12323.354     1000 
  528000    0.8666746   -1.2462022    1.2987119  0.052509715   0.11324088      12579.9     1000 
  530000   0.79562643    -1.245584    1.1922462 -0.053337829   0.11227666    12422.266     1000 
  532000   0.86140203   -1.2755417    1.2908109  0.015269246    0.1236837    12126.829     1000 
  534000   0.83088962   -1.2542513    1.2450881 -0.0091632424   0.13794368    12001.064     1000 
  536000   0.87623891   -1.2407841     1.313044  0.072259906    0.1371472    12175.399     1000 
  538000   0.81810757   -1.1955012    1.2259342  0.030433007   0.13685951    12035.793     1000 
  540000   0.86262934   -1.2533612    1.2926501  0.039288897   0.12583165    12110.146     1000 
  542000   0.82779384    -1.226073    1.2404491   0.01437606   0.11985983    12292.669     1000 
  544000   0.82319483   -1.2363578    1.2335575 -0.0028003827    0.1230945    12298.102     1000 
  546000   0.88035453   -1.2565008    1.3192113  0.062710435   0.11677986    12252.968     1000 
  548000   0.82504329    -1.303139    1.2363274 -0.066811644    0.1214856     12224.21     1000 
  550000   0.86346697   -1.2262535    1.2939053  0.067651731   0.13006302    12126.116     1000 
  552000   0.86442409   -1.1609455    1.2953395   0.13439402   0.12505356    12085.582     1000 
  554000   0.83105302    -1.209097    1.2453329  0.036235908    0.1252714    12359.882     1000 
  556000   0.84357464   -1.2084355    1.2640966  0.055661139   0.12171727    12292.115     1000 
  558000   0.84568092   -1.2316076    1.2672529  0.035645276   0.12746047    12223.156     1000 
  560000   0.86619947   -1.2455856    1.2979999  0.052414285   0.12095011    12085.365     1000 
  562000   0.86314355   -1.1945421    1.2934206  0.098878469   0.13144221    12086.009     1000 
  564000   0.81036366   -1.2242292    1.2143299 -0.0098992986   0.12870199     11966.29     1000 
  566000    0.8501322   -1.1653187    1.2739231   0.10860441   0.13551694    11989.453     1000 
  568000   0.83072588   -1.2325915    1.2448427  0.012251211    0.1283931    12041.156     1000 
  570000   0.85992484   -1.2102885    1.2885974  0.078308844   0.13290272    12300.227     1000 
  572000   0.87640678   -1.2200546    1.3132956   0.09324098   0.12864674    12310.621     1000 
  574000   0.84718746   -1.2456973    1.2695104  0.023813126   0.12186162    12083.033     1000 
  576000   0.87414999   -1.2316432    1.3099138  0.078270532   0.13497177     12103.14     1000 
  578000   0.86299196   -1.2109496    1.2931935   0.08224386   0.15073723     11788.12     1000 
  580000   0.88058242   -1.3039804    1.3195528  0.015572334    0.1314852    12026.591     1000 
  582000   0.82823717   -1.2482256    1.2411134 -0.0071121576   0.14477544    11928.846     1000 
  584000   0.86423175   -1.1929019    1.2950513   0.10214934   0.13225397    12049.946     1000 
  586000   0.82484533   -1.2777386    1.2360307 -0.041707837   0.13092188    12330.172     1000 
  588000    0.8573943   -1.2854896    1.2848054 -0.00068419072   0.12817919    12083.014     1000 
  590000   0.85103515   -1.1958459    1.2752762  0.079430292   0.12608769    12132.383     1000 
  592000   0.84568783   -1.2656092    1.2672632 0.0016540332   0.13301083    11912.577     1000 
  594000   0.85306313   -1.2787572    1.2783151 -0.00044213763   0.12864239    11884.635     1000 
  596000   0.85758872    -1.202205    1.2850967  0.082891727   0.13193003     12024.15     1000 
  598000   0.85294105   -1.2465894    1.2781322  0.031542788   0.13361129    12145.578     1000 
  600000   0.85440455   -1.2414525    1.2803252   0.03887273   0.12530794    12519.552     1000 
  602000   0.87565733   -1.2205522    1.3121725  0.091620313   0.13659855    12362.576     1000 
  604000   0.84620535   -1.2380717    1.2680387  0.029966983   0.13100037    12194.797     1000 
  606000   0.88518681   -1.2472038    1.3264524   0.07924862   0.12174891    12175.549     1000 
  608000   0.82908328   -1.1970287    1.2423813  0.045352612   0.13242459    12033.284     1000 
  610000   0.84751005    -1.163685    1.2699938    0.1063088   0.13188861     12229.82     1000 
  612000   0.84673672   -1.1844612     1.268835  0.084373739   0.14753751    11821.583     1000 
  614000   0.86128245   -1.2032578    1.2906317  0.087373961   0.12662527    12240.609     1000 
  616000   0.83415153   -1.1540065    1.2499761  0.095969543    0.1331781    12142.952     1000 
  618000   0.84283678   -1.2239769    1.2629909  0.039014015   0.12071249    12353.182     1000 
  620000   0.82161779   -1.2253356    1.2311943 0.0058586173   0.13204842    12204.795     1000 
  622000   0.81925563    -1.253332    1.2276546 -0.025677462   0.11128284    12481.662     1000 
  624000   0.83359399   -1.2464311    1.2491406    0.0027095   0.12274313    12239.296     1000 
  626000   0.84167997   -1.2165461    1.2612574  0.044711324   0.13112542    12112.116     1000 
  628000   0.82711921   -1.2510496    1.2394381 -0.011611457   0.13277432    11905.209     1000 
  630000   0.82006827   -1.2281322    1.2288723 0.00074013686   0.13295994    11980.758     1000 
  632000   0.86686293   -1.3170692    1.2989941 -0.018075096   0.13290235    11988.821     1000 
  634000   0.83681653   -1.2703791    1.2539696 -0.016409568   0.12244678    12346.654     1000 
  636000   0.85769458   -1.2254002    1.2852553  0.059855119   0.12743518    12129.414     1000 
  638000    0.8444809   -1.2472726    1.2654546  0.018182043    0.1250813    12237.693     1000 
  640000   0.87942718   -1.2453457    1.3178216  0.072475894   0.13253781     12324.35     1000 
  642000   0.81255876   -1.2023269    1.2176193  0.015292448   0.13082074    12105.896     1000 
  644000   0.85934211   -1.2219328    1.2877242  0.065791314   0.12922574    11953.889     1000 
  646000   0.87705844   -1.3116425    1.3142721 0.0026295735   0.13494229    12204.021     1000 
  648000   0.83721747   -1.1710125    1.2545704  0.083557855   0.13288525    12140.267     1000 
  650000   0.85604241    -1.252005    1.2827796  0.030774513   0.13158298     11991.97     1000 
  652000   0.84722205   -1.1953386    1.2695622   0.07422362   0.13086641    12123.446     1000 
  654000   0.85276181     -1.21797    1.2778636   0.05989357   0.13813257    11993.619     1000 
  656000    0.8840491   -1.1917198    1.3247476   0.13302779   0.14257158    11990.764     1000 
  658000   0.84379674   -1.2434036    1.2644294  0.021025795   0.12546218     12270.36     1000 
  660000   0.85301298   -1.2456482    1.2782399  0.032591738   0.13640061    11953.049     1000 
  662000   0.82420943   -1.1404944    1.2350778  0.094583468   0.13768007    12007.534     1000 
  664000   0.87519338   -1.1910685    1.3114773   0.12040877   0.13777797    11837.488     1000 
  666000   0.83964273   -1.1887888    1.2582046  0.069415807   0.13240368    11968.296     1000 
  668000   0.79376279   -1.2533897    1.1894535 -0.063936181   0.11780707    12154.317     1000 
  670000   0.85187793   -1.2351361    1.2765391  0.041403024    0.1295325     12111.86     1000 
  672000   0.88459472   -1.2889119    1.3255652  0.036653315   0.13466551    11982.123     1000 
  674000   0.84378521   -1.2335285    1.2644121  0.030883684   0.12634238    12307.683     1000 
  676000   0.89286728   -1.2248831    1.3379616   0.11307855   0.14488207    12063.063     1000 
  678000   0.84600065   -1.1740725     1.267732  0.093659525   0.12750819    12050.019     1000 
  680000   0.85642466   -1.2557316    1.2833524  0.027620766   0.12046263    12410.296     1000 
  682000     0.822115   -1.2031755    1.2319393  0.028763876   0.14063683    11924.423     1000 
  684000   0.83511508   -1.2264987    1.2514199  0.024921237   0.13703486    12263.534     1000 
  686000   0.83243986   -1.2289225    1.2474111  0.018488612   0.12675099    12074.893     1000 
  688000   0.87788645   -1.2110805    1.3155129    0.1044324   0.13147468    12383.247     1000 
  690000   0.80789446    -1.262121    1.2106298 -0.051491166   0.12855537    11963.671     1000 
  692000   0.88305475   -1.2093303    1.3232575    0.1139272   0.13088294     12320.51     1000 
  694000   0.87479443    -1.269483    1.3108795  0.041396436   0.11952984    12151.748     1000 
  696000   0.80056293     -1.23909    1.1996435 -0.039446479   0.11972882    12111.995     1000 
  698000   0.84036169   -1.2402873     1.259282  0.018994662   0.13084399    12189.201     1000 
  700000   0.81897106   -1.2973334    1.2272281 -0.070105262   0.11583492    12303.908     1000 
  702000   0.85860628   -1.2437483    1.2866215  0.042873189   0.13028766    12353.572     1000 
  704000   0.83719721   -1.2014356      1.25454  0.053104416    0.1230143    12124.625     1000 
  706000   0.86589979   -1.2615574    1.2975508  0.035993449   0.12638992    12239.159     1000 
  708000   0.87626509   -1.2570151    1.3130832   0.05606819   0.13615905    12099.247     1000 
  710000   0.85261105   -1.2360833    1.2776377  0.041554384   0.13409292    11943.086     1000 
  712000   0.83849916    -1.253424     1.256491 0.0030670479   0.12247675    12326.877     1000 
  714000    0.8491356   -1.2167933    1.2724297  0.055636448   0.13802331    12142.737     1000 
  716000   0.86249602   -1.2788385    1.2924503   0.01361173   0.12142027    12258.432     1000 
  718000   0.84075262    -1.275251    1.2598678 -0.015383223   0.11818889    12258.372     1000 
  720000   0.83468106   -1.2897954    1.2507696  -0.03902578   0.13075068    12135.695     1000 
  722000   0.85776274   -1.2317396    1.2853575  0.053617847   0.13085539    12197.701     1000 
  724000   0.89287135   -1.2306568    1.3379677   0.10731092   0.13289231     12028.66     1000 
  726000   0.89008414   -1.2690276    1.3337911    0.0647635   0.12635204    12035.135     1000 
  728000   0.83245626   -1.2770798    1.2474357 -0.029644046   0.13129467     12036.42     1000 
  730000   0.83995744    -1.253896    1.2586762 0.0047802015   0.13514608    12175.821     1000 
  732000   0.84797256   -1.1658035    1.2706869   0.10488341   0.12889242    12013.591     1000 
  734000   0.84427282   -1.2647017    1.2651428 0.00044108944   0.12255422    12388.282     1000 
  736000   0.85011354   -1.2226968    1.2738951  0.051198307   0.14576454    11823.433     1000 
  738000   0.85485842   -1.2328314    1.2810053   0.04817393   0.13257587    12159.089     1000 
  740000   0.87320754   -1.2065565    1.3085015   0.10194498   0.13916005    12042.275     1000 
  742000   0.87965126   -1.2448034    1.3181574  0.073354031   0.14216758    12116.727     1000 
  744000    0.8468628   -1.2449309    1.2690239  0.024092975   0.13693656    11999.228     1000 
  746000   0.86077116   -1.1967507    1.2898656  0.093114921    0.1324439    11993.398     1000 
  748000   0.86625168   -1.2095951    1.2980781  0.088483084   0.12910558    12290.142     1000 
  750000   0.84361625   -1.2022175    1.2641589  0.061941438   0.12205305    12315.646     1000 
  752000   0.83124034   -1.2259257    1.2456137  0.019687932   0.13736591    11868.841     1000 
  754000   0.82072051     -1.24946    1.2298497 -0.019610337    0.1323119    11976.165     1000 
  756000   0.84781818   -1.2377324    1.2704555  0.032723152   0.13056015    12160.053     1000 
  758000   0.84109931   -1.2474167    1.2603873    0.0129706   0.12170771     12194.03     1000 
  760000   0.83982654   -1.2218986    1.2584801  0.036581421   0.13617643    11879.999     1000 
  762000   0.86266496   -1.2274525    1.2927034  0.065250917   0.13852942    11826.825     1000 
  764000   0.84481663   -1.2148252    1.2659577  0.051132515   0.13121274    12238.819     1000 
  766000    0.8407371   -1.2392258    1.2598445  0.020618717   0.11804726    12387.147     1000 
  768000    0.8373757   -1.2858822    1.2548075 -0.031074717    0.1318869    12204.697     1000 
  770000   0.86562182   -1.2019664    1.2971343  0.095167895   0.14198727    11892.899     1000 
  772000   0.84175253   -1.2542725    1.2613662 0.0070936503   0.12732885    12286.392     1000 
  774000   0.83139645   -1.1739348    1.2458476  0.071912776   0.14278452    11925.673     1000 
  776000   0.82078714   -1.2500993    1.2299495 -0.020149741    0.1239025    12320.088     1000 
  778000   0.84314696   -1.2284284    1.2634557  0.035027347   0.13091178    12257.052     1000 
  780000   0.85436675   -1.2125943    1.2802686  0.067674272   0.12544056    12125.906     1000 
  782000   0.87253381   -1.2027386    1.3074919   0.10475335   0.13814534    12227.658     1000 
  784000   0.83859249    -1.220818    1.2566308  0.035812851    0.1201207    12431.309     1000 
  786000   0.84227067   -1.2440521    1.2621426  0.018090529   0.12246928    12216.034     1000 
  788000   0.87243523   -1.1727151    1.3073442   0.13462906   0.14187491    11695.059     1000 
  790000   0.89643782   -1.2590897    1.3433121  0.084222342   0.12806544    12221.871     1000 
  792000   0.80130316   -1.2378755    1.2007528 -0.037122673   0.11625825    12235.365     1000 
  794000    0.8849008   -1.2461292    1.3260239  0.079894673    0.1311333    12121.236     1000 
  796000   0.85099141   -1.1657095    1.2752106   0.10950109   0.12622043    12164.139     1000 
  798000   0.88327789    -1.188292    1.3235919   0.13529991    0.1328231     12011.59     1000 
  800000   0.84991823   -1.2944729    1.2736025 -0.020870411   0.12027149    12351.496     1000 
  802000   0.84983388   -1.1919338    1.2734761  0.081542309   0.13030214    12208.238     1000 
  804000   0.84025318    -1.259357    1.2591194 -0.00023765505   0.12847671     12164.58     1000 
  806000   0.88510461    -1.228133    1.3263293   0.09819628   0.13185713    12105.003     1000 
  808000   0.87535967   -1.2424157    1.3117265  0.069310785   0.12880366    12220.249     1000 
  810000   0.85314247   -1.2263578     1.278434  0.052076193   0.12764559    12100.129     1000 
  812000   0.83115178   -1.2262545    1.2454809  0.019226426   0.12728001    12289.962     1000 
  814000   0.88643872   -1.2343514    1.3283284  0.093976975   0.12662977    12251.963     1000 
  816000   0.89378819   -1.2377564    1.3393416   0.10158519   0.12746915     12070.15     1000 
  818000   0.82240559   -1.2709901    1.2323748 -0.038615343   0.12396045     12047.57     1000 
  820000   0.81650059   -1.1772322    1.2235261  0.046293926   0.12281302    11990.002     1000 
  822000    0.8461865   -1.1583131    1.2680105   0.10969739   0.12322353    12380.303     1000 
  824000   0.83383798    -1.280618    1.2495062 -0.031111811    0.1313141    12100.745     1000 
  826000   0.85378815   -1.2651185    1.2794015   0.01428299   0.11873319    12341.158     1000 
  828000    0.8436529   -1.2309668    1.2642139  0.033247113   0.12883455    12309.333     1000 
  830000    0.8765196    -1.203595    1.3134646   0.10986958   0.14274074    12034.516     1000 
  832000   0.87706123   -1.1998284    1.3142763   0.11444789   0.12692734    12458.427     1000 
  834000   0.85051311   -1.2478387    1.2744939  0.026655211   0.12501598    12266.511     1000 
  836000   0.86563067   -1.1790308    1.2971476   0.11811671   0.12885595     12366.78     1000 
  838000    0.8347754   -1.2078768    1.2509109  0.043034164   0.12827922     11920.67     1000 
  840000   0.85782446   -1.2997386    1.2854499 -0.014288613   0.13585352    11930.237     1000 
  842000   0.84723833   -1.2393387    1.2695866  0.030247956   0.12947936    12257.142     1000 
  844000   0.84490334   -1.1781015    1.2660877    0.0879862   0.12319324    12266.319     1000 
  846000   0.82141704   -1.2276405    1.2308934 0.0032528898   0.12949939    12215.017     1000 
  848000   0.86828124   -1.2402647    1.3011194  0.060854772   0.13411365    12136.163     1000 
  850000   0.82362655    -1.279612    1.2342044 -0.045407607   0.11277399    12452.513     1000 
  852000   0.85031758   -1.2688625    1.2742009 0.0053384436   0.12910344    12307.124     1000 
  854000    0.8442868   -1.2520522    1.2651638  0.013111596   0.12429912    12138.408     1000 
  856000   0.84508942   -1.2403272    1.2663665  0.026039262   0.11821266    12612.633     1000 
  858000   0.89674081   -1.3144897    1.3437661  0.029276388   0.12998042    12245.472     1000 
  860000   0.88102353   -1.2206164    1.3202138  0.099597401   0.12856241    12192.563     1000 
  862000   0.82619878   -1.2323987    1.2380589 0.0056602008   0.11461176    12554.464     1000 
  864000   0.80814045    -1.229043    1.2109985 -0.018044511   0.12355773    12175.105     1000 
  866000   0.84452682   -1.2603154    1.2655234 0.0052080842   0.13583978    12300.006     1000 
  868000   0.86099556   -1.1881932    1.2902018   0.10200861   0.13193169     12165.18     1000 
  870000   0.86737401   -1.2701213      1.29976  0.029638682   0.12544941    12383.075     1000 
  872000    0.8480608   -1.2456706    1.2708191  0.025148531   0.13977504    11767.022     1000 
  874000   0.85846145    -1.308149    1.2864045 -0.021744474   0.12165891     12244.16     1000 
  876000   0.87057311   -1.3033058    1.3045538 0.0012480269   0.11732525    12467.622     1000 
  878000   0.86633322   -1.2412153    1.2982003  0.056985037   0.13996475    12151.643     1000 
  880000   0.86637913   -1.2290401    1.2982691  0.069229072   0.12888941    12080.071     1000 
  882000    0.8288513   -1.1609683    1.2420337  0.081065327   0.14117788    11952.493     1000 
  884000   0.86605488    -1.207775    1.2977832  0.090008202   0.13034751    12406.893     1000 
  886000   0.83613415   -1.2273854     1.252947  0.025561612   0.13834185     11896.79     1000 
  888000   0.86107917   -1.2176834    1.2903271  0.072643719   0.13499988    12228.398     1000 
  890000   0.87100555   -1.2312953    1.3052018  0.073906503   0.13350375     12197.21     1000 
  892000   0.84273546   -1.2207285    1.2628391  0.042110616   0.11900704    12457.263     1000 
  894000   0.86162402   -1.2526763    1.2911436  0.038467246   0.13104458    11954.622     1000 
  896000   0.87667508   -1.2299062    1.3136976  0.083791363   0.14032988    12113.646     1000 
  898000   0.83876597    -1.201634    1.2568908  0.055256837   0.12333999    12243.803     1000 
  900000   0.85888044   -1.2001705    1.2870323  0.086861827   0.12781361    12064.156     1000 
  902000   0.89920342    -1.214415    1.3474563   0.13304136   0.12474338     12114.37     1000 
  904000   0.81970531   -1.2141875    1.2283284  0.014140919   0.13435826    11714.387     1000 
  906000   0.88841231   -1.2622209    1.3312859  0.069064993   0.13902464    12004.251     1000 
  908000   0.83458766   -1.2466704    1.2506296 0.0039591939   0.12886355    12284.139     1000 
  910000   0.84291978   -1.2713198    1.2631153 -0.0082045056   0.12372881    12215.258     1000 
  912000   0.88074444   -1.2857873    1.3197955  0.034008255   0.13195088    12203.448     1000 
  914000   0.85182502   -1.1988729    1.2764598   0.07758694   0.12403941    12274.213     1000 
  916000   0.83957498   -1.2355511    1.2581031  0.022552003   0.12849463    12096.726     1000 
  918000   0.89568459   -1.2451021    1.3421834   0.09708125   0.13757446    12121.047     1000 
  920000   0.87992944   -1.2421613    1.3185743   0.07641298   0.11765605    12269.062     1000 
  922000   0.86918618   -1.1923719    1.3024755   0.11010358   0.13996318     11956.72     1000 
  924000   0.87393601   -1.2114553    1.3095931  0.098137835   0.12867387    12267.251     1000 
  926000   0.85978894   -1.1963335    1.2883937  0.092060266   0.13665655    12121.106     1000 
  928000   0.84397004   -1.1964633    1.2646891  0.068225791   0.11496443    12407.603     1000 
  930000   0.86973877   -1.2458533    1.3033035  0.057450297   0.13505464    12264.955     1000 
  932000   0.83664594   -1.1973912    1.2537139  0.056322733   0.12516053    12246.188     1000 
  934000   0.83734613   -1.2210587    1.2547632  0.033704495   0.12511563    12263.718     1000 
  936000   0.84173379   -1.2017821    1.2613381  0.059555965   0.13717933    12182.001     1000 
  938000   0.80450458   -1.1590912    1.2055501  0.046458949   0.12976888    12248.237     1000 
  940000   0.83749221     -1.22636    1.2549821  0.028622126   0.13441877     12040.74     1000 
  942000   0.83246665   -1.2722734    1.2474513 -0.024822116   0.13170826    12142.364     1000 
  944000   0.86625456   -1.2238011    1.2980825   0.07428139   0.12399315    12370.519     1000 
  946000    0.8782127   -1.2406199    1.3160017  0.075381823   0.13636109    12187.537     1000 
  948000    0.8344125   -1.2958163    1.2503671 -0.045449155   0.12611809    12305.546     1000 
  950000   0.83013111   -1.2737201    1.2439515 -0.029768637   0.13415507     12237.53     1000 
  952000   0.86470445     -1.17534    1.2957596   0.12041959   0.13174833    11898.958     1000 
  954000   0.85121679   -1.2316334    1.2755484  0.043914964   0.11842652    12295.083     1000 
  956000    0.8375582   -1.2292618     1.255081  0.025819133   0.14124549    11806.189     1000 
  958000   0.85386019   -1.1723845    1.2795095   0.10712496   0.14096427    11824.635     1000 
  960000   0.83191977   -1.2170112    1.2466318  0.029620592   0.13225383    12029.093     1000 
  962000   0.90571234   -1.2605937    1.3572099  0.096616208   0.13559216    12360.583     1000 
  964000    0.8489344   -1.2373333    1.2721282  0.034794842   0.11376203    12484.113     1000 
  966000   0.86848871   -1.2505275    1.3014303  0.050902824     0.130951    12311.719     1000 
  968000   0.87652707   -1.2481149    1.3134758    0.0653609   0.13129279    12300.248     1000 
  970000   0.83430968   -1.1983231    1.2502131  0.051889924   0.11415038    12502.356     1000 
  972000   0.84143666    -1.210832    1.2608928  0.050060824   0.14405082    12009.433     1000 
  974000   0.86069813    -1.208348    1.2897562  0.081408133   0.14126788    12146.235     1000 
  976000   0.90324558   -1.1900027    1.3535135   0.16351076   0.14400638     11878.75     1000 
  978000   0.83308397   -1.2607811    1.2483763 -0.012404736   0.12150594    12171.808     1000 
  980000   0.84575114   -1.3310669    1.2673581 -0.063708796   0.11868801    12407.334     1000 
  982000   0.88885778   -1.2041024    1.3319534   0.12785103   0.13796506    12117.118     1000 
  984000    0.8365176   -1.2409444    1.2535216  0.012577234   0.12701952    12047.159     1000 
  986000   0.87150653   -1.2260757    1.3059525  0.079876875   0.12957196    12152.895     1000 
  988000   0.86834656   -1.2167292    1.3012173  0.084488089   0.12941265    12211.624     1000 
  990000   0.83489272   -1.1795369    1.2510867  0.071549833    0.1330307    12272.185     1000 
  992000    0.8111854   -1.2064914    1.2155613 0.0090699051    0.1200875    12264.211     1000 
  994000   0.87147917   -1.2579798    1.3059115  0.047931725   0.12949083    11889.185     1000 
  996000   0.82225714   -1.1975223    1.2321523  0.034630028   0.13433377    12153.813     1000 
  998000   0.82411657   -1.2313197    1.2349387 0.0036189693    0.1362923     11949.59     1000 
 1000000   0.83842146   -1.2709899    1.2563746 -0.014615348   0.12495113     12159.31     1000 
 1002000    0.8945436   -1.1964209    1.3404736   0.14405274   0.13048961     12190.18     1000 
 1004000   0.85953228     -1.22521    1.2880091  0.062799085   0.12240596    12467.268     1000 
 1006000   0.81657114   -1.2348109    1.2236318 -0.011179044   0.12263881    12140.696     1000 
 1008000   0.85247949   -1.3036799    1.2774405 -0.026239389   0.12656701    12277.874     1000 
 1010000   0.85374088   -1.2319467    1.2793307  0.047383976   0.13283969    12013.865     1000 
 1012000   0.85085313   -1.2042683    1.2750034  0.070735123   0.13640627    12044.353     1000 
 1014000   0.87270323   -1.2642081    1.3077458  0.043537717   0.12853571    12488.767     1000 
 1016000   0.85026249   -1.2815271    1.2741183 -0.0074087143   0.12675264    12306.151     1000 
 1018000   0.85507902   -1.2411784    1.2813359  0.040157555   0.13519008    12244.671     1000 
 1020000   0.83660287   -1.2403285    1.2536494  0.013320916   0.12457318    12193.921     1000 
 1022000   0.87189695   -1.2680147    1.3065376  0.038522888   0.12889776     12075.85     1000 
 1024000   0.81381992   -1.2316943    1.2195091 -0.012185165   0.12142119    12191.728     1000 
 1026000   0.85859582   -1.2510444    1.2866058  0.035561453    0.1311417    11951.662     1000 
 1028000   0.83923693   -1.2660264    1.2575965 -0.0084298656   0.12955656    12021.859     1000 
 1030000    0.8665659   -1.1966936     1.298549   0.10185536   0.13072601    11902.121     1000 
 1032000   0.85830674   -1.1978281    1.2861726  0.088344548    0.1207172    12450.125     1000 
 1034000   0.84468683   -1.1591402    1.2657632   0.10662298   0.11843418    12299.248     1000 
 1036000    0.8652702   -1.2341063    1.2966074  0.062501079   0.13235379    12210.798     1000 
 1038000     0.884424   -1.2530883    1.3253094  0.072221033   0.14327363    11937.577     1000 
 1040000   0.87584562     -1.21182    1.3124547   0.10063465   0.11704428    12203.011     1000 
 1042000   0.83667263   -1.2380076    1.2537539  0.015746353   0.12954586     12071.96     1000 
 1044000   0.85278739   -1.2532913    1.2779019  0.024610621   0.12457195    11999.476     1000 
 1046000   0.85428569   -1.2199995    1.2801471  0.060147628   0.12427008    12109.788     1000 
 1048000    0.8905259   -1.1855613    1.3344531   0.14889179   0.12807942    12277.635     1000 
 1050000   0.88126859   -1.1980577     1.320581   0.12252327   0.11452073    12480.351     1000 
 1052000   0.82801288   -1.1872012    1.2407773  0.053576061   0.13613309    12050.348     1000 
 1054000   0.90220986   -1.2165788    1.3519615   0.13538267   0.13718977    12105.947     1000 
 1056000   0.83251461   -1.2072321    1.2475231  0.040291074   0.13525235    12061.244     1000 
 1058000   0.82857033   -1.2709753    1.2416126 -0.029362647   0.13321791    12070.804     1000 
 1060000   0.82556303   -1.2315273    1.2371062 0.0055789061   0.11778916    12359.041     1000 
 1062000   0.83321282   -1.1605144    1.2485694  0.088055013   0.13629057    11899.725     1000 
 1064000   0.84257326   -1.2680458     1.262596  -0.00544978    0.1171695    12403.676     1000 
 1066000   0.82737495   -1.2277382    1.2398214  0.012083147   0.12953569    12005.425     1000 
 1068000    0.8507589   -1.2971414    1.2748622 -0.022279163   0.14473741    12012.903     1000 
 1070000   0.82605832   -1.2312034    1.2378484 0.0066449476   0.12578432    12069.471     1000 
 1072000   0.82283305   -1.2290165    1.2330153 0.0039988502   0.13814223    12187.283     1000 
 1074000   0.87192404   -1.1967183    1.3065782    0.1098599   0.12703758    12434.566     1000 
 1076000    0.8140285   -1.2740571    1.2198217 -0.054235397   0.12558629    12313.398     1000 
 1078000   0.88061956   -1.2134909    1.3196084   0.10611749   0.14421231    12055.076     1000 
 1080000   0.87124413   -1.2184714    1.3055593  0.087087943   0.12862665    12453.644     1000 
 1082000    0.8378915   -1.1979564    1.2555804  0.057624051   0.13065997    12061.677     1000 
 1084000   0.86208109   -1.1948355    1.2918285  0.096992969   0.12331629    12169.163     1000 
 1086000   0.81785167   -1.1215296    1.2255507   0.10402117   0.12780218    12218.482     1000 
 1088000   0.84096594   -1.2092951    1.2601875  0.050892317    0.1322468    12265.483     1000 
 1090000   0.81017732     -1.20603    1.2140507 0.0080207534    0.1228985    12529.839     1000 
 1092000   0.87803884   -1.2100291    1.3157412   0.10571212   0.14093915    12142.832     1000 
 1094000   0.89821427   -1.2238057    1.3459741   0.12216841   0.14186642    11969.153     1000 
 1096000   0.86422552   -1.1664758    1.2950419   0.12856614   0.13128719     12282.73     1000 
 1098000   0.85188571   -1.2557867    1.2765507  0.020763988   0.12756703    12006.286     1000 
 1100000   0.81305207   -1.2526496    1.2183585 -0.034291097   0.12481298    12116.384     1000 
 1102000   0.81035361   -1.1981239    1.2143149  0.016190968   0.14632872    11697.401     1000 
 1104000    0.8154336   -1.2419542    1.2219273 -0.020026936   0.12735602     11997.24     1000 
 1106000   0.83890271   -1.1647777    1.2570957  0.092318057   0.12118061    12079.688     1000 
 1108000   0.85133549   -1.2390166    1.2757262  0.036709584   0.12982662    12144.506     1000 
 1110000   0.85806434   -1.1934915    1.2858094  0.092317903   0.12443134    12214.798     1000 
 1112000   0.84191203   -1.2516087    1.2616052 0.0099965195   0.13283468    12289.026     1000 
 1114000   0.84598956   -1.1568074    1.2677154   0.11090792   0.14083891    12066.665     1000 
 1116000    0.8162582   -1.2760681    1.2231629 -0.052905158   0.12529052    12234.394     1000 
 1118000   0.85482173   -1.2487645    1.2809504  0.032185867   0.11728554     12121.36     1000 
 1120000   0.83092884   -1.2274908    1.2451469  0.017656098   0.12655407    11902.196     1000 
 1122000   0.85273223   -1.2518342    1.2778192   0.02598507   0.13372568    12069.564     1000 
 1124000   0.91108889   -1.2057193    1.3652667   0.15954742   0.12401012    12126.783     1000 
 1126000   0.80943592   -1.2538012    1.2129397 -0.040861471   0.12945448    11939.767     1000 
 1128000   0.87307211   -1.2234888    1.3082986  0.084809799   0.13021914    12385.991     1000 
 1130000    0.8390794   -1.2149123    1.2573605  0.042448183   0.13139719     12141.43     1000 
 1132000   0.84101069    -1.343473    1.2602545 -0.083218509   0.12146476    12250.912     1000 
 1134000   0.83120088   -1.2606452    1.2455545 -0.015090724   0.13570137    12179.466     1000 
 1136000   0.85195672   -1.2522432    1.2766571  0.024413972   0.12284213     12408.83     1000 
 1138000   0.89223982   -1.2178394    1.3370214   0.11918196   0.13022713    12189.002     1000 
 1140000   0.85268048   -1.2614585    1.2777417  0.016283155   0.13452363    12131.956     1000 
 1142000   0.80538318   -1.2535787    1.2068667 -0.046712038   0.12127075    12186.956     1000 
 1144000   0.86258402   -1.2397602    1.2925822  0.052822006   0.13230699    11992.996     1000 
 1146000   0.85264335   -1.2531067    1.2776861  0.024579361   0.13451757    12099.413     1000 
 1148000   0.85674118   -1.2017005    1.2838267  0.082126164   0.13296827    11913.097     1000 
 1150000     0.855384   -1.2728431    1.2817929 0.0089497906   0.13606361    12134.015     1000 
 1152000   0.80630793     -1.25072    1.2082524  -0.04246759   0.12930437    12187.157     1000 
 1154000   0.84266065   -1.2195385     1.262727  0.043188499   0.12966858    12250.916     1000 
 1156000   0.82399902   -1.2312865    1.2347625 0.0034760739   0.13321755    12129.995     1000 
 1158000   0.86549609   -1.2282297    1.2969459  0.068716168   0.14781796     11818.92     1000 
 1160000   0.84688551   -1.2405583    1.2690579  0.028499616   0.12401601    12250.135     1000 
 1162000   0.84011358   -1.2770456    1.2589102 -0.018135356   0.12518797    12061.792     1000 
 1164000   0.85776363   -1.2080832    1.2853588  0.077275616   0.12705011    12026.216     1000 
 1166000   0.85542222   -1.2534281    1.2818502  0.028422057   0.14279378    12085.729     1000 
 1168000   0.84932217   -1.2465038    1.2727093  0.026205445    0.1328759    12162.796     1000 
 1170000   0.86568106   -1.1809863    1.2972231   0.11623673   0.13124898    12170.808     1000 
 1172000   0.82897468   -1.2578577    1.2422186 -0.015639123    0.1203477    12431.794     1000 
 1174000   0.84636953   -1.2318058    1.2682847  0.036478967   0.12741748    11991.278     1000 
 1176000   0.82383543   -1.2679891    1.2345174 -0.033471729   0.12902707    12099.267     1000 
 1178000   0.90053653   -1.2236416     1.349454    0.1258124   0.12495211    12442.495     1000 
 1180000   0.90005007   -1.2224211     1.348725    0.1263039   0.12460086    12235.382     1000 
 1182000   0.84192334   -1.2208477    1.2616221  0.040774379   0.12289728    12174.434     1000 
 1184000   0.86802458   -1.2516766    1.3007348  0.049058259   0.13002596    11956.558     1000 
 1186000   0.85304938    -1.263312    1.2782945  0.014982528   0.13840297    11980.849     1000 
 1188000   0.84853036   -1.2257675    1.2715227  0.045755271   0.12206113     12203.74     1000 
 1190000   0.88333716   -1.2748724    1.3236807  0.048808371   0.12869885    12236.832     1000 
 1192000   0.82611292   -1.2420282    1.2379302 -0.0040979394   0.13997068    11880.412     1000 
 1194000   0.86011912     -1.20589    1.2888885  0.082998507    0.1331673    12326.639     1000 
 1196000   0.85919056   -1.2084408     1.287497  0.079056295   0.13516381    12213.806     1000 
 1198000   0.84902165   -1.2410196    1.2722589  0.031239363    0.1348648     12282.48     1000 
 1200000   0.86979383     -1.23759    1.3033861  0.065796097   0.11632563    12290.956     1000 
 1202000   0.82285097   -1.2597717    1.2330422 -0.026729523   0.12997319    12059.969     1000 
 1204000   0.89058697   -1.2004918    1.3345446   0.13405281   0.13527791     11770.98     1000 
 1206000   0.86090443   -1.2338923    1.2900653  0.056172974   0.11671091    12455.114     1000 
 1208000   0.84682479    -1.182218     1.268967   0.08674894   0.12344076    12200.534     1000 
 1210000   0.82336583   -1.2591083    1.2338137 -0.025294596   0.12914006    11990.802     1000 
 1212000   0.82517535   -1.2090847    1.2365253  0.027440569   0.13021774    12193.583     1000 
 1214000   0.82215558   -1.2685818    1.2320001 -0.036581612   0.11347731    12122.156     1000 
 1216000   0.80803708   -1.2629944    1.2108436 -0.052150825   0.11540502     12316.55     1000 
 1218000   0.86708068   -1.2242384    1.2993204  0.075081986   0.12686146    12289.918     1000 
 1220000   0.85072821   -1.2121744    1.2748162  0.062641784   0.13580904    12240.372     1000 
 1222000   0.85478329   -1.2833336    1.2808928 -0.0024408017   0.13031667    12219.514     1000 
 1224000   0.86478535   -1.2561663    1.2958809  0.039714522   0.15023169    11781.548     1000 
 1226000   0.86108632   -1.2319593    1.2903378  0.058378565   0.14051891     11941.44     1000 
 1228000   0.88351513   -1.2274664    1.3239474  0.096480994   0.12986168    12070.236     1000 
 1230000   0.86626628   -1.2523123       1.2981  0.045787682   0.13849688    11958.603     1000 
 1232000   0.85641698   -1.2369299    1.2833409  0.046410905   0.13046203    12100.801     1000 
 1234000   0.84450677   -1.2642464    1.2654934 0.0012469658   0.11835358     12600.06     1000 
 1236000   0.84431954   -1.2054504    1.2652128  0.059762483   0.12764243    12417.618     1000 
 1238000   0.85879268   -1.2121514    1.2869008  0.074749428    0.1240745    12202.533     1000 
 1240000   0.84434359   -1.2187006    1.2652489   0.04654829   0.13220717    12301.717     1000 
 1242000   0.81022979   -1.2376371    1.2141293 -0.023507805   0.12751096    12256.333     1000 
 1244000   0.84981309    -1.272018    1.2734449  0.001426916    0.1185308    12228.728     1000 
 1246000   0.84779137   -1.2452021    1.2704154  0.025213264   0.13540714    12190.035     1000 
 1248000   0.82969232   -1.2629663    1.2432939 -0.019672397   0.13225762    11934.316     1000 
 1250000   0.84547394   -1.2799665    1.2669427 -0.013023786   0.13476134    12036.783     1000 
 1252000    0.8840538   -1.2115684    1.3247546   0.11318624   0.12907958    12192.901     1000 
 1254000   0.81976921   -1.1575522    1.2284242  0.070871939   0.13959439    12005.776     1000 
 1256000   0.84179562   -1.2646045    1.2614307 -0.0031737887   0.12204887    12041.749     1000 
 1258000   0.82708795   -1.2563004    1.2393913 -0.016909105   0.12703885    12111.555     1000 
 1260000   0.88417129   -1.2343411    1.3249307  0.090589617   0.12958239    12348.276     1000 
 1262000   0.86539301    -1.210353    1.2967914  0.086438418   0.13832135     12206.34     1000 
 1264000   0.85867771   -1.2270099    1.2867286  0.059718618   0.12978529    12222.777     1000 
 1266000   0.86789377   -1.2109607    1.3005388  0.089578135   0.12619519    12384.531     1000 
 1268000    0.8647849    -1.244456    1.2958802  0.051424141   0.12042848    12487.367     1000 
 1270000   0.83547505   -1.1888347    1.2519594   0.06312465   0.12204826    12369.021     1000 
 1272000   0.79411095   -1.2196036    1.1899753  -0.02962829   0.13963343    12042.485     1000 
 1274000    0.8451908   -1.1856282    1.2665184  0.080890193   0.14029801    11931.788     1000 
 1276000    0.8460943   -1.2168849    1.2678723  0.050987429   0.12891993    12040.105     1000 
 1278000    0.8442585   -1.2557229    1.2651214 0.0093984708   0.13337394    12068.678     1000 
 1280000    0.8479532   -1.2706929    1.2706579 -3.5047813e-05   0.12242435     12430.24     1000 
 1282000   0.84375995   -1.2362863    1.2643743  0.028087993   0.12816858    12173.781     1000 
 1284000   0.87324219   -1.1845404    1.3085534   0.12401305   0.13700297     12066.29     1000 
 1286000   0.83264094   -1.2084735    1.2477125     0.039239   0.13108544    12207.988     1000 
 1288000   0.83773628   -1.2616912    1.2553478 -0.0063433814   0.13000604    12012.698     1000 
 1290000    0.8571608   -1.2626594    1.2844555  0.021796026    0.1185723      12506.4     1000 
 1292000   0.88115899   -1.2251002    1.3204168  0.095316567   0.12557773    12341.147     1000 
 1294000   0.85917897   -1.1931017    1.2874797  0.094378031   0.13331365    12206.434     1000 
 1296000   0.86386596   -1.2357001    1.2945031  0.058803068   0.14730526    11803.975     1000 
 1298000   0.79787911   -1.2121482    1.1956218 -0.016526326   0.12885862    12148.507     1000 
 1300000   0.86425684   -1.1924079    1.2950889   0.10268098    0.1315517    12319.499     1000 
 1302000   0.86584905   -1.2520118    1.2974748  0.045462977   0.13639499    12023.366     1000 
 1304000   0.83598168   -1.2374786    1.2527185  0.015239963   0.13183973    11918.935     1000 
 1306000   0.86584719   -1.2522995     1.297472  0.045172544   0.12086572     12318.51     1000 
 1308000   0.83412709   -1.1924003    1.2499394  0.057539121   0.13926685    12054.848     1000 
 1310000   0.84826944   -1.2307434    1.2711318  0.040388327   0.11755257    12178.565     1000 
 1312000   0.86687418   -1.2771877     1.299011  0.021823223   0.13600246    12143.759     1000 
 1314000   0.85254646   -1.2061583    1.2775409  0.071382584    0.1164677    12449.265     1000 
 1316000   0.84672287   -1.2054298    1.2688142  0.063384401   0.12810071    12215.445     1000 
 1318000   0.84738489    -1.252294    1.2698063  0.017512219   0.12359712     12342.92     1000 
 1320000   0.84785884    -1.226122    1.2705165  0.044394515   0.11967146    12112.156     1000 
 1322000   0.85767793   -1.2154657    1.2852304   0.06976463   0.13321453    11922.839     1000 
 1324000   0.84134967    -1.239252    1.2607625  0.021510502   0.13527494     12092.12     1000 
 1326000   0.88600898   -1.2597698    1.3276845  0.067914615   0.13673129    11952.091     1000 
 1328000    0.8316584   -1.2095852    1.2462401  0.036654958    0.1227931    12096.403     1000 
 1330000    0.8511853   -1.2306206    1.2755012  0.044880516   0.13197645    12062.737     1000 
 1332000   0.85861302   -1.2466902    1.2866316  0.039941421   0.14098254    12139.827     1000 
 1334000   0.83892568    -1.252172    1.2571301 0.0049581222   0.12419695    12299.648     1000 
 1336000   0.86415446   -1.2280305    1.2949355  0.066904974   0.11355828    12481.786     1000 
 1338000   0.84637781   -1.1845152    1.2682972   0.08378195   0.12390338    12116.431     1000 
 1340000   0.86122649   -1.2784584    1.2905479  0.012089523   0.11175681    12408.066     1000 
 1342000    0.8498761   -1.2649558    1.2735393 0.0085835076   0.13268914    12107.468     1000 
 1344000   0.81917281   -1.2095315    1.2275305  0.017998971    0.1254353    11953.309     1000 
 1346000   0.84449027    -1.205771    1.2654687  0.059697713   0.12604442    12045.511     1000 
 1348000   0.85077276   -1.2390054     1.274883  0.035877541   0.13738196    11798.322     1000 
 1350000   0.89118714   -1.2351935    1.3354439   0.10025043   0.11729753    12387.169     1000 
 1352000   0.88045584   -1.2335153    1.3193631  0.085847727   0.13450495    12229.988     1000 
 1354000   0.85026404   -1.1875538    1.2741207  0.086566861   0.12760809    12170.201     1000 
 1356000   0.84504022   -1.2745325    1.2662928 -0.0082397687   0.13582522    12031.608     1000 
 1358000      0.86897   -1.2309815    1.3021515  0.071170062   0.13429284    12126.221     1000 
 1360000   0.83324524   -1.2682498     1.248618 -0.019631769   0.13380497    12204.598     1000 
 1362000   0.85601823   -1.2036255    1.2827433  0.079117781   0.12925848    12139.955     1000 
 1364000   0.82170389    -1.147469    1.2313233  0.083854282   0.13579227    11870.908     1000 
 1366000    0.8292203   -1.3391492    1.2425866  -0.09656257   0.12859454    12284.957     1000 
 1368000   0.84031606   -1.1925408    1.2592136  0.066672851   0.13534213    12095.514     1000 
 1370000   0.86555917   -1.2068844    1.2970404  0.090155982   0.13108817     12438.92     1000 
 1372000   0.83236134   -1.2631941    1.2472935 -0.015900611   0.12434059    12151.245     1000 
 1374000   0.86814982   -1.2664013    1.3009225  0.034521256   0.13344315     11850.45     1000 
 1376000   0.84563223   -1.1826364    1.2671799   0.08454351   0.13476877    12068.405     1000 
 1378000   0.83609726   -1.2491244    1.2528917 0.0037672963   0.13126475    12078.063     1000 
 1380000    0.8243893   -1.2306639    1.2353474 0.0046834564   0.13020512    12337.197     1000 
 1382000   0.82426616   -1.2656729    1.2351628  -0.03051009   0.12000894    12432.771     1000 
 1384000    0.8773814   -1.2711437     1.314756  0.043612347   0.12081406    12407.539     1000 
 1386000    0.8426671   -1.2769759    1.2627366 -0.014239246   0.12597013    12238.734     1000 
 1388000   0.81562131   -1.2284263    1.2222085 -0.0062177514   0.13096716    12045.944     1000 
 1390000   0.84602704   -1.2532067    1.2677715  0.014564852   0.14306619    11869.318     1000 
 1392000   0.81696482   -1.3051723    1.2242218 -0.080950552   0.13223254    12095.452     1000 
 1394000   0.83478224   -1.1669083    1.2509212  0.084012922   0.12255882    11945.471     1000 
 1396000   0.84058785   -1.2210383    1.2596209  0.038582617   0.13218006     12041.11     1000 
 1398000   0.82609473   -1.2841375     1.237903 -0.046234507   0.13260578    12158.619     1000 
 1400000   0.83730346   -1.2263136    1.2546992  0.028385686   0.12846174    12012.842     1000 
 1402000   0.89470219   -1.2509872    1.3407112  0.089724006   0.11709329    12665.969     1000 
 1404000   0.84907373   -1.2756688     1.272337 -0.0033318284   0.13491756    12179.327     1000 
 1406000   0.81921111   -1.1801782    1.2275878  0.047409666   0.12920809    12219.974     1000 
 1408000   0.85420634    -1.222493    1.2800282  0.057535243   0.12938613    12042.836     1000 
 1410000   0.85483085   -1.1852359     1.280964  0.095728156   0.12571528    11901.418     1000 
 1412000   0.84661567   -1.2296841    1.2686536  0.038969481   0.13580241     11990.49     1000 
 1414000   0.87428141   -1.2558864    1.3101107  0.054224317   0.11369016    12639.189     1000 
 1416000   0.84398296   -1.1621602    1.2647085   0.10254825    0.1296433    12447.215     1000 
 1418000   0.81902562   -1.2836121    1.2273099 -0.056302167   0.12718395    12204.944     1000 
 1420000   0.85685715   -1.2699335    1.2840004  0.014066973   0.11591707    12550.622     1000 
 1422000   0.85900373   -1.2589413    1.2872171  0.028275742   0.12353653    12273.699     1000 
 1424000   0.81730827   -1.2121368    1.2247364   0.01259962    0.1197499    12126.036     1000 
 1426000   0.86047987   -1.1928094    1.2894291  0.096619682   0.13635273    12315.722     1000 
 1428000   0.82823379   -1.2316398    1.2411083 0.0094685437   0.12395566    12217.164     1000 
 1430000   0.83526262    -1.218602     1.251641  0.033039009   0.13707465     11857.47     1000 
 1432000   0.85398094   -1.2719736    1.2796904 0.0077168482   0.14085548    12049.261     1000 
 1434000   0.84436444   -1.2316593    1.2652801  0.033620835   0.12909539    12028.498     1000 
 1436000   0.86746292   -1.2291864    1.2998932  0.070706815   0.13633341     12113.76     1000 
 1438000   0.86944206   -1.2135623    1.3028589  0.089296596   0.12185851    12414.597     1000 
 1440000   0.83965381   -1.2832626    1.2582212  -0.02504132   0.12921005    12193.049     1000 
 1442000   0.81908525   -1.2001779    1.2273993  0.027221342    0.1161279    12447.781     1000 
 1444000   0.86874502   -1.2354902    1.3018144  0.066324192   0.12716798    12097.363     1000 
 1446000    0.8575988   -1.2953531    1.2851118  -0.01024134   0.12140285    12290.534     1000 
 1448000   0.86766905   -1.2137901    1.3002021  0.086411963   0.14384147    11844.708     1000 
 1450000   0.79533253   -1.1975142    1.1918058 -0.0057084401   0.13211834     12094.57     1000 
 1452000   0.85024068    -1.199363    1.2740857  0.074722628   0.13237983    11987.407     1000 
 1454000   0.86663708   -1.3237778    1.2986557 -0.025122153   0.12988497    12179.089     1000 
 1456000   0.87356431   -1.1565823    1.3090361    0.1524538    0.1334357    12164.945     1000 
 1458000   0.85717317   -1.1685496     1.284474   0.11592437   0.12996088    12113.415     1000 
 1460000   0.85948237   -1.2523087    1.2879343  0.035625649    0.1277897    12067.424     1000 
 1462000   0.80595506   -1.2646226    1.2077237 -0.056898985    0.1299766    11984.887     1000 
 1464000   0.87677867    -1.297295    1.3138528  0.016557861   0.12987983    12149.099     1000 
 1466000   0.86719181   -1.2370205    1.2994869   0.06246645   0.12711211    12336.428     1000 
 1468000   0.86931882   -1.2318225    1.3026742  0.070851781   0.14226755    11979.696     1000 
 1470000   0.84401834   -1.2919943    1.2647615 -0.027232823   0.12868209    12305.503     1000 
 1472000      0.83156   -1.2119875    1.2460927  0.034105154   0.12262527    12387.935     1000 
 1474000   0.87317939   -1.1726842    1.3084593   0.13577514   0.13390568    12153.041     1000 
 1476000   0.85048615   -1.2023192    1.2744535  0.072134309   0.12985368    12090.304     1000 
 1478000   0.84832637   -1.2711693    1.2712171 4.7755444e-05   0.12148263    12582.548     1000 
 1480000   0.86019688    -1.254965     1.289005  0.034040042   0.14323341    12016.205     1000 
 1482000    0.8076497   -1.2023307    1.2102631 0.0079323391   0.14364001    11758.965     1000 
 1484000   0.82541383   -1.2145399    1.2368826  0.022342701   0.11917534    12147.432     1000 
 1486000   0.86039395   -1.2109246    1.2893003  0.078375757   0.13416755      12002.2     1000 
 1488000   0.88629003   -1.2036097    1.3281056   0.12449587    0.1298159    12142.327     1000 
 1490000   0.82155746    -1.208944    1.2311038  0.022159867   0.12330434    12112.921     1000 
 1492000   0.80864958    -1.205177    1.2117614 0.0065844033   0.12873425    11993.993     1000 
 1494000   0.85774325   -1.2521996    1.2853283  0.033128612   0.13231576    12130.442     1000 
 1496000   0.84154652   -1.2911276    1.2610575 -0.030070113    0.1131091    12762.907     1000 
 1498000   0.84815646    -1.232256    1.2709625  0.038706449   0.13148183    12126.258     1000 
 1500000   0.80815459   -1.1877302    1.2110196  0.023289444   0.10832355    12521.906     1000 
 1502000   0.84271182   -1.2340123    1.2628037  0.028791412   0.11374729    12608.516     1000 
 1504000   0.86072155   -1.2245592    1.2897912  0.065232047    0.1362098    12090.485     1000 
 1506000   0.83536399   -1.2664995    1.2517929 -0.014706551   0.14401304     11943.83     1000 
 1508000   0.85787242   -1.2488585    1.2855218  0.036663319   0.13245544    12101.141     1000 
 1510000   0.86052399   -1.2148187    1.2894952  0.074676538   0.11562375    12420.435     1000 
 1512000   0.86533051   -1.2111217    1.2966978  0.085576103   0.14481731    11853.858     1000 
 1514000   0.87977543   -1.1620765    1.3183435   0.15626696   0.13544946    12120.137     1000 
 1516000   0.80647142   -1.2704604    1.2084974 -0.061962947   0.13217346    12225.682     1000 
 1518000   0.86193373   -1.2408522    1.2916077  0.050755494   0.12260584    12331.097     1000 
 1520000    0.8786417   -1.1822734    1.3166446   0.13437116   0.13988745    11987.804     1000 
 1522000   0.87508795   -1.2625176    1.3113193  0.048801684   0.13197848    12018.164     1000 
 1524000   0.83445386   -1.2323659    1.2504291  0.018063208   0.12884006    12111.339     1000 
 1526000   0.79407607    -1.169201     1.189923  0.020722039   0.13489908    11867.351     1000 
 1528000   0.86419876   -1.2526452    1.2950018  0.042356613   0.12596563    12180.161     1000 
 1530000   0.86294682   -1.1971556    1.2931258  0.095970178   0.12945323    12091.959     1000 
 1532000   0.87067123   -1.2416186    1.3047008  0.063082288   0.12655976    12327.753     1000 
 1534000   0.85011137   -1.2493505    1.2738919  0.024541369   0.13276165    12032.733     1000 
 1536000   0.84790355   -1.1910529    1.2705835  0.079530607    0.1414319    11937.694     1000 
 1538000   0.86648639   -1.2472975    1.2984299  0.051132405   0.12386383    12248.966     1000 
 1540000   0.84148289   -1.2110402    1.2609621  0.049921872   0.13232176    12072.337     1000 
 1542000   0.83889376   -1.1865382    1.2570823  0.070544057   0.13967748    12124.675     1000 
 1544000   0.85763726   -1.2081275    1.2851694  0.077041978   0.12786688     12138.68     1000 
 1546000     0.852939   -1.2804822    1.2781291 -0.0023530955   0.12201803    12318.986     1000 
 1548000   0.84638471    -1.205913    1.2683075  0.062394458   0.12128683    12120.583     1000 
 1550000   0.83012684   -1.2313377    1.2439451  0.012607385    0.1324885    12061.833     1000 
 1552000   0.87513701   -1.2926187    1.3113928  0.018774135   0.13112963    12230.941     1000 
 1554000   0.83903492   -1.1869822    1.2572938  0.070311615   0.12656661    12272.438     1000 
 1556000   0.86257366   -1.2324225    1.2925666  0.060144118   0.13723548    12134.188     1000 
 1558000   0.88175583   -1.2933687    1.3213111  0.027942409   0.12808359     12218.62     1000 
 1560000   0.85554803   -1.2202542    1.2820387   0.06178454   0.12666705    12234.054     1000 
 1562000   0.88754074   -1.2082588    1.3299798   0.12172097   0.12303724    12361.824     1000 
 1564000   0.84820545   -1.1921045    1.2710359  0.078931337    0.1369796    11847.148     1000 
 1566000   0.84631543   -1.3228478    1.2682037 -0.054644092   0.12960383    12106.853     1000 
 1568000    0.8652589   -1.2447125    1.2965905  0.051877949   0.13373481    12174.495     1000 
 1570000   0.92536042   -1.2826471    1.3866526   0.10400551   0.12764166    12344.884     1000 
 1572000   0.85442035   -1.1992963    1.2803489  0.081052589   0.13671484    11963.448     1000 
 1574000   0.83021606   -1.2635273    1.2440788 -0.019448577   0.12136225     12193.86     1000 
 1576000   0.89140843   -1.2516028    1.3357755  0.084172684   0.13252405    11995.332     1000 
 1578000   0.87547313    -1.201371    1.3118965    0.1105255   0.13229929    12103.739     1000 
 1580000   0.85857929   -1.2126322    1.2865811  0.073948903   0.13326571    12190.511     1000 
 1582000     0.849324   -1.2742464     1.272712 -0.0015343931   0.14126008     12284.21     1000 
 1584000   0.87473597   -1.2792786    1.3107919  0.031513283   0.12893842    12282.721     1000 
 1586000   0.83129671   -1.1790142    1.2456981  0.066683952    0.1414572    11906.454     1000 
[...]
 2614000   0.86757537   -1.1801771    1.3000617   0.11988458   0.14216594    12074.429     1000 
 2616000   0.83216393   -1.2555129    1.2469976 -0.0085152329   0.12345589    12567.765     1000 
 2618000   0.85987718   -1.2307351    1.2885259  0.057790822    0.1234394    12056.714     1000 
 2620000   0.84317008   -1.2879402    1.2634904 -0.024449864   0.12063523    12278.375     1000 
 2622000   0.78927775   -1.2145284    1.1827327 -0.031795666   0.12768156    12116.579     1000 
 2624000   0.81722287   -1.2677076    1.2246085 -0.043099157    0.1228795    12183.453     1000 
 2626000   0.86409327   -1.2383075    1.2948438  0.056536267    0.1214785    12445.306     1000 
 2628000   0.85908819   -1.2575772    1.2873437  0.029766456   0.12053258     12099.46     1000 
 2630000   0.83811825   -1.2468188    1.2559202 0.0091014248   0.12369204    12433.978     1000 
 2632000     0.845623   -1.1976932    1.2671661  0.069472842   0.12491452    12252.418     1000 
 2634000    0.8900808   -1.2428057    1.3337861  0.090980388    0.1306153    12075.425     1000 
 2636000    0.8603656   -1.2316367    1.2892578  0.057621128   0.13221039    12153.311     1000 
 2638000   0.84297837   -1.1644884    1.2632031  0.098714686   0.14336032    11979.643     1000 
 2640000   0.84373386   -1.2844471    1.2643352 -0.020111915    0.1265991    12105.695     1000 
 2642000   0.84388882   -1.1262567    1.2645674    0.1383107   0.12002499    12406.629     1000 
 2644000   0.86328734   -1.1997327    1.2936361  0.093903338   0.13432083    12072.065     1000 
 2646000   0.82847716   -1.2014201     1.241473   0.04005294   0.12895263    12162.246     1000 
 2648000   0.81978596   -1.2086262    1.2284493  0.019823088   0.12663007    12105.761     1000 
 2650000   0.81649754   -1.2675339    1.2235216 -0.044012343   0.11278445    12261.111     1000 
 2652000   0.85049633   -1.2509229    1.2744687  0.023545811   0.11598479     12291.77     1000 
 2654000   0.83403388   -1.2029415    1.2497998  0.046858221   0.12511675     12194.51     1000 
 2656000   0.85769795    -1.153281    1.2852604   0.13197938   0.15128467    11815.959     1000 
 2658000   0.81853195   -1.2498538    1.2265701 -0.023283713   0.11645062    12314.721     1000 
 2660000   0.88639544   -1.1945701    1.3282636   0.13369343   0.13549213    12238.294     1000 
 2662000   0.81958101   -1.1918685    1.2281421  0.036273666   0.12663707    12076.984     1000 
 2664000   0.84514341   -1.1967325    1.2664474  0.069714855   0.11852572    12314.379     1000 
 2666000   0.85652304   -1.2307136    1.2834998  0.052786144   0.12422203    12407.375     1000 
 2668000   0.85763861   -1.1974864    1.2851714  0.087685028   0.13640839    12085.954     1000 
 2670000    0.8909684   -1.2494465    1.3351162  0.085669661    0.1271441    12553.551     1000 
 2672000   0.85686568   -1.2482745    1.2840132  0.035738689   0.13043661    12189.168     1000 
 2674000    0.8412655   -1.2514836    1.2606363 0.0091527421   0.13379966    12041.681     1000 
 2676000   0.79880614   -1.2215544     1.197011 -0.024543438   0.12591552     12329.43     1000 
 2678000   0.82155209   -1.2421205    1.2310958 -0.011024728   0.12652804    12389.365     1000 
 2680000   0.85164665   -1.2068993    1.2761925  0.069293235   0.13103065     12077.28     1000 
 2682000   0.82941305    -1.263648    1.2428755 -0.020772525   0.12952599    12081.356     1000 
 2684000   0.83507827   -1.2322048    1.2513648   0.01915996   0.12775279     12317.99     1000 
 2686000     0.837451   -1.2324857    1.2549203  0.022434576   0.12985301    12080.145     1000 
 2688000   0.82885171   -1.2263508    1.2420343  0.015683489   0.12728799    11930.821     1000 
 2690000    0.8297754   -1.2343602    1.2434184 0.0090582777   0.11275056    12284.474     1000 
 2692000   0.83508508   -1.2026892     1.251375  0.048685776   0.13071366    11991.044     1000 
 2694000   0.83341883   -1.2052984    1.2488781  0.043579739   0.13295554    12009.151     1000 
 2696000   0.83215482   -1.2565589     1.246984 -0.0095749496    0.1280168     12025.72     1000 
 2698000   0.79998047   -1.1989301    1.1987707 -0.00015939623   0.12451674    12258.972     1000 
 2700000   0.85725857   -1.2166365     1.284602  0.067965507   0.13623657    12193.108     1000 
 2702000   0.81721349   -1.2382219    1.2245944 -0.013627457   0.13383268     12030.31     1000 
 2704000   0.89029911   -1.2886505    1.3341132  0.045462728   0.12660776     12356.69     1000 
 2706000   0.87178569   -1.2397887    1.3063709  0.066582127   0.13361542    12307.378     1000 
 2708000   0.82629417   -1.2205369    1.2382018  0.017664961   0.13854177    11853.263     1000 
 2710000   0.85192433   -1.2393494    1.2766086  0.037259222   0.13208696    12008.481     1000 
 2712000   0.85844569   -1.1814891    1.2863809   0.10489177   0.11970949    12213.394     1000 
 2714000   0.84991511   -1.1893795    1.2735978  0.084218248    0.1389902    11714.855     1000 
 2716000   0.82564248    -1.192727    1.2372253  0.044498224   0.13242098    12164.838     1000 
 2718000   0.79157736   -1.2513757    1.1861787 -0.065196982   0.11869948    12341.992     1000 
 2720000   0.83491741   -1.1936775    1.2511237  0.057446281   0.13612121    11892.094     1000 
 2722000   0.87656647   -1.2105031    1.3135349   0.10303173   0.12705405    12373.883     1000 
 2724000    0.8205332   -1.2076135     1.229569  0.021955462   0.12933101    12228.837     1000 
 2726000   0.86834738   -1.2131718    1.3012186  0.088046754     0.131221    12186.923     1000 
 2728000    0.8651565   -1.2308057     1.296437  0.065631305   0.13720697    12108.042     1000 
 2730000     0.844892   -1.2806942    1.2660707 -0.014623492   0.12948001    12306.638     1000 
 2732000   0.86911095   -1.1899333    1.3023628   0.11242949   0.13756532    12052.886     1000 
 2734000   0.82500261   -1.1962015    1.2362664  0.040064888   0.12979421    12129.001     1000 
 2736000   0.83490601   -1.2533731    1.2511067 -0.0022664221   0.12290579    12249.473     1000 
 2738000   0.83369927   -1.2267044    1.2492984  0.022593962   0.13678743    11979.995     1000 
 2740000   0.86136231    -1.248829    1.2907514  0.041922373   0.12555628    12302.881     1000 
 2742000   0.82886157   -1.2307359    1.2420491  0.011313144    0.1217094    12210.805     1000 
 2744000   0.86772586   -1.2914319    1.3002872 0.0088552629   0.12289864    12200.798     1000 
 2746000   0.83270166   -1.2224054    1.2478034  0.025398084   0.12370632     12091.22     1000 
 2748000   0.86465527   -1.2518992    1.2956859  0.043786756   0.12202675     12312.83     1000 
 2750000    0.8167909   -1.2184872    1.2239612 0.0054739485   0.11428508    12574.612     1000 
 2752000   0.84344957   -1.2466594    1.2639092   0.01724976   0.13111288    11994.037     1000 
 2754000   0.82354953   -1.2285712     1.234089 0.0055178137   0.12887768    12061.452     1000 
 2756000   0.83424375   -1.2149933    1.2501143  0.035120971    0.1204018    12205.875     1000 
 2758000   0.85520272   -1.2362039    1.2815213  0.045317402   0.12810068    12214.801     1000 
 2760000   0.85797032   -1.2755647    1.2856685  0.010103828   0.12654498    12255.801     1000 
 2762000   0.88157952   -1.2914236    1.3210469  0.029623304   0.13810511    12186.941     1000 
 2764000   0.84099659   -1.2374224    1.2602334  0.022811005   0.12735808    12291.146     1000 
 2766000   0.85973846   -1.2249409    1.2883181  0.063377206   0.12820181     11987.89     1000 
 2768000    0.8576967   -1.3050401    1.2852585 -0.019781636   0.12445764     12093.17     1000 
 2770000   0.86064466   -1.2474628     1.289676   0.04221322   0.11856355    12348.772     1000 
 2772000   0.83339065    -1.230825    1.2488359  0.018010893    0.1344441    12095.241     1000 
 2774000   0.85774533    -1.267039    1.2853314  0.018292324   0.11655471    12432.503     1000 
 2776000    0.8230145   -1.2161632    1.2332872  0.017124001   0.13818751    11971.708     1000 
 2778000   0.80384981    -1.204547    1.2045689 2.1973569e-05   0.12979994    12115.866     1000 
 2780000   0.85407531   -1.1886809    1.2798318  0.091150902   0.13109399    12231.479     1000 
 2782000   0.88704959   -1.2015549    1.3292438   0.12768888   0.13624435    12033.021     1000 
 2784000   0.83406482   -1.2066941    1.2498461  0.043152041   0.12611379    12099.268     1000 
 2786000   0.82012879   -1.1958914     1.228963  0.033071579   0.13491593    12005.245     1000 
 2788000   0.80885695   -1.2401992    1.2120721 -0.028127087   0.11059501    12457.568     1000 
 2790000    0.8100231   -1.2987074    1.2138196 -0.084887795   0.11990593    12250.507     1000 
 2792000   0.84558529   -1.2203613    1.2671096   0.04674822   0.13174604    11940.831     1000 
 2794000   0.88352505     -1.23817    1.3239623  0.085792328   0.13135384    12055.296     1000 
 2796000   0.88297332   -1.2871205    1.3231355  0.036015051   0.13564514    11985.941     1000 
 2798000   0.88729043   -1.2142214    1.3296047   0.11538331   0.12992544    12244.758     1000 
 2800000   0.87385669   -1.2230698    1.3094743   0.08640449   0.12650353    12226.531     1000 
 2802000   0.86325092   -1.2216529    1.2935815  0.071928614   0.13871026    11807.051     1000 
 2804000   0.81182823   -1.2304033    1.2165246 -0.013878649    0.1317296    11962.149     1000 
 2806000   0.81005835   -1.2220876    1.2138724 -0.008215201    0.1180684    12258.042     1000 
 2808000   0.87359869   -1.2290571    1.3090876  0.080030511   0.13002365    12244.326     1000 
 2810000   0.86347889    -1.152176    1.2939231   0.14174709   0.13542302    11857.775     1000 
 2812000   0.84821643    -1.299131    1.2710523 -0.028078682   0.12547794    12327.588     1000 
 2814000   0.84831977    -1.244219    1.2712072  0.026988134   0.11545846    12342.797     1000 
 2816000   0.87344925   -1.2045309    1.3088637   0.10433285   0.13491769    12043.993     1000 
 2818000   0.86122438   -1.2746321    1.2905447  0.015912636   0.12982201    12364.153     1000 
 2820000   0.85584645   -1.2150115    1.2824859  0.067474439   0.13426702    12098.461     1000 
 2822000   0.88711171   -1.2883215    1.3293369  0.041015362   0.12556703      12399.6     1000 
 2824000   0.84128951   -1.2542659    1.2606723  0.006406466   0.12575333    12262.621     1000 
 2826000   0.85318613    -1.193109    1.2784994   0.08539044    0.1279271    12062.126     1000 
 2828000   0.84867079   -1.2250843    1.2717332  0.046648897    0.1282623    12134.981     1000 
 2830000   0.86580621   -1.2524961    1.2974106  0.044914518   0.13076438    11973.524     1000 
 2832000   0.88543992   -1.2397824    1.3268317   0.08704931   0.13162033    12286.233     1000 
 2834000   0.86700954   -1.1830003    1.2992138   0.11621346   0.13922737    11980.419     1000 
 2836000   0.83426175   -1.1775365    1.2501412  0.072604708   0.13941353    11965.436     1000 
 2838000    0.8378635   -1.1648571    1.2555384  0.090681326   0.13465552     12099.69     1000 
 2840000    0.8638406    -1.210336    1.2944651  0.084129145   0.12532681    12236.163     1000 
 2842000   0.82123304   -1.1970997    1.2306177   0.03351803   0.12842491    12129.327     1000 
 2844000   0.83488751   -1.2166658    1.2510789  0.034413106   0.12946473    12105.258     1000 
 2846000   0.80614282   -1.1614837     1.208005  0.046521368   0.13325929    11808.437     1000 
 2848000   0.79503792   -1.1645803    1.1913643  0.026783987   0.12201033    12179.874     1000 
 2850000   0.85869807   -1.2347499    1.2867591  0.052009138   0.13787011    11997.748     1000 
 2852000   0.85906394   -1.2433828    1.2873073  0.043924537   0.11574149    12589.274     1000 
 2854000   0.84289704   -1.2177835    1.2630812   0.04529768   0.13377572    12022.966     1000 
 2856000   0.84571964     -1.19224    1.2673109  0.075070891   0.14204642    12267.893     1000 
 2858000   0.83040767   -1.1773636    1.2443659   0.06700228   0.13709255    11744.561     1000 
 2860000    0.8503302   -1.2917765    1.2742198 -0.017556697   0.12340241    12108.446     1000 
 2862000   0.86043053   -1.2283765    1.2893551  0.060978604   0.13834745    12237.524     1000 
 2864000   0.88975749   -1.2359479    1.3333016   0.09735371   0.13652876    11993.457     1000 
 2866000   0.85654297    -1.282127    1.2835296 0.0014026681   0.12423687    12465.615     1000 
 2868000   0.86768581    -1.236587    1.3002272  0.063640183   0.13150999    12295.908     1000 
 2870000   0.88605998   -1.2681365    1.3277609  0.059624389   0.14134998    12033.822     1000 
 2872000   0.82432724   -1.2548103    1.2352544 -0.019555952   0.12850975    12011.659     1000 
 2874000   0.84382216   -1.1929774    1.2644675  0.071490115   0.11706566    12481.606     1000 
 2876000    0.8110254   -1.2481152    1.2153216 -0.032793676   0.12110886    12127.326     1000 
 2878000   0.85113917   -1.2210158    1.2754321  0.054416263   0.12085668    12292.344     1000 
 2880000   0.83199505   -1.1994454    1.2467446  0.047299193   0.14772916    11820.131     1000 
 2882000   0.82940389   -1.1696727    1.2428617  0.073189012   0.12537971    12111.682     1000 
 2884000   0.84879751   -1.2153505    1.2719231  0.056572624   0.13648267    12121.649     1000 
 2886000   0.84985801   -1.1874431    1.2735122  0.086069112   0.13738744    12035.315     1000 
 2888000   0.83510842   -1.2140659      1.25141  0.037344058   0.13156414     11985.05     1000 
 2890000   0.82672275   -1.2188155     1.238844   0.02002854   0.11984347    12164.084     1000 
 2892000   0.84374888   -1.3257691    1.2643577 -0.061411412   0.12336946    12352.306     1000 
 2894000   0.85629502   -1.2091395    1.2831581  0.074018635   0.13111872    12086.493     1000 
 2896000   0.85297729   -1.1908099    1.2781865  0.087376596   0.13390178    11998.326     1000 
 2898000   0.85955586   -1.2166741    1.2880445  0.071370344    0.1281366    12395.014     1000 
 2900000   0.84282515   -1.2061216    1.2629735  0.056851909   0.13176021    12024.782     1000 
 2902000    0.8171545   -1.1666412     1.224506  0.057864827   0.13965944    12083.269     1000 
 2904000   0.83463832   -1.2494929    1.2507055 0.0012126584   0.12112433    12256.594     1000 
 2906000   0.90186272   -1.2122246    1.3514413   0.13921667   0.13674558    12145.092     1000 
 2908000   0.81640432   -1.1926826    1.2233819  0.030699237   0.12659327    12345.959     1000 
 2910000   0.84889792   -1.3177103    1.2720735  -0.04563676    0.1262688    12346.584     1000 
 2912000   0.86842117   -1.2091738    1.3013291  0.092155313   0.12724891    12372.744     1000 
 2914000     0.820091   -1.2770697    1.2289064 -0.048163348   0.11791267    12277.997     1000 
 2916000   0.85807932   -1.2487999    1.2858319  0.037031949   0.14503857    11907.591     1000 
 2918000   0.82477916   -1.1762456    1.2359316  0.059685973   0.12933048    12165.373     1000 
 2920000   0.87657602   -1.2442979    1.3135492  0.069251316   0.12928468    12273.264     1000 
 2922000    0.8192591   -1.2298187    1.2276598 -0.0021588988   0.13058073    12055.116     1000 
 2924000   0.82713172   -1.2241424    1.2394569  0.015314489   0.12970183     12175.82     1000 
 2926000   0.84745163    -1.190841    1.2699063  0.079065265   0.11992945    12361.819     1000 
 2928000   0.84678452   -1.2369194    1.2689066  0.031987247   0.13371348    12057.404     1000 
 2930000   0.86171165   -1.2501065    1.2912749  0.041168426   0.11989799    12457.056     1000 
 2932000   0.84457314   -1.2138194    1.2655929  0.051773459   0.13121616    12017.298     1000 
 2934000   0.84872834   -1.2080969    1.2718194  0.063722553   0.14572342    12051.503     1000 
 2936000   0.85529485   -1.2754838    1.2816593 0.0061755249   0.12293176    12397.507     1000 
 2938000   0.84247682   -1.2315555    1.2624515  0.030896042   0.12514836    12175.564     1000 
 2940000   0.83769398    -1.196586    1.2552844  0.058698427   0.11583685    12394.234     1000 
 2942000   0.79875832   -1.2564342    1.1969393 -0.059494883    0.1344373    12173.304     1000 
 2944000   0.85149094   -1.2297993    1.2759592  0.046159844   0.13784969    11928.017     1000 
 2946000   0.82488937    -1.177673    1.2360967  0.058423767   0.13895501    11903.892     1000 
 2948000   0.85473219   -1.1919602    1.2808162  0.088855956   0.12102026    12244.012     1000 
 2950000   0.85105455   -1.1893054    1.2753052  0.085999866   0.14176676    12039.031     1000 
 2952000   0.85839042   -1.2541817    1.2862981  0.032116304   0.12472019    12251.571     1000 
 2954000   0.78519829   -1.2371558    1.1766196 -0.060536129   0.11753976    12412.273     1000 
 2956000   0.85616584   -1.1674452    1.2829645   0.11551936    0.1388548    12089.945     1000 
 2958000   0.83585368   -1.2311669    1.2525267  0.021359836   0.13980999    12100.753     1000 
 2960000   0.82830467    -1.201251    1.2412146  0.039963589   0.13082107    12255.746     1000 
 2962000   0.85206854   -1.2340375    1.2768247  0.042787252   0.12526382     12371.18     1000 
 2964000   0.85022353   -1.2650467      1.27406 0.0090132528   0.13479328    12215.739     1000 
 2966000   0.84430693   -1.1936174    1.2651939  0.071576535    0.1247138    12479.985     1000 
 2968000   0.80704141   -1.2351374    1.2093516 -0.025785897   0.12212854    12062.457     1000 
 2970000   0.82307374   -1.2585601     1.233376 -0.025184091    0.1286173    12044.624     1000 
 2972000   0.84833542    -1.297499    1.2712306 -0.026268366   0.11298908    12460.099     1000 
 2974000   0.86483997   -1.2785787    1.2959627  0.017384005   0.14193178    11944.415     1000 
 2976000   0.83338061   -1.1921766    1.2488208  0.056644214   0.12125682    12015.866     1000 
 2978000   0.90017317    -1.264221    1.3489095  0.084688497    0.1333771    12198.264     1000 
 2980000   0.85942771    -1.235972    1.2878524  0.051880449   0.12163236    12514.215     1000 
 2982000   0.87221548   -1.1525421    1.3070149   0.15447284   0.13342593    12078.049     1000 
 2984000    0.8402275     -1.17972    1.2590809  0.079360933   0.13789073    12029.407     1000 
 2986000   0.86904031   -1.2293606    1.3022569  0.072896313   0.12739343    12274.656     1000 
 2988000    0.8283151   -1.1935563    1.2412302   0.04767382    0.1240598     12284.77     1000 
 2990000    0.8443994   -1.1908754    1.2653325  0.074457055   0.12537147    12175.376     1000 
 2992000   0.84692448    -1.205036    1.2691163  0.064080296   0.13235511    12221.414     1000 
 2994000   0.86072989    -1.241757    1.2898037  0.048046767   0.12601567    12327.375     1000 
 2996000   0.82506971   -1.2462392     1.236367 -0.0098722362    0.1232543     12151.51     1000 
 2998000   0.85048713   -1.2117748     1.274455  0.062680108   0.13778665    12272.103     1000 
 3000000   0.85919363   -1.2268941    1.2875017  0.060607587    0.1207392     12322.55     1000 
Loop time of 10700.3 on 1 procs for 3000000 steps with 1000 atoms

Performance: 121117.705 tau/day, 280.365 timesteps/s
100.0% CPU use with 1 MPI tasks x 1 OpenMP threads

MPI task timing breakdown:
Section |  min time  |  avg time  |  max time  |%varavg| %total
---------------------------------------------------------------
Pair    | 9584.7     | 9584.7     | 9584.7     |   0.0 | 89.57
Neigh   | 735.22     | 735.22     | 735.22     |   0.0 |  6.87
Comm    | 130.5      | 130.5      | 130.5      |   0.0 |  1.22
Output  | 0.062188   | 0.062188   | 0.062188   |   0.0 |  0.00
Modify  | 227.85     | 227.85     | 227.85     |   0.0 |  2.13
Other   |            | 21.97      |            |       |  0.21

Nlocal:        1000.00 ave        1000 max        1000 min
Histogram: 1 0 0 0 0 0 0 0 0 0
Nghost:        4094.00 ave        4094 max        4094 min
Histogram: 1 0 0 0 0 0 0 0 0 0
Neighs:        96780.0 ave       96780 max       96780 min
Histogram: 1 0 0 0 0 0 0 0 0 0

Total # of neighbors = 96780
Ave neighs/atom = 96.780000
Neighbor list builds = 150000
Dangerous builds not checked

Total wall time: 2:58:20
