LAMMPS (29 Sep 2021 - Update 2)
OMP_NUM_THREADS environment is not set. Defaulting to 1 thread. (src/comm.cpp:98)
  using 1 OpenMP thread(s) per MPI task
# ----------------------- Inicialização -----------------------

units			lj
atom_style 		atomic
dimension 		3
boundary 		p p p

# -------------------- Criação dos Átomos ---------------------

read_data 		topologia.txt
Reading data file ...
  orthogonal box = (0.0000000 0.0000000 0.0000000) to (21.540000 21.540000 21.540000)
  1 by 1 by 1 MPI processor grid
  reading atoms ...
  1000 atoms
  read_data CPU = 0.004 seconds

velocity 		all create ${temp} 87287 rot yes dist gaussian
velocity 		all create 0.37 87287 rot yes dist gaussian

# ------------------ Interação Interatômica -------------------

pair_style		table linear 1600
pair_coeff		1 1 force.table AA 8.0
WARNING: 3 of 1600 force values in table AA are inconsistent with -dE/dr.
WARNING:  Should only be flagged at inflection points (src/pair_table.cpp:465)
pair_coeff		1 2 force.table AB 8.0
WARNING: 1 of 1600 force values in table AB are inconsistent with -dE/dr.
WARNING:  Should only be flagged at inflection points (src/pair_table.cpp:465)
pair_coeff		2 2 force.table BB 8.0
pair_write		1 1 1600 r 0.008 8.0 table.check AA
Appending to table file table.check with DATE: 2023-07-05
Neighbor list info ...
  update every 1 steps, delay 10 steps, check yes
  max neighbors/atom: 2000, page size: 100000
  master list distance cutoff = 8.3
  ghost atom cutoff = 8.3
  binsize = 4.15, bins = 6 6 6
  1 neighbor lists, perpetual/occasional/extra = 1 0 0
  (1) pair table, perpetual
      attributes: half, newton on
      pair build: half/bin/atomonly/newton
      stencil: half/bin/3d
      bin: standard
pair_write		1 2 1600 r 0.008 8.0 table.check AB
Appending to table file table.check with DATE: 2023-07-05
pair_write		2 2 1600 r 0.008 8.0 table.check BB
Appending to table file table.check with DATE: 2023-07-05

neighbor 		0.3 bin
neigh_modify		every 20 delay 0 check no

# ------------------------- Ensemble --------------------------------------

fix 1			all npt temp ${temp} ${temp} 0.5 iso ${press} ${press} 5
fix 1			all npt temp 0.37 ${temp} 0.5 iso ${press} ${press} 5
fix 1			all npt temp 0.37 0.37 0.5 iso ${press} ${press} 5
fix 1			all npt temp 0.37 0.37 0.5 iso 0.13 ${press} 5
fix 1			all npt temp 0.37 0.37 0.5 iso 0.13 0.13 5

# ---------------------- Função de Distribuição Radial -----------------------

#compute RDF 		all rdf 2000 1 1 1 2 2 2
#fix 2 			all ave/time 1 2000 2000 c_RDF[*] file rdf.data mode vector

# ------------------------- Execução ---------------------------

timestep 		0.005
thermo_style		custom step temp pe ke etotal press vol atoms
thermo			2000
run			3000000
Per MPI rank memory allocation (min/avg/max) = 3.125 | 3.125 | 3.125 Mbytes
Step Temp PotEng KinEng TotEng Press Volume Atoms 
       0         0.37  -0.99524352     0.554445  -0.44079852   0.10515864    9993.9483     1000 
    2000   0.35480083   -2.3208179   0.53166904   -1.7891488   0.13019778    11355.342     1000 
    4000   0.37216599   -2.3199653   0.55769073   -1.7622745   0.13451301    11355.367     1000 
    6000   0.37681498   -2.3494842   0.56465724   -1.7848269   0.13661113    11373.718     1000 
    8000   0.36898861   -2.3113279   0.55292943   -1.7583984   0.14196521     11231.42     1000 
   10000   0.37119967   -2.3386115    0.5562427   -1.7823688   0.12652101    11380.632     1000 
   12000   0.38704401    -2.305813   0.57998545   -1.7258275   0.13190008    11312.949     1000 
   14000   0.37650952   -2.3371383   0.56419952   -1.7729388   0.11611645    11479.959     1000 
   16000   0.36886006    -2.358902    0.5527368   -1.8061652     0.128895    11419.948     1000 
   18000   0.35874857   -2.3485714   0.53758474   -1.8109866   0.11966585    11386.938     1000 
   20000   0.36946984   -2.3613233   0.55365056   -1.8076727   0.11589223    11486.433     1000 
   22000   0.35357269   -2.3625285   0.52982868   -1.8326998   0.13243642    11309.291     1000 
   24000   0.38051244    -2.356702   0.57019789   -1.7865041   0.12452355    11459.525     1000 
   26000   0.37624947   -2.3077111   0.56380983   -1.7439013   0.13300394    11303.914     1000 
   28000   0.36154663   -2.2752191   0.54177762   -1.7334415   0.13284006    11296.125     1000 
   30000   0.35949808   -2.3481728   0.53870788   -1.8094649   0.12313779    11512.642     1000 
   32000   0.37150114   -2.3157779   0.55669445   -1.7590835   0.12166164    11473.952     1000 
   34000   0.37248557   -2.3591342   0.55816962   -1.8009646   0.13095994    11353.959     1000 
   36000   0.36980886    -2.350638   0.55415857   -1.7964794   0.12572043    11411.047     1000 
   38000   0.35301272   -2.3017804   0.52898956   -1.7727909   0.13683428    11265.743     1000 
   40000   0.36617271   -2.3294037    0.5487098   -1.7806939   0.12734503    11313.422     1000 
   42000   0.37902312   -2.3205677   0.56796614   -1.7526016   0.12773175     11448.83     1000 
   44000   0.36700538   -2.3319088   0.54995757   -1.7819512   0.12304912    11352.643     1000 
   46000   0.37529662   -2.3222996   0.56238198   -1.7599176   0.13685151    11229.223     1000 
   48000   0.35298922    -2.362776   0.52895435   -1.8338216   0.13011273    11370.177     1000 
   50000   0.37225683   -2.3373715   0.55782685   -1.7795447    0.1220625    11458.991     1000 
   52000   0.37127725   -2.3337147   0.55635896   -1.7773558   0.12787012     11348.88     1000 
   54000   0.35663602    -2.387062   0.53441908   -1.8526429   0.12394071     11374.82     1000 
   56000   0.37010431   -2.3445106   0.55460131   -1.7899093   0.12869479    11300.629     1000 
   58000    0.3761475   -2.3068698   0.56365703   -1.7432128   0.13207226    11284.038     1000 
   60000   0.35577422   -2.3174565   0.53312766   -1.7843288   0.13126528    11382.169     1000 
   62000   0.37941117   -2.3454852   0.56854763   -1.7769375   0.11894051    11441.497     1000 
   64000    0.3806435   -2.3290289   0.57039428   -1.7586346    0.1386633    11310.683     1000 
   66000   0.36356439    -2.318528   0.54480123   -1.7737268   0.12629697    11381.475     1000 
   68000   0.36679504   -2.3514772   0.54964237   -1.8018348   0.12272481     11400.78     1000 
   70000    0.3878985   -2.2998782    0.5812659   -1.7186123   0.12678172    11463.098     1000 
   72000   0.38882728   -2.3273103   0.58265769   -1.7446527   0.13613312    11373.843     1000 
   74000    0.3744239   -2.3483915   0.56107421   -1.7873173   0.13238274    11352.854     1000 
   76000   0.35722951   -2.3323775   0.53530842   -1.7970691    0.1332436    11364.865     1000 
   78000   0.36794464   -2.3707412   0.55136505   -1.8193762   0.13616582    11383.374     1000 
   80000   0.37411591   -2.4039334   0.56061269   -1.8433207   0.12333339     11346.44     1000 
   82000   0.37548839   -2.3266367   0.56266936   -1.7639673   0.12758219    11358.625     1000 
   84000   0.37898879   -2.3114069    0.5679147   -1.7434922   0.13199702    11341.367     1000 
   86000   0.36027931   -2.3596289   0.53987855   -1.8197504   0.13317306    11366.905     1000 
   88000   0.37043946   -2.3773631   0.55510353   -1.8222596   0.11781991    11500.052     1000 
   90000   0.37048125   -2.3342569   0.55516615   -1.7790908   0.14076516     11286.68     1000 
   92000   0.37992216   -2.3542542   0.56931336   -1.7849408   0.13417508    11361.061     1000 
   94000   0.36922562   -2.3454767   0.55328459   -1.7921921   0.12728119    11359.673     1000 
   96000   0.36674338    -2.358093   0.54956496    -1.808528   0.13021898     11486.28     1000 
   98000    0.3726653   -2.3263581   0.55843895   -1.7679192    0.1297069    11426.812     1000 
  100000   0.36838067   -2.3831339   0.55201843   -1.8311155   0.10940771    11525.123     1000 
  102000   0.37944881   -2.3233113   0.56860404   -1.7547073   0.13650078    11390.714     1000 
  104000   0.37575657   -2.2987765   0.56307122   -1.7357053   0.12970066    11320.669     1000 
  106000   0.37687364   -2.3666111   0.56474515   -1.8018659   0.13537214    11298.325     1000 
  108000   0.35883949   -2.3505103   0.53772098   -1.8127893   0.14343911    11239.382     1000 
  110000   0.36013444   -2.3246729   0.53966146   -1.7850115   0.12799433    11426.497     1000 
  112000   0.38147746   -2.3887718   0.57164397   -1.8171279   0.12092908    11417.139     1000 
  114000   0.37487909   -2.3131891   0.56175631   -1.7514327   0.13674858    11279.133     1000 
  116000   0.37874599   -2.3831419   0.56755087    -1.815591   0.12767967    11357.456     1000 
  118000   0.37723193   -2.3238575   0.56528204   -1.7585755   0.13733018    11351.814     1000 
  120000   0.37070403   -2.3775312   0.55549999   -1.8220312   0.13350953    11440.043     1000 
  122000   0.36796086   -2.3255765   0.55138935   -1.7741872   0.13578718    11379.244     1000 
  124000   0.37181721   -2.3542145   0.55716809   -1.7970464   0.13799872    11372.178     1000 
  126000   0.37272346   -2.3491368   0.55852611   -1.7906107   0.12132604    11491.022     1000 
  128000   0.36361521   -2.3564329    0.5448774   -1.8115555   0.12588702    11414.059     1000 
  130000   0.37528191    -2.346861   0.56235994   -1.7845011   0.13020334     11365.38     1000 
  132000   0.36645242   -2.3511732   0.54912896   -1.8020442   0.14107794    11271.235     1000 
  134000   0.36311667   -2.3933029   0.54413033   -1.8491726   0.11998567    11397.939     1000 
  136000   0.35393213   -2.3124211   0.53036729   -1.7820538    0.1189038     11451.21     1000 
  138000   0.36126643   -2.3333698   0.54135775   -1.7920121   0.13465336    11274.455     1000 
  140000   0.38826481   -2.3121507   0.58181482   -1.7303359   0.13634628    11223.097     1000 
  142000    0.3774969   -2.3549898    0.5656791   -1.7893107   0.13277348    11375.833     1000 
  144000   0.36810621   -2.3534987   0.55160716   -1.8018916   0.12458876     11398.85     1000 
  146000   0.35264068   -2.3294807   0.52843205   -1.8010486   0.11264692    11514.125     1000 
  148000   0.35107072   -2.3227186   0.52607947   -1.7966391   0.12102501     11428.82     1000 
  150000   0.36565438   -2.3619095   0.54793309   -1.8139764   0.14112732    11317.673     1000 
  152000   0.37994035    -2.327572   0.56934062   -1.7582314   0.14886454    11293.781     1000 
  154000    0.3527406   -2.3501976    0.5285818   -1.8216158   0.12025804    11369.674     1000 
  156000    0.3580876   -2.3329034   0.53659426   -1.7963091   0.13319164    11329.574     1000 
  158000   0.35869335    -2.341653   0.53750199   -1.8041511   0.12159211    11395.105     1000 
  160000   0.37175737   -2.3525831   0.55707842   -1.7955047   0.13120238    11307.609     1000 
  162000   0.35309491   -2.2979761   0.52911272   -1.7688634   0.12175636    11378.807     1000 
  164000   0.35643158   -2.3247353   0.53411272   -1.7906225   0.12174894    11401.823     1000 
  166000    0.3760458    -2.371762   0.56350462   -1.8082574   0.12965641    11349.422     1000 
  168000   0.37136625   -2.3409145   0.55649233   -1.7844222   0.12213565     11420.61     1000 
  170000   0.35674696   -2.3023807   0.53458532   -1.7677954   0.13372682    11294.648     1000 
  172000   0.38960797   -2.3297292   0.58382755   -1.7459017   0.12611191    11404.003     1000 
  174000   0.35874925   -2.3187048   0.53758575   -1.7811191   0.12658124    11395.277     1000 
  176000   0.35668207   -2.3670254   0.53448809   -1.8325374   0.12839003    11375.408     1000 
  178000   0.36963443   -2.3479384    0.5538972   -1.7940412   0.12422947    11414.393     1000 
  180000   0.37614705   -2.3612889   0.56365636   -1.7976325   0.11640315    11508.146     1000 
  182000   0.38409572   -2.2979133   0.57556744   -1.7223459   0.13358143    11333.419     1000 
  184000   0.37221698   -2.3977082   0.55776715    -1.839941   0.12564611    11386.415     1000 
  186000   0.34823094   -2.3197856   0.52182407   -1.7979615   0.12464293    11375.065     1000 
  188000   0.35548033   -2.3365935   0.53268728   -1.8039062    0.1304576     11332.07     1000 
  190000   0.37225394   -2.3476189   0.55782252   -1.7897964   0.12891539    11379.061     1000 
  192000   0.37429382     -2.32697    0.5608793   -1.7660907   0.13524775    11360.558     1000 
  194000   0.35926593    -2.370703   0.53835999    -1.832343   0.14135385    11379.146     1000 
  196000   0.36568257   -2.3435855   0.54797532   -1.7956102   0.13168564    11350.775     1000 
  198000   0.37488705   -2.3467525   0.56176825   -1.7849842   0.12427028    11460.772     1000 
  200000   0.36046122   -2.3436956   0.54015114   -1.8035445   0.12550664    11418.265     1000 
  202000   0.36528526   -2.3484954   0.54737997   -1.8011154   0.12991508    11386.251     1000 
  204000   0.35178071   -2.3319366    0.5271434   -1.8047932   0.13996797    11244.611     1000 
  206000   0.38747044   -2.3713339   0.58062446   -1.7907094   0.12932602    11374.346     1000 
  208000   0.36871655   -2.3276934   0.55252175   -1.7751716   0.11223938    11578.179     1000 
  210000   0.36299338   -2.3183937   0.54394558   -1.7744481   0.13517816    11251.565     1000 
  212000   0.35854142   -2.3374766   0.53727432   -1.8002023   0.12888175    11395.557     1000 
  214000   0.36522001   -2.3622997   0.54728219   -1.8150175   0.11522423    11436.684     1000 
  216000   0.35478303   -2.3490369   0.53164237   -1.8173945   0.12919462    11378.641     1000 
  218000   0.35958882   -2.3655226   0.53884384   -1.8266788   0.12464433    11413.302     1000 
  220000   0.39163138   -2.3391597   0.58685962   -1.7523001   0.12939318    11418.659     1000 
  222000   0.37334774   -2.2972407   0.55946158   -1.7377791   0.14000809    11263.174     1000 
  224000   0.39360943   -2.3340738   0.58982373   -1.7442501    0.1214691    11424.861     1000 
  226000   0.36049729   -2.3878395   0.54020519   -1.8476344   0.12126638    11509.974     1000 
  228000   0.36066523     -2.32913   0.54045685   -1.7886732   0.12981115    11322.448     1000 
  230000   0.37779722   -2.3885913   0.56612913   -1.8224622   0.12547317     11401.91     1000 
  232000   0.36071041   -2.3427853   0.54052455   -1.8022608   0.12651961    11355.649     1000 
  234000   0.37525343   -2.3390843   0.56231727    -1.776767   0.12142303    11351.909     1000 
  236000   0.38975496   -2.3332877    0.5840478   -1.7492399   0.12778092    11426.332     1000 
  238000   0.36801768   -2.3491358   0.55147449   -1.7976613   0.12596805    11373.288     1000 
  240000    0.3664587   -2.3683672   0.54913837   -1.8192289   0.13715317    11375.195     1000 
  242000   0.35997418   -2.3685669    0.5394213   -1.8291456   0.11974919    11506.524     1000 
  244000   0.38374724   -2.2854267   0.57504524   -1.7103814   0.13404972     11333.51     1000 
  246000    0.3593457   -2.3227044   0.53847953   -1.7842249   0.12280802    11307.992     1000 
  248000   0.36575886    -2.282199   0.54808966   -1.7341093   0.13001034    11376.841     1000 
  250000   0.36411293   -2.3159394   0.54562323   -1.7703162   0.13211134    11331.705     1000 
  252000   0.36126032   -2.3413187   0.54134859   -1.7999701   0.12154834    11443.519     1000 
  254000    0.3717101   -2.2819955   0.55700759   -1.7249879   0.13012179    11364.453     1000 
  256000   0.37203073     -2.33517   0.55748805    -1.777682   0.12241037    11372.611     1000 
  258000   0.37095211   -2.3360104   0.55587174   -1.7801387   0.12461368    11361.952     1000 
  260000   0.38885458    -2.386536   0.58269859   -1.8038374   0.12372573    11428.421     1000 
  262000   0.38099201   -2.3450893   0.57091653   -1.7741727   0.13518653     11225.55     1000 
  264000   0.36759987   -2.3055921   0.55084841   -1.7547437   0.11996917    11365.917     1000 
  266000   0.37901178   -2.3020748   0.56794915   -1.7341257    0.1307408    11271.177     1000 
  268000   0.36091947   -2.3516364   0.54083783   -1.8107986    0.1287149    11288.648     1000 
  270000   0.36955185   -2.3656326   0.55377345   -1.8118592   0.12735005    11385.524     1000 
  272000   0.36809464   -2.3579671   0.55158981   -1.8063773   0.12890613    11428.674     1000 
  274000   0.37966171   -2.3414897   0.56892307   -1.7725666   0.12595185    11447.103     1000 
  276000   0.37476351   -2.3459495   0.56158312   -1.7843663   0.13598653    11398.872     1000 
  278000   0.36162106   -2.3008422   0.54188915    -1.758953   0.12073226    11446.646     1000 
  280000   0.35819852   -2.2959992   0.53676049   -1.7592387   0.12465944    11355.073     1000 
  282000   0.34910605   -2.3546267   0.52313541   -1.8314913   0.11386055    11423.439     1000 
  284000    0.3880408   -2.3249297   0.58147913   -1.7434506   0.12934195    11365.671     1000 
  286000   0.36537174   -2.3559133   0.54750956   -1.8084038   0.13445142    11320.774     1000 
  288000     0.366756   -2.3098343   0.54958387   -1.7602504   0.13608197    11295.237     1000 
  290000   0.38085113   -2.3333177   0.57070542   -1.7626123   0.12363322    11376.822     1000 
  292000   0.35891956     -2.33084   0.53784096   -1.7929991   0.12174693    11462.493     1000 
  294000   0.36205555   -2.3431786   0.54254025   -1.8006384   0.12600071    11420.642     1000 
  296000   0.36755325   -2.3169128   0.55077855   -1.7661343   0.14198934    11279.872     1000 
  298000   0.36301435   -2.3479472     0.543977   -1.8039702   0.13058797    11318.656     1000 
  300000   0.36915415   -2.3784675   0.55317749     -1.82529   0.12984257    11403.164     1000 
  302000   0.37928566   -2.3596635   0.56835956    -1.791304   0.12756391    11430.827     1000 
  304000   0.38398135   -2.3710905   0.57539606   -1.7956945   0.12235667    11488.137     1000 
  306000   0.37050812   -2.2963445   0.55520642   -1.7411381   0.14478886    11240.341     1000 
  308000    0.3577573   -2.3633332   0.53609931   -1.8272339   0.12714213    11382.738     1000 
  310000   0.37921848   -2.3464349   0.56825889    -1.778176   0.12771948     11384.38     1000 
  312000   0.38000497   -2.3523443   0.56943745   -1.7829069   0.13657248    11338.515     1000 
  314000   0.36375988   -2.3305105   0.54509418   -1.7854163   0.13466905    11311.723     1000 
  316000    0.3549324   -2.3330332    0.5318662    -1.801167   0.13257885     11246.88     1000 
  318000   0.38466152   -2.3068382   0.57641529   -1.7304229    0.1350899    11405.341     1000 
  320000   0.36108667   -2.3642122   0.54108838   -1.8231238   0.13226953    11264.695     1000 
  322000   0.36926532   -2.3764232   0.55334409   -1.8230791   0.10952913    11468.731     1000 
  324000   0.37610552   -2.3134158   0.56359412   -1.7498217   0.14306839    11291.934     1000 
  326000   0.37219813   -2.3041411    0.5577389   -1.7464022   0.12405493    11411.828     1000 
  328000   0.38459727    -2.361239   0.57631902     -1.78492   0.12643946    11517.832     1000 
  330000   0.37734162    -2.385994   0.56544641   -1.8205476   0.12877052    11386.099     1000 
  332000   0.36625705   -2.3142775   0.54883618   -1.7654413   0.13829665     11286.99     1000 
  334000   0.37319479   -2.3031197   0.55923239   -1.7438873   0.14070601    11268.743     1000 
  336000   0.36174119   -2.3576288   0.54206917   -1.8155597   0.11857981    11430.889     1000 
  338000   0.36091602   -2.3310784   0.54083265   -1.7902458     0.143899    11295.374     1000 
  340000   0.36522554   -2.3151947   0.54729047   -1.7679042   0.12429694    11371.089     1000 
  342000   0.37393667   -2.3205574   0.56034411   -1.7602133   0.12761906    11382.404     1000 
  344000    0.3607563   -2.3628699   0.54059331   -1.8222766   0.11791462    11444.423     1000 
  346000   0.39064595   -2.3502192   0.58538296   -1.7648363   0.12006731    11433.812     1000 
  348000    0.3770479    -2.335161   0.56500628   -1.7701547   0.12477306    11418.799     1000 
  350000   0.35494062   -2.3187576   0.53187852   -1.7868791    0.1346912    11334.306     1000 
  352000   0.36252987   -2.3232842   0.54325101   -1.7800332   0.13494883    11453.893     1000 
  354000   0.37129345   -2.2863352   0.55638324    -1.729952   0.14435431    11227.339     1000 
  356000   0.36702703   -2.3550416      0.54999   -1.8050516   0.13667113    11329.657     1000 
  358000   0.35953122   -2.3424841   0.53875754   -1.8037266   0.12914351    11396.067     1000 
  360000   0.37412585   -2.3396734   0.56062759   -1.7790459   0.12862754    11372.996     1000 
  362000   0.35276239   -2.3091277   0.52861444   -1.7805133   0.11734599    11429.067     1000 
  364000   0.37896535   -2.3283296   0.56787958   -1.7604501   0.13278349    11245.291     1000 
  366000   0.35566985   -2.3367456   0.53297127   -1.8037743   0.13950146    11334.877     1000 
  368000   0.35902003   -2.3437374   0.53799152   -1.8057458   0.12686828    11344.303     1000 
  370000   0.35339759   -2.3330173   0.52956629    -1.803451   0.13309848    11423.191     1000 
  372000   0.37187878   -2.3110781   0.55726034   -1.7538178    0.1393105    11329.862     1000 
  374000   0.39082881   -2.3554348   0.58565698   -1.7697779   0.12167095    11463.243     1000 
  376000    0.3816315   -2.3790727   0.57187481   -1.8071979   0.12494299    11473.395     1000 
  378000   0.35791288   -2.3155565   0.53633246   -1.7792241   0.13769601    11322.069     1000 
  380000   0.36315069   -2.3178932   0.54418132   -1.7737118   0.13523024    11304.628     1000 
  382000   0.36834883   -2.3340177   0.55197072    -1.782047   0.11907587    11513.781     1000 
  384000   0.36849995   -2.2946913   0.55219717   -1.7424941    0.1307326    11295.511     1000 
  386000   0.35141829   -2.3407466   0.52660031   -1.8141463   0.13824111    11305.846     1000 
  388000   0.38040004   -2.3536514   0.57002946   -1.7836219    0.1321371    11324.391     1000 
  390000   0.35264626    -2.337447   0.52844042   -1.8090066   0.13273192    11343.942     1000 
  392000   0.37354077   -2.3594809   0.55975084   -1.7997301   0.13057084    11418.297     1000 
  394000   0.37197236   -2.3220958   0.55740058   -1.7646952    0.1425084    11273.229     1000 
  396000   0.37036818   -2.3190503   0.55499672   -1.7640536   0.12045218    11459.687     1000 
  398000   0.38091431   -2.3189696   0.57080009   -1.7481695    0.1438177    11236.985     1000 
  400000   0.36710822   -2.3442344   0.55011167   -1.7941228   0.11822552    11344.473     1000 
  402000   0.38118103   -2.3430434   0.57119978   -1.7718436   0.13899087    11363.198     1000 
  404000   0.37580101   -2.3102309   0.56313781   -1.7470931   0.13859664    11248.836     1000 
  406000   0.35523796   -2.3126882   0.53232408   -1.7803641   0.12777641    11334.831     1000 
  408000   0.36851804   -2.3087771   0.55222429   -1.7565528   0.12583483    11368.626     1000 
  410000   0.36672847   -2.3379064   0.54954261   -1.7883638   0.11722271    11426.426     1000 
  412000   0.38273712   -2.3229759   0.57353157   -1.7494443   0.14259816    11289.329     1000 
  414000    0.3523146   -2.3412234   0.52794343   -1.8132799   0.12657884     11390.25     1000 
  416000   0.37249117     -2.35804   0.55817802    -1.799862    0.1240453    11415.442     1000 
  418000   0.36924178   -2.3608146   0.55330881   -1.8075058   0.13581994    11361.774     1000 
  420000   0.36649069   -2.3497539   0.54918629   -1.8005676     0.126996    11390.151     1000 
  422000   0.38047775   -2.3054568   0.57014592   -1.7353109   0.11766921    11411.191     1000 
  424000   0.37120235   -2.3884836   0.55624672   -1.8322369   0.12838553    11405.209     1000 
  426000   0.36563743   -2.3140454    0.5479077   -1.7661377   0.14345645    11181.618     1000 
  428000   0.37767535   -2.3088877   0.56594651   -1.7429412   0.13459887    11315.085     1000 
  430000   0.36924335   -2.3380504   0.55331116   -1.7847392   0.12996894    11357.984     1000 
  432000   0.37027053   -2.3130337    0.5548504   -1.7581833   0.13534422    11329.672     1000 
  434000   0.35629034   -2.3720593   0.53390108   -1.8381582   0.13606329    11351.193     1000 
  436000    0.3683987   -2.3575697   0.55204546   -1.8055243   0.12806261    11350.468     1000 
  438000   0.37615887   -2.3624066   0.56367406   -1.7987326   0.13192769     11329.95     1000 
  440000   0.34687792   -2.3351488   0.51979656   -1.8153522   0.12031936    11393.729     1000 
  442000   0.37175328    -2.321094   0.55707229   -1.7640217   0.12780711    11327.414     1000 
  444000   0.37492654   -2.3535414   0.56182742    -1.791714   0.13436705    11286.041     1000 
  446000   0.37547045   -2.3387831   0.56264247   -1.7761406   0.13301231    11378.642     1000 
  448000   0.36387956   -2.3632475   0.54527352    -1.817974   0.12646316    11408.325     1000 
  450000   0.34853173   -2.3314851    0.5222748   -1.8092103    0.1341819    11354.588     1000 
  452000   0.36986081   -2.3164411   0.55423643   -1.7622047   0.12504548     11383.51     1000 
  454000   0.35927985   -2.3448319   0.53838086   -1.8064511   0.12493759    11418.957     1000 
  456000    0.3533161   -2.3356733   0.52944417   -1.8062292   0.11692965    11387.817     1000 
  458000    0.3637982   -2.3786576    0.5451516    -1.833506   0.11650097    11618.606     1000 
  460000   0.35144813   -2.3442249   0.52664502   -1.8175799   0.13516115    11380.525     1000 
  462000   0.36808063   -2.3409512   0.55156882   -1.7893824   0.12136572    11439.031     1000 
  464000   0.37193062   -2.3672679   0.55733803   -1.8099298   0.13636465    11295.099     1000 
  466000   0.35867763    -2.317396   0.53747842   -1.7799176   0.12642561     11377.46     1000 
  468000     0.372303   -2.3715818   0.55789605   -1.8136857    0.1299105    11368.893     1000 
  470000   0.37493943   -2.3147043   0.56184674   -1.7528575   0.12165412    11508.187     1000 
  472000   0.38049888   -2.3563395   0.57017757   -1.7861619    0.1223367    11429.158     1000 
  474000   0.35677179   -2.3543616   0.53462253   -1.8197391   0.13514324    11340.383     1000 
  476000   0.36156098   -2.3625323   0.54179913   -1.8207332   0.14030471    11343.868     1000 
  478000   0.37500256   -2.3144509   0.56194134   -1.7525096   0.14518483    11368.608     1000 
  480000   0.38507959   -2.3498881   0.57704177   -1.7728463    0.1348781    11350.425     1000 
  482000    0.3810992   -2.3471565   0.57107715   -1.7760793   0.13347232    11371.254     1000 
  484000   0.36272759   -2.3548874   0.54354729   -1.8113401   0.12509998    11377.011     1000 
  486000   0.37613197   -2.2961598   0.56363375   -1.7325261   0.13389338     11267.37     1000 
  488000   0.36195787   -2.3094306   0.54239387   -1.7670367   0.13129045    11320.584     1000 
  490000   0.35412977   -2.3320099   0.53066346   -1.8013464   0.12706653    11364.617     1000 
  492000   0.37092738   -2.3541959   0.55583468   -1.7983613   0.11882336    11464.812     1000 
  494000   0.37517292   -2.2782597   0.56219662   -1.7160631   0.13958936    11253.316     1000 
  496000   0.35807329   -2.3241242   0.53657282   -1.7875513   0.13199046    11378.411     1000 
  498000   0.37745863   -2.3373951   0.56562176   -1.7717733   0.12523168    11377.019     1000 
  500000    0.3869693   -2.3713178   0.57987349   -1.7914443   0.13363441    11381.412     1000 
  502000   0.37261045   -2.3307236   0.55835676   -1.7723668   0.12315034    11453.263     1000 
  504000   0.38263056   -2.3404686    0.5733719   -1.7670966   0.14031052    11243.007     1000 
  506000   0.36026607   -2.3593333   0.53985871   -1.8194746   0.12325592    11380.311     1000 
  508000   0.37666451   -2.3363445   0.56443177   -1.7719127   0.12990354    11386.972     1000 
  510000   0.39879457   -2.3428172   0.59759367   -1.7452235   0.13384068    11350.093     1000 
  512000   0.38824054   -2.3666387   0.58177844   -1.7848602   0.13523895    11354.909     1000 
  514000    0.3733629   -2.3581078    0.5594843   -1.7986235   0.12937743    11396.762     1000 
  516000   0.36190169   -2.3530533   0.54230969   -1.8107436   0.12781073    11391.858     1000 
  518000   0.36537498   -2.3513896    0.5475144   -1.8038752   0.12793844    11373.469     1000 
  520000   0.38029427   -2.3287327   0.56987097   -1.7588617    0.1270852    11300.124     1000 
  522000   0.35540048   -2.3893634   0.53256762   -1.8567957    0.1244939    11427.616     1000 
  524000   0.36679251    -2.326516   0.54963857   -1.7768775   0.12386937    11469.665     1000 
  526000   0.36156189   -2.3419141   0.54180049   -1.8001136   0.12768875    11419.227     1000 
  528000   0.39708861   -2.3401959   0.59503728   -1.7451586   0.14937909    11204.414     1000 
  530000   0.36041312   -2.3292856   0.54007906   -1.7892065   0.13704572    11248.696     1000 
  532000   0.37648718   -2.3190875   0.56416604   -1.7549215   0.14790981    11271.928     1000 
  534000   0.37638103   -2.3139334   0.56400697   -1.7499264   0.13161695    11294.905     1000 
  536000   0.37188084   -2.3933539   0.55726344   -1.8360905   0.13497816    11310.937     1000 
  538000    0.3839558   -2.3358935   0.57535777   -1.7605357   0.13396464    11293.838     1000 
  540000   0.35697014   -2.3329938   0.53491976   -1.7980741   0.11991524    11384.357     1000 
  542000    0.3737267   -2.3271229   0.56002946   -1.7670935   0.13058136    11347.697     1000 
  544000    0.3695349   -2.3543793   0.55374804   -1.8006312   0.13195794     11355.99     1000 
  546000    0.3669659   -2.3463628    0.5498984   -1.7964644   0.14006276    11330.123     1000 
  548000   0.36332757   -2.3425401   0.54444636   -1.7980937   0.13208793    11411.853     1000 
  550000   0.36101671    -2.349754   0.54098353   -1.8087704   0.13635502    11303.746     1000 
  552000   0.36353049   -2.3312381   0.54475045   -1.7864877   0.12194026    11439.028     1000 
  554000   0.37174564      -2.3825   0.55706083   -1.8254392   0.12846507    11474.452     1000 
  556000   0.35542191   -2.3478294   0.53259974   -1.8152297   0.13586571    11342.319     1000 
  558000   0.38910391   -2.3661606   0.58307221   -1.7830884   0.12489187    11402.953     1000 
  560000   0.38052958   -2.3565661   0.57022357   -1.7863425   0.13745789    11367.154     1000 
  562000   0.35166779   -2.3502337   0.52697418   -1.8232595   0.13684235    11368.785     1000 
  564000   0.36876133   -2.3671232   0.55258885   -1.8145344   0.12529446    11397.223     1000 
  566000   0.36016179   -2.3043881   0.53970244   -1.7646856   0.12638275    11334.963     1000 
  568000   0.35727352   -2.3373826   0.53537437   -1.8020082   0.12539571    11480.318     1000 
  570000   0.37331366   -2.3736846   0.55941053    -1.814274   0.12774986    11382.418     1000 
  572000   0.36649047   -2.3462213   0.54918597   -1.7970353   0.13535501    11316.475     1000 
  574000    0.3600043   -2.3191354   0.53946645   -1.7796689   0.13050951    11351.142     1000 
  576000   0.36440235   -2.3503231   0.54605693   -1.8042662   0.12799418    11359.713     1000 
  578000   0.37776295   -2.3549844   0.56607778   -1.7889067   0.12522322    11491.619     1000 
  580000   0.37929539   -2.3736389   0.56837415   -1.8052648   0.14210802    11280.633     1000 
  582000   0.36551906   -2.3551857   0.54773031   -1.8074554   0.13091146    11405.932     1000 
  584000   0.36861804   -2.3389766   0.55237414   -1.7866025   0.12187397    11501.801     1000 
  586000   0.37117334    -2.277502   0.55620325   -1.7212987   0.13422305    11317.962     1000 
  588000   0.36419048    -2.337719   0.54573943   -1.7919796   0.13253073    11299.078     1000 
  590000    0.3599535   -2.3634344   0.53939033   -1.8240441   0.12138302    11455.136     1000 
  592000    0.3739669    -2.316065   0.56038941   -1.7556756   0.13981832    11251.508     1000 
  594000   0.37916887   -2.3384459   0.56818455   -1.7702614   0.13660235    11310.857     1000 
  596000   0.37379133   -2.3512515   0.56012631   -1.7911252   0.12892146    11412.214     1000 
  598000   0.36002111   -2.3314679   0.53949164   -1.7919763    0.1265898    11396.082     1000 
  600000   0.37595588     -2.32153   0.56336988   -1.7581601   0.11921659    11410.614     1000 
  602000   0.37418525    -2.354689   0.56071659   -1.7939725   0.12034083    11443.524     1000 
  604000    0.3510921   -2.3444574   0.52611151   -1.8183459   0.12571946    11497.322     1000 
  606000   0.35256926   -2.2896474   0.52832504   -1.7613224   0.12285195    11413.228     1000 
  608000   0.37995981   -2.3624205   0.56936978   -1.7930507   0.13162257    11445.602     1000 
  610000   0.35012167   -2.3838581   0.52465732   -1.8592008   0.12489695    11517.225     1000 
  612000   0.34639477   -2.3200227   0.51907256   -1.8009501   0.12478987    11336.705     1000 
  614000   0.36377286   -2.3071273   0.54511363   -1.7620136   0.13232369    11352.198     1000 
  616000   0.38213446   -2.3457896   0.57262849   -1.7731611   0.13775373    11213.627     1000 
  618000   0.38412317   -2.3788636   0.57560858    -1.803255   0.12165202     11537.01     1000 
  620000   0.35541318   -2.3814572   0.53258666   -1.8488705     0.119929    11478.509     1000 
  622000   0.36586408   -2.3261746   0.54824733   -1.7779272   0.13149307    11338.621     1000 
  624000   0.36996402   -2.2813839   0.55439108   -1.7269928   0.12574924    11338.921     1000 
  626000   0.38274266   -2.3126463   0.57353988   -1.7391064   0.13169783    11367.488     1000 
  628000   0.37914428     -2.38335   0.56814771   -1.8152023   0.11235601    11438.544     1000 
  630000   0.35311692    -2.371185   0.52914571   -1.8420393   0.13600794    11330.781     1000 
  632000   0.37320547   -2.3510342    0.5592484   -1.7917858   0.12689958    11442.167     1000 
  634000   0.36799996   -2.3053937   0.55144794   -1.7539457   0.12858896    11371.933     1000 
  636000   0.35499853   -2.3065567   0.53196529   -1.7745914   0.12864188    11351.646     1000 
  638000   0.35723194   -2.3667557   0.53531206   -1.8314437   0.12713377    11461.169     1000 
  640000   0.38171415   -2.3570635   0.57199865   -1.7850648   0.13067251    11357.797     1000 
  642000   0.36339227   -2.3413014   0.54454332   -1.7967581   0.12200642    11427.012     1000 
  644000   0.35399447   -2.3469597   0.53046071    -1.816499   0.12252834    11448.591     1000 
  646000   0.37552213   -2.3140376   0.56271991   -1.7513177   0.12471074    11434.252     1000 
  648000   0.37516198   -2.3462689   0.56218022   -1.7840887   0.12722215    11383.343     1000 
  650000   0.36514154   -2.3261898    0.5471646   -1.7790252   0.13209083    11371.272     1000 
  652000   0.36770487   -2.3828121   0.55100575   -1.8318064   0.12689274    11375.768     1000 
  654000   0.35948412    -2.340866   0.53868695    -1.802179   0.11841746    11434.522     1000 
  656000   0.36904229   -2.2940913   0.55300988   -1.7410814   0.14098409    11330.267     1000 
  658000   0.37947052   -2.3590384   0.56863658   -1.7904018   0.12885644    11368.108     1000 
  660000   0.37360143   -2.3525467   0.55984175   -1.7927049   0.14287553    11270.143     1000 
  662000   0.37032715   -2.3069956   0.55493524   -1.7520604    0.1324916    11322.074     1000 
  664000   0.35824052     -2.40051   0.53682342   -1.8636866   0.13212215    11375.083     1000 
  666000   0.36343706   -2.3483134   0.54461044   -1.8037029   0.12180347    11432.884     1000 
  668000    0.3654341   -2.3308847     0.547603   -1.7832817   0.13046081    11283.587     1000 
  670000   0.36937033   -2.3787411   0.55350144   -1.8252397   0.11982652    11451.123     1000 
  672000   0.37367434   -2.3356954   0.55995101   -1.7757444   0.13163115    11309.698     1000 
  674000   0.36296246   -2.3230346   0.54389925   -1.7791353   0.12446777    11388.196     1000 
  676000   0.36096325   -2.3310686   0.54090342   -1.7901652    0.1241355    11444.969     1000 
  678000   0.36722903   -2.3467359   0.55029271   -1.7964432   0.13162432    11343.167     1000 
  680000   0.35519003   -2.3478378   0.53225225   -1.8155855    0.1229417    11396.254     1000 
  682000   0.36238367   -2.3351842   0.54303193   -1.7921523   0.13920902    11292.768     1000 
  684000   0.37260507   -2.3640713    0.5583487   -1.8057226    0.1233569    11483.807     1000 
  686000   0.37089623   -2.3757845     0.555788   -1.8199965   0.12784448    11422.119     1000 
  688000   0.38066156   -2.3405659   0.57042134   -1.7701446   0.12758019    11344.347     1000 
  690000   0.35967934   -2.3394094   0.53897949   -1.8004299   0.13019625    11319.311     1000 
  692000   0.37823013   -2.3462594   0.56677785   -1.7794816   0.12917001    11358.833     1000 
  694000   0.36102525   -2.3436253   0.54099633    -1.802629   0.12235216    11444.473     1000 
  696000   0.37591092   -2.3246667   0.56330251   -1.7613641   0.13535057    11362.774     1000 
  698000   0.35553503   -2.3295742   0.53276925    -1.796805   0.11556972    11444.589     1000 
  700000   0.34962925   -2.3111184   0.52391943    -1.787199   0.12303574     11449.43     1000 
  702000   0.38686844   -2.3380601   0.57972236   -1.7583377    0.1481527    11325.278     1000 
  704000   0.38316104   -2.3337772   0.57416681   -1.7596104   0.12734342    11439.355     1000 
  706000   0.36298286   -2.3805349   0.54392981   -1.8366051   0.11822037    11412.084     1000 
  708000   0.38522381   -2.3520504   0.57725787   -1.7747925    0.1282036    11327.523     1000 
  710000   0.35527278   -2.3813116   0.53237626   -1.8489353   0.13851056    11366.875     1000 
  712000   0.37643782   -2.3611694   0.56409207   -1.7970773   0.13006464    11405.034     1000 
  714000   0.37319422     -2.33444   0.55923154   -1.7752085   0.12132965    11408.572     1000 
  716000   0.37411089   -2.3696386   0.56060517   -1.8090334   0.13273122    11383.637     1000 
  718000   0.36762547   -2.3316113   0.55088677   -1.7807245   0.13432944    11331.557     1000 
  720000   0.37523772   -2.3274427   0.56229373    -1.765149    0.1255323    11419.131     1000 
  722000   0.34393353   -2.2826334    0.5153844    -1.767249   0.13124839    11289.542     1000 
  724000   0.36037164   -2.3462389   0.54001691    -1.806222   0.12306764    11450.817     1000 
  726000   0.36230096   -2.3128975   0.54290799   -1.7699895   0.13674717    11363.217     1000 
  728000   0.37592026   -2.3029767   0.56331651   -1.7396602   0.13237653    11303.064     1000 
  730000   0.37318876   -2.3254577   0.55922336   -1.7662343   0.13147885    11354.916     1000 
  732000   0.37348129   -2.3493183   0.55966171   -1.7896566   0.13362066    11411.287     1000 
  734000   0.36619291   -2.3333634   0.54874007   -1.7846234   0.13183613    11335.529     1000 
  736000   0.37763219   -2.3316082   0.56588184   -1.7657263   0.13706789    11283.406     1000 
  738000    0.3685211   -2.3594012   0.55222886   -1.8071724   0.12976935    11362.548     1000 
  740000   0.37297211   -2.3484046   0.55889871   -1.7895058   0.13747265    11289.914     1000 
  742000   0.37307525   -2.3776523   0.55905326    -1.818599   0.13492357     11345.65     1000 
  744000   0.38299762   -2.3027091   0.57392194   -1.7287872   0.13308143    11285.345     1000 
  746000   0.38862083    -2.381705   0.58234831   -1.7993567   0.11183219    11546.271     1000 
  748000   0.35372339   -2.3481271    0.5300545   -1.8180726   0.12894029     11356.28     1000 
  750000   0.36405213   -2.3532978   0.54553211   -1.8077657   0.12515545     11391.28     1000 
  752000   0.37067615   -2.3224107   0.55545821   -1.7669525   0.12945136    11273.244     1000 
  754000    0.3617431   -2.3544648   0.54207204   -1.8123928   0.13142793    11391.166     1000 
  756000   0.38877689   -2.2914409   0.58258216   -1.7088588   0.12549669    11315.667     1000 
  758000   0.36175014   -2.3225767   0.54208259   -1.7804941   0.13625626    11308.382     1000 
  760000   0.37630533   -2.3603985   0.56389354   -1.7965049   0.13360584    11443.851     1000 
  762000   0.36372707   -2.3229672   0.54504501   -1.7779222   0.13568222    11394.423     1000 
  764000   0.37004566   -2.2998441   0.55451342   -1.7453307    0.1374968    11264.095     1000 
  766000   0.36854538   -2.3169623   0.55226524   -1.7646971   0.12657327    11292.774     1000 
  768000    0.3663175   -2.3487654   0.54892677   -1.7998386   0.13194082    11384.469     1000 
  770000   0.35410529   -2.2908057   0.53062678   -1.7601789   0.12866514    11447.861     1000 
  772000   0.36041391   -2.2973181   0.54008024   -1.7572379   0.14321788    11252.504     1000 
  774000   0.38125796   -2.3621147   0.57131505   -1.7907996   0.12851142    11394.275     1000 
  776000   0.35738795   -2.3306306   0.53554584   -1.7950847   0.12805602    11366.888     1000 
  778000   0.37894413   -2.3163788   0.56784778    -1.748531   0.13407323    11384.984     1000 
  780000   0.37258663   -2.3640644   0.55832107   -1.8057434   0.13304106    11462.229     1000 
  782000   0.36481786   -2.3055619   0.54667957   -1.7588824    0.1311035    11285.722     1000 
  784000    0.3624416   -2.3310505   0.54311874   -1.7879318    0.1265192    11324.432     1000 
  786000   0.37127619   -2.3751126   0.55635737   -1.8187552   0.13271991    11354.241     1000 
  788000   0.38801588    -2.379515   0.58144179   -1.7980732   0.12035301    11476.892     1000 
  790000   0.37073613   -2.3591751   0.55554808   -1.8036271   0.13314876    11427.342     1000 
  792000   0.36417399    -2.334783   0.54571472   -1.7890683   0.12901465    11376.468     1000 
  794000   0.36191442   -2.3381795   0.54232876   -1.7958507   0.12716586    11401.914     1000 
  796000   0.36323212   -2.3325383   0.54430333    -1.788235   0.11780904    11462.421     1000 
  798000   0.36733601   -2.3490225   0.55045301   -1.7985695   0.13765956    11361.172     1000 
  800000   0.37990989   -2.3941447   0.56929497   -1.8248497   0.12196751    11483.659     1000 
  802000   0.37592491   -2.3180754   0.56332348   -1.7547519   0.12371785    11401.658     1000 
  804000   0.38326118   -2.3367531   0.57431688   -1.7624362   0.13146666     11355.23     1000 
  806000   0.38092706   -2.3472729    0.5708192   -1.7764537   0.12402589    11407.775     1000 
  808000   0.37155191   -2.3185042   0.55677053   -1.7617336    0.1266418    11473.957     1000 
  810000    0.3644216   -2.3130764   0.54608577   -1.7669907   0.12777898    11390.818     1000 
  812000   0.37711042   -2.3451753   0.56509997   -1.7800753   0.13563718    11399.307     1000 
  814000    0.3694552   -2.3225745   0.55362862   -1.7689459   0.13799651    11235.777     1000 
  816000   0.36819707   -2.3407508   0.55174331   -1.7890074   0.12519454    11363.019     1000 
  818000   0.36240988   -2.3242738    0.5430712   -1.7812026   0.12914902    11326.829     1000 
  820000   0.36933502    -2.339626   0.55344853   -1.7861774   0.12996573    11410.384     1000 
  822000   0.37406318   -2.3143204   0.56053368   -1.7537867   0.13285687    11368.135     1000 
  824000   0.36465571   -2.3600996   0.54643658    -1.813663   0.12151865     11442.45     1000 
  826000   0.36355007   -2.3493047   0.54477978    -1.804525   0.12224588    11392.188     1000 
  828000    0.3772932   -2.3613091   0.56537387   -1.7959352   0.12503653    11425.856     1000 
  830000   0.36183495   -2.3510637   0.54220968   -1.8088541   0.12188335    11422.388     1000 
  832000   0.37250598   -2.3556778   0.55820021   -1.7974776   0.13055324    11359.029     1000 
  834000   0.37507077    -2.333796   0.56204356   -1.7717525    0.1291054    11386.548     1000 
  836000   0.36531659   -2.3532235   0.54742692   -1.8057966   0.13330817    11380.547     1000 
  838000   0.37259199   -2.3442177    0.5583291   -1.7858886   0.12884079    11377.394     1000 
  840000   0.36190115   -2.3378332   0.54230887   -1.7955244   0.13677278    11329.415     1000 
  842000   0.35996639   -2.3100952   0.53940964   -1.7706856   0.12548702    11339.037     1000 
  844000   0.37464899   -2.3322378   0.56141152   -1.7708263   0.13106142    11397.259     1000 
  846000   0.35397938   -2.3225117   0.53043811   -1.7920736   0.13149886    11320.405     1000 
  848000   0.35747705   -2.3947735   0.53567936   -1.8590941    0.1270282    11444.174     1000 
  850000   0.38331243   -2.3676619   0.57439368   -1.7932682   0.13798049    11340.654     1000 
  852000   0.38560135   -2.3478107   0.57782362    -1.769987    0.1230316    11326.207     1000 
  854000    0.3581501   -2.3455517   0.53668793   -1.8088638   0.12300179    11371.138     1000 
  856000   0.39356093   -2.3671831   0.58975105   -1.7774321   0.12955248     11375.49     1000 
  858000   0.37909917   -2.3601511   0.56808011   -1.7920709   0.13301027     11387.84     1000 
  860000   0.35740617   -2.3846956   0.53557315   -1.8491225   0.12720466    11379.001     1000 
  862000   0.38573845   -2.3560119   0.57802907   -1.7779829   0.12985713    11410.198     1000 
  864000      0.37592    -2.302732   0.56331613   -1.7394158   0.13845648    11294.968     1000 
  866000   0.35831634   -2.3432521   0.53693704    -1.806315   0.10985097    11510.313     1000 
  868000   0.37172225   -2.3266701   0.55702579   -1.7696443   0.12721289     11409.45     1000 
  870000   0.36273192   -2.3564155   0.54355378   -1.8128617   0.13157788    11397.903     1000 
  872000   0.36537864   -2.3565349    0.5475199    -1.809015   0.13487866    11345.422     1000 
  874000   0.37044732   -2.3307185   0.55511531   -1.7756032    0.1304167    11359.782     1000 
  876000   0.37266206   -2.3362205   0.55843409   -1.7777864   0.12375533    11357.227     1000 
  878000   0.38299458   -2.3468578   0.57391738   -1.7729405    0.1264932    11512.517     1000 
  880000    0.3696959   -2.3234882    0.5539893   -1.7694989   0.13184804     11330.71     1000 
  882000   0.36023561   -2.3227011   0.53981307    -1.782888   0.13013926    11370.065     1000 
  884000   0.37952941   -2.3762114   0.56872481   -1.8074866   0.13298413     11407.96     1000 
  886000   0.37433275    -2.374497   0.56093762   -1.8135594    0.1179664    11496.198     1000 
  888000   0.37816286   -2.3264089   0.56667705   -1.7597318   0.13531858    11326.655     1000 
  890000    0.3602268   -2.3337264   0.53979987   -1.7939265   0.13182869    11377.535     1000 
  892000   0.36055503   -2.3217458   0.54029171   -1.7814541   0.13076378    11383.141     1000 
  894000   0.36373104   -2.3135193   0.54505097   -1.7684684     0.127576    11318.095     1000 
  896000    0.3607623   -2.3380859   0.54060231   -1.7974836   0.11622927    11445.978     1000 
  898000   0.37901209   -2.2986447   0.56794961   -1.7306951    0.1429179    11296.134     1000 
  900000   0.34920107   -2.3495427    0.5232778   -1.8262649   0.13523264    11270.365     1000 
  902000   0.36864496   -2.3664315   0.55241447   -1.8140171   0.12912129    11436.939     1000 
  904000   0.37087763   -2.3460101   0.55576013     -1.79025   0.14114096     11361.41     1000 
  906000   0.38470382   -2.3344156   0.57647868   -1.7579369   0.12640168    11409.403     1000 
  908000   0.37317042   -2.3502805   0.55919587   -1.7910847   0.13711019    11319.278     1000 
  910000   0.36350294   -2.3430585   0.54470915   -1.7983494   0.13886613     11242.23     1000 
  912000   0.36954987   -2.3413163   0.55377047   -1.7875458   0.13390527    11396.827     1000 
  914000   0.36380785   -2.3314333   0.54516607   -1.7862672   0.12413128    11403.262     1000 
  916000   0.37818982   -2.3324242   0.56671744   -1.7657067   0.13091944    11341.444     1000 
  918000   0.37539902   -2.3540725   0.56253543   -1.7915371   0.12853739    11342.657     1000 
  920000   0.36748549    -2.312645   0.55067701    -1.761968   0.13750523     11282.51     1000 
  922000   0.37493214    -2.331861   0.56183582   -1.7700252   0.13774908    11342.756     1000 
  924000   0.38379905   -2.3336725   0.57512288   -1.7585497    0.1397123    11321.404     1000 
  926000   0.36151056   -2.3144791   0.54172357   -1.7727556   0.12988761     11440.34     1000 
  928000   0.36415962   -2.3790843   0.54569319   -1.8333911   0.10972597    11577.178     1000 
  930000   0.37314523   -2.3514999   0.55915813   -1.7923417   0.13159299    11318.351     1000 
  932000    0.3670007   -2.3417931   0.54995055   -1.7918426   0.12258535    11405.234     1000 
  934000   0.36595691   -2.3017496   0.54838643   -1.7533631   0.12797281    11299.905     1000 
  936000   0.37672389   -2.3252891   0.56452075   -1.7607684   0.13663213     11327.15     1000 
  938000   0.35753285   -2.3392691   0.53576297   -1.8035061   0.12427883     11334.78     1000 
  940000   0.38746135   -2.3191772   0.58061083   -1.7385664   0.13039457    11321.482     1000 
  942000   0.36862017   -2.3724733   0.55237733   -1.8200959   0.12703701    11444.898     1000 
  944000   0.35195542   -2.3446945    0.5274052   -1.8172893   0.12602152    11349.364     1000 
  946000   0.37120602   -2.3351088   0.55625222   -1.7788566   0.13986388     11297.41     1000 
  948000   0.37016709   -2.3293611   0.55469539   -1.7746657   0.13524711    11281.649     1000 
  950000   0.37582281   -2.3721687   0.56317047   -1.8089983   0.12150025    11432.615     1000 
  952000   0.37113937   -2.3409618   0.55615234   -1.7848095   0.12883049    11346.078     1000 
  954000   0.36806737   -2.3491346   0.55154895   -1.7975857   0.13334943    11365.463     1000 
  956000   0.36758607   -2.3759513   0.55082773   -1.8251236   0.13706681    11425.598     1000 
  958000   0.35958658    -2.331964    0.5388405   -1.7931235   0.12582175     11370.45     1000 
  960000   0.36211488   -2.3237302   0.54262915   -1.7811011   0.13084416    11340.349     1000 
  962000   0.37264194   -2.3039238   0.55840395   -1.7455199   0.12643915    11324.481     1000 
  964000   0.38344941   -2.3590449   0.57459893    -1.784446   0.12032577    11452.387     1000 
  966000   0.38090394   -2.3785449   0.57078455   -1.8077604   0.13328446    11398.775     1000 
  968000   0.37472282   -2.3731253   0.56152215   -1.8116032   0.12937244    11379.466     1000 
  970000   0.37834898   -2.3281738   0.56695594   -1.7612178   0.12297798    11479.435     1000 
  972000   0.34846381   -2.3476324   0.52217302   -1.8254594   0.13640298    11231.175     1000 
  974000   0.37185146   -2.3398133   0.55721941   -1.7825939   0.12401627    11441.961     1000 
  976000   0.37033044    -2.366727   0.55494017   -1.8117869   0.12425306    11451.089     1000 
  978000   0.37292232   -2.3376808    0.5588241   -1.7788567   0.13041646    11441.985     1000 
  980000   0.36761535   -2.3180112    0.5508716   -1.7671396   0.11889382     11436.32     1000 
  982000   0.37413932   -2.3838467   0.56064776    -1.823199    0.1236181     11441.06     1000 
  984000    0.3619758   -2.3226481   0.54242073   -1.7802274   0.13786948    11286.999     1000 
  986000   0.37898569   -2.3451285   0.56791005   -1.7772184   0.12637307    11416.691     1000 
  988000   0.37257671   -2.3284025    0.5583062   -1.7700963    0.1261329     11459.35     1000 
  990000   0.38821514   -2.3579895   0.58174039   -1.7762491   0.13025594    11332.971     1000 
  992000   0.35183765   -2.3343452   0.52722872   -1.8071165   0.12653713    11373.733     1000 
  994000   0.35418102   -2.3655219   0.53074026   -1.8347817   0.12538714    11342.326     1000 
  996000   0.38009084   -2.3651502   0.56956612   -1.7955841   0.13318521     11387.48     1000 
  998000   0.36600632   -2.3750171   0.54846047   -1.8265566   0.12901564    11381.389     1000 
 1000000   0.37948259   -2.3591179   0.56865466   -1.7904633   0.13221503    11377.342     1000 
 1002000   0.36698357   -2.3360702   0.54992487   -1.7861453    0.1298719    11390.715     1000 
 1004000   0.36489867   -2.3560671   0.54680065   -1.8092664   0.13557796    11306.053     1000 
 1006000   0.38074935   -2.3760571    0.5705529   -1.8055042    0.1345212    11366.105     1000 
 1008000   0.37582171   -2.3628521   0.56316883   -1.7996833     0.127282    11386.171     1000 
 1010000    0.3757949   -2.3207209   0.56312866   -1.7575922   0.12472362    11313.344     1000 
 1012000    0.3741504   -2.3085908   0.56066438   -1.7479264   0.13149794    11365.558     1000 
 1014000   0.36944956   -2.3489065   0.55362017   -1.7952864   0.11022994      11605.4     1000 
 1016000   0.35842018    -2.353988   0.53709264   -1.8168953   0.12197801    11446.298     1000 
 1018000   0.36469577   -2.3596397   0.54649661   -1.8131431   0.12358499    11428.046     1000 
 1020000   0.38269162   -2.3523494    0.5734634    -1.778886   0.13180896    11501.745     1000 
 1022000   0.37563079   -2.3802285   0.56288274   -1.8173458   0.12666901    11387.399     1000 
 1024000     0.368904   -2.3394031   0.55280264   -1.7866004   0.13357384    11381.215     1000 
 1026000   0.35494347   -2.3549546   0.53188279   -1.8230718   0.13677435    11362.951     1000 
 1028000   0.36624984   -2.3628243   0.54882539   -1.8139989   0.12178135    11512.722     1000 
 1030000   0.36131873   -2.3375725   0.54143612   -1.7961364   0.12733025      11438.2     1000 
 1032000   0.36748813   -2.3339203   0.55068096   -1.7832393   0.13412274    11330.575     1000 
 1034000   0.35509667   -2.3241575   0.53211237   -1.7920451   0.11808729    11358.335     1000 
 1036000   0.36214905   -2.3017318   0.54268035   -1.7590514   0.12761292    11253.674     1000 
 1038000   0.38214874   -2.3446435   0.57264989   -1.7719936   0.13386618    11344.264     1000 
 1040000   0.38341687    -2.335799   0.57455018   -1.7612488   0.12622688    11360.596     1000 
 1042000   0.37650425   -2.3332904   0.56419163   -1.7690988   0.13272065    11355.335     1000 
 1044000   0.37789237   -2.3381849   0.56627171   -1.7719132   0.13411549    11333.226     1000 
 1046000   0.36705489   -2.3355339   0.55003175   -1.7855021   0.12756221    11404.818     1000 
 1048000   0.35204908    -2.337247   0.52754555   -1.8097014   0.13211211    11357.366     1000 
 1050000   0.37172624   -2.3280302   0.55703177   -1.7709984   0.12768631    11373.105     1000 
 1052000   0.38061807   -2.2839834   0.57035617   -1.7136272   0.14712827    11240.574     1000 
 1054000   0.37950977   -2.3260737   0.56869539   -1.7573783   0.12912851    11409.429     1000 
 1056000    0.3544933   -2.3543783   0.53120821   -1.8231701   0.13521683    11346.753     1000 
 1058000   0.39341779   -2.3322053   0.58953656   -1.7426688   0.13646146    11304.016     1000 
 1060000   0.35106814   -2.3255088   0.52607561   -1.7994332   0.13149447    11323.853     1000 
 1062000   0.36623706   -2.3221034   0.54880624   -1.7732972   0.14163606    11251.068     1000 
 1064000   0.36917729   -2.3460963   0.55321217   -1.7928841   0.13235863    11269.175     1000 
 1066000     0.385678   -2.3238675   0.57793849    -1.745929   0.13623174    11326.487     1000 
 1068000   0.35581868   -2.3560203    0.5331943    -1.822826   0.12841823    11386.982     1000 
 1070000   0.36393585   -2.3420422   0.54535788   -1.7966843    0.1272476    11433.759     1000 
 1072000    0.3669197    -2.282397   0.54982917   -1.7325678   0.13666936    11304.725     1000 
 1074000   0.36388057   -2.3205867   0.54527504   -1.7753117   0.11870808    11385.519     1000 
 1076000   0.37774183   -2.3605202   0.56604613   -1.7944741   0.13226822    11400.778     1000 
 1078000   0.35478111   -2.3459725    0.5316395    -1.814333    0.1296825    11355.887     1000 
 1080000   0.36149614   -2.3557357   0.54170197   -1.8140337   0.13868287    11260.397     1000 
 1082000   0.37365008   -2.3374755   0.55991464   -1.7775609   0.12338342    11451.153     1000 
 1084000   0.36165246   -2.3703001   0.54193621   -1.8283639   0.13125421    11355.075     1000 
 1086000   0.37548192   -2.3638333   0.56265966   -1.8011736   0.12566996    11345.011     1000 
 1088000   0.35442781   -2.3524844   0.53111007   -1.8213743   0.13161444    11357.732     1000 
 1090000   0.36262547   -2.3572416   0.54339426   -1.8138474   0.12835518    11419.058     1000 
 1092000   0.37180604   -2.3337602   0.55715135   -1.7766089   0.12603672     11388.31     1000 
 1094000   0.36507352    -2.332571   0.54706267   -1.7855084   0.12361357    11427.121     1000 
 1096000   0.37727538   -2.3143056   0.56534715   -1.7489585    0.1280888    11309.441     1000 
 1098000   0.37571484   -2.3648812   0.56300869   -1.8018725   0.10866311     11548.89     1000 
 1100000   0.37313945   -2.3556751   0.55914946   -1.7965257   0.12493322    11360.881     1000 
 1102000   0.36568355   -2.3161725    0.5479768   -1.7681957   0.12364656    11388.427     1000 
 1104000   0.36406438   -2.3286846   0.54555048   -1.7831341     0.132194    11389.383     1000 
 1106000   0.38161797   -2.3547689   0.57185453   -1.7829144   0.11815834    11502.294     1000 
 1108000   0.37540929   -2.3509812   0.56255083   -1.7884304   0.12306125    11408.388     1000 
 1110000   0.35983683   -2.3297374   0.53921548   -1.7905219   0.13361851     11357.48     1000 
 1112000   0.38652637   -2.3651193   0.57920976   -1.7859095   0.12848091    11403.158     1000 
 1114000   0.36554067   -2.4092647    0.5477627    -1.861502   0.13051164    11446.742     1000 
 1116000    0.3538428   -2.3153931   0.53023344   -1.7851597   0.12828795     11351.26     1000 
 1118000   0.38406503   -2.3498669   0.57552144   -1.7743454   0.12772726    11401.166     1000 
 1120000   0.36403428   -2.3270086   0.54550537   -1.7815033   0.12883953    11354.497     1000 
 1122000   0.36438523   -2.3395939   0.54603127   -1.7935626   0.13171934    11363.886     1000 
 1124000   0.36469038   -2.3531074   0.54648853   -1.8066188   0.12725417    11396.902     1000 
 1126000   0.37861051   -2.3740667   0.56734784   -1.8067189   0.13475406     11348.64     1000 
 1128000   0.37547088   -2.3271632   0.56264312   -1.7645201   0.12979246    11314.879     1000 
 1130000   0.37114994   -2.3061707   0.55616819   -1.7500025   0.13366123    11373.019     1000 
 1132000    0.3630472   -2.3103086   0.54402623   -1.7662824    0.1364077    11287.168     1000 
 1134000   0.35934287    -2.291116   0.53847529   -1.7526407    0.1230663    11419.607     1000 
 1136000   0.39302161   -2.2954579   0.58894289    -1.706515   0.13870941    11228.874     1000 
 1138000   0.36235018   -2.2982139   0.54298175   -1.7552321   0.12976176    11373.718     1000 
 1140000   0.36294776   -2.3658222   0.54387722   -1.8219449   0.11959465    11462.769     1000 
 1142000   0.36551026   -2.3599489   0.54771712   -1.8122318   0.12606678    11449.394     1000 
 1144000   0.37301592   -2.3635709   0.55896435   -1.8046065   0.12724075    11399.982     1000 
 1146000   0.36831695   -2.3358159   0.55192295    -1.783893   0.12066293    11444.562     1000 
 1148000    0.3710223   -2.3477163   0.55597691   -1.7917394    0.1332053     11379.41     1000 
 1150000   0.39181172   -2.3369421   0.58712987   -1.7498122   0.12361467    11368.909     1000 
 1152000   0.37031018   -2.3787958    0.5549098    -1.823886   0.13357964    11360.436     1000 
 1154000   0.38696818   -2.3885872   0.57987181   -1.8087154   0.13109665     11451.79     1000 
 1156000   0.36033533   -2.3257192   0.53996249   -1.7857567   0.12583338    11330.848     1000 
 1158000   0.37281202   -2.3518818   0.55865881    -1.793223   0.13481596    11328.936     1000 
 1160000   0.37398996   -2.3042524   0.56042395   -1.7438285   0.13062375    11395.572     1000 
 1162000   0.36894829   -2.3652353   0.55286901   -1.8123663   0.13012923    11365.909     1000 
 1164000    0.3678532   -2.3316065   0.55122802   -1.7803785   0.13305934    11417.591     1000 
 1166000   0.38468506   -2.3045654   0.57645056   -1.7281149   0.13066242    11388.942     1000 
 1168000   0.35931712   -2.3334786    0.5384367   -1.7950419   0.13612366    11331.249     1000 
 1170000   0.37811211   -2.3550216   0.56660099   -1.7884207   0.11860708    11431.351     1000 
 1172000   0.36139519   -2.3480872   0.54155069   -1.8065365   0.13747328    11434.994     1000 
 1174000   0.38894359   -2.3439268   0.58283197   -1.7610948    0.1216378    11468.822     1000 
 1176000   0.37564962   -2.3517208   0.56291095   -1.7888098   0.13113408    11373.433     1000 
 1178000   0.37515229   -2.2956502   0.56216571   -1.7334845   0.14010065    11299.884     1000 
 1180000   0.37499507    -2.332115   0.56193011   -1.7701849   0.12595866    11401.816     1000 
 1182000   0.38144405   -2.2935362   0.57159391   -1.7219423   0.13080519    11351.231     1000 
 1184000   0.36649278   -2.3914209   0.54918944   -1.8422315   0.13083095    11486.508     1000 
 1186000   0.37283167   -2.3502133   0.55868826    -1.791525   0.13027476    11382.162     1000 
 1188000   0.39542831   -2.3493258   0.59254933   -1.7567765   0.13878509     11264.29     1000 
 1190000   0.35089173   -2.3592591   0.52581126   -1.8334478   0.12095952    11494.698     1000 
 1192000   0.36376933   -2.3820086   0.54510834   -1.8369003   0.13003845    11396.957     1000 
 1194000   0.35714746   -2.3156984   0.53518547    -1.780513   0.13440982     11357.26     1000 
 1196000   0.37009591   -2.3382767   0.55458872    -1.783688   0.14331769    11272.183     1000 
 1198000   0.35840082   -2.3272009   0.53706362   -1.7901373   0.13017951    11345.225     1000 
 1200000   0.36482606   -2.3044037   0.54669186   -1.7577118   0.13677587    11317.386     1000 
 1202000   0.36451821   -2.3698977   0.54623054   -1.8236672   0.13842661    11348.591     1000 
 1204000   0.36971398   -2.3461445   0.55401639   -1.7921281   0.12567126    11371.214     1000 
 1206000   0.39304772   -2.3475803   0.58898202   -1.7585983    0.1369737    11259.934     1000 
 1208000   0.38186328   -2.3215307   0.57222212   -1.7493086   0.13549082    11355.032     1000 
 1210000   0.38201954    -2.311798   0.57245628   -1.7393418   0.14053837    11233.959     1000 
 1212000   0.35987761   -2.2957279    0.5392766   -1.7564513   0.12978653    11343.624     1000 
 1214000   0.37721868   -2.3482185   0.56526219   -1.7829563   0.13034798     11378.35     1000 
 1216000   0.37149822    -2.334983   0.55669008   -1.7782929   0.13269217     11307.64     1000 
 1218000   0.36642316   -2.3403067    0.5490851   -1.7912217   0.13185687    11340.436     1000 
 1220000   0.36995835   -2.3557432   0.55438259   -1.8013606   0.12972839    11373.545     1000 
 1222000   0.37053167   -2.3447006    0.5552417   -1.7894589   0.12284774    11435.961     1000 
 1224000   0.35405192   -2.3601477   0.53054681   -1.8296009   0.11897265    11425.738     1000 
 1226000   0.36871097   -2.3384902   0.55251339   -1.7859768   0.13489736     11393.56     1000 
 1228000    0.3761303    -2.376946   0.56363126   -1.8133148   0.11999074    11586.366     1000 
 1230000   0.36074866   -2.3554788   0.54058186   -1.8148969   0.12405756    11343.019     1000 
 1232000    0.3668769   -2.3643622   0.54976503   -1.8145971   0.12078867    11436.688     1000 
 1234000   0.35803472   -2.2909416   0.53651504   -1.7544265   0.13738558    11314.035     1000 
 1236000   0.37252851   -2.3576329   0.55823397   -1.7993989   0.11831428    11521.701     1000 
 1238000   0.37692807   -2.3184268   0.56482671   -1.7536001   0.13174919    11344.966     1000 
 1240000   0.37595483     -2.34735   0.56336832   -1.7839817   0.14539843    11296.591     1000 
 1242000   0.37387321   -2.3385716     0.560249   -1.7783226    0.1309747    11396.389     1000 
 1244000   0.38067043   -2.3408149   0.57043464   -1.7703803     0.138135    11342.991     1000 
 1246000   0.40134917   -2.3250602   0.60142173   -1.7236385   0.11534802    11476.057     1000 
 1248000    0.3692612   -2.3614291   0.55333791   -1.8080912    0.1232284    11481.111     1000 
 1250000   0.37956551   -2.3075805   0.56877892   -1.7388016   0.13300654    11412.625     1000 
 1252000   0.37020546   -2.3294451   0.55475288   -1.7746922   0.13899755    11276.223     1000 
 1254000   0.36469127   -2.3134189   0.54648986   -1.7669291   0.13404099    11298.541     1000 
 1256000   0.36565426   -2.3466839    0.5479329    -1.798751   0.14415308    11313.685     1000 
 1258000   0.36767621   -2.3398831   0.55096279   -1.7889203   0.12944984    11343.637     1000 
 1260000   0.37746678   -2.3213337   0.56563397   -1.7556997   0.12940873    11348.068     1000 
 1262000   0.37873953   -2.3279835   0.56754119   -1.7604423   0.13210581    11385.611     1000 
 1264000   0.36965002   -2.3028239   0.55392055   -1.7489033   0.12573054    11389.133     1000 
 1266000   0.36592737   -2.3240598   0.54834216   -1.7757177   0.11884291    11339.255     1000 
 1268000   0.37753113   -2.3106174    0.5657304    -1.744887   0.11744068    11454.379     1000 
 1270000   0.38221201    -2.330707    0.5727447   -1.7579623   0.12539476    11412.061     1000 
 1272000   0.39347113   -2.3162707   0.58961648   -1.7266542   0.13218607    11350.892     1000 
 1274000   0.36743652   -2.3317148   0.55060363   -1.7811112   0.13123073    11278.159     1000 
 1276000   0.36925831    -2.315134   0.55333358   -1.7618004   0.12989531    11374.686     1000 
 1278000   0.37743167   -2.3221794   0.56558135   -1.7565981   0.13369104    11355.412     1000 
 1280000   0.37367435   -2.3661361   0.55995102   -1.8061851   0.12428434    11402.009     1000 
 1282000   0.37296986   -2.3492202   0.55889533   -1.7903249   0.13553968    11296.266     1000 
 1284000   0.36827642   -2.3073985   0.55186221   -1.7555363   0.13452571    11296.749     1000 
 1286000   0.37969031   -2.3734035   0.56896593   -1.8044376   0.12482959    11424.294     1000 
 1288000   0.37861754   -2.3764319   0.56735838   -1.8090736   0.11406009    11549.266     1000 
 1290000   0.36026539   -2.3311799   0.53985768   -1.7913222   0.12960805    11318.423     1000 
 1292000   0.36294789   -2.3090277   0.54387742   -1.7651503   0.12125472    11483.979     1000 
 1294000   0.36931885   -2.3145545    0.5534243   -1.7611302   0.11832307    11376.556     1000 
 1296000   0.36509915   -2.3647061   0.54710108    -1.817605    0.1248136     11423.31     1000 
 1298000    0.3582741    -2.331593   0.53687373   -1.7947193   0.13439656    11302.874     1000 
 1300000   0.37201135   -2.3452969   0.55745901   -1.7878379   0.13919864    11373.696     1000 
 1302000   0.37764834   -2.3558029   0.56590604   -1.7898968   0.13562158    11336.576     1000 
 1304000   0.37941149   -2.3457876   0.56854812   -1.7772394   0.13564754    11371.824     1000 
 1306000   0.36970746   -2.3450619   0.55400663   -1.7910553   0.14176926    11228.561     1000 
 1308000   0.35738285   -2.2991268    0.5355382   -1.7635886   0.11984668    11441.271     1000 
 1310000   0.36645993   -2.3426275   0.54914021   -1.7934872   0.12895736    11393.586     1000 
 1312000   0.37476023   -2.3540788    0.5615782   -1.7925006   0.14370699    11284.279     1000 
 1314000   0.36399175   -2.3222087   0.54544164   -1.7767671   0.13238014    11304.907     1000 
 1316000   0.37543841   -2.3527333   0.56259446   -1.7901388   0.12609543    11390.982     1000 
 1318000   0.37728424   -2.3398962   0.56536044   -1.7745358   0.13204725    11370.865     1000 
 1320000   0.38035734   -2.3103996   0.56996548   -1.7404342   0.13536452    11312.875     1000 
 1322000   0.36979985   -2.3685648   0.55414508   -1.8144197   0.14319414    11327.371     1000 
 1324000   0.36838069   -2.3645367   0.55201847   -1.8125182   0.12554524    11478.884     1000 
 1326000   0.36279488   -2.3363648   0.54364812   -1.7927166   0.13113758     11320.82     1000 
 1328000   0.34466748   -2.3096688   0.51648422   -1.7931845   0.12921295    11306.748     1000 
 1330000   0.37471035   -2.3818191   0.56150346   -1.8203156   0.12481253    11430.459     1000 
 1332000   0.36844879   -2.3482268   0.55212051   -1.7961063   0.12154691    11382.132     1000 
 1334000   0.38153808   -2.3184282   0.57173481   -1.7466934    0.1298431    11371.916     1000 
 1336000   0.36389829   -2.3340925   0.54530159   -1.7887909   0.12378177    11407.519     1000 
 1338000   0.36548567    -2.355395   0.54768027   -1.8077148   0.12374663    11376.926     1000 
 1340000   0.38042726   -2.3128769   0.57007025   -1.7428066   0.13498149    11367.563     1000 
 1342000   0.38335049   -2.3672642   0.57445071   -1.7928135   0.13194105    11456.863     1000 
 1344000   0.36777644   -2.3245979   0.55111299   -1.7734849   0.13323931    11330.429     1000 
 1346000   0.37835773    -2.326599   0.56696906     -1.75963   0.13519189    11260.337     1000 
 1348000   0.34561384   -2.3434012   0.51790235   -1.8254989   0.13205444     11317.03     1000 
 1350000   0.37550887   -2.3328647   0.56270004   -1.7701646   0.12497233    11364.869     1000 
 1352000   0.37493138   -2.3298082   0.56183467   -1.7679736   0.12937738    11399.688     1000 
 1354000   0.35989731   -2.3127485   0.53930612   -1.7734424   0.13998931    11279.307     1000 
 1356000    0.3641463    -2.318228   0.54567323   -1.7725547   0.14281522    11342.107     1000 
 1358000   0.37745726    -2.367556    0.5656197   -1.8019363   0.12134524    11452.976     1000 
 1360000    0.3948323   -2.3747093   0.59165621   -1.7830531   0.13650958     11362.63     1000 
 1362000   0.36445035   -2.3588603   0.54612886   -1.8127314   0.12207646    11458.596     1000 
 1364000   0.36871588   -2.3665519   0.55252074   -1.8140312   0.12708223     11352.64     1000 
 1366000   0.35935001   -2.3460498   0.53848599   -1.8075638    0.1296772    11323.546     1000 
 1368000   0.35185456   -2.3478035   0.52725405   -1.8205494   0.11805769    11485.884     1000 
 1370000   0.36342986   -2.3773035   0.54459964   -1.8327038   0.13254494     11382.18     1000 
 1372000   0.36839058   -2.3423973   0.55203328   -1.7903641   0.12644741     11337.35     1000 
 1374000   0.38150256   -2.3668157   0.57168159   -1.7951341   0.14483102    11250.521     1000 
 1376000    0.3652496   -2.3367788   0.54732653   -1.7894523   0.13588785    11314.601     1000 
 1378000   0.36662207    -2.320502   0.54938317   -1.7711189   0.12301986    11402.811     1000 
 1380000    0.3664655   -2.3366145   0.54914855    -1.787466   0.12401291    11362.894     1000 
 1382000   0.35759717   -2.3207943   0.53585935   -1.7849349   0.12148786    11400.768     1000 
 1384000   0.36928923   -2.3605464   0.55337992   -1.8071665   0.12800282    11462.725     1000 
 1386000   0.38335759   -2.3606925   0.57446135   -1.7862312   0.12101094    11474.979     1000 
 1388000   0.35612189    -2.330623   0.53364866   -1.7969744   0.12519182    11370.063     1000 
 1390000   0.38029326   -2.3828507   0.56986944   -1.8129813   0.12635492    11386.888     1000 
 1392000   0.36741853   -2.3365467   0.55057667     -1.78597   0.13571116    11325.582     1000 
 1394000   0.38438151   -2.3261783    0.5759957   -1.7501826    0.1234743    11455.114     1000 
 1396000   0.38791357   -2.3179915   0.58128849    -1.736703   0.13201628    11348.362     1000 
 1398000   0.35981123   -2.3520131   0.53917712    -1.812836   0.12998695    11430.412     1000 
 1400000   0.36376709   -2.3148048   0.54510498   -1.7696998   0.12879094    11367.255     1000 
 1402000   0.36845422   -2.3573673   0.55212865   -1.8052386   0.12757739    11377.244     1000 
 1404000   0.37259385   -2.3265475   0.55833188   -1.7682156   0.13457456    11335.327     1000 
 1406000   0.37423839   -2.3334337   0.56079623   -1.7726374   0.12102823    11436.923     1000 
 1408000   0.38441319   -2.3634287   0.57604316   -1.7873855   0.13889944    11347.947     1000 
 1410000    0.3732481   -2.3652592   0.55931228   -1.8059469   0.13046216    11368.885     1000 
 1412000    0.3629082   -2.3343864   0.54381793   -1.7905684   0.12588389    11313.728     1000 
 1414000    0.3906477   -2.3221561   0.58538558   -1.7367705   0.13466238    11321.635     1000 
 1416000   0.37090429   -2.3455544   0.55580008   -1.7897543   0.11866837    11462.806     1000 
 1418000   0.36990424   -2.3440088   0.55430151   -1.7897073   0.13546346    11285.337     1000 
 1420000   0.35807038   -2.3087925   0.53656847    -1.772224   0.13474912    11381.233     1000 
 1422000   0.37911818   -2.3717501    0.5681086   -1.8036415   0.13323403    11476.285     1000 
 1424000   0.37576107   -2.3245742   0.56307797   -1.7614962    0.1366259    11251.228     1000 
 1426000    0.3818295    -2.332437    0.5721715   -1.7602655   0.14243921    11272.461     1000 
 1428000   0.37705119   -2.3326339   0.56501122   -1.7676227   0.12859574    11399.081     1000 
 1430000   0.39272751   -2.3222224   0.58850217   -1.7337202    0.1349546    11294.543     1000 
 1432000   0.36185385   -2.3159999   0.54223799   -1.7737619   0.14838331    11260.797     1000 
 1434000   0.37848496    -2.346969   0.56715971   -1.7798093   0.12893647    11385.795     1000 
 1436000   0.36628369   -2.3280818   0.54887611   -1.7792057    0.1258609    11351.391     1000 
 1438000   0.36863759   -2.3168024   0.55240343    -1.764399   0.12383351     11338.96     1000 
 1440000   0.38157253   -2.3571929   0.57178644   -1.7854065   0.13274807    11397.552     1000 
 1442000   0.36004509   -2.3461615   0.53952757   -1.8066339   0.13093402    11481.354     1000 
 1444000   0.37694583   -2.3207649   0.56485333   -1.7559116    0.1312175    11385.721     1000 
 1446000   0.37775432   -2.3122552   0.56606485   -1.7461903   0.12560653    11451.579     1000 
 1448000   0.36580369   -2.3178723   0.54815683   -1.7697155   0.12681065    11398.415     1000 
 1450000   0.34944539    -2.359275   0.52364391   -1.8356311   0.12992629    11425.129     1000 
 1452000    0.3655631   -2.3214918    0.5477963   -1.7736955   0.12837083     11309.79     1000 
 1454000   0.36110115    -2.323139   0.54111007   -1.7820289   0.12443091    11389.332     1000 
 1456000   0.35708126   -2.3322785   0.53508627   -1.7971922   0.13155882    11298.641     1000 
 1458000   0.36452572   -2.3287866   0.54624179   -1.7825448   0.14479316    11308.381     1000 
 1460000   0.38505542     -2.34765   0.57700555   -1.7706445   0.12684504    11452.054     1000 
 1462000   0.37840571   -2.3275613   0.56704095   -1.7605203   0.13529776     11330.85     1000 
 1464000   0.37045931   -2.3045043   0.55513327    -1.749371   0.12659996    11384.103     1000 
 1466000   0.35990975    -2.299374   0.53932476   -1.7600492   0.13569917    11239.842     1000 
 1468000   0.35976913   -2.3388455   0.53911405   -1.7997314   0.14727919    11240.732     1000 
 1470000   0.37655471   -2.4170851   0.56426724   -1.8528179   0.12050367    11468.814     1000 
 1472000   0.35336008   -2.3395164   0.52951008   -1.8100063   0.12905325     11343.59     1000 
 1474000   0.34781497    -2.358072   0.52120074   -1.8368713    0.1280957    11366.086     1000 
 1476000   0.37090511   -2.3562096    0.5558013   -1.8004082   0.13415754    11418.608     1000 
 1478000   0.36406458    -2.352053   0.54555077   -1.8065022   0.12347634    11494.827     1000 
 1480000   0.37107555   -2.3291254    0.5560567   -1.7730686   0.12841425     11362.69     1000 
 1482000   0.36437864   -2.3461538   0.54602139   -1.8001324   0.11596473    11412.753     1000 
 1484000   0.37508594   -2.3460305   0.56206628   -1.7839642     0.130309    11415.197     1000 
 1486000   0.37136322   -2.3037302   0.55648779   -1.7472424   0.12727771    11416.324     1000 
 1488000   0.36785858   -2.3267673   0.55123608   -1.7755312   0.13136908    11332.387     1000 
 1490000   0.37453621   -2.3228882   0.56124251   -1.7616457   0.11567218    11465.355     1000 
 1492000   0.36110315   -2.3465727   0.54111307   -1.8054597   0.11706912    11482.409     1000 
 1494000   0.36943862   -2.3280207   0.55360377   -1.7744169   0.14165504    11263.337     1000 
 1496000     0.376519   -2.3537351   0.56421372   -1.7895214   0.13396972     11335.71     1000 
 1498000   0.37017691   -2.3258174    0.5547101   -1.7711073   0.13609257    11272.535     1000 
 1500000   0.37481011   -2.3227966   0.56165295   -1.7611437   0.12520253    11441.658     1000 
 1502000   0.37503093   -2.3693167   0.56198385   -1.8073329   0.13137886    11441.252     1000 
 1504000     0.385032   -2.3373591   0.57697046   -1.7603886   0.13941385    11283.424     1000 
 1506000   0.36453273   -2.3512677   0.54625229   -1.8050154   0.14062522     11318.25     1000 
 1508000    0.3842893   -2.3108716   0.57585751   -1.7350141   0.14669783    11314.324     1000 
 1510000   0.36764171   -2.2675432    0.5509111   -1.7166321   0.14134856    11130.911     1000 
 1512000   0.36508397    -2.355905   0.54707832   -1.8088267    0.1292518    11397.385     1000 
 1514000   0.36302336   -2.3387047   0.54399051   -1.7947142   0.12844162    11370.411     1000 
 1516000   0.35749122   -2.3506903    0.5357006   -1.8149897   0.13859962    11209.346     1000 
 1518000   0.37856661   -2.3132999   0.56728207   -1.7460179   0.12768423    11409.945     1000 
 1520000   0.36857823   -2.3479317   0.55231447   -1.7956172   0.12671683    11350.581     1000 
 1522000   0.35665646   -2.4064145    0.5344497   -1.8719648   0.13001306    11413.519     1000 
 1524000   0.37620614   -2.3332657    0.5637449   -1.7695208   0.13423493     11305.08     1000 
 1526000   0.37209135   -2.3066475   0.55757888   -1.7490686    0.1359429    11289.555     1000 
 1528000   0.34750423   -2.3376852   0.52073509   -1.8169501    0.1323968    11346.956     1000 
 1530000   0.37018387   -2.3438789   0.55472053   -1.7891584   0.13654571    11401.497     1000 
 1532000    0.3631753   -2.3900081   0.54421819   -1.8457899   0.12561486     11374.04     1000 
 1534000   0.36662429   -2.3233276    0.5493865   -1.7739411   0.12890165    11341.276     1000 
 1536000   0.37764314   -2.3044254   0.56589825   -1.7385272   0.13365815    11341.029     1000 
 1538000   0.36768679   -2.3430566   0.55097865   -1.7920779   0.12214742    11468.492     1000 
 1540000   0.36325885    -2.341326   0.54434339   -1.7969826   0.13817251    11306.236     1000 
 1542000   0.37683489   -2.3238187   0.56468709   -1.7591316   0.13244632    11308.123     1000 
 1544000   0.37281777   -2.3459773   0.55866743   -1.7873099   0.11604087    11502.295     1000 
 1546000   0.38140035    -2.371149   0.57152842   -1.7996206   0.12672068    11500.296     1000 
 1548000   0.37071396   -2.3556394   0.55551486   -1.8001245   0.13089584     11316.69     1000 
 1550000   0.35238407   -2.3218632   0.52804753   -1.7938157   0.13476779    11345.068     1000 
 1552000   0.36577111   -2.3495051   0.54810801   -1.8013971   0.12070383    11431.853     1000 
 1554000   0.37263171   -2.3310022   0.55838861   -1.7726136    0.1179019    11383.661     1000 
 1556000   0.37790515   -2.3676079   0.56629087   -1.8013171   0.11495182    11475.146     1000 
 1558000   0.37038369    -2.347745   0.55501996   -1.7927251   0.13401221    11264.997     1000 
 1560000   0.39465194    -2.289437   0.59138593   -1.6980511   0.14422119    11206.661     1000 
 1562000    0.3801597   -2.3629335   0.56966932   -1.7932642    0.1354771    11422.893     1000 
 1564000   0.37041607   -2.3516765   0.55506848    -1.796608   0.13218566    11354.306     1000 
 1566000   0.38220016   -2.3394257   0.57272694   -1.7666987    0.1279613    11450.367     1000 
 1568000   0.38226932   -2.3517744   0.57283058   -1.7789438   0.12328671    11442.233     1000 
 1570000   0.37308377   -2.3784716   0.55906603   -1.8194056   0.12727095    11407.582     1000 
 1572000   0.36591667   -2.3050816   0.54832613   -1.7567555   0.12669383    11334.926     1000 
 1574000   0.37446739   -2.3488333   0.56113939   -1.7876939   0.13009912    11355.798     1000 
 1576000   0.35301187    -2.316913   0.52898829   -1.7879247   0.13877993    11309.481     1000 
 1578000   0.35326247   -2.3596107   0.52936381   -1.8302469   0.13251108     11309.37     1000 
 1580000   0.35239517   -2.3534204   0.52806416   -1.8253562   0.13586822    11286.229     1000 
 1582000   0.37574542   -2.3189712   0.56305452   -1.7559167   0.12944427    11379.111     1000 
 1584000   0.36416079   -2.3407417   0.54569494   -1.7950468   0.12170235     11508.62     1000 
 1586000   0.36981638    -2.318492   0.55416985   -1.7643221   0.13523956    11332.297     1000 
 1588000   0.35718403   -2.3294637   0.53524027   -1.7942234   0.13681414    11261.018     1000 
[...]
 2614000   0.36830005   -2.3468022   0.55189762   -1.7949046   0.12648584    11382.135     1000 
 2616000   0.35293994    -2.334137    0.5288805   -1.8052565   0.13263899    11298.139     1000 
 2618000   0.37191224   -2.3643751   0.55731049   -1.8070646   0.14932902    11222.943     1000 
 2620000   0.37150856   -2.3209474   0.55670558   -1.7642419   0.13471654    11353.692     1000 
 2622000     0.375836   -2.3237744   0.56319025   -1.7605841   0.13297618    11307.966     1000 
 2624000   0.38654763   -2.3144795   0.57924162   -1.7352379   0.14192895    11240.483     1000 
 2626000   0.36441273   -2.3467032   0.54607247   -1.8006307   0.13463287    11372.366     1000 
 2628000   0.36910121   -2.3532369   0.55309816   -1.8001387   0.12168114    11471.743     1000 
 2630000   0.36703055   -2.3099108   0.54999528   -1.7599155   0.13787092    11301.056     1000 
 2632000   0.35990591   -2.3581632     0.539319   -1.8188442   0.13075376    11404.527     1000 
 2634000   0.35794024   -2.3394497   0.53637346   -1.8030763   0.12595163    11271.111     1000 
 2636000   0.34712157   -2.3138902   0.52016168   -1.7937285   0.14260641    11200.901     1000 
 2638000   0.38063423   -2.3437563   0.57038039   -1.7733759   0.14495435     11342.61     1000 
 2640000   0.35378108   -2.3906843   0.53014095   -1.8605433   0.12765814     11392.32     1000 
 2642000   0.38207711    -2.340343   0.57254255   -1.7678005   0.13151447    11362.973     1000 
 2644000   0.36145273   -2.3270526   0.54163692   -1.7854157   0.13342756    11331.837     1000 
 2646000   0.35283566   -2.3160374   0.52872423   -1.7873132    0.1378879    11288.942     1000 
 2648000    0.3757442   -2.3206344   0.56305268   -1.7575818   0.11551061    11420.742     1000 
 2650000   0.37304127   -2.3567438   0.55900234   -1.7977414   0.12913816    11319.876     1000 
 2652000   0.35881716   -2.3269475   0.53768751   -1.7892599   0.12292402    11424.208     1000 
 2654000   0.37202567   -2.3211341   0.55748046   -1.7636536   0.13310232    11307.779     1000 
 2656000   0.37535496   -2.3405254   0.56246941   -1.7780559   0.13851243    11300.143     1000 
 2658000   0.38022898   -2.3696921   0.56977313   -1.7999189    0.1236254    11485.578     1000 
 2660000   0.38012513   -2.3759198    0.5696175   -1.8063023   0.13734062      11376.2     1000 
 2662000   0.36879169   -2.3363576   0.55263434   -1.7837232   0.12916148    11354.119     1000 
 2664000   0.38150816    -2.354292   0.57168998    -1.782602    0.1287625    11418.141     1000 
 2666000   0.37391987   -2.3440331   0.56031892   -1.7837142   0.13020558    11390.207     1000 
 2668000   0.35081068   -2.3527882   0.52568981   -1.8270984   0.12219402    11461.403     1000 
 2670000   0.36383343   -2.3265139   0.54520439   -1.7813095   0.13861483    11309.348     1000 
 2672000   0.37495243   -2.3802671   0.56186622   -1.8184008   0.13657907    11346.745     1000 
 2674000    0.3712655   -2.3421876   0.55634136   -1.7858462   0.13175524    11339.948     1000 
 2676000   0.38576166   -2.3467806   0.57806385   -1.7687168   0.13665183    11295.603     1000 
 2678000    0.3596895   -2.3665091   0.53899472   -1.8275144    0.1238205    11398.928     1000 
 2680000   0.35926843   -2.3673104   0.53836374   -1.8289467   0.11481561    11498.637     1000 
 2682000   0.36880771    -2.319866   0.55265835   -1.7672077   0.13360635    11349.346     1000 
 2684000   0.37656698   -2.3717086   0.56428561    -1.807423   0.14015267    11400.659     1000 
 2686000   0.36340401   -2.3374316    0.5445609   -1.7928707   0.13178606    11341.021     1000 
 2688000   0.35975565   -2.3433589   0.53909384   -1.8042651   0.12755325    11397.767     1000 
 2690000   0.39080549   -2.3372969   0.58562203   -1.7516749    0.1312172    11406.077     1000 
 2692000   0.37529352   -2.3080963   0.56237733    -1.745719   0.12452082    11499.404     1000 
 2694000   0.37457857   -2.2911361   0.56130598   -1.7298301   0.13017242    11330.905     1000 
 2696000   0.37469177    -2.393667   0.56147562   -1.8321914   0.12801725     11445.26     1000 
 2698000   0.37340638   -2.3392284   0.55954946   -1.7796789   0.13635091    11301.378     1000 
 2700000   0.37257552   -2.3341405   0.55830442   -1.7758361   0.11378669    11540.748     1000 
 2702000   0.38548268   -2.3457017   0.57764579   -1.7680559   0.12740325    11389.814     1000 
 2704000   0.36980622   -2.3740958   0.55415462   -1.8199412   0.12311324    11410.187     1000 
 2706000   0.36597021   -2.3789356   0.54840636   -1.8305292   0.13298436    11359.214     1000 
 2708000   0.38184277   -2.3798091   0.57219139   -1.8076177   0.12482441    11486.349     1000 
 2710000   0.37207506   -2.3532564   0.55755448   -1.7957019   0.13441248    11325.864     1000 
 2712000   0.37007582   -2.3700831   0.55455862   -1.8155245   0.13122384    11351.796     1000 
 2714000   0.37648487   -2.3969606   0.56416257    -1.832798   0.12426229    11486.295     1000 
 2716000    0.3726992   -2.3215379   0.55848975   -1.7630481   0.13647122    11279.397     1000 
 2718000   0.36073808    -2.335434   0.54056601    -1.794868   0.13407578    11380.768     1000 
 2720000   0.37227025   -2.3418825   0.55784696   -1.7840356   0.13152162    11381.461     1000 
 2722000   0.36754009   -2.3269729   0.55075883   -1.7762141   0.12456544    11379.653     1000 
 2724000   0.36471743   -2.3358996   0.54652907   -1.7893706   0.14037091    11253.181     1000 
 2726000   0.39235542   -2.3317941    0.5879446   -1.7438495   0.12971283    11401.753     1000 
 2728000   0.38705116   -2.3282646   0.57999616   -1.7482684   0.13900453    11222.756     1000 
 2730000   0.36158792   -2.3625822    0.5418395   -1.8207427   0.12680865    11327.094     1000 
 2732000   0.37320291   -2.3346625   0.55924456    -1.775418   0.13175252    11403.152     1000 
 2734000   0.36978146   -2.3379771   0.55411751   -1.7838596   0.11943396    11451.489     1000 
 2736000   0.36796671   -2.3567569   0.55139812   -1.8053588   0.13190757    11350.189     1000 
 2738000   0.36639794   -2.3342009   0.54904732   -1.7851536   0.12159337     11424.91     1000 
 2740000   0.38563564   -2.3148672     0.577875   -1.7369922   0.13278917    11355.099     1000 
 2742000   0.36682843   -2.3125913    0.5496924   -1.7628989    0.1367222    11281.075     1000 
 2744000   0.37795367   -2.3309951   0.56636357   -1.7646315   0.13592848    11331.843     1000 
 2746000   0.36975422   -2.3222994    0.5540767   -1.7682227   0.12097988    11384.919     1000 
 2748000   0.36001699   -2.3318865   0.53948546    -1.792401   0.13911103    11366.708     1000 
 2750000   0.36417613   -2.3530699   0.54571793    -1.807352   0.14095027    11316.442     1000 
 2752000   0.38723737   -2.3580914    0.5802752   -1.7778162   0.13410282    11267.962     1000 
 2754000   0.36238815   -2.3471508   0.54303865   -1.8041122   0.13565821     11328.68     1000 
 2756000   0.37154766   -2.3362102   0.55676417    -1.779446   0.14192409    11246.956     1000 
 2758000   0.38783025       -2.352   0.58116363   -1.7708364   0.12845177    11410.653     1000 
 2760000   0.36462914   -2.3468402   0.54639677   -1.8004434   0.12867824    11358.002     1000 
 2762000   0.39358045    -2.353554    0.5897803   -1.7637737   0.13133529    11361.281     1000 
 2764000   0.36702489   -2.2786979    0.5499868   -1.7287111    0.1299403    11301.474     1000 
 2766000   0.35592754   -2.2909743   0.53335741   -1.7576169   0.12071977    11430.939     1000 
 2768000   0.36400203   -2.3408647   0.54545705   -1.7954077   0.12727706    11385.536     1000 
 2770000   0.37413053    -2.325559    0.5606346   -1.7649244    0.1351956    11277.014     1000 
 2772000   0.36949878   -2.3261463   0.55369392   -1.7724524   0.12859799     11295.68     1000 
 2774000    0.3702488   -2.3792395   0.55481783   -1.8244217    0.1318923    11379.892     1000 
 2776000   0.36985181   -2.3213199   0.55422294    -1.767097   0.13277239    11358.949     1000 
 2778000   0.35942943   -2.3461479     0.538605   -1.8075429   0.13109514    11346.683     1000 
 2780000   0.36774718   -2.3343504   0.55106915   -1.7832813   0.13506438    11388.685     1000 
 2782000   0.37801663   -2.3471213   0.56645793   -1.7806634   0.13677231    11296.266     1000 
 2784000   0.37427806   -2.3428891   0.56085567   -1.7820334   0.12629331     11433.12     1000 
 2786000   0.36205807   -2.3276161   0.54254402   -1.7850721   0.12991578    11357.909     1000 
 2788000   0.36930219   -2.3303746   0.55339934   -1.7769752   0.13274363     11319.93     1000 
 2790000   0.35809073   -2.3518207   0.53659896   -1.8152217   0.12042456    11389.059     1000 
 2792000   0.36181374   -2.3501043   0.54217789   -1.8079264   0.12383186    11414.716     1000 
 2794000   0.37519798   -2.3759044   0.56223417   -1.8136702   0.12593443    11444.276     1000 
 2796000   0.37882231   -2.3373368   0.56766523   -1.7696716   0.12875443    11319.406     1000 
 2798000   0.39740545    -2.255578   0.59551207    -1.660066   0.13391908    11244.419     1000 
 2800000   0.36921811   -2.3061006   0.55327334   -1.7528273   0.13655768    11363.669     1000 
 2802000   0.38792825   -2.3225844   0.58131048   -1.7412739   0.13320364    11280.243     1000 
 2804000   0.35737199   -2.3323183   0.53552193   -1.7967964   0.12669343    11362.491     1000 
 2806000   0.37692296   -2.3321143   0.56481906   -1.7672952   0.13914104    11309.361     1000 
 2808000   0.38948139   -2.3254532   0.58363787   -1.7418153   0.13081953    11292.398     1000 
 2810000   0.36887039   -2.3028108   0.55275229   -1.7500586   0.14255777    11253.659     1000 
 2812000   0.36047041   -2.3057533   0.54016491   -1.7655884   0.13097067    11276.226     1000 
 2814000   0.36865958   -2.3206251   0.55243638   -1.7681887   0.13386422     11300.54     1000 
 2816000   0.37217606   -2.3955114   0.55770583   -1.8378055   0.12065134    11440.401     1000 
 2818000   0.36575872   -2.3613808   0.54808944   -1.8132914   0.12503249     11415.53     1000 
 2820000   0.38032756    -2.396613   0.56992085   -1.8266922   0.12999166    11418.979     1000 
 2822000   0.35555094   -2.3265327   0.53279308   -1.7937396   0.12799759    11285.946     1000 
 2824000    0.3762188   -2.3429874   0.56376387   -1.7792235   0.14241303    11282.546     1000 
 2826000   0.37310292   -2.4001904   0.55909472   -1.8410957   0.13127178    11366.058     1000 
 2828000   0.38829608    -2.356231   0.58186168   -1.7743693   0.13471954     11363.45     1000 
 2830000   0.38141027   -2.3384776    0.5715433   -1.7669343   0.12588682    11389.046     1000 
 2832000   0.36875402   -2.3721361    0.5525779   -1.8195582   0.13274099    11420.838     1000 
 2834000   0.36454769    -2.340256   0.54627472   -1.7939813   0.12493616     11427.53     1000 
 2836000   0.37696107   -2.3774895   0.56487616   -1.8126133   0.13294742    11384.021     1000 
 2838000    0.3798308   -2.3553717   0.56917645   -1.7861952   0.14359118    11255.623     1000 
 2840000   0.36749073   -2.3251385   0.55068486   -1.7744536   0.13058891    11324.995     1000 
 2842000   0.37784189   -2.3439247   0.56619608   -1.7777287   0.13218903    11380.003     1000 
 2844000   0.37538142   -2.3393705   0.56250905   -1.7768615   0.13212467    11382.451     1000 
 2846000   0.36911433   -2.3706284   0.55311782   -1.8175106   0.13721628     11308.53     1000 
 2848000   0.36142439   -2.3729103   0.54159445   -1.8313159   0.11737058    11452.663     1000 
 2850000   0.35901274   -2.3478852    0.5379806   -1.8099046   0.12617305    11430.605     1000 
 2852000   0.37123187   -2.3669704   0.55629096   -1.8106795   0.12248728    11461.536     1000 
 2854000   0.39323916   -2.3367853   0.58926888   -1.7475164   0.13279616    11334.997     1000 
 2856000   0.38558518   -2.3763689   0.57779939   -1.7985695    0.1415496    11323.413     1000 
 2858000   0.36523374   -2.3388497   0.54730276    -1.791547   0.11914392    11449.447     1000 
 2860000   0.37488019   -2.3294964   0.56175796   -1.7677385   0.13432388    11325.627     1000 
 2862000   0.36995462   -2.3214294     0.554377   -1.7670524   0.12901094    11378.278     1000 
 2864000   0.36730044   -2.3514691   0.55039971   -1.8010694   0.12655958    11458.905     1000 
 2866000   0.36394746   -2.3740653   0.54537527     -1.82869   0.11931318     11474.65     1000 
 2868000    0.3748419   -2.3217889   0.56170059   -1.7600883   0.13404304    11281.863     1000 
 2870000   0.38046286   -2.3481613   0.57012359   -1.7780377   0.13218859     11446.34     1000 
 2872000   0.36316172   -2.3459355   0.54419784   -1.8017377   0.13629354    11243.934     1000 
 2874000   0.35214761   -2.3740592    0.5276932    -1.846366   0.11389053    11513.859     1000 
 2876000    0.3452569   -2.3500329   0.51736746   -1.8326654   0.12979875    11390.818     1000 
 2878000   0.37106167   -2.3572373   0.55603592   -1.8012014    0.1360137    11312.276     1000 
 2880000   0.38652893   -2.3336423   0.57921359   -1.7544287   0.13809299    11260.158     1000 
 2882000    0.3863736   -2.3562627   0.57898084   -1.7772819   0.13775792    11403.372     1000 
 2884000   0.37715025   -2.3571531   0.56515965   -1.7919935   0.13728728    11330.537     1000 
 2886000   0.37389583    -2.346028    0.5602829   -1.7857451   0.12635463    11410.637     1000 
 2888000   0.37156689   -2.3556628   0.55679299   -1.7988698   0.13353643    11339.255     1000 
 2890000   0.38658807   -2.3503063   0.57930222   -1.7710041   0.12894704    11416.061     1000 
 2892000   0.36677566   -2.3213381   0.54961333   -1.7717248    0.1143657    11438.935     1000 
 2894000   0.36439827   -2.2537236   0.54605081   -1.7076728   0.12985798    11269.541     1000 
 2896000   0.36135229   -2.3275877    0.5414864   -1.7861013   0.14093916    11421.251     1000 
 2898000   0.36973558   -2.3552249   0.55404876   -1.8011761   0.12045008    11441.666     1000 
 2900000   0.37304469   -2.3423428   0.55900747   -1.7833354   0.14096237    11325.972     1000 
 2902000   0.36229059   -2.3166213   0.54289246   -1.7737288   0.14048295    11234.382     1000 
 2904000   0.35080937   -2.3214421   0.52568784   -1.7957543     0.127942    11439.501     1000 
 2906000   0.36651023    -2.386079   0.54921557   -1.8368634   0.12812166     11415.84     1000 
 2908000   0.38650529   -2.3448466   0.57917818   -1.7656684    0.1342825    11374.756     1000 
 2910000   0.36239156   -2.3525685   0.54304376   -1.8095247   0.12619321    11399.261     1000 
 2912000   0.36197137   -2.3545097    0.5424141   -1.8120956   0.13042945    11385.315     1000 
 2914000   0.35914553   -2.3417661   0.53817958   -1.8035865    0.1301263    11327.868     1000 
 2916000   0.37374507   -2.3423961   0.56005699   -1.7823391    0.1242723    11420.603     1000 
 2918000    0.3634486   -2.3613232   0.54462773   -1.8166954   0.13202303    11364.486     1000 
 2920000   0.37417794   -2.3379065   0.56070564   -1.7772008   0.11512166    11416.863     1000 
 2922000   0.38344068   -2.3323888   0.57458585   -1.7578029   0.11900621    11487.683     1000 
 2924000   0.37630259   -2.3826355   0.56388943   -1.8187461   0.11960826     11539.76     1000 
 2926000    0.3792897   -2.3426352   0.56836561   -1.7742696   0.12830565    11310.141     1000 
 2928000   0.37098769   -2.3494058   0.55592505   -1.7934808   0.11790634     11467.43     1000 
 2930000   0.37657616   -2.3378872   0.56429938   -1.7735878   0.12703776    11442.569     1000 
 2932000   0.37041139    -2.329609   0.55506147   -1.7745475   0.13151476    11312.894     1000 
 2934000   0.37711241   -2.3725172   0.56510294   -1.8074142   0.13267106    11317.152     1000 
 2936000   0.34844283   -2.2985407   0.52214158   -1.7763992   0.13228585    11255.348     1000 
 2938000   0.36556738   -2.3264123   0.54780271   -1.7786096    0.1273713    11390.344     1000 
 2940000    0.3774105   -2.3785615   0.56554964   -1.8130118    0.1307192     11403.22     1000 
 2942000   0.35721741   -2.3247709   0.53529028   -1.7894806   0.11756586    11501.183     1000 
 2944000   0.35622703   -2.4174268    0.5338062   -1.8836206   0.11789699    11554.166     1000 
 2946000   0.38157972   -2.3229019   0.57179721   -1.7511047   0.12950016    11269.484     1000 
 2948000   0.37097072   -2.3447184   0.55589962   -1.7888188   0.13075085    11363.175     1000 
 2950000    0.3777539   -2.3562188   0.56606422   -1.7901546   0.11640047    11490.805     1000 
 2952000   0.39142273   -2.3087299   0.58654696    -1.722183   0.13954222    11257.743     1000 
 2954000   0.36174469   -2.3622056   0.54207442   -1.8201312   0.12429333    11502.872     1000 
 2956000   0.37422351    -2.347854   0.56077393   -1.7870801   0.12107526    11432.266     1000 
 2958000   0.37194986   -2.3859561   0.55736686   -1.8285892   0.12926936     11395.66     1000 
 2960000   0.37067492   -2.3301161   0.55545636   -1.7746597   0.13211365    11247.723     1000 
 2962000   0.37365727   -2.3684618   0.55992542   -1.8085364   0.11520642    11441.642     1000 
 2964000    0.3730517   -2.3134849   0.55901798   -1.7544669   0.12966742    11447.356     1000 
 2966000   0.37075007   -2.3519004   0.55556898   -1.7963314   0.12309562      11405.4     1000 
 2968000   0.37263328    -2.284803   0.55839096    -1.726412   0.13254645    11273.861     1000 
 2970000   0.39037042   -2.3090028   0.58497007   -1.7240327     0.133865     11389.15     1000 
 2972000    0.3744817   -2.3254488   0.56116082    -1.764288   0.12392387    11343.797     1000 
 2974000     0.365557   -2.3356576   0.54778717   -1.7878704    0.1402287     11329.85     1000 
 2976000   0.35773513   -2.3407349   0.53606609   -1.8046688   0.12666259    11328.355     1000 
 2978000   0.34924545   -2.3524018    0.5233443   -1.8290575   0.13472132    11354.856     1000 
 2980000   0.36659725   -2.3539336   0.54934597   -1.8045876   0.12752827    11329.825     1000 
 2982000   0.36827221   -2.3574444    0.5518559   -1.8055885   0.12064393    11421.556     1000 
 2984000   0.38183397    -2.323488    0.5721782   -1.7513098   0.11933755    11415.446     1000 
 2986000   0.36917306    -2.303719   0.55320582   -1.7505132   0.12486382    11503.735     1000 
 2988000   0.37556124   -2.3356212   0.56277851   -1.7728427   0.13422293    11328.626     1000 
 2990000   0.35851015   -2.3622602   0.53722747   -1.8250328   0.13309915    11303.624     1000 
 2992000   0.37335873   -2.3536012   0.55947806   -1.7941232   0.13346228    11387.528     1000 
 2994000   0.35486832    -2.345142   0.53177018   -1.8133718   0.11526746    11452.752     1000 
 2996000   0.38809534   -2.3126478   0.58156087   -1.7310869    0.1402626    11223.824     1000 
 2998000   0.37473891   -2.3249498   0.56154625   -1.7634036   0.13327307    11283.509     1000 
 3000000   0.36799209   -2.3861699   0.55143615   -1.8347338   0.12360628    11379.704     1000 
Loop time of 10622 on 1 procs for 3000000 steps with 1000 atoms

Performance: 122011.102 tau/day, 282.433 timesteps/s
99.9% CPU use with 1 MPI tasks x 1 OpenMP threads

MPI task timing breakdown:
Section |  min time  |  avg time  |  max time  |%varavg| %total
---------------------------------------------------------------
Pair    | 9558.5     | 9558.5     | 9558.5     |   0.0 | 89.99
Neigh   | 696.78     | 696.78     | 696.78     |   0.0 |  6.56
Comm    | 125.04     | 125.04     | 125.04     |   0.0 |  1.18
Output  | 0.11735    | 0.11735    | 0.11735    |   0.0 |  0.00
Modify  | 219.03     | 219.03     | 219.03     |   0.0 |  2.06
Other   |            | 22.52      |            |       |  0.21

Nlocal:        1000.00 ave        1000 max        1000 min
Histogram: 1 0 0 0 0 0 0 0 0 0
Nghost:        4278.00 ave        4278 max        4278 min
Histogram: 1 0 0 0 0 0 0 0 0 0
Neighs:        104099.0 ave      104099 max      104099 min
Histogram: 1 0 0 0 0 0 0 0 0 0

Total # of neighbors = 104099
Ave neighs/atom = 104.09900
Neighbor list builds = 150000
Dangerous builds not checked

Total wall time: 2:57:02
