LAMMPS (29 Sep 2021 - Update 2)
OMP_NUM_THREADS environment is not set. Defaulting to 1 thread. (src/comm.cpp:98)
  using 1 OpenMP thread(s) per MPI task
# ----------------------- Inicialização -----------------------

units			lj
atom_style 		atomic
dimension 		3
boundary 		p p p

# -------------------- Criação dos Átomos ---------------------

read_data 		topologia.txt
Reading data file ...
  orthogonal box = (0.0000000 0.0000000 0.0000000) to (21.540000 21.540000 21.540000)
  1 by 1 by 1 MPI processor grid
  reading atoms ...
  1000 atoms
  read_data CPU = 0.003 seconds

velocity 		all create ${temp} 87287 rot yes dist gaussian
velocity 		all create 0.52 87287 rot yes dist gaussian

# ------------------ Interação Interatômica -------------------

pair_style		table linear 1600
pair_coeff		1 1 force.table AA 8.0
WARNING: 3 of 1600 force values in table AA are inconsistent with -dE/dr.
WARNING:  Should only be flagged at inflection points (src/pair_table.cpp:465)
pair_coeff		1 2 force.table AB 8.0
WARNING: 1 of 1600 force values in table AB are inconsistent with -dE/dr.
WARNING:  Should only be flagged at inflection points (src/pair_table.cpp:465)
pair_coeff		2 2 force.table BB 8.0
pair_write		1 1 1600 r 0.008 8.0 table.check AA
Appending to table file table.check with DATE: 2023-07-05
Neighbor list info ...
  update every 1 steps, delay 10 steps, check yes
  max neighbors/atom: 2000, page size: 100000
  master list distance cutoff = 8.3
  ghost atom cutoff = 8.3
  binsize = 4.15, bins = 6 6 6
  1 neighbor lists, perpetual/occasional/extra = 1 0 0
  (1) pair table, perpetual
      attributes: half, newton on
      pair build: half/bin/atomonly/newton
      stencil: half/bin/3d
      bin: standard
pair_write		1 2 1600 r 0.008 8.0 table.check AB
Appending to table file table.check with DATE: 2023-07-05
pair_write		2 2 1600 r 0.008 8.0 table.check BB
Appending to table file table.check with DATE: 2023-07-05

neighbor 		0.3 bin
neigh_modify		every 20 delay 0 check no

# ------------------------- Ensemble --------------------------------------

fix 1			all npt temp ${temp} ${temp} 0.5 iso ${press} ${press} 5
fix 1			all npt temp 0.52 ${temp} 0.5 iso ${press} ${press} 5
fix 1			all npt temp 0.52 0.52 0.5 iso ${press} ${press} 5
fix 1			all npt temp 0.52 0.52 0.5 iso 0.13 ${press} 5
fix 1			all npt temp 0.52 0.52 0.5 iso 0.13 0.13 5

# ---------------------- Função de Distribuição Radial -----------------------

#compute RDF 		all rdf 2000 1 1 1 2 2 2
#fix 2 			all ave/time 1 2000 2000 c_RDF[*] file rdf.data mode vector

# ------------------------- Execução ---------------------------

timestep 		0.005
thermo_style		custom step temp pe ke etotal press vol atoms
thermo			2000
run			3000000
Per MPI rank memory allocation (min/avg/max) = 3.125 | 3.125 | 3.125 Mbytes
Step Temp PotEng KinEng TotEng Press Volume Atoms 
       0         0.52  -0.99524352      0.77922  -0.21602352   0.12015271    9993.9483     1000 
    2000   0.53189712   -1.8703329   0.79704783    -1.073285   0.12894367    11437.494     1000 
    4000    0.5242242    -1.851268   0.78554997   -1.0657181   0.13204907    11305.977     1000 
    6000   0.53941872   -1.8372853   0.80831895   -1.0289664   0.13373725    11396.311     1000 
    8000    0.5503218   -1.8532035   0.82465722   -1.0285463   0.12802959    11432.621     1000 
   10000   0.51988502   -1.8305475    0.7790477   -1.0514998   0.12476296    11436.092     1000 
   12000   0.50837364   -1.8783393    0.7617979   -1.1165414   0.12781806    11396.664     1000 
   14000   0.52637397   -1.8796054    0.7887714    -1.090834   0.12682842    11510.744     1000 
   16000   0.53085624   -1.8378852   0.79548808   -1.0423971   0.12987606    11469.049     1000 
   18000   0.52075725   -1.8613281   0.78035475   -1.0809734   0.12731932    11441.598     1000 
   20000   0.52072627   -1.8527601   0.78030832   -1.0724518   0.13278635    11387.648     1000 
   22000   0.52834579   -1.7851422   0.79172616  -0.99341602   0.12879039    11193.458     1000 
   24000   0.51456367   -1.8296258   0.77107366   -1.0585521   0.12237555    11436.382     1000 
   26000   0.52424895   -1.8791783   0.78558705   -1.0935913   0.12618449    11382.722     1000 
   28000   0.50570472   -1.8717109   0.75779852   -1.1139124   0.13314761    11382.011     1000 
   30000    0.5382664   -1.8516096    0.8065922   -1.0450174   0.12788768    11507.338     1000 
   32000    0.5238163   -1.8996866   0.78493872   -1.1147478    0.1300052    11385.924     1000 
   34000   0.53717266    -1.882588   0.80495324   -1.0776348   0.12904059    11364.291     1000 
   36000   0.49226655   -1.8523998   0.73766142   -1.1147384   0.12449257    11374.541     1000 
   38000   0.48925613   -1.8830401   0.73315031   -1.1498898   0.12978062    11464.275     1000 
   40000   0.52609846   -1.8317549   0.78835854   -1.0433963   0.12878263    11411.693     1000 
   42000   0.53137617   -1.8501621   0.79626719   -1.0538949    0.1256552    11394.529     1000 
   44000   0.51705957    -1.849928   0.77481377   -1.0751143   0.13112358    11335.172     1000 
   46000   0.49005696   -1.9160045   0.73435036   -1.1816542   0.12166101    11511.784     1000 
   48000   0.51529673   -1.8008299   0.77217215   -1.0286578    0.1330267    11185.748     1000 
   50000   0.52494866   -1.8463605   0.78663557    -1.059725   0.13088866    11417.841     1000 
   52000    0.5112769   -1.9065163   0.76614844   -1.1403679   0.11560154    11510.315     1000 
   54000   0.53211419   -1.8876224   0.79737312   -1.0902493   0.13671381    11467.854     1000 
   56000   0.53392791   -1.8798022   0.80009097   -1.0797112   0.13409445    11281.842     1000 
   58000   0.51069342   -1.8949072   0.76527409   -1.1296331   0.11929189    11543.482     1000 
   60000   0.52279018     -1.88507   0.78340109   -1.1016689   0.12121897      11414.4     1000 
   62000   0.53913226   -1.8314377    0.8078897    -1.023548   0.14871833    11260.145     1000 
   64000    0.5245259   -1.8804432   0.78600206   -1.0944412   0.13507527    11519.928     1000 
   66000   0.51897546   -1.8835077   0.77768473    -1.105823   0.12648851    11383.744     1000 
   68000    0.5269254    -1.843164   0.78959771   -1.0535663   0.12738696    11447.068     1000 
   70000   0.51957983   -1.8468164   0.77859038   -1.0682261    0.1371036     11330.19     1000 
   72000   0.50021687   -1.8639169   0.74957499    -1.114342   0.12428168    11599.266     1000 
   74000    0.5144236   -1.8349474   0.77086376   -1.0640836   0.13132944    11441.633     1000 
   76000   0.51967647   -1.8051072   0.77873519    -1.026372   0.14021225    11335.796     1000 
   78000   0.53797322   -1.8584607   0.80615287   -1.0523078   0.12526446    11494.919     1000 
   80000   0.54539819    -1.883188   0.81727919   -1.0659088    0.1240091    11481.081     1000 
   82000    0.5102159   -1.9398219   0.76455852   -1.1752633   0.10661099    11689.982     1000 
   84000   0.53372969   -1.8889999   0.79979395    -1.089206   0.13735823    11452.109     1000 
   86000   0.53691751   -1.8976181   0.80457089   -1.0930472   0.14781095     11270.73     1000 
   88000   0.53615159   -1.8301706   0.80342316   -1.0267475   0.14562477    11236.897     1000 
   90000   0.51830315   -1.8328018   0.77667727   -1.0561246   0.13624727    11331.946     1000 
   92000   0.51340529   -1.8040493   0.76933783   -1.0347115    0.1354074    11298.163     1000 
   94000   0.52371979   -1.8641504    0.7847941   -1.0793562   0.14173461    11314.208     1000 
   96000   0.49191822   -1.9145292   0.73713945   -1.1773898    0.1097029    11628.584     1000 
   98000   0.52955987   -1.8106957   0.79354546   -1.0171502   0.13289672    11319.933     1000 
  100000   0.53637758   -1.8726507   0.80376181   -1.0688889   0.13078032    11435.584     1000 
  102000   0.50143526   -1.8220457   0.75140074   -1.0706449   0.13574376    11236.142     1000 
  104000   0.53087214   -1.8554849    0.7955119    -1.059973   0.13256991    11356.041     1000 
  106000   0.52785169   -1.8949367   0.79098575    -1.103951   0.11732498    11530.933     1000 
  108000   0.53478718   -1.8014355   0.80137858   -1.0000569   0.13475457    11366.427     1000 
  110000    0.5109471   -1.8236121   0.76565423   -1.0579579   0.12170944    11373.602     1000 
  112000   0.51231822   -1.8780447   0.76770886   -1.1103359   0.13470713    11410.515     1000 
  114000   0.51843413   -1.9101991   0.77687354   -1.1333256   0.12197273    11597.334     1000 
  116000   0.49471068   -1.8367186   0.74132395   -1.0953947   0.12532732    11457.032     1000 
  118000   0.50375545   -1.8809985   0.75487754    -1.126121     0.124116    11460.749     1000 
  120000    0.5187852    -1.881199   0.77739962   -1.1037994   0.13666592    11371.047     1000 
  122000   0.52417317   -1.9070219   0.78547349   -1.1215484   0.11353083    11652.567     1000 
  124000    0.5477875   -1.8755298   0.82085957   -1.0546702    0.1252064    11374.851     1000 
  126000   0.50946723   -1.8390181   0.76343665   -1.0755814   0.13942941    11282.462     1000 
  128000   0.51909401    -1.944443   0.77786237   -1.1665807   0.12686232    11403.246     1000 
  130000   0.55470729   -1.8765124   0.83122888   -1.0452835   0.13107706    11414.423     1000 
  132000   0.49699403   -1.8761755   0.74474556     -1.13143   0.13373643    11477.998     1000 
  134000   0.52797419   -1.8587549   0.79116933   -1.0675856   0.12895043     11260.19     1000 
  136000   0.52293915   -1.8635855   0.78362432   -1.0799612   0.12813865    11401.796     1000 
  138000   0.52520171   -1.8454959   0.78701476   -1.0584812   0.12705247      11351.8     1000 
  140000   0.50436704   -1.8826598   0.75579401   -1.1268658   0.13007426    11487.069     1000 
  142000   0.49709391   -1.8195152   0.74489523     -1.07462   0.12286359    11522.755     1000 
  144000   0.51795569   -1.9071042   0.77615661   -1.1309476   0.12838532    11545.675     1000 
  146000   0.53597213   -1.8581581   0.80315424   -1.0550039   0.15085918    11256.439     1000 
  148000    0.5189792   -1.9005197   0.77769033   -1.1228294   0.12592248    11484.622     1000 
  150000   0.53080275   -1.8445674   0.79540792   -1.0491595   0.12869572    11530.653     1000 
  152000   0.53241551   -1.8546856   0.79782465   -1.0568609   0.13567388    11245.811     1000 
  154000   0.52039287   -1.8695749   0.77980872   -1.0897662   0.13527685    11328.698     1000 
  156000    0.5263732   -1.8556893   0.78877023   -1.0669191   0.11937134     11412.53     1000 
  158000   0.52327559   -1.8713298   0.78412848   -1.0872013   0.12225816    11515.173     1000 
  160000   0.53637133   -1.8369901   0.80375243   -1.0332377   0.11974342    11513.465     1000 
  162000   0.51646139   -1.9277889    0.7739174   -1.1538715   0.12907511    11480.261     1000 
  164000   0.51815936   -1.8999889   0.77646179   -1.1235271   0.13294222    11280.142     1000 
  166000   0.50810871   -1.8801171   0.76140091   -1.1187162   0.13328216    11409.092     1000 
  168000   0.51752953   -1.9729346     0.775518   -1.1974166  0.099740989    11818.611     1000 
  170000   0.53127783   -1.8098451   0.79611983   -1.0137253   0.13404391    11240.265     1000 
  172000   0.51078458   -1.8558099   0.76541069   -1.0903992   0.13156015    11370.849     1000 
  174000   0.50979908   -1.8426012   0.76393393   -1.0786673   0.12429816    11400.659     1000 
  176000   0.51331292    -1.847702   0.76919942   -1.0785026   0.12405648      11543.9     1000 
  178000   0.50740952   -1.9068442   0.76035316   -1.1464911   0.12921517     11472.83     1000 
  180000   0.52806207   -1.8964867   0.79130102   -1.1051856   0.13124052     11406.86     1000 
  182000   0.51381813    -1.900103   0.76995647   -1.1301465   0.12126947    11550.973     1000 
  184000   0.52384816   -1.9153654   0.78498646    -1.130379   0.12239448    11564.423     1000 
  186000   0.51491675   -1.8258314   0.77160276   -1.0542286   0.13660415    11144.551     1000 
  188000    0.5115316    -1.855444    0.7665301   -1.0889139   0.12249751    11404.569     1000 
  190000   0.50825613   -1.8092741   0.76162181   -1.0476523   0.12132656    11467.957     1000 
  192000   0.52186462   -1.8553154   0.78201414   -1.0733013   0.11919381    11407.026     1000 
  194000   0.52231792   -1.9199971   0.78269341   -1.1373037   0.12945039    11586.526     1000 
  196000   0.53136605   -1.8330376   0.79625203   -1.0367856   0.12540032    11495.081     1000 
  198000   0.52881157   -1.8531289   0.79242414   -1.0607048   0.11896714    11447.997     1000 
  200000   0.51893969   -1.8015775   0.77763113   -1.0239464    0.1290972    11395.356     1000 
  202000   0.52101378   -1.8586582   0.78073915   -1.0779191   0.13635048    11319.994     1000 
  204000   0.53581206   -1.8598022   0.80291437   -1.0568878   0.13611719    11404.871     1000 
  206000   0.49102659   -1.8888483   0.73580334   -1.1530449   0.11512717    11465.295     1000 
  208000   0.53679389   -1.8237784   0.80438565   -1.0193928   0.13524415    11317.665     1000 
  210000   0.51096437   -1.8496852    0.7656801   -1.0840051   0.12080165    11512.545     1000 
  212000   0.49945305   -1.8662958   0.74843039   -1.1178655    0.1373403     11329.23     1000 
  214000   0.50599282   -1.9395527   0.75823025   -1.1813224   0.12616502    11464.101     1000 
  216000   0.52733317   -1.8491379   0.79020875   -1.0589292   0.13578803    11355.409     1000 
  218000   0.53134233   -1.8746744   0.79621649   -1.0784579   0.12859363    11443.825     1000 
  220000   0.52741959   -1.8239769   0.79033826   -1.0336386   0.12289909    11460.906     1000 
  222000   0.52718802   -1.8573104   0.78999124   -1.0673192   0.13418615    11437.788     1000 
  224000   0.51921412   -1.8378332   0.77804236   -1.0597908   0.12817409    11463.303     1000 
  226000   0.48774639   -1.8764902   0.73088797   -1.1456022   0.13401272    11345.557     1000 
  228000   0.50978153   -1.8408421   0.76390762   -1.0769345   0.12405744    11330.406     1000 
  230000   0.49757728   -1.8408155   0.74561955    -1.095196   0.12915966    11339.086     1000 
  232000    0.4971203   -1.8729292   0.74493477   -1.1279944   0.12097846    11349.414     1000 
  234000   0.51706566   -1.8623905   0.77482289   -1.0875676   0.13470666    11335.745     1000 
  236000   0.53284854   -1.8316362   0.79847353   -1.0331627   0.14281735    11244.544     1000 
  238000   0.51458775   -1.8526654   0.77110975   -1.0815557   0.12938124    11289.295     1000 
  240000   0.52991438   -1.9097877    0.7940767    -1.115711   0.13163323    11337.646     1000 
  242000   0.51991073   -1.8315757   0.77908623   -1.0524895    0.1203381    11283.324     1000 
  244000    0.5010221   -1.8718227   0.75078162    -1.121041   0.12758133    11430.317     1000 
  246000   0.51672273   -1.8729549   0.77430901   -1.0986459    0.1237093    11373.731     1000 
  248000   0.51605022   -1.8690515   0.77330126   -1.0957502   0.13913384    11353.169     1000 
  250000    0.5320228    -1.901301   0.79723616   -1.1040649   0.12974739    11433.474     1000 
  252000   0.49237243   -1.8949996   0.73782009   -1.1571795   0.12734689    11464.758     1000 
  254000   0.51923953   -1.8565676   0.77808044   -1.0784872   0.12501939    11432.209     1000 
  256000   0.52747207   -1.8211884    0.7904169   -1.0307715   0.11861991     11489.19     1000 
  258000   0.53750065   -1.8611319   0.80544473   -1.0556871   0.12725958    11470.884     1000 
  260000   0.50953061   -1.8386958   0.76353162   -1.0751642   0.12342137    11481.522     1000 
  262000   0.50825607   -1.8619933   0.76162173   -1.1003715   0.13270312    11342.062     1000 
  264000   0.53516223   -1.9122038   0.80194061   -1.1102632   0.13066706    11268.029     1000 
  266000   0.50029989   -1.8498181   0.74969938   -1.1001187   0.13315772    11367.471     1000 
  268000   0.52454244   -1.8677244   0.78602684   -1.0816975    0.1294599    11327.996     1000 
  270000   0.50348158    -1.780823   0.75446715   -1.0263558   0.11817019    11429.634     1000 
  272000   0.54125725   -1.8596077   0.81107399   -1.0485337   0.12647593    11440.695     1000 
  274000   0.51743243   -1.8248249   0.77537249   -1.0494524   0.13337426     11298.79     1000 
  276000   0.54001806   -1.8444689   0.80921706   -1.0352518   0.11906848    11439.146     1000 
  278000    0.4830812   -1.8987935   0.72389717   -1.1748963   0.11505534    11365.006     1000 
  280000   0.52000578    -1.792654   0.77922866   -1.0134253   0.13558301    11357.654     1000 
  282000   0.52198688   -1.8520112   0.78219735   -1.0698138   0.13042175    11463.206     1000 
  284000   0.51817824   -1.9042807   0.77649009   -1.1277906   0.12978058    11542.973     1000 
  286000   0.51688561   -1.8583673   0.77455309   -1.0838142   0.12443866    11536.368     1000 
  288000   0.53051834   -1.8299426   0.79498173   -1.0349609   0.13632942    11205.928     1000 
  290000   0.52927111   -1.8721123   0.79311276   -1.0789995   0.14385496    11278.178     1000 
  292000   0.52255473   -1.8303514   0.78304826   -1.0473032   0.12166413    11449.441     1000 
  294000   0.50738334   -1.9017669   0.76031394    -1.141453   0.12957593    11402.314     1000 
  296000   0.54322621   -1.8462847   0.81402447   -1.0322603   0.12708101    11372.885     1000 
  298000   0.50299003   -1.8897046   0.75373057   -1.1359741   0.11892777    11396.334     1000 
  300000   0.51637453   -1.8447922   0.77378723    -1.071005   0.13405308    11242.816     1000 
  302000   0.52896239   -1.9169045   0.79265014   -1.1242543   0.14258715    11456.913     1000 
  304000   0.52009233   -1.8762482   0.77935835   -1.0968899   0.13432095    11289.204     1000 
  306000   0.51598916   -1.8482339   0.77320976   -1.0750241   0.12652683    11378.885     1000 
  308000   0.51076727   -1.8512235   0.76538475   -1.0858388   0.13042036     11342.37     1000 
  310000   0.52424746   -1.8643249   0.78558482   -1.0787401   0.12550029    11542.835     1000 
  312000   0.50812789   -1.8428737   0.76142965    -1.081444   0.13165123    11281.548     1000 
  314000   0.50726871   -1.8295235   0.76014216   -1.0693813   0.12433034    11401.957     1000 
  316000   0.53849218   -1.8707351   0.80693054   -1.0638045   0.13660449    11283.882     1000 
  318000   0.52122881   -1.8369823   0.78106138   -1.0559209   0.13112193     11325.81     1000 
  320000   0.52218249   -1.8775411   0.78249046   -1.0950507   0.12254155    11542.035     1000 
  322000   0.53404572   -1.8751343   0.80026751   -1.0748668   0.13935326    11367.802     1000 
  324000   0.53644429   -1.8299083   0.80386177   -1.0260465   0.12608905    11417.555     1000 
  326000   0.53409813   -1.8366962   0.80034605   -1.0363501   0.14284567    11180.576     1000 
  328000   0.53146767   -1.8949042   0.79640431   -1.0984999   0.12628845    11464.146     1000 
  330000   0.56755175     -1.83796    0.8504763  -0.98748365   0.13689276    11380.196     1000 
  332000   0.53108915    -1.807936   0.79583709   -1.0120989   0.13158171    11284.043     1000 
  334000   0.53466642   -1.8149901   0.80119763   -1.0137925   0.13281193    11356.935     1000 
  336000    0.5221122   -1.9189358   0.78238513   -1.1365507   0.13207141    11526.594     1000 
  338000   0.49680947   -1.8736466     0.744469   -1.1291776   0.12630059    11487.481     1000 
  340000   0.51627235   -1.8873487   0.77363412   -1.1137146   0.13331822    11382.378     1000 
  342000   0.48019935   -1.8989541   0.71957872   -1.1793753   0.12089069    11548.681     1000 
  344000   0.51863801   -1.8583648   0.77717905   -1.0811857   0.12672454    11376.889     1000 
  346000   0.49777401   -1.7891052   0.74591435   -1.0431908   0.13731361    11284.331     1000 
  348000   0.53075867   -1.8355721   0.79534186   -1.0402302   0.15364059    11149.347     1000 
  350000   0.53041108     -1.86945     0.794821    -1.074629   0.13252635    11412.984     1000 
  352000   0.52602213    -1.855512   0.78824417   -1.0672678   0.12473602     11429.01     1000 
  354000   0.51620055   -1.8554907   0.77352653   -1.0819642   0.12155649    11469.704     1000 
  356000   0.51398636   -1.8259237   0.77020856   -1.0557152   0.12543811    11425.376     1000 
  358000   0.52874588   -1.8550682   0.79232571   -1.0627425   0.12577915    11380.886     1000 
  360000   0.53844815   -1.8590391   0.80686455   -1.0521746   0.12970215    11361.133     1000 
  362000   0.52296761   -1.8920492   0.78366696   -1.1083823    0.1241544    11431.845     1000 
  364000   0.51636093   -1.8292355   0.77376685   -1.0554686   0.11329645    11561.843     1000 
  366000   0.52879284    -1.801885   0.79239607   -1.0094889   0.13710684    11353.305     1000 
  368000   0.50422354   -1.8700562   0.75557898   -1.1144773   0.12300792    11472.026     1000 
  370000   0.52550524   -1.8592342    0.7874696   -1.0717646   0.12550925    11471.733     1000 
  372000    0.5038569   -1.8730347   0.75502957   -1.1180052   0.12524729    11512.967     1000 
  374000   0.50044987   -1.8664653   0.74992413   -1.1165411   0.12048601    11546.668     1000 
  376000   0.48977124   -1.8271666    0.7339222   -1.0932444    0.1377521    11277.047     1000 
  378000   0.53385454   -1.8551566   0.79998103   -1.0551756   0.12863444    11320.241     1000 
  380000   0.49998759   -1.9298076    0.7492314   -1.1805762   0.11968192    11438.554     1000 
  382000   0.50005739   -1.8980411     0.749336   -1.1487051   0.12804594     11495.48     1000 
  384000   0.52971747   -1.8269233   0.79378163   -1.0331416   0.13652261    11369.118     1000 
  386000   0.51515901   -1.9101531   0.77196578   -1.1381873   0.12647037     11486.69     1000 
  388000    0.5289881   -1.8871955   0.79268867   -1.0945068   0.11528689    11477.781     1000 
  390000    0.5341044   -1.8565503   0.80035544   -1.0561949   0.12461569    11507.433     1000 
  392000   0.51632888   -1.8679345   0.77371882   -1.0942157   0.12977652    11414.847     1000 
  394000   0.51284088   -1.8362267   0.76849206   -1.0677347    0.1174482    11535.807     1000 
  396000   0.52623733   -1.8594601   0.78856664   -1.0708935   0.12982785      11478.1     1000 
  398000   0.52329909   -1.8330263   0.78416369   -1.0488626   0.13548647     11250.03     1000 
  400000   0.53026432   -1.8738765   0.79460108   -1.0792754   0.13546507    11388.932     1000 
  402000   0.52457489   -1.8424381   0.78607547   -1.0563626   0.14166791    11320.883     1000 
  404000   0.52340108   -1.8279367   0.78431651   -1.0436202   0.12225016    11487.264     1000 
  406000   0.51001802   -1.8654996   0.76426201   -1.1012376   0.12289981    11528.259     1000 
  408000    0.5251649   -1.9098505   0.78695961   -1.1228909   0.12973265    11565.426     1000 
  410000   0.54127362   -1.8718722   0.81109852   -1.0607737   0.13455531    11349.373     1000 
  412000   0.52827623   -1.8479002   0.79162193   -1.0562783   0.11547098    11419.114     1000 
  414000   0.51412982   -1.8431342   0.77042353   -1.0727107   0.12741327    11570.813     1000 
  416000    0.5121921   -1.8324036   0.76751986   -1.0648838   0.13005396    11289.288     1000 
  418000   0.50522726   -1.8639032   0.75708305   -1.1068201   0.13048412    11430.575     1000 
  420000   0.52271076   -1.8601885   0.78328207   -1.0769064   0.13654455    11414.142     1000 
  422000   0.53027136   -1.8921482   0.79461163   -1.0975366   0.12841447    11391.215     1000 
  424000   0.52696739   -1.8407908   0.78966063   -1.0511301   0.13887659    11412.157     1000 
  426000   0.50874963   -1.8491435   0.76236133   -1.0867822    0.1137923    11672.879     1000 
  428000   0.52496348   -1.8589407   0.78665778   -1.0722829   0.13147647     11289.74     1000 
  430000   0.50899257   -1.8882111   0.76272537   -1.1254858   0.12367089    11419.107     1000 
  432000   0.51916131    -1.889754   0.77796322   -1.1117908   0.12523644    11480.941     1000 
  434000   0.48465721   -1.8940694   0.72625882   -1.1678105   0.12377652     11453.22     1000 
  436000   0.50377978   -1.8780773     0.754914   -1.1231633   0.12549771    11401.103     1000 
  438000   0.50009516   -1.8952959    0.7493926   -1.1459033   0.13271239     11314.27     1000 
  440000   0.52912558   -1.8777409   0.79289468   -1.0848462   0.13565616    11376.148     1000 
  442000   0.52838983   -1.8854815   0.79179217   -1.0936893   0.12048848    11437.153     1000 
  444000   0.49195156   -1.8696094   0.73718942     -1.13242     0.116578      11512.5     1000 
  446000   0.51933503   -1.9365669   0.77822354   -1.1583433   0.13302151    11274.207     1000 
  448000   0.49508938   -1.8878369   0.74189144   -1.1459454   0.12926135    11420.056     1000 
  450000   0.53095608   -1.8506041   0.79563769   -1.0549664   0.12980259    11483.171     1000 
  452000   0.52497024   -1.8952302    0.7866679   -1.1085623   0.13750986    11435.008     1000 
  454000   0.53146146   -1.8335945   0.79639499   -1.0371996   0.13617469    11360.437     1000 
  456000   0.52517442   -1.9040986   0.78697387   -1.1171248   0.13339036    11345.244     1000 
  458000   0.51879199   -1.8342175    0.7774098   -1.0568077   0.13256576    11451.377     1000 
  460000   0.52409808   -1.8721867   0.78536098   -1.0868257   0.13759679    11326.607     1000 
  462000   0.50386234   -1.8422139   0.75503772   -1.0871762   0.12577785     11421.28     1000 
  464000   0.51457024   -1.8927072   0.77108351   -1.1216237   0.12026234    11569.295     1000 
  466000   0.51145218   -1.9347105   0.76641109   -1.1682994   0.12009428    11508.047     1000 
  468000   0.53764945   -1.8634316    0.8056677   -1.0577639   0.13462093    11263.554     1000 
  470000   0.51574115    -1.803755   0.77283811   -1.0309169   0.12413144    11204.798     1000 
  472000   0.51118802   -1.8887628   0.76601525   -1.1227476   0.14278875    11373.565     1000 
  474000   0.51546163   -1.8988459   0.77241925   -1.1264267   0.13485736    11377.346     1000 
  476000   0.52727096   -1.8820752   0.79011554   -1.0919597   0.12489109    11550.775     1000 
  478000   0.53693666   -1.8513116   0.80459959    -1.046712   0.13056888    11444.799     1000 
  480000   0.52837842   -1.8756022   0.79177506   -1.0838272   0.13210097    11379.062     1000 
  482000   0.53228899   -1.8937153   0.79763505   -1.0960802   0.13579673    11276.354     1000 
  484000   0.54450233   -1.8424749   0.81593675   -1.0265381   0.12886132    11520.662     1000 
  486000   0.50090151   -1.9058737   0.75060092   -1.1552728   0.13469978    11398.401     1000 
  488000    0.5030141   -1.9366258   0.75376663   -1.1828592    0.1209278    11529.076     1000 
  490000   0.48756028   -1.8683533   0.73060909   -1.1377442   0.12798047    11365.649     1000 
  492000   0.53519165   -1.8359689   0.80198469   -1.0339842    0.1329568    11458.869     1000 
  494000   0.52029618   -1.8179447   0.77966383   -1.0382808   0.11836545    11409.411     1000 
  496000   0.50385907   -1.8492104   0.75503282   -1.0941776    0.1215159    11274.748     1000 
  498000   0.52326042   -1.8798761   0.78410574   -1.0957704    0.1364116    11212.097     1000 
  500000   0.52031092   -1.8603256   0.77968592   -1.0806397   0.12559979    11375.746     1000 
  502000   0.49768066    -1.844174   0.74577447   -1.0983995   0.12619555    11434.325     1000 
  504000    0.5537962   -1.8351651   0.82986361   -1.0053014   0.14908865    11183.346     1000 
  506000   0.50722762   -1.8461371   0.76008059   -1.0860566   0.14284823    11286.418     1000 
  508000   0.51209028   -1.8405553   0.76736729    -1.073188   0.13053521     11379.96     1000 
  510000   0.50897504   -1.8860606    0.7626991   -1.1233615   0.11601347    11417.034     1000 
  512000   0.52749862   -1.8416293   0.79045668   -1.0511726   0.13041528    11397.411     1000 
  514000    0.5181974   -1.8695486    0.7765188   -1.0930298   0.12394064    11436.797     1000 
  516000   0.52739981   -1.7982646   0.79030862    -1.007956   0.13821108    11228.521     1000 
  518000   0.50978597   -1.8565917   0.76391428   -1.0926774   0.12574374    11412.386     1000 
  520000   0.51158646   -1.8946893    0.7666123    -1.128077   0.14104795    11385.552     1000 
  522000   0.51633142   -1.8607324   0.77372264   -1.0870097   0.11423384    11498.086     1000 
  524000   0.50098484   -1.8876633   0.75072579   -1.1369376   0.12768979    11417.514     1000 
  526000   0.51899397   -1.8937997   0.77771247   -1.1160873   0.13807198    11319.314     1000 
  528000   0.50483237   -1.8494685   0.75649131   -1.0929772   0.13180225    11415.302     1000 
  530000   0.50194477   -1.8286017   0.75216423   -1.0764374    0.1329389     11220.06     1000 
  532000   0.53167996   -1.8881243   0.79672243   -1.0914019   0.12644942     11389.45     1000 
  534000   0.55051445   -1.8609707    0.8249459   -1.0360248   0.14777916    11221.157     1000 
  536000   0.52779071   -1.8874571   0.79089439   -1.0965627   0.13532902     11457.49     1000 
  538000   0.52111805   -1.8526771   0.78089541   -1.0717817    0.1339578      11422.8     1000 
  540000   0.54605602   -1.8572455   0.81826494   -1.0389805   0.14368879    11323.591     1000 
  542000   0.52263256   -1.8735128    0.7831649   -1.0903479   0.13477025    11337.184     1000 
  544000   0.50857633   -1.7670855   0.76210163   -1.0049839   0.13021995    11351.665     1000 
  546000   0.49923636   -1.9194644   0.74810569   -1.1713587   0.11580148    11608.849     1000 
  548000   0.53210693   -1.9000472   0.79736223   -1.1026849    0.1342697    11432.343     1000 
  550000   0.52277148   -1.8665013   0.78337306   -1.0831283    0.1294821    11459.522     1000 
  552000   0.53167715    -1.880553   0.79671822   -1.0838348    0.1336863    11387.716     1000 
  554000   0.49789169   -1.8923964    0.7460907   -1.1463057   0.13059773    11406.465     1000 
  556000   0.52661447   -1.9028584   0.78913178   -1.1137266     0.127648    11505.407     1000 
  558000   0.52835728   -1.8835442   0.79174339   -1.0918008   0.12637878    11415.367     1000 
  560000   0.50925486   -1.8457987   0.76311841   -1.0826803   0.13087032    11401.339     1000 
  562000   0.53677987   -1.8782443   0.80436463   -1.0738797   0.11557154    11584.957     1000 
  564000   0.51516268   -1.8612426   0.77197127   -1.0892713   0.12287591    11388.291     1000 
  566000   0.53832225   -1.8438339   0.80667589    -1.037158   0.14041354    11413.151     1000 
  568000     0.544633   -1.8350345   0.81613255   -1.0189019   0.13872562    11428.825     1000 
  570000   0.51225461    -1.865995   0.76761354   -1.0983815   0.14233137    11297.865     1000 
  572000   0.52710835   -1.9055668   0.78987187   -1.1156949   0.12896807    11387.307     1000 
  574000   0.52166399   -1.9156612   0.78171349   -1.1339477   0.12527682    11505.585     1000 
  576000   0.54642547   -1.9151963   0.81881856   -1.0963778   0.13378464    11544.826     1000 
  578000   0.54474378   -1.8562502   0.81629856   -1.0399516   0.12463083    11563.963     1000 
  580000   0.49288163   -1.8888178   0.73858312   -1.1502347   0.12577441    11448.734     1000 
  582000   0.50909423   -1.8349367    0.7628777    -1.072059   0.13502272    11303.005     1000 
  584000   0.51998296   -1.8612946   0.77919447   -1.0821001   0.13538255    11263.807     1000 
  586000   0.50766719   -1.8730988   0.76073928   -1.1123595   0.13901299    11354.306     1000 
  588000   0.51352572   -1.8150333    0.7695183    -1.045515   0.13365517     11260.29     1000 
  590000   0.51569873   -1.8576455   0.77277454   -1.0848709   0.13180987    11357.149     1000 
  592000   0.53296045   -1.8557736   0.79864124   -1.0571323    0.1302028    11335.822     1000 
  594000   0.51099389   -1.8060975   0.76572435   -1.0403732   0.13428181    11251.119     1000 
  596000   0.50573892   -1.8548891   0.75784978   -1.0970393   0.12930788    11427.361     1000 
  598000   0.52748353   -1.8491405   0.79043407   -1.0587064   0.13658667    11329.736     1000 
  600000   0.51555162      -1.8797    0.7725541   -1.1071459   0.14007507    11376.644     1000 
  602000   0.51026456   -1.8682133   0.76463144   -1.1035819    0.1123569    11550.666     1000 
  604000   0.51401856   -1.8551282   0.77025682   -1.0848714   0.13904888    11263.851     1000 
  606000   0.53547282   -1.8718171   0.80240602   -1.0694111   0.14170285    11363.051     1000 
  608000   0.50288927   -1.8936627   0.75357957   -1.1400831   0.12114789    11465.397     1000 
  610000   0.51472315   -1.8737004   0.77131264   -1.1023878   0.11315547    11563.097     1000 
  612000    0.5216454   -1.8751127   0.78168564    -1.093427   0.12976497    11529.103     1000 
  614000   0.53630826   -1.8835064   0.80365792   -1.0798485   0.13051707    11484.691     1000 
  616000   0.51689222   -1.8878561   0.77456299   -1.1132931    0.1228426    11430.974     1000 
  618000   0.50829678   -1.8445224   0.76168273   -1.0828397   0.12689747    11446.056     1000 
  620000    0.5106079   -1.8772224   0.76514594   -1.1120765   0.12255776    11519.592     1000 
  622000   0.52073734   -1.8556551   0.78032491   -1.0753302    0.1341228    11323.617     1000 
  624000   0.53536023   -1.8875499   0.80223731   -1.0853126   0.12426028    11436.246     1000 
  626000   0.50094857    -1.878886   0.75067143   -1.1282145   0.13726411    11217.989     1000 
  628000   0.50781293   -1.8341458   0.76095768   -1.0731881   0.12272585    11289.124     1000 
  630000   0.50923652    -1.860254   0.76309092   -1.0971631   0.12549331    11527.157     1000 
  632000   0.50587916   -1.8105166   0.75805992   -1.0524567   0.12201724    11395.225     1000 
  634000   0.51914004   -1.8744953   0.77793136    -1.096564    0.1242908    11414.752     1000 
  636000   0.51061855   -1.8585868    0.7651619   -1.0934249   0.14040349    11316.391     1000 
  638000   0.51414203   -1.8931722   0.77044183   -1.1227304   0.12477733    11446.061     1000 
  640000   0.50920155   -1.9131899   0.76303853   -1.1501514   0.12857415    11511.475     1000 
  642000   0.51728255   -1.8576301   0.77514789   -1.0824822   0.12449451    11493.373     1000 
  644000   0.53374275   -1.8247395   0.79981352   -1.0249259   0.14076355     11159.82     1000 
  646000   0.50397294   -1.8029185   0.75520345   -1.0477151   0.14677971    11148.283     1000 
  648000   0.53284898   -1.8517439    0.7984742   -1.0532697   0.13700894    11382.486     1000 
  650000    0.5223241   -1.9092828   0.78270266   -1.1265801   0.12525762    11509.779     1000 
  652000   0.52962362   -1.8651713     0.793641   -1.0715303   0.12085907    11506.741     1000 
  654000   0.52969181   -1.8600865   0.79374318   -1.0663434   0.12682795    11368.413     1000 
  656000   0.51067621   -1.8757999   0.76524831   -1.1105515   0.13039006    11473.996     1000 
  658000   0.51267303   -1.8979147   0.76824054   -1.1296742    0.1381024    11378.688     1000 
  660000   0.51850723   -1.8638773   0.77698309   -1.0868942     0.122119    11430.711     1000 
  662000   0.51936712   -1.8550166   0.77827162    -1.076745   0.12634946    11263.175     1000 
  664000   0.52495871   -1.8616954   0.78665062   -1.0750448   0.14226107    11285.636     1000 
  666000   0.50684801   -1.8668084   0.75951175   -1.1072967   0.12849843    11558.349     1000 
  668000   0.50426627    -1.854774     0.755643    -1.099131   0.12088037    11475.553     1000 
  670000   0.52377481   -1.9100024   0.78487656   -1.1251259   0.12677809    11420.315     1000 
  672000   0.52156776   -1.8471489   0.78156928   -1.0655796   0.13767331    11252.041     1000 
  674000   0.54458275   -1.8818473   0.81605725     -1.06579   0.13383438    11342.237     1000 
  676000   0.50329926   -1.8708544   0.75419395   -1.1166604   0.13781984    11362.752     1000 
  678000   0.49711879   -1.8633771   0.74493251   -1.1184446   0.13714108    11306.542     1000 
  680000   0.51891311   -1.8908993    0.7775913    -1.113308   0.13388717    11292.741     1000 
  682000   0.52558942   -1.8141303   0.78759575   -1.0265346   0.13158623    11341.552     1000 
  684000    0.5262078   -1.8228452   0.78852239   -1.0343228   0.13522234    11286.052     1000 
  686000   0.51293338   -1.8256636   0.76863067   -1.0570329   0.12535421    11429.388     1000 
  688000   0.52481747   -1.8626885   0.78643898   -1.0762496    0.1330995    11343.021     1000 
  690000   0.53409832   -1.8144436   0.80034634   -1.0140973   0.13724297    11257.102     1000 
  692000   0.50638266    -1.822311   0.75881441   -1.0634966   0.13151064    11256.983     1000 
  694000    0.4978666   -1.8321513   0.74605311   -1.0860982   0.13458967    11390.519     1000 
  696000   0.54125352   -1.8328381    0.8110684   -1.0217697   0.12106701    11424.721     1000 
  698000    0.5400904   -1.8740725   0.80932547   -1.0647471   0.14327114    11529.146     1000 
  700000   0.51231483   -1.8827114   0.76770378   -1.1150077   0.12632958    11397.719     1000 
  702000   0.52150996   -1.8856745   0.78148267   -1.1041918   0.12108786    11504.733     1000 
  704000   0.53313841   -1.8653196   0.79890791   -1.0664117   0.13112937    11274.021     1000 
  706000   0.55053661   -1.8399364   0.82497911   -1.0149573   0.14024534    11189.261     1000 
  708000    0.5213993   -1.8795178   0.78131684    -1.098201   0.12745652    11523.536     1000 
  710000   0.54362498   -1.8449436   0.81462204   -1.0303216   0.12888474    11466.504     1000 
  712000   0.53322029   -1.8259235    0.7990306   -1.0268929   0.13221781    11348.177     1000 
  714000   0.51914462   -1.8790948   0.77793821   -1.1011566    0.1354577    11350.149     1000 
  716000   0.53597943   -1.9055698   0.80316517   -1.1024047   0.11486658    11654.154     1000 
  718000   0.51537431   -1.8250718    0.7722884   -1.0527834   0.12212544    11339.317     1000 
  720000   0.52225341   -1.8433209   0.78259673   -1.0607241   0.13202667    11251.715     1000 
  722000   0.50952623   -1.8648775   0.76352506   -1.1013525   0.12653428    11424.572     1000 
  724000   0.52012045   -1.8259331   0.77940049   -1.0465326    0.1374369    11209.499     1000 
  726000    0.5225037   -1.8510237    0.7829718   -1.0680519   0.14801152    11243.352     1000 
  728000   0.52206582   -1.7950331   0.78231563   -1.0127175   0.13575585    11397.345     1000 
  730000   0.53487627    -1.891747   0.80151209   -1.0902349     0.132164    11511.032     1000 
  732000   0.50945397   -1.8505532   0.76341678   -1.0871365   0.12062624    11273.945     1000 
  734000   0.52890651   -1.8884092   0.79256641   -1.0958428   0.12732728    11664.709     1000 
  736000   0.54795699   -1.8607293   0.82111356   -1.0396158   0.12652837    11518.296     1000 
  738000    0.4865625   -1.8871393    0.7291139   -1.1580254   0.11407671     11490.44     1000 
  740000   0.51576408    -1.899368   0.77287247   -1.1264956   0.13391392    11391.347     1000 
  742000   0.54094135   -1.8472449   0.81060062   -1.0366443   0.13298068    11353.079     1000 
  744000   0.52301693   -1.8277137   0.78374087   -1.0439728   0.13521793    11209.074     1000 
  746000   0.52026288   -1.8243966   0.77961392   -1.0447827   0.12488446    11396.684     1000 
  748000   0.51896616   -1.8255493   0.77767079   -1.0478785   0.14382859    11280.102     1000 
  750000   0.52687639   -1.8618719   0.78952428   -1.0723477   0.12481753    11463.484     1000 
  752000   0.55537663   -1.8382292   0.83223189   -1.0059973   0.14580617    11238.438     1000 
  754000   0.49313958   -1.8613735   0.73896966   -1.1224039    0.1423722    11230.479     1000 
  756000   0.54054921   -1.8253274   0.81001299   -1.0153144   0.12960899      11429.5     1000 
  758000    0.5239797   -1.7999064   0.78518358   -1.0147228   0.12815034    11426.624     1000 
  760000   0.49732476   -1.7782608   0.74524115   -1.0330197    0.1267689    11352.266     1000 
  762000   0.48080986   -1.8102113   0.72049358   -1.0897177   0.13845362     11262.23     1000 
  764000   0.51017183   -1.8429213   0.76449248   -1.0784288    0.1311974    11266.732     1000 
  766000   0.51578493   -1.8290117   0.77290371    -1.056108   0.13544437    11172.524     1000 
  768000     0.504137   -1.8508178   0.75544929   -1.0953686   0.13720701    11435.997     1000 
  770000   0.51249638   -1.8609731   0.76797582   -1.0929973   0.13009113    11371.786     1000 
  772000   0.53411072   -1.8479632   0.80036492   -1.0475982   0.11877834     11531.75     1000 
  774000   0.52154074    -1.855924    0.7815288   -1.0743952   0.13574901     11326.96     1000 
  776000   0.52349521    -1.843506   0.78445758   -1.0590484   0.13330961    11328.174     1000 
  778000   0.51569921   -1.9069527   0.77277526   -1.1341774   0.13760618    11397.035     1000 
  780000   0.51409816   -1.8647716   0.77037609   -1.0943955   0.12914408    11468.935     1000 
  782000   0.52111711   -1.8172958   0.78089398   -1.0364018   0.14558643    11240.594     1000 
  784000   0.51998931   -1.8515348   0.77920398   -1.0723308   0.13803575    11350.502     1000 
  786000   0.52029258   -1.9195521   0.77965842   -1.1398937   0.11708786    11457.438     1000 
  788000   0.49526902   -1.8569503   0.74216063   -1.1147896   0.13700737    11424.483     1000 
  790000   0.51824984   -1.8833252   0.77659738   -1.1067279   0.13732942    11434.325     1000 
  792000   0.53148104   -1.8501128   0.79642434   -1.0536885   0.12759456    11361.758     1000 
  794000   0.49196771   -1.8608399   0.73721361   -1.1236263   0.13584303    11277.408     1000 
  796000   0.52532106   -1.8917291   0.78719361   -1.1045355   0.13064403    11375.291     1000 
  798000   0.52856693   -1.8259557   0.79205755   -1.0338981    0.1404818    11296.838     1000 
  800000   0.52500001   -1.8133725   0.78671252     -1.02666   0.12988765    11409.346     1000 
  802000   0.51168459   -1.8528706   0.76675935   -1.0861112   0.13143975    11418.276     1000 
  804000   0.53306903   -1.8542202   0.79880394   -1.0554162   0.13192569    11303.159     1000 
  806000   0.52453537   -1.8814133   0.78601625   -1.0953971   0.13728401     11218.49     1000 
  808000   0.50469451    -1.851903   0.75628473   -1.0956182   0.12989055    11392.483     1000 
  810000   0.52092248   -1.9134695   0.78060234   -1.1328672   0.12178205    11532.264     1000 
  812000   0.52596607   -1.8330163   0.78816016   -1.0448561   0.13282498    11337.235     1000 
  814000   0.51965855   -1.8908146   0.77870833   -1.1121063   0.13102485     11415.88     1000 
  816000   0.53186567   -1.9204492   0.79700071   -1.1234485   0.12979503    11496.788     1000 
  818000    0.5209429   -1.8776547   0.78063293   -1.0970217   0.13872698    11327.332     1000 
  820000   0.52008966   -1.8493631   0.77935435   -1.0700088   0.12717606    11424.959     1000 
  822000   0.50770346    -1.860106   0.76079363   -1.0993124   0.12597645    11512.053     1000 
  824000   0.51610135   -1.8446467   0.77337788   -1.0712688   0.12811367    11376.266     1000 
  826000   0.52217774   -1.8223453   0.78248334   -1.0398619   0.12675427    11357.006     1000 
  828000   0.52638261   -1.8231792   0.78878434   -1.0343949   0.13608358     11354.03     1000 
  830000   0.55112982   -1.8834111   0.82586804    -1.057543   0.14286839    11411.368     1000 
  832000    0.5156986    -1.885016   0.77277435   -1.1122416   0.11231276     11453.22     1000 
  834000   0.51649026   -1.8234936   0.77396066   -1.0495329   0.13337429    11300.202     1000 
  836000   0.52848314   -1.8575275   0.79193198   -1.0655955   0.12370275    11424.371     1000 
  838000   0.52153277   -1.8484238   0.78151685   -1.0669069   0.13573459    11293.026     1000 
  840000   0.52846134   -1.8620837   0.79189932   -1.0701844    0.1372744    11386.452     1000 
  842000     0.511243   -1.8892759   0.76609763   -1.1231783   0.13813116    11285.998     1000 
  844000   0.52133947   -1.8845484    0.7812272   -1.1033212   0.13035755    11519.435     1000 
  846000   0.52979915   -1.7990219   0.79390403   -1.0051179   0.14377979    11200.973     1000 
  848000   0.51067375   -1.8273099   0.76524461   -1.0620653   0.12287741    11347.445     1000 
  850000   0.52239718   -1.8726518   0.78281217   -1.0898397    0.1238874    11446.268     1000 
  852000   0.50722177   -1.8140368   0.76007183    -1.053965    0.1253932    11381.317     1000 
  854000   0.50070472   -1.8483094   0.75030603   -1.0980034   0.13127011    11451.466     1000 
  856000   0.53371586   -1.8434109   0.79977321   -1.0436377   0.13357883    11436.331     1000 
  858000   0.51516426   -1.8975743   0.77197364   -1.1256006   0.12769734    11425.587     1000 
  860000   0.52956261   -1.8616744   0.79354957   -1.0681248   0.12317809    11526.658     1000 
  862000   0.50781049   -1.9122978   0.76095401   -1.1513438   0.12824205    11474.428     1000 
  864000   0.51713316   -1.8457571   0.77492404    -1.070833   0.12711544    11510.589     1000 
  866000   0.51851908   -1.8916185   0.77700085   -1.1146177   0.13441196    11316.906     1000 
  868000   0.49729776   -1.8951432   0.74520069   -1.1499426    0.1293356    11369.635     1000 
  870000   0.52634634   -1.8970802   0.78872999   -1.1083502   0.12544969    11414.906     1000 
  872000    0.5253635   -1.8748583    0.7872572   -1.0876011    0.1313428    11384.322     1000 
  874000   0.51438003   -1.8908159   0.77079847   -1.1200174   0.12077845    11472.405     1000 
  876000   0.50614436   -1.8612857   0.75845733   -1.1028283   0.12494741    11475.367     1000 
  878000   0.54087903    -1.866453   0.81050723   -1.0559457   0.12703377    11367.621     1000 
  880000   0.51171969   -1.8654904   0.76681195   -1.0986785    0.1274794    11379.682     1000 
  882000   0.51880271   -1.8457995   0.77742586   -1.0683736   0.13557071    11224.472     1000 
  884000   0.50552081    -1.858304   0.75752293   -1.1007811   0.13703117    11346.409     1000 
  886000    0.5014871   -1.8793311   0.75147842   -1.1278526   0.12662848    11392.735     1000 
  888000    0.5175153   -1.9022531   0.77549667   -1.1267564    0.1307155    11543.307     1000 
  890000   0.50852797   -1.8299718   0.76202916   -1.0679426   0.11541673     11512.99     1000 
  892000   0.52564748   -1.8346543   0.78768274   -1.0469715   0.12601822    11349.364     1000 
  894000   0.54356222   -1.8488389   0.81452799   -1.0343109   0.13158859    11390.256     1000 
  896000    0.5266274   -1.8365646   0.78915116   -1.0474134   0.14307745    11329.897     1000 
  898000   0.52621617   -1.8660692   0.78853493   -1.0775343   0.12371434     11553.23     1000 
  900000   0.52293616   -1.8468415   0.78361984   -1.0632217   0.13154439     11366.34     1000 
  902000   0.53146738   -1.8703611   0.79640387   -1.0739572   0.12991538    11436.583     1000 
  904000   0.51052187    -1.855854   0.76501702    -1.090837   0.12892729    11443.252     1000 
  906000   0.53465125   -1.8505669   0.80117489    -1.049392   0.13231979     11365.29     1000 
  908000    0.5165687   -1.8788199    0.7740782   -1.1047417   0.11641954    11609.954     1000 
  910000   0.52349646   -1.8862501   0.78445944   -1.1017907     0.123703    11497.734     1000 
  912000   0.53749172   -1.8947747   0.80543134   -1.0893433   0.11423389    11483.547     1000 
  914000   0.52380491   -1.8746318   0.78492165   -1.0897101   0.13128995    11304.014     1000 
  916000   0.51871187   -1.8129748   0.77728974   -1.0356851   0.14280057    11233.301     1000 
  918000    0.5208051   -1.8991883   0.78042645   -1.1187618   0.12687346    11328.404     1000 
  920000   0.51560757   -1.8598703   0.77263794   -1.0872323   0.12571796    11438.568     1000 
  922000   0.52789554   -1.8410256   0.79105147   -1.0499741   0.12347981    11510.745     1000 
  924000   0.51290755   -1.8785161   0.76859196   -1.1099241   0.11920631    11422.052     1000 
  926000   0.52326449   -1.8495718   0.78411184     -1.06546    0.1205118    11505.202     1000 
  928000    0.5017086   -1.8715477   0.75181034   -1.1197374   0.14172387    11287.414     1000 
  930000   0.51203911   -1.8859083   0.76729061   -1.1186177    0.1320047    11377.894     1000 
  932000   0.51481901    -1.860189   0.77145629   -1.0887327   0.14152836    11313.494     1000 
  934000   0.51008704    -1.832585   0.76436543   -1.0682195   0.12425267     11416.61     1000 
  936000   0.51539933    -1.886298    0.7723259   -1.1139721   0.12932344    11501.315     1000 
  938000   0.52762451   -1.9053735   0.79064533   -1.1147282    0.1260792    11523.764     1000 
  940000   0.51886312   -1.8901914   0.77751638    -1.112675   0.12180921     11344.99     1000 
  942000    0.5260061   -1.8556266   0.78822014   -1.0674065   0.13307157    11503.583     1000 
  944000   0.55522364   -1.8555823   0.83200263   -1.0235797   0.12530035    11476.458     1000 
  946000    0.5186009   -1.8992858   0.77712344   -1.1221624   0.13519735    11503.579     1000 
  948000   0.52156196    -1.848243   0.78156059   -1.0666825   0.12817719    11321.104     1000 
  950000   0.51129157   -1.8920864   0.76617042   -1.1259159   0.14133148     11298.05     1000 
  952000   0.51538073   -1.8596369   0.77229802   -1.0873389   0.14083376    11350.077     1000 
  954000    0.5206989   -1.8675902   0.78026731   -1.0873229   0.12504664    11464.814     1000 
  956000   0.53394517   -1.9073242   0.80011684   -1.1072074   0.13216542    11403.873     1000 
  958000   0.49481536   -1.8909352   0.74148082   -1.1494544   0.13051486    11522.113     1000 
  960000   0.49903477   -1.8164012    0.7478036   -1.0685976    0.1185309    11411.106     1000 
  962000   0.51649749   -1.8338985   0.77397149    -1.059927   0.13665742    11243.653     1000 
  964000   0.51639479   -1.8406367   0.77381759   -1.0668191   0.13556536    11374.882     1000 
  966000   0.51842484   -1.8636778   0.77685962   -1.0868181   0.13335076    11484.394     1000 
  968000   0.48442444   -1.8618927   0.72591002   -1.1359827   0.13193351     11299.37     1000 
  970000   0.50287616   -1.8842884   0.75355992   -1.1307285    0.1207933    11473.798     1000 
  972000   0.52801606   -1.8529395   0.79123206   -1.0617074   0.14587361    11296.362     1000 
  974000   0.53294969    -1.847879   0.79862511   -1.0492539   0.12411378    11432.637     1000 
  976000   0.53645968   -1.8315615   0.80388483   -1.0276767   0.13195977     11366.67     1000 
  978000   0.51542061   -1.8807515   0.77235778   -1.1083937   0.13813164    11260.866     1000 
  980000   0.53952304   -1.8693423   0.80847527    -1.060867   0.12771225    11346.984     1000 
  982000   0.51645257   -1.8365826   0.77390418   -1.0626784   0.11927477    11464.805     1000 
  984000   0.50945999   -1.9269088    0.7634258    -1.163483   0.12243963    11560.566     1000 
  986000   0.51117813   -1.8767826   0.76600043   -1.1107822     0.127057     11422.64     1000 
  988000   0.51382836   -1.8834619    0.7699718   -1.1134901   0.12845398    11448.333     1000 
  990000   0.51657503   -1.8413043   0.77408768   -1.0672167   0.13747939    11283.703     1000 
  992000   0.50554257   -1.8376208   0.75755554   -1.0800653   0.12269216    11566.002     1000 
  994000     0.511011   -1.8401895   0.76574998   -1.0744395   0.12234349    11450.434     1000 
  996000     0.533963   -1.8557312   0.80014356   -1.0555876   0.13289774    11412.851     1000 
  998000   0.49966669    -1.906207   0.74875053   -1.1574564   0.13257523    11313.378     1000 
 1000000   0.53116913   -1.8602079   0.79595694    -1.064251   0.13432813    11383.572     1000 
 1002000   0.51604006   -1.8513809   0.77328603   -1.0780948   0.13427552     11382.72     1000 
 1004000   0.52337834   -1.8356216   0.78428244   -1.0513392   0.13095708    11265.288     1000 
 1006000   0.49425033   -1.8382847   0.74063412   -1.0976506   0.13105124    11467.413     1000 
 1008000   0.51214069   -1.8603931   0.76744282   -1.0929503    0.1294786    11477.488     1000 
 1010000   0.51184405   -1.9412992    0.7669983   -1.1743009    0.1249479    11243.786     1000 
 1012000     0.518841    -1.906419   0.77748324   -1.1289358   0.13461015    11335.658     1000 
 1014000    0.5203155   -1.8839425   0.77969278   -1.1042497   0.12619658    11452.996     1000 
 1016000   0.53709413   -1.8768928   0.80483555   -1.0720572   0.13255836     11355.96     1000 
 1018000   0.52709668   -1.8514754   0.78985438    -1.061621   0.12453476    11603.402     1000 
 1020000   0.50180343   -1.9001203   0.75195243   -1.1481679   0.12561497    11356.475     1000 
 1022000   0.52094842   -1.8611397    0.7806412   -1.0804985   0.12851129    11479.188     1000 
 1024000   0.53831486   -1.8826482   0.80666482   -1.0759834   0.13448231    11345.329     1000 
 1026000   0.50328889   -1.8223858   0.75417841   -1.0682074   0.10840682    11511.033     1000 
 1028000   0.51463047    -1.862114   0.77117376   -1.0909403   0.12789099    11537.406     1000 
 1030000   0.52754474   -1.8560147   0.79052579   -1.0654889   0.12732841    11248.725     1000 
 1032000   0.56211251   -1.8822964    0.8423256   -1.0399708   0.13940369    11314.022     1000 
 1034000   0.52536388   -1.9028058   0.78725778   -1.1155481   0.11803775    11526.666     1000 
 1036000   0.51382188   -1.8359084   0.76996209   -1.0659463   0.14671674    11185.988     1000 
 1038000   0.51852326    -1.880793    0.7770071   -1.1037859   0.13219777    11276.904     1000 
 1040000    0.5091653   -1.8833329   0.76298421   -1.1203487   0.12720335    11536.709     1000 
 1042000   0.53447213   -1.8756823   0.80090648   -1.0747758   0.12621439    11565.521     1000 
 1044000   0.51601384   -1.8588689   0.77324674   -1.0856221    0.1254543    11396.642     1000 
 1046000   0.52456637   -1.8817546   0.78606271   -1.0956919   0.12788006    11607.604     1000 
 1048000   0.52824578   -1.8558847   0.79157631   -1.0643084   0.11943483    11370.079     1000 
 1050000    0.5264169   -1.8563479   0.78883572   -1.0675122   0.12250712    11453.065     1000 
 1052000   0.51922813   -1.8687866   0.77806335   -1.0907232   0.13311428    11482.446     1000 
 1054000   0.50383161   -1.8726254   0.75499167   -1.1176337   0.13372761    11291.284     1000 
 1056000   0.53001785   -1.8885996   0.79423175   -1.0943678   0.13195552    11358.188     1000 
 1058000   0.51735451   -1.8401851   0.77525573   -1.0649294   0.12972006    11270.282     1000 
 1060000   0.55296839   -1.7994005   0.82862313  -0.97077733    0.1373928    11186.414     1000 
 1062000   0.50552642   -1.8891922   0.75753134   -1.1316608   0.12359488    11438.248     1000 
 1064000   0.51537646    -1.833902   0.77229163   -1.0616104   0.12610561    11517.775     1000 
 1066000   0.51825532   -1.8315567    0.7766056    -1.054951   0.14161514    11207.401     1000 
 1068000   0.53823374   -1.8593935   0.80654326   -1.0528502   0.11457018    11449.643     1000 
 1070000   0.51884499   -1.8731687   0.77748922   -1.0956795   0.12858907    11448.746     1000 
 1072000   0.51102737   -1.8755928   0.76577451   -1.1098183   0.13663763    11371.699     1000 
 1074000   0.52843149   -1.8992605   0.79185459   -1.1074059   0.13043102    11442.271     1000 
 1076000    0.5291283    -1.909592   0.79289875   -1.1166932   0.13802852    11336.913     1000 
 1078000   0.52036229   -1.8368656   0.77976289   -1.0571027   0.12484688    11456.139     1000 
 1080000   0.48220907   -1.8567402   0.72259029   -1.1341499   0.12794676     11331.68     1000 
 1082000   0.51736451   -1.8419092   0.77527071   -1.0666385   0.13024013    11287.139     1000 
 1084000   0.50744126   -1.8732766   0.76040073   -1.1128759   0.13091803    11392.694     1000 
 1086000    0.5278678   -1.8506191   0.79100989   -1.0596092   0.13159423    11355.246     1000 
 1088000   0.51847971   -1.8394395   0.77694185   -1.0624976   0.13176189    11484.641     1000 
 1090000   0.49920452   -1.8249632   0.74805798   -1.0769052   0.13949108    11296.203     1000 
 1092000    0.5040553    -1.919955   0.75532687   -1.1646281   0.13009685    11469.407     1000 
 1094000     0.532889    -1.843859   0.79853416   -1.0453248   0.13112112    11431.608     1000 
 1096000   0.51847885   -1.9238571   0.77694056   -1.1469165   0.13509154    11486.527     1000 
 1098000    0.5281307   -1.8801324   0.79140386   -1.0887286    0.1149519    11530.161     1000 
 1100000   0.56579824   -1.8426305   0.84784866   -0.9947818   0.14505862    11316.746     1000 
 1102000   0.54218318   -1.8453554   0.81246149   -1.0328939   0.13249081    11350.723     1000 
 1104000   0.51058844    -1.880324   0.76511678   -1.1152072   0.12800577    11528.984     1000 
 1106000   0.50729424   -1.8052434   0.76018042    -1.045063   0.12888268    11307.019     1000 
 1108000   0.51937544   -1.8169455    0.7782841   -1.0386614   0.13456119    11340.673     1000 
 1110000   0.51649655    -1.876589   0.77397008   -1.1026189   0.12621311    11612.511     1000 
 1112000   0.53018626   -1.9158261   0.79448411    -1.121342   0.12509636    11541.826     1000 
 1114000   0.49267175   -1.8701044   0.73826862   -1.1318358   0.12452905    11466.166     1000 
 1116000   0.50991446   -1.8288384   0.76410681   -1.0647316   0.13564495    11237.447     1000 
 1118000   0.51381587   -1.8520471   0.76995309    -1.082094   0.14333725    11342.932     1000 
 1120000   0.52137102   -1.8369188   0.78127447   -1.0556443   0.12796603    11312.239     1000 
 1122000   0.52741394   -1.8714158   0.79032979    -1.081086   0.13335613    11395.641     1000 
 1124000   0.51147662   -1.8578605   0.76644772   -1.0914128   0.13637496    11360.136     1000 
 1126000   0.51781035   -1.8565934    0.7759388   -1.0806546   0.12960424    11383.493     1000 
 1128000   0.53201348    -1.770612    0.7972222  -0.97338982   0.15818361    11145.463     1000 
 1130000    0.5131382   -1.8766511   0.76893759   -1.1077135   0.12263616    11374.432     1000 
 1132000   0.52288194   -1.8864124   0.78353859   -1.1028738   0.12091951     11369.83     1000 
 1134000     0.519034   -1.8441158   0.77777245   -1.0663433   0.12964328    11545.979     1000 
 1136000   0.50947319     -1.87407   0.76344558   -1.1106245   0.12315542    11449.346     1000 
 1138000   0.53180685   -1.9347706   0.79691257   -1.1378581   0.11992803    11452.165     1000 
 1140000   0.53437944    -1.863744   0.80076759   -1.0629764   0.12941208     11383.76     1000 
 1142000     0.509029   -1.8710457   0.76277996   -1.1082657   0.12506789    11504.626     1000 
 1144000   0.51500385   -1.9063404   0.77173326   -1.1346071   0.12535717    11372.689     1000 
 1146000   0.52808541   -1.8909282   0.79133598   -1.0995922   0.13818657    11257.835     1000 
 1148000   0.52157764   -1.8465961    0.7815841    -1.065012   0.12334492    11404.766     1000 
 1150000   0.52802484    -1.903136   0.79124523   -1.1118908    0.1270675    11476.668     1000 
 1152000    0.5246366   -1.9156718   0.78616794   -1.1295038   0.14397107    11343.199     1000 
 1154000   0.53458144   -1.8865523   0.80107029    -1.085482     0.147386    11341.249     1000 
 1156000   0.51271682   -1.8517276   0.76830616   -1.0834215   0.12644949    11500.327     1000 
 1158000   0.49612739   -1.8307993    0.7434469   -1.0873524   0.13672137    11264.162     1000 
 1160000   0.51843066   -1.8303813   0.77686834    -1.053513   0.13256353    11320.651     1000 
 1162000   0.50519109   -1.8621619   0.75702886    -1.105133   0.12351443    11548.204     1000 
 1164000   0.52481481   -1.9046656     0.786435   -1.1182306   0.13179592    11404.105     1000 
 1166000    0.5223035   -1.8821903    0.7826718   -1.0995185   0.13118961    11273.235     1000 
 1168000   0.53611945   -1.8839329     0.803375   -1.0805579   0.12630424    11465.736     1000 
 1170000   0.50627218    -1.831247   0.75864886   -1.0725982   0.13538708    11279.481     1000 
 1172000   0.49740807   -1.8591869     0.745366   -1.1138209   0.12422474    11337.385     1000 
 1174000   0.54318037   -1.8627371   0.81395578   -1.0487813   0.12550172    11423.967     1000 
 1176000    0.5244656   -1.8657584    0.7859117   -1.0798467   0.12101114    11520.353     1000 
 1178000   0.52575472   -1.8388249   0.78784345   -1.0509814   0.12249733    11481.979     1000 
 1180000   0.50005395   -1.8643268   0.74933084   -1.1149959   0.12520012    11476.599     1000 
 1182000   0.51505815   -1.8713239   0.77181464   -1.0995093   0.13396437    11281.294     1000 
 1184000   0.54456164   -1.8669069   0.81602562   -1.0508813   0.15677437    11158.554     1000 
 1186000   0.52728711   -1.9280385   0.79013974   -1.1378987    0.1311112    11459.545     1000 
 1188000   0.52397286   -1.8933925   0.78517333   -1.1082191   0.12974557    11324.109     1000 
 1190000   0.51743391     -1.84936   0.77537471   -1.0739853   0.13388982    11392.309     1000 
 1192000   0.51628895   -1.8766325   0.77365899   -1.1029735   0.12886716    11406.721     1000 
 1194000   0.49719775   -1.8709265   0.74505082   -1.1258757   0.12764326    11441.642     1000 
 1196000   0.50660563   -1.8620293   0.75914854   -1.1028808   0.12701248    11304.664     1000 
 1198000   0.51485057   -1.8905793   0.77150358   -1.1190757   0.13084506    11463.625     1000 
 1200000   0.51460702   -1.8474462   0.77113862   -1.0763076   0.13237128    11331.013     1000 
 1202000   0.50862082    -1.857673   0.76216831   -1.0955047   0.13131742    11455.774     1000 
 1204000   0.48941058   -1.8639839   0.73338175   -1.1306022   0.12778168    11301.038     1000 
 1206000   0.54569997   -1.8925721    0.8177314   -1.0748407   0.13950458    11355.636     1000 
 1208000    0.5351126   -1.8268917   0.80186623   -1.0250255   0.13563088    11324.546     1000 
 1210000   0.53615639   -1.8837677   0.80343035   -1.0803374   0.14518232    11433.824     1000 
 1212000   0.50910897   -1.8263763   0.76289979   -1.0634765   0.13255916    11244.589     1000 
 1214000   0.49095234   -1.9051277   0.73569208   -1.1694356   0.12500951    11494.192     1000 
 1216000   0.52753469   -1.8429512   0.79051074   -1.0524404   0.12529024    11437.141     1000 
 1218000   0.51718506    -1.871359   0.77500181   -1.0963572   0.11949823    11571.402     1000 
 1220000   0.52357493   -1.8232158   0.78457703   -1.0386388    0.1370606     11306.82     1000 
 1222000   0.49556993   -1.8828758   0.74261154   -1.1402643   0.11841905    11471.339     1000 
 1224000   0.52350193   -1.8739797   0.78446765   -1.0895121   0.12066716    11441.384     1000 
 1226000   0.51413732   -1.8204328   0.77043478   -1.0499981    0.1295238    11318.373     1000 
 1228000   0.53172579   -1.9044943   0.79679109   -1.1077032   0.13014691    11518.681     1000 
 1230000    0.5393927   -1.8701221   0.80827996   -1.0618421   0.14114286    11185.621     1000 
 1232000   0.51094666   -1.8785412   0.76565357   -1.1128876   0.13673679    11275.785     1000 
 1234000   0.54193154   -1.8744928   0.81208441   -1.0624084   0.13165327    11529.118     1000 
 1236000   0.53534249   -1.8748557   0.80221073   -1.0726449   0.13638633    11429.273     1000 
 1238000   0.54704278    -1.850963    0.8197436   -1.0312194   0.11296697    11601.326     1000 
 1240000   0.51482492   -1.8496873   0.77146514   -1.0782221   0.13934512    11388.361     1000 
 1242000    0.5368043   -1.9190074   0.80440124   -1.1146061   0.12989089    11467.486     1000 
 1244000   0.50085514   -1.8821308   0.75053143   -1.1315994   0.13725251    11348.556     1000 
 1246000   0.50397607   -1.8570551   0.75520814    -1.101847   0.13552701    11313.408     1000 
 1248000   0.50634274   -1.8856516   0.75875459    -1.126897   0.13889165    11291.731     1000 
 1250000   0.51860771   -1.8827473   0.77713366   -1.1056136   0.12303629    11399.627     1000 
 1252000   0.52909123   -1.8793459    0.7928432   -1.0865027   0.12959448    11467.152     1000 
 1254000   0.49980712   -1.8135814   0.74896097   -1.0646205   0.13245121    11325.654     1000 
 1256000   0.52003609   -1.8690042   0.77927409   -1.0897301   0.12476932    11490.598     1000 
 1258000   0.51368304   -1.8807438   0.76975404   -1.1109898   0.12042753    11534.621     1000 
 1260000    0.5224999    -1.839401   0.78296611   -1.0564349   0.14140256     11289.41     1000 
 1262000   0.54080267    -1.927167    0.8103928   -1.1167742    0.1361466    11380.354     1000 
 1264000   0.52697675   -1.8957462   0.78967466   -1.1060715   0.11707661    11550.004     1000 
 1266000   0.50165711   -1.8907323   0.75173317   -1.1389991   0.12059694    11416.506     1000 
 1268000   0.52866006   -1.8295088   0.79219711   -1.0373117    0.1355269    11291.928     1000 
 1270000   0.51557638    -1.870467    0.7725912   -1.0978758   0.12348545    11354.772     1000 
 1272000   0.49059435   -1.8165423   0.73515563   -1.0813867   0.11702351    11348.882     1000 
 1274000   0.51262993    -1.904471   0.76817595    -1.136295   0.13095411    11345.841     1000 
 1276000   0.53452185   -1.8807935   0.80098099   -1.0798125    0.1258301    11559.622     1000 
 1278000    0.5310218   -1.8787011   0.79573616   -1.0829649   0.13274888    11454.808     1000 
 1280000   0.52632584   -1.8695293   0.78869927   -1.0808301   0.12699648    11359.289     1000 
 1282000   0.53361547   -1.8557865   0.79962278   -1.0561637   0.13655908    11368.718     1000 
 1284000    0.5329252   -1.9056438   0.79858841   -1.1070553   0.11743239    11527.806     1000 
 1286000   0.51074414   -1.8891788   0.76535009   -1.1238287   0.13023741    11382.386     1000 
 1288000   0.52456333   -1.8770083   0.78605816   -1.0909502   0.11769572     11658.82     1000 
 1290000   0.49504556   -1.8927798   0.74182577    -1.150954   0.13226342    11347.107     1000 
 1292000   0.52216312   -1.8720478   0.78246144   -1.0895863   0.13154873    11354.172     1000 
 1294000    0.5111407   -1.8899682   0.76594433   -1.1240239   0.12848997    11497.841     1000 
 1296000   0.52653225   -1.8258251   0.78900858   -1.0368165   0.11520037     11496.45     1000 
 1298000   0.51588721    -1.834842   0.77305698    -1.061785   0.13231843    11313.849     1000 
 1300000   0.53665038   -1.8869386    0.8041706    -1.082768   0.13761516    11347.647     1000 
 1302000   0.50993399   -1.8488618   0.76413609   -1.0847258   0.13057342    11547.934     1000 
 1304000   0.51523885    -1.858193   0.77208541   -1.0861076   0.13626068    11254.381     1000 
 1306000   0.51896132    -1.853625   0.77766354   -1.0759614   0.13669103    11282.404     1000 
 1308000   0.51661985   -1.8518003   0.77415484   -1.0776454   0.12692024     11430.77     1000 
 1310000   0.50569718   -1.8573944   0.75778723   -1.0996072   0.12185751    11332.407     1000 
 1312000   0.51942546   -1.8518611   0.77835906    -1.073502   0.12961061    11365.201     1000 
 1314000   0.54163189   -1.8781483   0.81163538   -1.0665129   0.11388768    11507.774     1000 
 1316000   0.52885015    -1.868418   0.79248195   -1.0759361   0.12486873    11602.428     1000 
 1318000   0.50385245   -1.8811723   0.75502289   -1.1261494   0.12029371    11427.913     1000 
 1320000   0.51171037   -1.8464017   0.76679799   -1.0796037   0.11231348    11474.824     1000 
 1322000   0.52853688   -1.8291437   0.79201252   -1.0371312   0.12749029     11367.81     1000 
 1324000   0.52990353   -1.9034439   0.79406043   -1.1093834   0.12695306    11511.307     1000 
 1326000   0.52301035   -1.8185205     0.783731   -1.0347894   0.12423661    11334.833     1000 
 1328000    0.5336345   -1.8595668    0.7996513   -1.0599155   0.13633174    11273.828     1000 
 1330000    0.4984614   -1.8802832   0.74694441   -1.1333388   0.13048085    11351.038     1000 
 1332000   0.54448684   -1.8860729   0.81591353   -1.0701593   0.13137316    11252.762     1000 
 1334000   0.53750996   -1.8605252   0.80545868   -1.0550665   0.13202699    11439.816     1000 
 1336000   0.51771222   -1.8267628   0.77579176    -1.050971   0.13375323    11372.505     1000 
 1338000   0.54352932   -1.8569131   0.81447869   -1.0424344   0.12882682     11345.77     1000 
 1340000   0.52944796   -1.8439844   0.79337777   -1.0506066   0.13381538    11371.473     1000 
 1342000   0.51342543   -1.8973917     0.769368   -1.1280237   0.12382331    11436.569     1000 
 1344000   0.51131069   -1.8694376   0.76619906   -1.1032385   0.12974889    11465.191     1000 
 1346000   0.50943889   -1.8944879   0.76339417   -1.1310938   0.13004467    11471.902     1000 
 1348000   0.52879067   -1.8233175   0.79239281   -1.0309247   0.12659163    11299.487     1000 
 1350000   0.52731732   -1.8515729   0.79018501   -1.0613879   0.14151144    11230.533     1000 
 1352000   0.51978239   -1.8463234   0.77889391   -1.0674295   0.13430954    11353.971     1000 
 1354000   0.55629564   -1.8339814   0.83360902   -1.0003724    0.1310809    11503.753     1000 
 1356000    0.5273365   -1.8407065   0.79021375   -1.0504928    0.1266142    11421.019     1000 
 1358000   0.50560947   -1.9042274    0.7576558   -1.1465716   0.12661961    11416.145     1000 
 1360000   0.53945079   -1.8658546   0.80836701   -1.0574875   0.13584351    11310.734     1000 
 1362000   0.53139272   -1.8565653   0.79629199   -1.0602733   0.13974639    11221.059     1000 
 1364000   0.53715042   -1.8767206    0.8049199   -1.0718007   0.13832111    11343.687     1000 
 1366000   0.52795409   -1.8662138    0.7911392   -1.0750746   0.13071995    11344.046     1000 
 1368000   0.49386155   -1.8254483   0.74005153   -1.0853968   0.12883236    11428.231     1000 
 1370000   0.52729965   -1.8671188   0.79015853   -1.0769603   0.11985225    11451.108     1000 
 1372000    0.5306069   -1.8425162   0.79511444   -1.0474018   0.12974876    11378.537     1000 
 1374000   0.52975413   -1.7931495   0.79383657  -0.99931295   0.15877868    11167.008     1000 
 1376000   0.52038926   -1.8697049    0.7798033   -1.0899016   0.11971976    11572.833     1000 
 1378000   0.51249691   -1.8754365   0.76797661   -1.1074599   0.13122882    11429.434     1000 
 1380000   0.52101441   -1.8607757   0.78074009   -1.0800356   0.12387729    11492.064     1000 
 1382000   0.53015341   -1.8613219   0.79443489    -1.066887   0.12409593    11570.784     1000 
 1384000   0.53680524   -1.8385809   0.80440265   -1.0341783   0.13850107    11480.786     1000 
 1386000   0.54800346   -1.8594556   0.82118318   -1.0382724   0.13596332    11355.781     1000 
 1388000   0.50856939   -1.8014666   0.76209123   -1.0393754   0.12680966    11337.114     1000 
 1390000   0.50458945   -1.8937496   0.75612729   -1.1376223   0.12929291    11365.356     1000 
 1392000   0.51603393   -1.8644772   0.77327685   -1.0912003   0.12697002    11434.491     1000 
 1394000   0.53346742    -1.883606   0.79940093   -1.0842051   0.11619582    11607.924     1000 
 1396000   0.51026544    -1.886043   0.76463276   -1.1214103   0.13575741    11234.068     1000 
 1398000   0.50246318   -1.8621133   0.75294108   -1.1091723   0.13609089     11280.47     1000 
 1400000    0.5163241    -1.854053   0.77371167   -1.0803413   0.12758842    11400.768     1000 
 1402000   0.53317618   -1.8228728    0.7989645   -1.0239083   0.14196309    11258.307     1000 
 1404000     0.522447   -1.8868349   0.78288683   -1.1039481   0.12530163    11421.153     1000 
 1406000   0.53649541   -1.8187714   0.80393838    -1.014833   0.13182067    11345.094     1000 
 1408000   0.51381482   -1.8843685    0.7699515    -1.114417   0.12620513    11476.871     1000 
 1410000   0.53737294    -1.921673   0.80525335   -1.1164196   0.13029447     11498.79     1000 
 1412000   0.51785932    -1.855351   0.77601219   -1.0793388   0.11906538     11508.79     1000 
 1414000   0.48890979   -1.8686597   0.73263132   -1.1360284   0.13485778    11365.606     1000 
 1416000   0.50761952   -1.8650495   0.76066786   -1.1043816   0.13041083    11272.795     1000 
 1418000    0.5049802    -1.879517   0.75671283   -1.1228042   0.11439036    11607.025     1000 
 1420000   0.50207425   -1.8517832   0.75235827   -1.0994249   0.12155919    11433.067     1000 
 1422000   0.48770166   -1.8596052   0.73082094   -1.1287842   0.12763597    11351.271     1000 
 1424000   0.52294044   -1.7835998   0.78362625   -0.9999735    0.1331017    11376.492     1000 
 1426000   0.52361495   -1.8285871   0.78463701   -1.0439501   0.13472608    11429.516     1000 
 1428000   0.52766031    -1.875959   0.79069897     -1.08526   0.14030672    11407.864     1000 
 1430000   0.52737186   -1.8310533   0.79026673   -1.0407866   0.13723644    11258.516     1000 
 1432000   0.52143125   -1.9194334   0.78136473   -1.1380687   0.11488791    11578.169     1000 
 1434000   0.54974173   -1.8452729   0.82378798   -1.0214849   0.13539547    11336.704     1000 
 1436000   0.51864783   -1.8655241   0.77719377   -1.0883303    0.1323177    11335.805     1000 
 1438000   0.52890612   -1.8848996   0.79256582   -1.0923337   0.12604712     11567.91     1000 
 1440000   0.49291218   -1.8291166    0.7386289   -1.0904877   0.12968343    11315.307     1000 
 1442000   0.52122938   -1.8701103   0.78106223    -1.089048   0.13612001    11314.623     1000 
 1444000   0.51746711   -1.8501916   0.77542446   -1.0747671   0.13202466    11328.801     1000 
 1446000   0.51782309   -1.8440826    0.7759579   -1.0681247   0.13402632    11527.108     1000 
 1448000   0.52661115   -1.7803976   0.78912681  -0.99127081   0.12425646    11296.572     1000 
 1450000   0.50257164   -1.8439908    0.7531036   -1.0908871   0.12280526    11497.177     1000 
 1452000   0.51865194   -1.9009659   0.77719993    -1.123766   0.11257426     11530.73     1000 
 1454000   0.52941168   -1.8271112   0.79332341   -1.0337878   0.12731218    11504.468     1000 
 1456000    0.5287281    -1.900922   0.79229905    -1.108623   0.13570794    11491.899     1000 
 1458000   0.50703609   -1.8879255   0.75979358   -1.1281319   0.11728654     11424.96     1000 
 1460000   0.55309676   -1.8488848    0.8288155   -1.0200693   0.11277063    11644.011     1000 
 1462000   0.52835646   -1.8486058   0.79174216   -1.0568636   0.12949262    11513.879     1000 
 1464000   0.52958113   -1.8547026   0.79357733   -1.0611252   0.13353903    11395.948     1000 
 1466000   0.50634698   -1.8681057   0.75876095   -1.1093448   0.12276067    11445.266     1000 
 1468000   0.50118756   -1.8173335   0.75102956    -1.066304   0.13318204     11317.35     1000 
 1470000   0.50178304   -1.8586613   0.75192189   -1.1067394     0.120389    11422.034     1000 
 1472000   0.52836805   -1.8777435   0.79175953    -1.085984   0.12576557    11516.684     1000 
 1474000    0.5086695   -1.8299804   0.76224125   -1.0677391   0.13153189    11356.027     1000 
 1476000   0.49749388   -1.8535898   0.74549459   -1.1080952    0.1293329    11431.734     1000 
 1478000   0.51742778   -1.9126875   0.77536553   -1.1373219   0.13085079    11481.946     1000 
 1480000   0.51347322   -1.8909265   0.76943961   -1.1214868   0.11162296    11606.351     1000 
 1482000   0.52146867   -1.8885968   0.78142081    -1.107176   0.13330412    11468.078     1000 
 1484000   0.54272936   -1.8411586   0.81327994   -1.0278787    0.1297806    11452.617     1000 
 1486000   0.51368494   -1.8674362   0.76975688   -1.0976793   0.12620218    11340.963     1000 
 1488000   0.51926818   -1.8834185   0.77812337   -1.1052951   0.13197937    11393.037     1000 
 1490000   0.50920554   -1.8413941    0.7630445   -1.0783496   0.13022022    11399.766     1000 
 1492000   0.53828182   -1.8464547    0.8066153   -1.0398394   0.13033401    11416.928     1000 
 1494000   0.51940275   -1.8470501   0.77832502   -1.0687251   0.13904056    11249.841     1000 
 1496000   0.53110833   -1.8364276   0.79586584   -1.0405618   0.12939831     11382.02     1000 
 1498000   0.52469567   -1.8657363   0.78625646   -1.0794799   0.12831639    11434.379     1000 
 1500000   0.55540471   -1.8273309   0.83227395   -0.9950569   0.13409271    11311.177     1000 
 1502000   0.51710263   -1.8398844   0.77487829   -1.0650061   0.13242869    11275.785     1000 
 1504000   0.52434901   -1.7957317   0.78573699   -1.0099947   0.14619173    11205.413     1000 
 1506000   0.51103058   -1.8370529   0.76577932   -1.0712736   0.13083308    11379.988     1000 
 1508000   0.54249606   -1.8088946   0.81293035  -0.99596427   0.13238051    11350.417     1000 
 1510000   0.51545115   -1.8954927   0.77240355   -1.1230891   0.13006655    11485.261     1000 
 1512000   0.50379667    -1.879523   0.75493931   -1.1245837   0.12158608    11519.982     1000 
 1514000   0.52501272   -1.8676116   0.78673156     -1.08088   0.13339974    11380.635     1000 
 1516000   0.51294877   -1.8362303   0.76865373   -1.0675766    0.1294749    11270.561     1000 
 1518000   0.51809613   -1.8651757   0.77636705   -1.0888086   0.12639505    11457.641     1000 
 1520000    0.5317949   -1.8578164   0.79689466   -1.0609217   0.13836447    11414.055     1000 
 1522000   0.51889393   -1.9142422   0.77756255   -1.1366796   0.11238845    11663.668     1000 
 1524000   0.50832361     -1.89435   0.76172294   -1.1326271   0.12650967    11602.486     1000 
 1526000   0.51971533   -1.8873266   0.77879342   -1.1085331    0.1039008    11730.232     1000 
 1528000   0.53621523   -1.8552001   0.80351853   -1.0516816   0.13729683    11364.901     1000 
 1530000    0.5180981   -1.8013843      0.77637   -1.0250143   0.13464817    11329.916     1000 
 1532000   0.49746039   -1.8503075    0.7454444   -1.1048631   0.12549937    11401.852     1000 
 1534000   0.51296674   -1.8946648   0.76868066   -1.1259842   0.13183926    11473.565     1000 
 1536000   0.53491437   -1.9644523   0.80156918   -1.1628831   0.11613824    11668.234     1000 
 1538000   0.55570499   -1.8558501   0.83272392   -1.0231262   0.13668212    11243.939     1000 
 1540000   0.50405488   -1.8512081   0.75532624   -1.0958819   0.11777034    11498.619     1000 
 1542000   0.51220869   -1.8378937   0.76754473    -1.070349   0.12171827    11389.124     1000 
 1544000   0.51044804   -1.8441335   0.76490639   -1.0792271   0.13404893    11302.816     1000 
 1546000   0.52206999   -1.8863449   0.78232189    -1.104023   0.13522043    11424.317     1000 
 1548000   0.48696885   -1.8849565   0.72972282   -1.1552336   0.12499936    11431.788     1000 
 1550000   0.51910869   -1.8681381   0.77788437   -1.0902537    0.1356726    11320.306     1000 
 1552000    0.5289565   -1.9002372   0.79264132   -1.1075958     0.129313    11476.349     1000 
 1554000   0.51744368   -1.8957604   0.77538936   -1.1203711   0.12262712    11547.542     1000 
 1556000   0.50215269   -1.8834348   0.75247581    -1.130959   0.12725317    11407.654     1000 
 1558000   0.52493593   -1.8199621   0.78661649   -1.0333456   0.12942079    11331.698     1000 
 1560000   0.54244322   -1.8278839   0.81285117   -1.0150327   0.13060997    11411.734     1000 
 1562000   0.51352851   -1.8715151   0.76952247   -1.1019926   0.12714894     11424.56     1000 
 1564000   0.53407796   -1.8715321   0.80031582   -1.0712163   0.12161878    11561.946     1000 
 1566000    0.5115621   -1.8981066    0.7665758   -1.1315308   0.13157763    11467.171     1000 
 1568000   0.51907369   -1.8373921   0.77783193   -1.0595602   0.13352471    11557.894     1000 
 1570000   0.51756878   -1.8409844   0.77557681   -1.0654075    0.1373905    11328.331     1000 
 1572000   0.53883061   -1.8260993   0.80743767   -1.0186616   0.12864398    11365.447     1000 
 1574000   0.52529055   -1.8952496   0.78714789   -1.1081017   0.13664875    11322.261     1000 
 1576000    0.5298232   -1.8530218   0.79394006   -1.0590817   0.13722644    11368.792     1000 
 1578000   0.50764738   -1.9049061    0.7607096   -1.1441965   0.12079211    11563.019     1000 
 1580000    0.5198132   -1.8015702   0.77894008   -1.0226301    0.1347306     11249.77     1000 
 1582000   0.50326243   -1.8229727   0.75413876    -1.068834   0.13479172    11325.222     1000 
 1584000   0.51254651    -1.868244   0.76805094    -1.100193   0.13020136    11335.192     1000 
 1586000   0.52878225   -1.9054251   0.79238021   -1.1130449   0.11964432    11624.767     1000 
 1588000   0.51884342    -1.848088   0.77748686   -1.0706012   0.12779554    11239.878     1000 
[...]
 2614000   0.52212262   -1.8546746   0.78240075   -1.0722738   0.13081798    11340.716     1000 
 2616000   0.54231907   -1.8691352   0.81266513   -1.0564701   0.13443423     11427.57     1000 
 2618000   0.54412873   -1.8418575   0.81537689   -1.0264806    0.1251176    11491.962     1000 
 2620000   0.51894332   -1.8677942   0.77763656   -1.0901577   0.14239998    11295.358     1000 
 2622000   0.49451069   -1.8410684   0.74102427   -1.1000442   0.12356768     11415.66     1000 
 2624000   0.54778151   -1.8862801    0.8208506   -1.0654295     0.126043    11541.773     1000 
 2626000   0.53418592   -1.8823058    0.8004776   -1.0818282    0.1242543    11531.523     1000 
 2628000   0.52710426   -1.8475998   0.78986574   -1.0577341   0.12803137    11344.549     1000 
 2630000   0.52138343   -1.8878821   0.78129307    -1.106589   0.11727274    11584.373     1000 
 2632000    0.5082249   -1.8347863   0.76157501   -1.0732113    0.1160386    11535.132     1000 
 2634000   0.53173803   -1.8471554   0.79680944    -1.050346   0.12169656    11385.404     1000 
 2636000   0.50811435    -1.903085   0.76140935   -1.1416756   0.11477377    11631.044     1000 
 2638000   0.52202899   -1.8346317   0.78226044   -1.0523713   0.13157079    11336.248     1000 
 2640000     0.519922   -1.8101158   0.77910311   -1.0310126   0.12701637     11363.63     1000 
 2642000   0.51639326   -1.8432843   0.77381529    -1.069469   0.12615848    11371.939     1000 
 2644000   0.51853798   -1.8904766   0.77702917   -1.1134474   0.13928774    11270.839     1000 
 2646000   0.53234953   -1.8410433   0.79772577   -1.0433175    0.1395915    11258.705     1000 
 2648000   0.52663314   -1.8695485   0.78915977   -1.0803887   0.11931742    11535.762     1000 
 2650000   0.52403101   -1.8489067   0.78526047   -1.0636463   0.13238283    11354.391     1000 
 2652000    0.5221954   -1.8622788   0.78250981    -1.079769   0.13989866    11312.601     1000 
 2654000   0.52822284   -1.8650099   0.79154192    -1.073468   0.13412166    11331.172     1000 
 2656000   0.51843627   -1.8666457   0.77687675    -1.089769   0.13557143    11294.907     1000 
 2658000   0.50887076   -1.7896154   0.76254283   -1.0270726   0.13132235    11291.614     1000 
 2660000   0.50877983   -1.8640406   0.76240658    -1.101634   0.13337783    11315.382     1000 
 2662000   0.53121119   -1.8402482   0.79601997   -1.0442282   0.13300123    11478.272     1000 
 2664000   0.51351006   -1.8522391   0.76949483   -1.0827443   0.12806504    11368.288     1000 
 2666000   0.51844501    -1.836312   0.77688985   -1.0594221   0.13390096    11250.816     1000 
 2668000   0.53454398   -1.8278604   0.80101416   -1.0268462   0.14422128    11438.649     1000 
 2670000   0.54319803   -1.9044137   0.81398225   -1.0904314    0.1268774    11492.958     1000 
 2672000   0.52780638   -1.8441489   0.79091786    -1.053231   0.12931487    11453.307     1000 
 2674000     0.515388   -1.7933267   0.77230892   -1.0210178    0.1125788    11409.947     1000 
 2676000   0.51229716   -1.8772182    0.7676773   -1.1095409   0.12356287    11491.237     1000 
 2678000   0.52189109   -1.8952469    0.7820538   -1.1131931   0.14184764    11474.533     1000 
 2680000   0.52508373   -1.8691143   0.78683798   -1.0822763   0.12374805    11598.024     1000 
 2682000   0.51646482   -1.8401189   0.77392253   -1.0661964   0.12768146    11445.576     1000 
 2684000   0.51983812   -1.8630701   0.77897743   -1.0840927    0.1377548    11362.016     1000 
 2686000   0.51222643   -1.8503563   0.76757131    -1.082785   0.12865256    11394.873     1000 
 2688000   0.52768661   -1.8716273   0.79073839   -1.0808889   0.14009916    11307.295     1000 
 2690000     0.535303   -1.8700061   0.80215154   -1.0678546   0.12824838    11452.293     1000 
 2692000    0.5307922   -1.8132421   0.79539211     -1.01785   0.13203163    11414.286     1000 
 2694000    0.5433206   -1.8475922   0.81416593   -1.0334263   0.13831693    11211.586     1000 
 2696000   0.51140226   -1.8541796   0.76633628   -1.0878433    0.1339558    11410.871     1000 
 2698000   0.50264556    -1.824715   0.75321438   -1.0715006    0.1399278    11296.566     1000 
 2700000   0.51727017   -1.9045727   0.77512935   -1.1294433   0.12317757    11532.696     1000 
 2702000   0.53636351   -1.8631779   0.80374072   -1.0594372   0.13906473    11223.725     1000 
 2704000   0.54352764   -1.8306198   0.81447618   -1.0161436   0.12802814    11382.392     1000 
 2706000   0.52042021   -1.8503512   0.77984969   -1.0705015   0.12078937    11377.852     1000 
 2708000   0.53283126   -1.8936995   0.79844764   -1.0952519   0.12635906    11474.196     1000 
 2710000    0.5224433   -1.9032303   0.78288128    -1.120349   0.13757586    11323.585     1000 
 2712000   0.48729983   -1.8551057   0.73021879   -1.1248869   0.13606778    11395.852     1000 
 2714000   0.53932382   -1.8807518   0.80817674    -1.072575   0.12318797    11413.303     1000 
 2716000   0.50946017   -1.8821876   0.76342607   -1.1187615   0.13484633    11363.996     1000 
 2718000   0.52889088    -1.834826   0.79254298    -1.042283   0.11999741    11569.619     1000 
 2720000   0.54184269   -1.8535933   0.81195127    -1.041642   0.13852787    11152.647     1000 
 2722000   0.52025064   -1.8795939   0.77959559   -1.0999983   0.13495153    11347.044     1000 
 2724000   0.53752843   -1.8750673   0.80548635    -1.069581   0.13345863    11383.214     1000 
 2726000   0.52124499   -1.8650711   0.78108562   -1.0839855   0.12177039    11488.174     1000 
 2728000   0.50746978   -1.8998912   0.76044347   -1.1394478   0.12866709    11352.146     1000 
 2730000   0.51217271   -1.9021998   0.76749081    -1.134709   0.12596584    11535.167     1000 
 2732000   0.54054496   -1.8907329   0.81000663   -1.0807263   0.13165849    11429.363     1000 
 2734000   0.49955037   -1.8928642   0.74857623   -1.1442879   0.13218856    11389.252     1000 
 2736000   0.50377768   -1.8843117   0.75491085   -1.1294009   0.12657158    11316.864     1000 
 2738000   0.51509664   -1.8976882   0.77187232   -1.1258159   0.12516938    11383.293     1000 
 2740000   0.53482004   -1.8543353   0.80142783   -1.0529075   0.12895616    11423.351     1000 
 2742000    0.4971316   -1.9121636    0.7449517   -1.1672119   0.12043254    11470.545     1000 
 2744000   0.52911227   -1.8406563   0.79287473   -1.0477816   0.12548209    11392.213     1000 
 2746000   0.49191718   -1.8974813   0.73713789   -1.1603434   0.12287698     11458.98     1000 
 2748000   0.50230632   -1.8803336   0.75270602   -1.1276276   0.13455273    11320.849     1000 
 2750000   0.51501957   -1.8969602   0.77175683   -1.1252034   0.13573957    11363.963     1000 
 2752000   0.49391314   -1.8656843   0.74012884   -1.1255555   0.13689791    11350.252     1000 
 2754000   0.51949313   -1.9260664   0.77846046   -1.1476059   0.12765098    11495.427     1000 
 2756000   0.52451644   -1.8754333   0.78598789   -1.0894454   0.12939182    11330.454     1000 
 2758000   0.48826104   -1.9005459   0.73165916   -1.1688868   0.12436642    11493.146     1000 
 2760000   0.50260878   -1.9278742   0.75315926    -1.174715   0.12391131    11559.939     1000 
 2762000   0.51572194   -1.8514982   0.77280932   -1.0786888    0.1248643    11533.091     1000 
 2764000   0.52548153   -1.8093683   0.78743407   -1.0219342   0.14562292    11328.446     1000 
 2766000   0.51887678   -1.8481238   0.77753686    -1.070587   0.14360565     11299.84     1000 
 2768000   0.50016864   -1.8857329    0.7495027   -1.1362301   0.13094389    11266.782     1000 
 2770000   0.55403575   -1.8518434   0.83022257   -1.0216208   0.13607439    11215.533     1000 
 2772000   0.50560303   -1.8809743   0.75764615   -1.1233281   0.12802546    11318.507     1000 
 2774000   0.49861572   -1.8103342   0.74717566   -1.0631585   0.13120401    11421.344     1000 
 2776000   0.52817843   -1.8471348   0.79147537   -1.0556594   0.13357526    11304.646     1000 
 2778000   0.52409086   -1.8684971   0.78535016    -1.083147   0.13196669    11424.856     1000 
 2780000   0.53012913   -1.9282819   0.79439851   -1.1338834   0.11619982    11610.635     1000 
 2782000   0.52156456    -1.825217   0.78156449   -1.0436525   0.13278809    11226.232     1000 
 2784000   0.52693742   -1.8755639   0.78961572   -1.0859482   0.14923269    11235.423     1000 
 2786000   0.49816003   -1.8678411    0.7464928   -1.1213483   0.13362169    11368.044     1000 
 2788000   0.49281799   -1.8607396   0.73848776   -1.1222519   0.12938859    11371.262     1000 
 2790000   0.54769624   -1.8881507   0.82072282   -1.0674278     0.139096    11315.145     1000 
 2792000   0.51804124   -1.8259356    0.7762848   -1.0496508   0.14024347    11216.189     1000 
 2794000   0.51541573   -1.8956876   0.77235048   -1.1233372   0.12157974    11438.549     1000 
 2796000    0.5261333   -1.8538321   0.78841074   -1.0654214   0.13184269    11340.233     1000 
 2798000   0.52981358   -1.8462986   0.79392565   -1.0523729   0.14789896    11230.271     1000 
 2800000   0.53755387   -1.8427786   0.80552447   -1.0372541   0.13813047    11299.772     1000 
 2802000   0.52817499   -1.8370005   0.79147023   -1.0455303   0.14008218    11360.092     1000 
 2804000   0.53169723   -1.9085602    0.7967483   -1.1118119   0.13286201    11480.341     1000 
 2806000   0.53709699   -1.8342172   0.80483985   -1.0293774   0.15024189     11151.35     1000 
 2808000    0.5228073   -1.8302048   0.78342673   -1.0467781   0.13031077    11460.865     1000 
 2810000   0.52046318   -1.8757774   0.77991408   -1.0958633   0.12200189    11418.014     1000 
 2812000   0.53392169   -1.7791137   0.80008165  -0.97903202   0.12996241    11372.211     1000 
 2814000   0.52316677   -1.8622049   0.78396541   -1.0782395   0.12064109    11512.904     1000 
 2816000   0.51328269     -1.87862   0.76915411   -1.1094659    0.1277926    11301.403     1000 
 2818000     0.501309    -1.901175   0.75121153   -1.1499635   0.12826461    11421.994     1000 
 2820000     0.539428   -1.8698049   0.80833285   -1.0614721    0.1271605    11433.145     1000 
 2822000    0.5129731   -1.8538931   0.76869019   -1.0852029   0.13625861    11381.995     1000 
 2824000   0.50020696   -1.9101752   0.74956013    -1.160615   0.13252622    11301.359     1000 
 2826000   0.50828769   -1.8478977   0.76166911   -1.0862286   0.12800504    11386.086     1000 
 2828000   0.53371636    -1.901365   0.79977397    -1.101591   0.13110929    11406.253     1000 
 2830000   0.50561972   -1.8712062   0.75767115   -1.1135351   0.11001788    11532.549     1000 
 2832000   0.50480811   -1.8021427   0.75645495   -1.0456877   0.13613204    11225.205     1000 
 2834000   0.53344597   -1.8690376   0.79936878   -1.0696688   0.12823278    11418.415     1000 
 2836000   0.50323377   -1.8496669    0.7540958   -1.0955711   0.13430404    11499.921     1000 
 2838000   0.54258034   -1.9219148   0.81305664   -1.1088582   0.11681597    11449.919     1000 
 2840000    0.5318022    -1.825225    0.7969056   -1.0283194    0.1309266     11269.63     1000 
 2842000    0.5146129   -1.8956533   0.77114743   -1.1245059   0.13928718    11433.367     1000 
 2844000    0.5138486    -1.811854   0.77000212   -1.0418519   0.11862181    11611.762     1000 
 2846000   0.51017416    -1.921965   0.76449598    -1.157469   0.11071945    11682.722     1000 
 2848000   0.49516381    -1.871422   0.74200297    -1.129419   0.13441575    11329.518     1000 
 2850000    0.5191073   -1.8895915   0.77788229   -1.1117092   0.13300055    11436.384     1000 
 2852000   0.50471131   -1.8591934    0.7563099   -1.1028835   0.13814855    11328.038     1000 
 2854000   0.51529819   -1.8550333   0.77217434   -1.0828589   0.12151956     11417.16     1000 
 2856000   0.53044747   -1.8321576   0.79487553   -1.0372821   0.13554929    11455.121     1000 
 2858000   0.52128357   -1.8889414   0.78114344    -1.107798   0.13398498    11258.156     1000 
 2860000   0.50375509   -1.8645965   0.75487701   -1.1097195   0.11353957    11641.871     1000 
 2862000   0.54071803   -1.9028452   0.81026597   -1.0925792   0.13243193    11584.277     1000 
 2864000   0.50550722   -1.8979873   0.75750257   -1.1404847   0.12086422    11522.074     1000 
 2866000   0.55490462   -1.8806709   0.83152457   -1.0491463   0.12527903    11613.724     1000 
 2868000   0.49194286   -1.8556795   0.73717638   -1.1185031   0.11189206    11458.595     1000 
 2870000   0.50697479   -1.8373185   0.75970172   -1.0776168   0.13248911    11401.705     1000 
 2872000   0.49749551   -1.8398938   0.74549702   -1.0943967   0.13367516    11177.191     1000 
 2874000   0.52171038   -1.8496144     0.781783   -1.0678314   0.12816178    11409.721     1000 
 2876000   0.50432657   -1.8903638   0.75573336   -1.1346305   0.13328242    11331.304     1000 
 2878000   0.50368901   -1.8775082   0.75477798   -1.1227303   0.12047094    11419.915     1000 
 2880000    0.4977541   -1.8716645   0.74588452     -1.12578   0.11537195    11632.795     1000 
 2882000   0.53354236   -1.8585019   0.79951323   -1.0589887   0.12781716    11454.507     1000 
 2884000   0.51488452   -1.8584044   0.77155445   -1.0868499   0.12888419    11412.354     1000 
 2886000   0.52998241   -1.8529356   0.79417863    -1.058757   0.13145192    11528.338     1000 
 2888000   0.51824985   -1.8431282   0.77659741   -1.0665308   0.13213382    11367.468     1000 
 2890000   0.52518438    -1.887749   0.78698879   -1.1007602   0.12816174     11460.55     1000 
 2892000    0.5097553    -1.900002   0.76386831   -1.1361337   0.12274173    11539.118     1000 
 2894000   0.51278665    -1.885284    0.7684108   -1.1168732   0.13584998    11450.472     1000 
 2896000   0.54149492   -1.8616751   0.81143014   -1.0502449   0.12357624    11488.093     1000 
 2898000   0.51551744   -1.8722177   0.77250288   -1.0997148    0.1362834    11350.495     1000 
 2900000   0.53643385   -1.8914385   0.80384613   -1.0875923   0.13059819    11427.942     1000 
 2902000   0.50097429   -1.9145416   0.75070997   -1.1638316   0.12662342    11480.596     1000 
 2904000    0.5095379   -1.8371475   0.76354254   -1.0736049   0.12196607    11323.207     1000 
 2906000   0.52279927   -1.8610081   0.78341471   -1.0775934   0.13418771    11333.277     1000 
 2908000   0.51092049   -1.8773279   0.76561435   -1.1117136   0.12852044    11410.093     1000 
 2910000    0.4999912   -1.8776057   0.74923681   -1.1283689   0.13151225    11417.615     1000 
 2912000   0.53810858   -1.9050575   0.80635571   -1.0987018   0.13599839    11241.824     1000 
 2914000   0.50297961   -1.8172293   0.75371495   -1.0635143   0.12822579    11497.926     1000 
 2916000   0.53229041   -1.9149629   0.79763718   -1.1173257    0.1315308    11484.812     1000 
 2918000    0.5144797   -1.7868083   0.77094783   -1.0158605   0.13162807    11222.179     1000 
 2920000   0.51778896   -1.8653079   0.77590676   -1.0894012    0.1335159    11462.196     1000 
 2922000   0.51512951   -1.9255998   0.77192156   -1.1536782   0.13502612    11479.537     1000 
 2924000   0.51736832   -1.8597005   0.77527643   -1.0844241   0.12683708    11389.592     1000 
 2926000   0.52225483    -1.855999   0.78259886   -1.0734002   0.12979968    11420.876     1000 
 2928000   0.50589027   -1.8605082   0.75807657   -1.1024316   0.13114067    11413.451     1000 
 2930000    0.5178115   -1.8218013   0.77594053   -1.0458607   0.12433185    11472.461     1000 
 2932000   0.54506405   -1.8709624   0.81677848   -1.0541839   0.12676224    11524.153     1000 
 2934000   0.51172641   -1.8895224   0.76682203   -1.1227004   0.12908313    11452.218     1000 
 2936000   0.52034537   -1.8122734   0.77973753   -1.0325358   0.13296485    11288.387     1000 
 2938000   0.49591371   -1.8505287    0.7431267    -1.107402   0.12625696    11423.685     1000 
 2940000   0.52084135   -1.8877977   0.78048076   -1.1073169   0.12700451    11585.471     1000 
 2942000   0.51487081   -1.8986844   0.77153391   -1.1271505   0.12255855    11483.902     1000 
 2944000   0.50677591   -1.8976676   0.75940371   -1.1382639   0.11667889    11571.899     1000 
 2946000   0.52106776   -1.8558255   0.78082004   -1.0750054   0.12832074    11336.946     1000 
 2948000   0.52362803   -1.9123387    0.7846566   -1.1276821   0.13658111    11463.994     1000 
 2950000   0.51644358   -1.8895479   0.77389071   -1.1156572   0.13480378    11498.589     1000 
 2952000   0.51718277   -1.8659572   0.77499837   -1.0909588   0.12683827    11352.138     1000 
 2954000   0.53234066   -1.8472262   0.79771248   -1.0495137   0.12041753    11505.729     1000 
 2956000   0.51025294   -1.8775733   0.76461403   -1.1129593   0.12703529    11418.472     1000 
 2958000   0.53827533   -1.9073554   0.80660559   -1.1007498    0.1381559    11422.163     1000 
 2960000   0.50389114   -1.8378381   0.75508087   -1.0827572   0.11983479    11466.212     1000 
 2962000   0.51987687   -1.8310433    0.7790355   -1.0520078   0.13285167     11377.88     1000 
 2964000   0.52384048   -1.8544699   0.78497496    -1.069495   0.12426422    11600.192     1000 
 2966000    0.5312095   -1.9020939   0.79601743   -1.1060764   0.12179565    11471.815     1000 
 2968000   0.52496961   -1.8630582   0.78666696   -1.0763912   0.14408473    11227.385     1000 
 2970000   0.50027485   -1.9048559   0.74966187    -1.155194   0.14376879    11298.258     1000 
 2972000   0.51981242   -1.8504536    0.7789389   -1.0715147    0.1326266    11330.152     1000 
 2974000   0.51966969   -1.8673595   0.77872502   -1.0886344   0.11478334    11590.018     1000 
 2976000   0.50870499   -1.8920809   0.76229443   -1.1297865   0.13283916    11436.534     1000 
 2978000   0.51599492   -1.8999393   0.77321839   -1.1267209   0.12576384    11504.912     1000 
 2980000   0.48779087   -1.8072854   0.73095461   -1.0763308   0.12707151    11357.593     1000 
 2982000   0.51937249   -1.8367435   0.77827968   -1.0584638   0.14176302     11265.15     1000 
 2984000    0.5268529   -1.8399565   0.78948908   -1.0504674   0.12321481    11535.075     1000 
 2986000   0.51680503   -1.8663385   0.77443234   -1.0919062   0.12482025    11559.301     1000 
 2988000   0.51293086   -1.8453475   0.76862689   -1.0767206   0.13376596    11229.413     1000 
 2990000   0.53416707    -1.808579   0.80044935   -1.0081297   0.13993127    11289.759     1000 
 2992000   0.50527826   -1.8491521   0.75715948   -1.0919926   0.13781845     11286.87     1000 
 2994000   0.52927749   -1.8262926   0.79312233   -1.0331702   0.14444746    11381.883     1000 
 2996000   0.52708234   -1.8219134   0.78983289   -1.0320805   0.13544475     11386.71     1000 
 2998000   0.50781535   -1.8477001   0.76096131   -1.0867388   0.13858132    11280.163     1000 
 3000000   0.52458579   -1.9065683    0.7860918   -1.1204765    0.1327537    11352.966     1000 
Loop time of 9642.92 on 1 procs for 3000000 steps with 1000 atoms

Performance: 134399.108 tau/day, 311.109 timesteps/s
100.0% CPU use with 1 MPI tasks x 1 OpenMP threads

MPI task timing breakdown:
Section |  min time  |  avg time  |  max time  |%varavg| %total
---------------------------------------------------------------
Pair    | 8692       | 8692       | 8692       |   0.0 | 90.14
Neigh   | 629.93     | 629.93     | 629.93     |   0.0 |  6.53
Comm    | 111.9      | 111.9      | 111.9      |   0.0 |  1.16
Output  | 0.044898   | 0.044898   | 0.044898   |   0.0 |  0.00
Modify  | 187.68     | 187.68     | 187.68     |   0.0 |  1.95
Other   |            | 21.39      |            |       |  0.22

Nlocal:        1000.00 ave        1000 max        1000 min
Histogram: 1 0 0 0 0 0 0 0 0 0
Nghost:        4271.00 ave        4271 max        4271 min
Histogram: 1 0 0 0 0 0 0 0 0 0
Neighs:        104730.0 ave      104730 max      104730 min
Histogram: 1 0 0 0 0 0 0 0 0 0

Total # of neighbors = 104730
Ave neighs/atom = 104.73000
Neighbor list builds = 150000
Dangerous builds not checked

Total wall time: 2:40:42
