LAMMPS (29 Sep 2021 - Update 2)
OMP_NUM_THREADS environment is not set. Defaulting to 1 thread. (src/comm.cpp:98)
  using 1 OpenMP thread(s) per MPI task
# ----------------------- Inicialização -----------------------

units			lj
atom_style 		atomic
dimension 		3
boundary 		p p p

# -------------------- Criação dos Átomos ---------------------

read_data 		topologia.txt
Reading data file ...
  orthogonal box = (0.0000000 0.0000000 0.0000000) to (21.540000 21.540000 21.540000)
  1 by 2 by 2 MPI processor grid
  reading atoms ...
  1000 atoms
  read_data CPU = 0.004 seconds

velocity 		all create ${temp} 87287 rot yes dist gaussian
velocity 		all create 0.62 87287 rot yes dist gaussian

# ------------------ Interação Interatômica -------------------

pair_style		table linear 1300
pair_coeff		1 1 force.table AA 6.5
WARNING: 2 of 1300 force values in table AA are inconsistent with -dE/dr.
WARNING:  Should only be flagged at inflection points (src/pair_table.cpp:465)
pair_coeff		1 2 force.table AB 6.5
WARNING: 1 of 1300 force values in table AB are inconsistent with -dE/dr.
WARNING:  Should only be flagged at inflection points (src/pair_table.cpp:465)
pair_coeff		2 2 force.table BB 6.5
pair_write		1 1 1600 r 0.008 6.5 table.check AA
Appending to table file table.check with DATE: 2023-08-12
Neighbor list info ...
  update every 1 steps, delay 10 steps, check yes
  max neighbors/atom: 2000, page size: 100000
  master list distance cutoff = 6.8
  ghost atom cutoff = 6.8
  binsize = 3.4, bins = 7 7 7
  1 neighbor lists, perpetual/occasional/extra = 1 0 0
  (1) pair table, perpetual
      attributes: half, newton on
      pair build: half/bin/atomonly/newton
      stencil: half/bin/3d
      bin: standard
pair_write		1 2 1600 r 0.008 6.5 table.check AB
Appending to table file table.check with DATE: 2023-08-12
pair_write		2 2 1600 r 0.008 6.5 table.check BB
Appending to table file table.check with DATE: 2023-08-12

neighbor 		0.3 bin
neigh_modify	every 20 delay 0 check no

# ------------------------- Ensemble --------------------------------------

fix 1			all npt temp ${temp} ${temp} 0.5 iso ${press} ${press} 5
fix 1			all npt temp 0.62 ${temp} 0.5 iso ${press} ${press} 5
fix 1			all npt temp 0.62 0.62 0.5 iso ${press} ${press} 5
fix 1			all npt temp 0.62 0.62 0.5 iso 0.13 ${press} 5
fix 1			all npt temp 0.62 0.62 0.5 iso 0.13 0.13 5

# ---------------------- Função de Distribuição Radial -----------------------

compute RDF 	all rdf 2000 1 1 1 2 2 2
fix 2 			all ave/time 1 2000 2000 c_RDF[*] file rdf.data mode vector

# ------------------------- Execução ---------------------------

timestep 		0.005
thermo_style	custom step temp pe ke etotal press vol atoms
thermo			2000
run				3000000
Neighbor list info ...
  update every 20 steps, delay 0 steps, check no
  max neighbors/atom: 2000, page size: 100000
  master list distance cutoff = 6.8
  ghost atom cutoff = 6.8
  binsize = 3.4, bins = 7 7 7
  2 neighbor lists, perpetual/occasional/extra = 1 1 0
  (1) pair table, perpetual
      attributes: half, newton on
      pair build: half/bin/atomonly/newton
      stencil: half/bin/3d
      bin: standard
  (2) compute rdf, occasional, copy from (1)
      attributes: half, newton on
      pair build: copy
      stencil: none
      bin: none
Per MPI rank memory allocation (min/avg/max) = 2.675 | 2.675 | 2.675 Mbytes
Step Temp PotEng KinEng TotEng Press Volume Atoms 
       0         0.62   0.90118648      0.92907    1.8302565    1.3083387    9993.9483     1000 
    2000   0.60337071   -2.0604959   0.90415101   -1.1563449   0.12568027    11456.306     1000 
    4000   0.61775203   -2.0783281   0.92570141   -1.1526267   0.12683971    11337.408     1000 
    6000   0.61032712   -2.1239048   0.91457519   -1.2093296   0.12141933    11263.653     1000 
    8000   0.65469416   -2.1002504    0.9810592   -1.1191912   0.14770905    11178.535     1000 
   10000   0.65016464   -2.1050553   0.97427172   -1.1307836   0.13472822    11270.879     1000 
   12000   0.63189311   -2.1701442   0.94689183   -1.2232524   0.11950088    11453.037     1000 
   14000   0.61077481   -2.1832272   0.91524605   -1.2679811   0.12902091    11413.994     1000 
   16000   0.62896128   -2.0700015   0.94249847   -1.1275031   0.14620353    11203.537     1000 
   18000   0.60852743   -2.1433886   0.91187835   -1.2315103   0.12188588    11315.656     1000 
   20000   0.59723153   -2.1576533   0.89495146   -1.2627019   0.12332084    11393.651     1000 
   22000   0.61159402   -2.1523059   0.91647365   -1.2358323   0.13149349    11412.235     1000 
   24000   0.63644014   -2.1360989   0.95370555   -1.1823934   0.13415821    11344.366     1000 
   26000   0.57485393   -2.1395652   0.86141861   -1.2781466   0.12257556    11317.998     1000 
   28000   0.62446723   -2.1508187   0.93576414   -1.2150546   0.12857361    11359.041     1000 
   30000   0.66437673   -2.1084364   0.99556853   -1.1128679   0.12670992     11402.63     1000 
   32000   0.59126828   -2.1373708   0.88601552   -1.2513552   0.12501281    11412.858     1000 
   34000   0.62678222   -2.0897259   0.93923315   -1.1504927   0.12795519    11284.929     1000 
   36000   0.61266357   -2.1194409   0.91807636   -1.2013645   0.14389728    11098.724     1000 
   38000   0.63922625   -2.1536515   0.95788053    -1.195771   0.12790635    11241.315     1000 
   40000    0.6210123   -2.1425753   0.93058693   -1.2119884   0.12962766    11396.976     1000 
   42000   0.63421678     -2.18475   0.95037384   -1.2343762   0.11671101    11467.995     1000 
   44000    0.6142357   -2.1605059    0.9204322   -1.2400737   0.12716582    11352.525     1000 
   46000   0.63185629   -2.1346424   0.94683666   -1.1878058    0.1259934    11294.515     1000 
   48000   0.64031154   -2.0938137   0.95950684   -1.1343068   0.14413023    11157.532     1000 
   50000   0.62890112   -2.0939909   0.94240833   -1.1515826   0.12304138    11387.608     1000 
   52000   0.62775679   -2.1279923   0.94069355   -1.1872988   0.12757418    11347.095     1000 
   54000    0.6286448    -2.070986   0.94202423   -1.1289617   0.12793445    11175.881     1000 
   56000   0.59538514   -2.0797824   0.89218463   -1.1875978   0.13796924    11128.056     1000 
   58000   0.59301747   -2.1531557   0.88863668    -1.264519   0.12641038    11454.147     1000 
   60000   0.60418995   -2.1221618   0.90537865   -1.2167831   0.12980271    11281.223     1000 
   62000   0.64042026   -2.0840512   0.95966976   -1.1243814   0.13638536    11352.029     1000 
   64000   0.60868575   -2.1359442   0.91211559   -1.2238286   0.12294202     11419.03     1000 
   66000   0.61558998   -2.1384174   0.92246158   -1.2159558   0.13152193    11243.892     1000 
   68000   0.61210377   -2.1569566    0.9172375   -1.2397191   0.12703513    11515.996     1000 
   70000   0.61288529   -2.1287567    0.9184086   -1.2103481   0.12175626    11384.422     1000 
   72000   0.62485859   -2.0968649    0.9363506   -1.1605143   0.12981741    11286.851     1000 
   74000   0.61575902   -2.0923107    0.9227149   -1.1695958   0.13708885    11120.371     1000 
   76000   0.62322391   -2.1381951   0.93390102   -1.2042941   0.14418954    11247.279     1000 
   78000   0.61663724   -2.1210093    0.9240309   -1.1969784   0.13084626    11279.293     1000 
   80000   0.61374019   -2.1205729   0.91968967   -1.2008833   0.11695289    11614.346     1000 
   82000   0.65101649   -2.1221703   0.97554821   -1.1466221   0.13898731    11304.631     1000 
   84000   0.60831376   -2.1237789   0.91155817   -1.2122207   0.12829782    11314.428     1000 
   86000   0.62451505    -2.141343    0.9358358   -1.2055072   0.14320239    11072.023     1000 
   88000   0.64655454   -2.1173982   0.96886198   -1.1485362    0.1404464    11373.127     1000 
   90000    0.6160562   -2.1502774   0.92316021   -1.2271172   0.14186403    11259.493     1000 
   92000   0.62149556   -2.0807672   0.93131109   -1.1494561   0.11868753    11285.253     1000 
   94000   0.61981124   -2.1704978   0.92878715   -1.2417107   0.13345091    11342.841     1000 
   96000   0.63514893   -2.0698858   0.95177068   -1.1181151   0.11895729    11547.915     1000 
   98000    0.6000513    -2.150387   0.89917687   -1.2512101   0.13105403    11438.687     1000 
  100000   0.61366757   -2.0770971   0.91958085   -1.1575162   0.11848496    11262.016     1000 
  102000   0.60521951   -2.1607792   0.90692143   -1.2538577   0.12510059     11309.73     1000 
  104000   0.60919596   -2.1218231   0.91288015   -1.2089429   0.11712456    11447.772     1000 
  106000   0.62181447   -2.1500661   0.93178898   -1.2182771    0.1294806    11323.482     1000 
  108000   0.63510409   -2.1313641   0.95170347   -1.1796606   0.14469249    11294.295     1000 
  110000   0.62177957   -2.1329808   0.93173668   -1.2012441   0.14065234    11332.556     1000 
  112000   0.62255981   -2.1023566   0.93290588   -1.1694507   0.12683347     11286.09     1000 
  114000    0.6007971    -2.175224   0.90029445   -1.2749296   0.11350248    11501.489     1000 
  116000   0.60604927   -2.1047721   0.90816483   -1.1966073   0.12204121     11356.73     1000 
  118000   0.61743918   -2.1268069   0.92523261   -1.2015742   0.13211578    11392.008     1000 
  120000   0.63185114   -2.1251662   0.94682894   -1.1783373   0.13913084    11205.099     1000 
  122000   0.62555974   -2.1290743   0.93740127    -1.191673   0.13400576    11304.478     1000 
  124000   0.63668806   -2.0920632   0.95407705   -1.1379862   0.12738424    11233.751     1000 
  126000   0.61663341   -2.1380983   0.92402516   -1.2140732   0.13017146    11365.866     1000 
  128000   0.63425714   -2.1386691   0.95043433   -1.1882347   0.13671478    11367.355     1000 
  130000   0.60820183    -2.100607   0.91139045   -1.1892166   0.13598644    11220.836     1000 
  132000   0.64915452   -2.1269353   0.97275805   -1.1541773   0.13335112    11307.949     1000 
  134000   0.57425677    -2.149149   0.86052377   -1.2886253   0.12716287    11366.712     1000 
  136000   0.63263887   -2.1686014   0.94800934    -1.220592   0.12800107    11299.645     1000 
  138000   0.61940138   -2.0763345   0.92817296   -1.1481616   0.12189599    11269.793     1000 
  140000   0.61961987   -2.1065784   0.92850037    -1.178078    0.1389091     11045.75     1000 
  142000   0.62586452   -2.0996486   0.93785798   -1.1617906   0.13007617    11283.331     1000 
  144000   0.60655392   -2.1620207   0.90892105   -1.2530996   0.11769765    11277.374     1000 
  146000   0.59802838   -2.0738018   0.89614553   -1.1776562   0.12787722     11123.23     1000 
  148000    0.6241637   -2.1034703    0.9353093    -1.168161   0.13064296    11172.078     1000 
  150000   0.60933722   -2.1276682   0.91309183   -1.2145764   0.13125855    11284.729     1000 
  152000   0.63271495   -2.1882588   0.94812335   -1.2401355   0.12085414    11497.361     1000 
  154000   0.61487025   -2.1003283   0.92138308   -1.1789452   0.13561786    11176.975     1000 
  156000   0.60951925   -2.1211244    0.9133646   -1.2077598   0.11678585    11398.381     1000 
  158000   0.62055483   -2.1158836   0.92990142   -1.1859822   0.12363055    11239.418     1000 
  160000   0.61323627    -2.122186   0.91893455   -1.2032514   0.13640347    11226.008     1000 
  162000    0.6047044   -2.1417001   0.90614954   -1.2355506   0.13906871    11293.169     1000 
  164000    0.6134028   -2.1648915    0.9191841   -1.2457074   0.12869608    11422.784     1000 
  166000   0.60296282   -2.1149158   0.90353978    -1.211376   0.12191008    11299.569     1000 
  168000   0.60480522   -2.1533673   0.90630063   -1.2470667    0.1334512    11371.898     1000 
  170000   0.62353498   -2.0785858   0.93436716   -1.1442187   0.13263058    11057.483     1000 
  172000   0.60362773   -2.0822494   0.90453615   -1.1777132   0.13045083    11153.588     1000 
  174000   0.60910584   -2.1242385    0.9127451   -1.2114934   0.11740524    11316.155     1000 
  176000   0.61714642   -2.1743688   0.92479391   -1.2495749   0.12529307     11240.68     1000 
  178000   0.61205921    -2.116557   0.91717073   -1.1993863   0.13147604    11147.569     1000 
  180000   0.62388511   -2.0796229   0.93489184    -1.144731   0.13368235     11277.32     1000 
  182000   0.62307752    -2.092953   0.93368167   -1.1592714   0.13749083    11189.132     1000 
  184000   0.60763569   -2.1129537   0.91054208   -1.2024116   0.12516477    11398.373     1000 
  186000   0.61488024   -2.1084909   0.92139803   -1.1870928     0.134302    11193.143     1000 
  188000   0.63835272   -2.1439896   0.95657155   -1.1874181   0.13858099    11251.863     1000 
  190000   0.63459986   -2.0892014   0.95094788   -1.1382535   0.12933754    11195.872     1000 
  192000   0.61953802   -2.1081047   0.92837772   -1.1797269   0.11348494    11339.271     1000 
  194000   0.60905029   -2.1618462   0.91266186   -1.2491844   0.12064026    11540.907     1000 
  196000   0.63959865   -2.0754663   0.95843857   -1.1170277   0.14445506    11284.498     1000 
  198000   0.61752467   -2.0994898   0.92536072   -1.1741291   0.13829336    11237.082     1000 
  200000   0.64480389   -2.1182433   0.96623862   -1.1520046     0.132244    11367.174     1000 
  202000   0.59162708   -2.0834314   0.88655318   -1.1968782   0.13427572    11260.144     1000 
  204000   0.63532896   -2.1101638   0.95204044   -1.1581233   0.12963813    11250.744     1000 
  206000   0.59870858   -2.1013434    0.8971648   -1.2041786   0.12621563    11242.942     1000 
  208000   0.63960891   -2.1124465   0.95845395   -1.1539926   0.12731732    11284.878     1000 
  210000   0.62478276    -2.150031   0.93623696   -1.2137941   0.13339839    11373.365     1000 
  212000   0.63009545   -2.1402213   0.94419804   -1.1960232   0.12346902    11383.791     1000 
  214000   0.63060824   -2.0682323   0.94496645   -1.1232659   0.13252749    11122.439     1000 
  216000   0.62959456   -2.0627511   0.94344745   -1.1193037   0.12270319    11419.929     1000 
  218000   0.61659993   -2.1475742     0.923975   -1.2235992   0.13854406    11279.159     1000 
  220000   0.63292944   -2.1456251   0.94844477   -1.1971804    0.1356081    11350.291     1000 
  222000   0.62389732   -2.1251506   0.93491014   -1.1902405   0.12342202    11270.526     1000 
  224000   0.62593062   -2.1222802   0.93795704   -1.1843232   0.12830996    11394.853     1000 
  226000    0.6152966   -2.1461702   0.92202195   -1.2241482   0.13004308    11347.203     1000 
  228000   0.61280827    -2.181974    0.9182932   -1.2636808   0.12151284    11319.126     1000 
  230000   0.65063506   -2.0910015   0.97497664   -1.1160249   0.13216454    11235.559     1000 
  232000    0.6075062    -2.092571   0.91034803   -1.1822229   0.12502861    11309.688     1000 
  234000   0.63900157    -2.147751   0.95754385   -1.1902071   0.11828733    11507.504     1000 
  236000   0.63553117   -2.1292282   0.95234346   -1.1768848   0.12648238     11284.55     1000 
  238000   0.62542702   -2.1132757   0.93720239   -1.1760733   0.15385319     11153.72     1000 
  240000   0.63863402   -2.1315573   0.95699308   -1.1745642   0.14581418    11228.907     1000 
  242000   0.63133725   -2.0939808   0.94605887   -1.1479219   0.13715022    11188.011     1000 
  244000   0.62653367   -2.0985125   0.93886071   -1.1596517   0.12106127     11368.75     1000 
  246000   0.64134225   -2.1134779   0.96105136   -1.1524266   0.12937086    11409.495     1000 
  248000   0.63403872   -2.0787336   0.95010702   -1.1286266   0.14274314    11301.113     1000 
  250000   0.60672471   -2.1536986   0.90917698   -1.2445216   0.12112855     11422.88     1000 
  252000   0.63370715   -2.0686375   0.94961017   -1.1190273   0.14342923    11163.832     1000 
  254000   0.65828987   -2.1359778   0.98644737   -1.1495304   0.13182399    11491.954     1000 
  256000   0.58484046    -2.160408   0.87638343   -1.2840246   0.12254167    11363.545     1000 
  258000   0.63873546   -2.1520937   0.95714508   -1.1949486   0.12734109    11336.722     1000 
  260000   0.59347721   -2.1009145   0.88932559   -1.2115889   0.12191958    11363.391     1000 
  262000    0.6187167   -2.1298411   0.92714697   -1.2026942   0.12269911    11462.711     1000 
  264000   0.59395075   -2.1424126   0.89003519   -1.2523774   0.12546978    11293.955     1000 
  266000   0.62082241   -2.1215353   0.93030237   -1.1912329   0.12762954    11168.291     1000 
  268000    0.5989707   -2.1342806    0.8975576    -1.236723   0.12361493    11307.678     1000 
  270000   0.61749342   -2.0647846    0.9253139   -1.1394707   0.14815588    11070.683     1000 
  272000   0.60020981    -2.133297   0.89941439   -1.2338826   0.12395554    11423.794     1000 
  274000   0.62001994   -2.1551252   0.92909989   -1.2260253    0.1413673    11243.943     1000 
  276000   0.60801982   -2.1727115    0.9111177   -1.2615938   0.12171975    11467.653     1000 
  278000   0.62641817   -2.1051489   0.93868763   -1.1664613   0.12882062    11406.448     1000 
  280000   0.61127192   -2.1420347   0.91599098   -1.2260437   0.12266518    11565.048     1000 
  282000   0.61666334   -2.1581059   0.92407001   -1.2340359   0.13016932    11248.059     1000 
  284000   0.60931541   -2.1463911   0.91305915    -1.233332   0.11498897    11303.215     1000 
  286000   0.64772941    -2.088622   0.97062252   -1.1179995   0.12929297    11328.615     1000 
  288000   0.61066133   -2.0830349   0.91507601   -1.1679589   0.13993307    11056.287     1000 
  290000    0.6268027   -2.1254443   0.93926385   -1.1861805   0.11239187    11353.298     1000 
  292000   0.60280838   -2.1352684   0.90330836     -1.23196   0.12801038    11207.642     1000 
  294000   0.62298925   -2.1251868    0.9335494   -1.1916374   0.13887064    11326.893     1000 
  296000   0.61783322   -2.1135129   0.92582307   -1.1876898   0.12912236    11165.776     1000 
  298000   0.61626643   -2.0871003   0.92347525   -1.1636251   0.12770444     11304.58     1000 
  300000   0.61422008   -2.0612527   0.92040879   -1.1408439   0.13754618     11152.04     1000 
  302000   0.64823722   -2.1019622   0.97138348   -1.1305787   0.13386504    11257.204     1000 
  304000   0.61500239   -2.1035837   0.92158109   -1.1820026   0.11954962     11389.33     1000 
  306000   0.62384149   -2.0904712   0.93482648   -1.1556448   0.13126946    11253.332     1000 
  308000   0.60803738    -2.112313   0.91114401    -1.201169   0.14488941    11246.112     1000 
  310000   0.61484295   -2.1078981   0.92134217   -1.1865559   0.11336878    11386.979     1000 
  312000   0.60643057   -2.1078865   0.90873621   -1.1991503   0.13697147    11293.168     1000 
  314000   0.60556006   -2.0510428   0.90743175   -1.1436111   0.12175784    11370.199     1000 
  316000   0.64965447   -2.0897864   0.97350723   -1.1162792    0.1328039    11362.362     1000 
  318000   0.58917741   -2.1240473   0.88288235    -1.241165   0.13261671    11374.002     1000 
  320000   0.61688169   -2.1366989   0.92439722   -1.2123017   0.13910565    11196.319     1000 
  322000   0.63030369   -2.1051553   0.94451009   -1.1606452    0.1131873    11466.417     1000 
  324000   0.60357092   -2.1080226   0.90445102   -1.2035716   0.12883909    11371.494     1000 
  326000   0.60051699   -2.0889198   0.89987471    -1.189045   0.12138835    11396.097     1000 
  328000   0.60325194   -2.1275866   0.90397304   -1.2236136   0.14551739    11129.826     1000 
  330000   0.60912035   -2.1136146   0.91276685   -1.2008477   0.13464716    11211.304     1000 
  332000   0.61812437   -2.1251417   0.92625937   -1.1988823   0.13691613    11096.127     1000 
  334000   0.63233392   -2.1518332   0.94755238   -1.2042808   0.13892236     11340.81     1000 
  336000    0.6171715    -2.089487    0.9248315   -1.1646555   0.14392896    11124.344     1000 
  338000   0.61207726   -2.1170552   0.91719777   -1.1998574   0.12575911      11310.6     1000 
  340000   0.60878281    -2.061445   0.91226104    -1.149184   0.13836697    10996.286     1000 
  342000   0.60185635   -2.1254906   0.90188174   -1.2236089   0.12150177    11192.344     1000 
  344000   0.59345111   -2.1471039   0.88928648   -1.2578174   0.11536165    11370.071     1000 
  346000    0.6208077   -2.1229411   0.93028034   -1.1926607   0.13735828     11086.11     1000 
  348000   0.60988872    -2.044533   0.91391824   -1.1306148   0.12333377     11320.51     1000 
  350000   0.61192751    -2.142156   0.91697337   -1.2251827   0.12519502     11399.17     1000 
  352000   0.64466524   -2.1673308   0.96603086   -1.2012999   0.14118197    11317.224     1000 
  354000   0.59985907    -2.119766   0.89888881   -1.2208772    0.1233063    11385.172     1000 
  356000   0.61948694   -2.1634068   0.92830119   -1.2351056   0.12955609    11217.979     1000 
  358000   0.61658067   -2.1007529   0.92394614   -1.1768067   0.13235484    11390.472     1000 
  360000   0.61881561   -2.1094916   0.92729519   -1.1821964   0.12413553    11330.995     1000 
  362000   0.61720014   -2.1292508    0.9248744   -1.2043764    0.1273475    11336.897     1000 
  364000   0.63486093   -2.1541533   0.95133911   -1.2028142   0.13360795     11114.79     1000 
  366000   0.64072363   -2.0996425   0.96012437   -1.1395182   0.12527637    11299.272     1000 
  368000    0.6335356   -2.1386028    0.9493531   -1.1892497   0.14060647    11161.899     1000 
  370000    0.6127353   -2.1584913   0.91818385   -1.2403074   0.13109935    11251.435     1000 
  372000   0.62821697   -2.1757069   0.94138313   -1.2343238   0.12402943    11518.867     1000 
  374000   0.61850271   -2.0751041   0.92682631   -1.1482778   0.14145082    11171.142     1000 
  376000     0.612771   -2.1265352   0.91823735   -1.2082978   0.13409099    11310.643     1000 
  378000   0.62374451   -2.1594312   0.93468115   -1.2247501   0.12195361    11351.073     1000 
  380000   0.61850505   -2.1340973   0.92682981   -1.2072675   0.12063415    11352.877     1000 
  382000   0.61909064   -2.1227235   0.92770732   -1.1950162   0.14839008    11198.097     1000 
  384000   0.60720645   -2.0774251   0.90989887   -1.1675263   0.13179362    11189.397     1000 
  386000   0.60406077   -2.0950284   0.90518506   -1.1898434   0.12469644    11364.104     1000 
  388000   0.65169595   -2.1080563   0.97656638   -1.1314899   0.13083882    11244.031     1000 
  390000   0.63018458   -2.1277377   0.94433159   -1.1834062   0.12325712     11361.74     1000 
  392000   0.64669617   -2.1405646   0.96907421   -1.1714904   0.12240979    11238.866     1000 
  394000   0.60867193   -2.1266833   0.91209489   -1.2145884   0.13423959    11264.404     1000 
  396000   0.63799665   -2.1455037   0.95603797   -1.1894657   0.14785692     11115.69     1000 
  398000   0.62157353   -2.1303946   0.93142793   -1.1989667   0.12806455     11570.99     1000 
  400000   0.63854416   -2.1310701   0.95685842   -1.1742116   0.14543046    11189.886     1000 
  402000   0.61836411   -2.1261857   0.92661862   -1.1995671   0.12127046    11380.741     1000 
  404000   0.63605567   -2.0696084   0.95312943    -1.116479   0.13512683    11315.924     1000 
  406000   0.62929134   -2.1380166   0.94299308   -1.1950236   0.13593638    11200.314     1000 
  408000   0.65611869   -2.1137061   0.98319385   -1.1305122   0.12378216    11179.912     1000 
  410000   0.62484197   -2.1932756   0.93632569   -1.2569499   0.12266368    11528.336     1000 
  412000   0.62225829   -2.0820509   0.93245405   -1.1495968   0.12172341    11311.889     1000 
  414000    0.6475123   -2.2006549   0.97029719   -1.2303577   0.12517264    11399.288     1000 
  416000   0.60897316   -2.1176413   0.91254628    -1.205095   0.13935681    11385.933     1000 
  418000   0.59641976   -2.1365166   0.89373502   -1.2427816   0.15406229    11054.956     1000 
  420000   0.62945004   -2.1344061   0.94323088   -1.1911752   0.13074823    11240.482     1000 
  422000   0.62041173   -2.1216073   0.92968698   -1.1919203   0.11590174    11602.803     1000 
  424000   0.59536031   -2.1689255   0.89214743   -1.2767781   0.13602213    11264.443     1000 
  426000     0.630009   -2.1234911   0.94406848   -1.1794226   0.13048421    11388.989     1000 
  428000   0.63333426   -2.1324887   0.94905139   -1.1834373   0.13652185    11395.518     1000 
  430000   0.61048189   -2.1348651   0.91480711    -1.220058    0.1277938    11334.159     1000 
  432000   0.60528255   -2.1398642   0.90701591   -1.2328482   0.12647158    11340.206     1000 
  434000   0.61910547   -2.1580164   0.92772955   -1.2302869   0.12123423    11175.814     1000 
  436000   0.61516329    -2.100563    0.9218222   -1.1787408    0.1206618    11343.465     1000 
  438000   0.61547987   -2.1302927   0.92229658   -1.2079961   0.11574587    11420.856     1000 
  440000   0.62999833   -2.1549113   0.94405249   -1.2108588   0.12034657    11521.878     1000 
  442000    0.6246346   -2.1020217   0.93601495   -1.1660067   0.11862579    11322.029     1000 
  444000   0.61570217   -2.1405601   0.92262971   -1.2179304    0.1329815    11213.273     1000 
  446000   0.62798513    -2.100573   0.94103572   -1.1595373   0.12872633    11255.699     1000 
  448000   0.58673109   -2.1177427   0.87921653   -1.2385262   0.11975498    11251.261     1000 
  450000     0.626764   -2.1319554   0.93920586   -1.1927496   0.11035651    11246.532     1000 
  452000   0.62469145   -2.1174197   0.93610013   -1.1813196   0.15260191    11032.027     1000 
  454000   0.64237467   -2.0836991   0.96259845   -1.1211006   0.14188368    11263.371     1000 
  456000   0.61978837   -2.1066886   0.92875288   -1.1779357   0.13607093    11194.173     1000 
  458000   0.63651443   -2.1168496   0.95381688   -1.1630327   0.13933557    11263.834     1000 
  460000    0.6205893   -2.1648274   0.92995307   -1.2348743   0.12376306     11394.27     1000 
  462000   0.61012388    -2.102437   0.91427064   -1.1881664   0.14006777    11219.564     1000 
  464000   0.59986816   -2.1376961   0.89890244   -1.2387937   0.10919075    11374.273     1000 
  466000   0.61702141   -2.1215951   0.92460659   -1.1969885   0.13690625    11219.176     1000 
  468000   0.61820188   -2.1143529   0.92637552   -1.1879774   0.14083409    11215.945     1000 
  470000   0.64678279   -2.1543484   0.96920401   -1.1851444   0.13377167    11443.547     1000 
  472000   0.63283054   -2.0983073   0.94829657   -1.1500107   0.12349971    11256.859     1000 
  474000   0.61196047    -2.137056   0.91702276   -1.2200333   0.13094199    11224.661     1000 
  476000   0.62653405   -2.1072999   0.93886127   -1.1684386   0.13268056    11298.922     1000 
  478000   0.64796267    -2.147625   0.97097206    -1.176653   0.13869954    11254.638     1000 
  480000   0.62045785   -2.0774178   0.92975609   -1.1476617   0.13686685    11196.905     1000 
  482000    0.6164312    -2.087552   0.92372215   -1.1638299   0.13435988    11187.952     1000 
  484000   0.61704317    -2.135458   0.92463919   -1.2108188   0.11642177    11413.241     1000 
  486000   0.64422139   -2.1216603   0.96536576   -1.1562946   0.13413171    11146.634     1000 
  488000   0.63941477   -2.0701618   0.95816304   -1.1119988   0.13260851    11203.581     1000 
  490000   0.64407466   -2.1054787   0.96514587   -1.1403328    0.1196427    11273.441     1000 
  492000   0.60786405   -2.1693251   0.91088428   -1.2584408   0.12437048    11372.412     1000 
  494000   0.61549886   -2.1561462   0.92232504   -1.2338212   0.13070095    11148.846     1000 
  496000   0.61617906    -2.129429   0.92334433   -1.2060847   0.13274071    11220.112     1000 
  498000   0.62213219   -2.1234652   0.93226509   -1.1912001   0.14590871    11321.612     1000 
  500000   0.60704669    -2.101678   0.90965946   -1.1920185   0.14397894    11229.637     1000 
  502000   0.61961047   -2.1121299   0.92848629   -1.1836436   0.13958605    11176.412     1000 
  504000   0.61075761    -2.129634   0.91522028   -1.2144137    0.1153351    11553.795     1000 
  506000   0.62131398   -2.1525277     0.931039   -1.2214887   0.11814197    11388.219     1000 
  508000   0.61194459   -2.1304067   0.91699897   -1.2134078   0.12369846    11250.015     1000 
  510000   0.61794749   -2.1321498   0.92599431   -1.2061555   0.13163662    11181.938     1000 
  512000   0.60991431   -2.0735554   0.91395659   -1.1595988   0.12931057    11226.461     1000 
  514000   0.57904361    -2.146159   0.86769686   -1.2784621   0.12359068    11302.928     1000 
  516000    0.6213004    -2.103161   0.93101865   -1.1721423   0.13524892    11118.924     1000 
  518000   0.61414497   -2.1314987   0.92029624   -1.2112024   0.13636929     11227.06     1000 
  520000   0.61276352   -2.1517224   0.91822614   -1.2334963   0.14182204    11341.203     1000 
  522000   0.58771566   -2.0579415   0.88069191   -1.1772496   0.12400913    11230.282     1000 
  524000   0.62446401   -2.1397031   0.93575932   -1.2039438   0.13655308     11298.24     1000 
  526000   0.61769214   -2.0946747   0.92561167    -1.169063   0.13719919    11202.085     1000 
  528000   0.62577147   -2.1528934   0.93771855   -1.2151748   0.12655246    11193.677     1000 
  530000   0.63258963   -2.1347128   0.94793556   -1.1867772   0.12672909    11392.888     1000 
  532000   0.58801416   -2.1161901   0.88113922   -1.2350509   0.11864365    11408.573     1000 
  534000   0.60803594   -2.1433065   0.91114186   -1.2321646   0.11723055      11392.8     1000 
  536000   0.62742917   -2.1042489   0.94020261   -1.1640463   0.13239655      11161.5     1000 
  538000   0.64538539   -2.1137476   0.96711001   -1.1466376   0.13524493    11329.136     1000 
  540000   0.60913477   -2.1523919   0.91278845   -1.2396034    0.1416366    11246.185     1000 
  542000    0.6191387   -2.1563917   0.92777934   -1.2286124   0.12168334     11280.23     1000 
  544000   0.62600478   -2.1346436   0.93806816   -1.1965754    0.1429897    11138.304     1000 
  546000   0.62497358   -2.1602633   0.93652291   -1.2237403   0.14002462    11351.054     1000 
  548000    0.6387088   -2.1467128   0.95710514   -1.1896076   0.13444048    11301.756     1000 
  550000   0.64133548   -2.1146702   0.96104121    -1.153629   0.12434354     11261.92     1000 
  552000    0.6279813   -2.0928244   0.94102998   -1.1517944   0.12568033    11457.609     1000 
  554000   0.61322017   -2.1680513   0.91891042   -1.2491409   0.12087334    11369.764     1000 
  556000   0.61955032   -2.1843612   0.92839616   -1.2559651   0.12591657     11393.91     1000 
  558000   0.64884108   -2.1229528   0.97228837   -1.1506644   0.13401778    11298.071     1000 
  560000   0.59726473   -2.1259359    0.8950012   -1.2309347   0.13517725    11313.599     1000 
  562000   0.61641345    -2.110961   0.92369555   -1.1872654   0.13021418     11503.96     1000 
  564000    0.6476357   -2.1191308    0.9704821   -1.1486487   0.13058311    11326.498     1000 
  566000   0.63134201   -2.1142989     0.946066   -1.1682329   0.13023431    11276.976     1000 
  568000   0.63462129   -2.1782778   0.95098001   -1.2272978   0.11667363    11462.773     1000 
  570000   0.63380459   -2.1660818   0.94975618   -1.2163256   0.12933467    11295.921     1000 
  572000   0.64351696   -2.1288715   0.96431016   -1.1645613   0.13072934    11292.891     1000 
  574000   0.61589418   -2.1190243   0.92291743   -1.1961069   0.13535123    11176.214     1000 
  576000   0.61661198   -2.1075181   0.92399305   -1.1835251   0.11710176     11203.43     1000 
  578000   0.59758192   -2.1176735   0.89547651    -1.222197   0.13429661    11248.044     1000 
  580000   0.63211954   -2.1140046   0.94723113   -1.1667735   0.13165939    11189.044     1000 
  582000   0.60367037   -2.1362593   0.90460005   -1.2316593   0.12671076    11375.973     1000 
  584000   0.63845787   -2.1185091   0.95672913     -1.16178   0.14581269    11442.797     1000 
  586000    0.5971752   -2.1552162   0.89486703   -1.2603492    0.1232947    11399.978     1000 
  588000   0.60767041    -2.058804    0.9105941   -1.1482099   0.12819775    11405.812     1000 
  590000   0.57777767   -2.1390847   0.86579985   -1.2732848   0.11697038    11392.831     1000 
  592000    0.5956695   -2.1116906   0.89261074   -1.2190799   0.12061042    11489.393     1000 
  594000   0.61280166   -2.0787596   0.91828329   -1.1604763   0.12939333    11248.367     1000 
  596000   0.62068924   -2.0804379   0.93010283   -1.1503351   0.14254351      11219.4     1000 
  598000   0.61652484   -2.1106318   0.92386247   -1.1867694   0.14405271    11127.583     1000 
  600000   0.60237981   -2.0958945   0.90266615   -1.1932284   0.12827062    11429.989     1000 
  602000   0.62217503   -2.0618774   0.93232929   -1.1295481   0.14182592    11135.682     1000 
  604000   0.60631324   -2.0837652    0.9085604   -1.1752048   0.11888325    11380.858     1000 
  606000   0.61927507   -2.1302051    0.9279837   -1.2022214   0.13731229    11228.349     1000 
  608000   0.62239364   -2.1176072   0.93265686   -1.1849503   0.12779975    11380.219     1000 
  610000   0.63119679   -2.1065563    0.9458484   -1.1607079   0.13594388    11241.917     1000 
  612000   0.64686931   -2.1141383   0.96933367   -1.1448046   0.13914291    11137.209     1000 
  614000   0.62271787   -2.0971247   0.93314273   -1.1639819   0.13993962     11141.28     1000 
  616000   0.61145316   -2.1398038   0.91626256   -1.2235413   0.13650394     11261.06     1000 
  618000   0.59373929    -2.138935   0.88971833   -1.2492167    0.1314308    11534.475     1000 
  620000   0.62425422   -2.1211427   0.93544495   -1.1856977   0.12897447     11342.26     1000 
  622000   0.60039776   -2.1141512   0.89969604   -1.2144552   0.13555219    11145.074     1000 
  624000   0.61004292   -2.0879102   0.91414932   -1.1737609   0.13341572    11163.259     1000 
  626000   0.59501087   -2.0932164   0.89162379   -1.2015927   0.13542892    11208.262     1000 
  628000   0.61865646   -2.2107646   0.92705671   -1.2837079   0.11783329    11495.646     1000 
  630000   0.62847565   -2.1234147   0.94177076   -1.1816439   0.13887485     11214.89     1000 
  632000    0.6225978   -2.0701729    0.9329628   -1.1372101   0.12817119    11400.371     1000 
  634000   0.62127277   -2.1343873   0.93097724     -1.20341   0.13099583    11206.821     1000 
  636000   0.60927006   -2.1272802   0.91299119   -1.2142891   0.12163061    11372.775     1000 
  638000   0.62439694   -2.1501159   0.93565881   -1.2144571   0.13808027    11181.239     1000 
  640000   0.61966065   -2.1571834   0.92856148   -1.2286219   0.14133234     11168.38     1000 
  642000   0.63758319   -2.0725168   0.95541841   -1.1170984   0.13697971    11140.424     1000 
  644000   0.61703796   -2.1427653   0.92463139   -1.2181339    0.1305943    11348.092     1000 
  646000   0.61634207   -2.1075814   0.92358859   -1.1839928   0.14270072    11089.342     1000 
  648000   0.62267632   -2.0995696   0.93308047   -1.1664892   0.14305326    11106.974     1000 
  650000   0.59932649   -2.2106314   0.89809075   -1.3125407   0.13153859     11297.27     1000 
  652000   0.66528129   -2.1283868   0.99692402   -1.1314628   0.12207655    11339.695     1000 
  654000   0.60634164   -2.1271215   0.90860295   -1.2185186   0.14005326    11270.488     1000 
  656000     0.611678   -2.0872959   0.91659948   -1.1706964   0.14037836    11062.957     1000 
  658000   0.60827334   -2.1743264    0.9114976   -1.2628288   0.12592154    11351.892     1000 
  660000   0.61198174    -2.051406   0.91705464   -1.1343514   0.14539579    11257.477     1000 
  662000   0.63854185   -2.1017676   0.95685496   -1.1449127   0.13045307    11306.304     1000 
  664000   0.61994484   -2.1374897   0.92898735   -1.2085023   0.12324281    11272.264     1000 
  666000   0.62119255   -2.0911197   0.93085703   -1.1602627    0.1360514    11277.568     1000 
  668000   0.61786509   -2.1313907   0.92587083   -1.2055199   0.12503467    11361.808     1000 
  670000   0.60432146   -2.1221299   0.90557571   -1.2165542   0.12289906    11369.977     1000 
  672000   0.61024726    -2.113198   0.91445551   -1.1987425   0.11696897    11315.354     1000 
  674000   0.63254169   -2.1476373   0.94786372   -1.1997736   0.12461092    11441.332     1000 
  676000   0.62938042   -2.1155601   0.94312656   -1.1724335   0.15399117    11073.937     1000 
  678000     0.591227   -2.1299047   0.88595366    -1.243951   0.12176189    11276.241     1000 
  680000   0.61212976    -2.087682   0.91727645   -1.1704056   0.13117061    11392.117     1000 
  682000   0.61440701   -2.1410515    0.9206889   -1.2203626   0.12921935    11279.862     1000 
  684000    0.6190415   -2.1258623   0.92763368   -1.1982286   0.12602723    11292.595     1000 
  686000   0.62442014   -2.1409258   0.93569359   -1.2052322   0.12644853    11499.622     1000 
  688000   0.63906602   -2.1348126   0.95764043   -1.1771722   0.14419564    11331.353     1000 
  690000   0.63238905   -2.1624612   0.94763499   -1.2148262   0.13123813    11195.024     1000 
  692000   0.65017152   -2.0948263   0.97428202   -1.1205443   0.13242037    11458.489     1000 
  694000   0.63076222   -2.0880148   0.94519719   -1.1428176   0.13658556    11146.781     1000 
  696000   0.62011897   -2.1142886   0.92924827   -1.1850403   0.12790306    11346.627     1000 
  698000   0.63682851   -2.1019166   0.95428753   -1.1476291   0.13305621    11310.483     1000 
  700000   0.61491453   -2.1292116   0.92144942   -1.2077621   0.13132944    11222.316     1000 
  702000   0.58572831   -2.1424148   0.87771387   -1.2647009   0.11963176    11380.413     1000 
  704000   0.62161773   -2.1867611   0.93149417    -1.255267   0.13514522    11350.199     1000 
  706000   0.61510648   -2.1353685   0.92173707   -1.2136314   0.13592955    11171.632     1000 
  708000   0.58953259   -2.1275739   0.88341458   -1.2441593   0.13946052    11073.049     1000 
  710000   0.62307006    -2.088976   0.93367049   -1.1553055   0.15070952    11314.944     1000 
  712000   0.65638226   -2.1513744   0.98358882   -1.1677856     0.127045      11527.7     1000 
  714000    0.6296051   -2.0948618   0.94346324   -1.1513985   0.13274383    11389.531     1000 
  716000    0.6365403   -2.1131572   0.95385564   -1.1593016   0.12502378    11260.864     1000 
  718000   0.60609527   -2.1354381   0.90823376   -1.2272044   0.12365171    11432.632     1000 
  720000   0.63081695   -2.0952449    0.9452792   -1.1499657   0.15103234    11018.566     1000 
  722000   0.62812212   -2.1299814     0.941241   -1.1887404    0.1356242    11255.965     1000 
  724000    0.6184297   -2.1026455    0.9267169   -1.1759286   0.12188249    11328.738     1000 
  726000   0.60145652   -2.0911725   0.90128259     -1.18989   0.12941029    11172.233     1000 
  728000   0.62761693   -2.1519563   0.94048397   -1.2114724   0.11991234    11536.425     1000 
  730000    0.6152097   -2.1275011   0.92189174   -1.2056094   0.12763298    11282.618     1000 
  732000    0.6184097   -2.1613696   0.92668693   -1.2346827   0.14307066    11099.707     1000 
  734000   0.63063561   -2.0662429   0.94500746   -1.1212355   0.13893405    10931.274     1000 
  736000    0.6149552   -2.1106985   0.92151037   -1.1891881    0.1396171    11242.727     1000 
  738000   0.61794986   -2.1200735   0.92599787   -1.1940756   0.14559999    11084.095     1000 
  740000   0.63650923   -2.0710306   0.95380909   -1.1172216   0.14181835    11238.879     1000 
  742000   0.59724584   -2.1362664   0.89497289   -1.2412935   0.12734584    11307.385     1000 
  744000   0.62384931   -2.1101693   0.93483819   -1.1753312    0.1310797    11184.235     1000 
  746000   0.60869791   -2.1529049   0.91213382   -1.2407711    0.1342501    11163.703     1000 
  748000   0.61951611   -2.1385933   0.92834488   -1.2102484   0.13986228    11260.619     1000 
  750000   0.60293905   -2.1574712   0.90350417    -1.253967   0.13203128    11200.782     1000 
  752000    0.6351814   -2.1204019   0.95181932   -1.1685826   0.13569368    11252.681     1000 
  754000   0.64109418   -2.0873315   0.96067962   -1.1266519   0.12264124    11397.983     1000 
  756000   0.60386222   -2.0625481   0.90488754   -1.1576606   0.14126991    11013.467     1000 
  758000    0.6153155   -2.1157792   0.92205028   -1.1937289   0.14780267    11138.608     1000 
  760000   0.65854316   -2.1514896   0.98682692   -1.1646627   0.13520054    11270.471     1000 
  762000   0.63956932   -2.1490016   0.95839462    -1.190607   0.13171309     11423.04     1000 
  764000   0.62069506   -2.1389077   0.93011155   -1.2087961   0.12398281    11286.643     1000 
  766000   0.62630376   -2.1222356   0.93851619   -1.1837194   0.12604994    11286.269     1000 
  768000   0.61891394   -2.1149354   0.92744254   -1.1874929   0.12069886    11426.712     1000 
  770000   0.63521503   -2.0910295   0.95186972   -1.1391598   0.11774295    11550.615     1000 
  772000   0.63236125   -2.0971915   0.94759333   -1.1495981   0.13586356    11214.624     1000 
  774000   0.60890533   -2.1548453   0.91244464   -1.2424006   0.15348664    11033.928     1000 
  776000   0.63449038   -2.1093104   0.95078383   -1.1585266   0.12983525    11230.789     1000 
  778000   0.60123445   -2.1620428   0.90094982    -1.261093   0.12641858    11361.918     1000 
  780000   0.64603562   -2.1218338   0.96808437   -1.1537494   0.12697142    11259.041     1000 
  782000   0.62096986   -2.1027536   0.93052333   -1.1722303   0.13189541    11164.793     1000 
  784000   0.62336693   -2.1321491   0.93411534   -1.1980338   0.13522924    11338.003     1000 
  786000   0.59211235   -2.1460126   0.88728036   -1.2587322   0.12716303    11361.194     1000 
  788000   0.62744972   -2.0768549   0.94023341   -1.1366215    0.1325956    11280.403     1000 
  790000   0.57392396   -2.1309551   0.86002505   -1.2709301   0.11226682    11241.465     1000 
  792000   0.62431723   -2.1943677   0.93553937   -1.2588283    0.1210255    11604.007     1000 
  794000   0.62069199   -2.1771661   0.93010694   -1.2470591   0.11656127    11333.539     1000 
  796000   0.62468555   -2.1464296    0.9360913   -1.2103383   0.13031159    11429.842     1000 
  798000   0.62061623   -2.0958645   0.92999343   -1.1658711   0.11339077      11467.5     1000 
  800000   0.61569073   -2.1089063   0.92261257   -1.1862937   0.12737924    11398.475     1000 
  802000   0.62967173   -2.0742764   0.94356308   -1.1307133   0.14132995    11235.522     1000 
  804000   0.60097319   -2.0861037   0.90055832   -1.1855454   0.12043246    11454.928     1000 
  806000   0.63665691   -2.1022362   0.95403039   -1.1482058   0.15085929    11233.821     1000 
  808000   0.62239598    -2.154474   0.93266038   -1.2218136   0.10993096    11520.074     1000 
  810000   0.62738443   -2.1509313   0.94013557   -1.2107957   0.13689571    11206.085     1000 
  812000   0.61678866   -2.1250805   0.92425781   -1.2008227   0.13546045     11325.35     1000 
  814000   0.62268366   -2.0371806   0.93309146   -1.1040891   0.15081116    11136.472     1000 
  816000   0.63292613   -2.0918623    0.9484398   -1.1434225   0.14881492    11117.123     1000 
  818000   0.62692936   -2.0945392   0.93945364   -1.1550856   0.13108629    11330.146     1000 
  820000   0.65332588   -2.1402794   0.97900883   -1.1612706   0.13695136    11208.077     1000 
  822000   0.60411436   -2.1174574   0.90526537    -1.212192    0.1181799    11249.261     1000 
  824000   0.61568794   -2.1296796   0.92260837   -1.2070712    0.1221851    11353.584     1000 
  826000   0.62245457   -2.1400165   0.93274818   -1.2072683   0.13184226    11278.305     1000 
  828000   0.62987898   -2.1772684   0.94387366   -1.2333947    0.1392327    11307.974     1000 
  830000   0.59739382   -2.1865475   0.89519464   -1.2913529   0.12472758    11342.808     1000 
  832000   0.60004126   -2.1020552   0.89916183   -1.2028934   0.13325617    11284.563     1000 
  834000   0.63418408   -2.1551386   0.95032485   -1.2048137   0.14151781    11261.279     1000 
  836000   0.60398799    -2.171364     0.905076    -1.266288   0.12400909    11470.043     1000 
  838000   0.63983618   -2.1438244   0.95879452   -1.1850299   0.14411901    11112.511     1000 
  840000    0.6316581   -2.0956319   0.94653966   -1.1490922   0.12339704    11294.087     1000 
  842000   0.62535168   -2.1423913   0.93708949   -1.2053018   0.11180019    11404.479     1000 
  844000   0.61085033   -2.1019314   0.91535922   -1.1865722   0.13309354    11253.743     1000 
  846000   0.61267133   -2.1684163   0.91808799   -1.2503283   0.12625509    11400.908     1000 
  848000   0.62639134   -2.0912222   0.93864743   -1.1525748   0.13683777    11233.506     1000 
  850000   0.60846114   -2.1530491   0.91177902   -1.2412701    0.1431713    11059.346     1000 
  852000   0.61503296   -2.1136998   0.92162689   -1.1920729   0.14824598    11121.211     1000 
  854000   0.58825014   -2.1314134   0.88149284   -1.2499205   0.12852814    11214.131     1000 
  856000   0.62987828   -2.1390519   0.94387261   -1.1951793   0.13091768    11266.908     1000 
  858000   0.62872746   -2.1429365    0.9421481   -1.2007884   0.12855068    11277.572     1000 
  860000   0.59188206   -2.1235131   0.88693526   -1.2365778   0.13066019    11325.693     1000 
  862000    0.6241344    -2.172059    0.9352654   -1.2367936   0.13599276    11425.466     1000 
  864000   0.61762817    -2.151151   0.92551581   -1.2256352   0.12475479    11448.137     1000 
  866000   0.64047968   -2.1778612    0.9597588   -1.2181024   0.14046177    11183.451     1000 
  868000    0.6270094   -2.1232822   0.93957358   -1.1837086   0.13368774    11340.494     1000 
  870000   0.65069418    -2.090521   0.97506523   -1.1154557   0.12740561    11288.537     1000 
  872000   0.61486295   -2.1218162   0.92137213   -1.2004441   0.11410966    11347.929     1000 
  874000   0.62960146    -2.120601   0.94345778   -1.1771432   0.12718606    11152.038     1000 
  876000   0.59515867   -2.0726739   0.89184527   -1.1808287   0.11176522    11208.033     1000 
  878000   0.60051556    -2.113163   0.89987256   -1.2132904   0.11694482    11507.763     1000 
  880000   0.61676811   -2.1189038   0.92422701   -1.1946768   0.13239875    11207.589     1000 
  882000    0.6135857   -2.1522712   0.91945817    -1.232813   0.13373951     11227.67     1000 
  884000   0.63350159   -2.1389361   0.94930213   -1.1896339   0.13494437    11339.315     1000 
  886000   0.63522352   -2.1816768   0.95188244   -1.2297944   0.13006501    11295.248     1000 
  888000   0.60765648   -2.1591958   0.91057324   -1.2486225   0.11821568    11326.064     1000 
  890000   0.63885575   -2.0901369   0.95732535   -1.1328116   0.12863456    11262.176     1000 
  892000   0.60928499   -2.1119896   0.91301355   -1.1989761   0.12645853    11353.294     1000 
  894000   0.60073738    -2.118547   0.90020496    -1.218342   0.13213108    11285.405     1000 
  896000     0.607133   -2.1052533   0.90978881   -1.1954645   0.11761584    11432.826     1000 
  898000   0.61368069   -2.1427687   0.91960052   -1.2231681   0.12984482    11351.868     1000 
  900000   0.64088274   -2.1321768   0.96036278    -1.171814   0.11295639    11532.271     1000 
  902000   0.63017467   -2.1672983   0.94431674   -1.2229815   0.12471966     11444.75     1000 
  904000   0.62025547   -2.1087763   0.92945282   -1.1793235   0.12462046    11496.068     1000 
  906000   0.60787191   -2.1534773   0.91089606   -1.2425813    0.1280642    11172.825     1000 
  908000   0.61103368   -2.1208941   0.91563396   -1.2052602   0.13324463    11259.328     1000 
  910000   0.62564898   -2.1498206     0.937535   -1.2122856   0.11867964    11400.594     1000 
  912000   0.61941738   -2.0839434   0.92819695   -1.1557465    0.1413783    11301.959     1000 
  914000   0.59892888    -2.100822   0.89749493   -1.2033271   0.12134078     11255.04     1000 
  916000   0.62155857   -2.1393814   0.93140552   -1.2079759   0.12360488     11333.86     1000 
  918000   0.60514824   -2.2075006   0.90681464   -1.3006859   0.11988826    11412.217     1000 
  920000   0.61121962   -2.1171402    0.9159126   -1.2012276    0.1325641    11267.628     1000 
  922000   0.63098168    -2.152466   0.94552605     -1.20694   0.13539663    11277.107     1000 
  924000   0.60718361   -2.1327006   0.90986464    -1.222836   0.11482164    11426.585     1000 
  926000   0.60626756   -2.0967528   0.90849193   -1.1882608   0.12207487    11265.901     1000 
  928000   0.62534893   -2.1881914   0.93708537    -1.251106   0.13796687    11407.708     1000 
  930000   0.63564749   -2.1648362   0.95251777   -1.2123184   0.14325774    11220.339     1000 
  932000   0.60495567   -2.1509929   0.90652607   -1.2444669   0.12946203    11362.947     1000 
  934000   0.62452997   -2.0995064   0.93585816   -1.1636483   0.12760231    11122.832     1000 
  936000   0.62926497   -2.1570816   0.94295355   -1.2141281   0.13297205    11367.785     1000 
  938000   0.57181118   -2.1458229   0.85685905   -1.2889638   0.13040938     11529.42     1000 
  940000   0.61091996   -2.1187159   0.91546355   -1.2032523   0.13344704     11290.71     1000 
  942000    0.6203677   -2.1121094     0.929621   -1.1824884   0.13816002    11065.214     1000 
  944000    0.6021617   -2.1091509    0.9023393   -1.2068116    0.1300545    11332.634     1000 
  946000   0.64190761   -2.1466027   0.96189856   -1.1847041   0.12700702    11451.997     1000 
  948000   0.60059119   -2.1105308   0.89998589   -1.2105449   0.13683987    11139.968     1000 
  950000   0.62714353   -2.0924434   0.93977459   -1.1526688   0.12753921    11181.533     1000 
  952000   0.62752791   -2.1416887   0.94035057   -1.2013381   0.12104426    11416.202     1000 
  954000   0.62722018   -2.1318137   0.93988943   -1.1919242   0.12734622    11514.526     1000 
  956000   0.60686138   -2.1778152   0.90938178   -1.2684334   0.13456827    11212.083     1000 
  958000   0.64448564    -2.126693   0.96576173   -1.1609312   0.11361937    11443.234     1000 
  960000   0.62990677   -2.1384021   0.94391529   -1.1944868    0.1236411    11182.815     1000 
  962000   0.62316305    -2.198601   0.93380983   -1.2647911   0.11335825    11592.547     1000 
  964000   0.61144025   -2.1325622   0.91624321    -1.216319   0.15093399    11176.181     1000 
  966000   0.61438023   -2.1089298   0.92064877    -1.188281   0.13059353    11280.417     1000 
  968000   0.63379458   -2.1106724   0.94974118   -1.1609313   0.12456848    11271.467     1000 
  970000   0.62747003   -2.1605282   0.94026383   -1.2202644   0.13313789    10986.459     1000 
  972000   0.61243307   -2.1745574   0.91773095   -1.2568264   0.12438767    11456.261     1000 
  974000   0.60920842   -2.0775424   0.91289882   -1.1646436   0.11982113    11209.256     1000 
  976000   0.64660119    -2.156473   0.96893188   -1.1875411   0.13329058     11279.54     1000 
  978000   0.63345292   -2.0840195   0.94922921   -1.1347902   0.12384561    11351.708     1000 
  980000   0.60880058   -2.0976789   0.91228766   -1.1853913   0.13082049    11240.653     1000 
  982000   0.63462614   -2.1170869   0.95098727   -1.1660996   0.13624713    11285.414     1000 
  984000   0.62519961   -2.1331677   0.93686161    -1.196306   0.11939961    11484.957     1000 
  986000   0.63478145    -2.152777      0.95122    -1.201557    0.1392735    11306.987     1000 
  988000   0.60227671   -2.1821017   0.90251166   -1.2795901   0.14267252    11203.779     1000 
  990000   0.61292372    -2.117245   0.91846619   -1.1987788   0.12698261    11439.098     1000 
  992000   0.65316955   -2.1351012   0.97877457   -1.1563266   0.14011034    11173.281     1000 
  994000   0.63453083   -2.1787208   0.95084445   -1.2278764   0.13449299    11433.267     1000 
  996000    0.6406264   -2.1114113   0.95997866   -1.1514326   0.12753223    11378.308     1000 
  998000   0.60978031    -2.102871   0.91375579   -1.1891152   0.13276997    11327.344     1000 
 1000000   0.60093034   -2.0822796   0.90049411   -1.1817855   0.12569357    11243.397     1000 
 1002000    0.6145306    -2.157796    0.9208741   -1.2369219   0.11682318    11415.484     1000 
 1004000   0.61293369   -2.1289592   0.91848114   -1.2104781   0.13775499    11359.347     1000 
 1006000   0.65048562   -2.1193469    0.9747527   -1.1445942   0.13297152    11159.333     1000 
 1008000   0.60995738   -2.1308555   0.91402113   -1.2168343    0.1233166    11319.472     1000 
 1010000   0.65200246   -2.0820225   0.97702569   -1.1049968   0.15634701    11038.588     1000 
 1012000   0.61646261   -2.1378705   0.92376922   -1.2141012    0.1335549    11218.071     1000 
 1014000   0.59291991   -2.1493953   0.88849048   -1.2609048   0.13407919    11224.138     1000 
 1016000   0.60688296   -2.1617827   0.90941411   -1.2523686   0.12264251    11474.136     1000 
 1018000   0.61287606   -2.0847696   0.91839478   -1.1663749   0.14101101    11139.476     1000 
 1020000   0.62457159   -2.0879117   0.93592053   -1.1519912   0.13160122    11399.204     1000 
 1022000   0.59670681   -2.1247545   0.89416515   -1.2305893   0.15271621    11024.788     1000 
 1024000    0.6236991   -2.1082497    0.9346131   -1.1736366   0.13457235     11322.63     1000 
 1026000    0.6189416   -2.0858351   0.92748399   -1.1583511   0.13935195    11127.509     1000 
 1028000   0.62356025   -2.0849294   0.93440504   -1.1505244   0.13071152    11297.347     1000 
 1030000   0.62525544   -2.1367584   0.93694528   -1.1998131   0.13081906     11373.72     1000 
 1032000   0.59993233   -2.1260646   0.89899859    -1.227066   0.13570238    11293.407     1000 
 1034000   0.59768257   -2.1199567   0.89562733   -1.2243294   0.11752301    11530.051     1000 
 1036000   0.60251616   -2.1053519   0.90287047   -1.2024814   0.13100234    11114.649     1000 
 1038000   0.65995941   -2.1107349   0.98894917   -1.1217857   0.12295417    11474.701     1000 
 1040000   0.61965366   -2.1225051     0.928551   -1.1939541   0.11860196    11472.457     1000 
 1042000   0.63053774   -2.1334404   0.94486081   -1.1885796   0.15112292    11179.693     1000 
 1044000   0.62164204   -2.1340887   0.93153059   -1.2025581   0.13263756    11410.862     1000 
 1046000   0.62763986   -2.1567459   0.94051832   -1.2162276   0.12139806    11358.152     1000 
 1048000   0.63499643   -2.0999099   0.95154215   -1.1483677   0.12756921     11218.75     1000 
 1050000   0.60797982   -2.1454298   0.91105777    -1.234372   0.13439995     11291.43     1000 
 1052000   0.66123026    -2.092215   0.99085354   -1.1013615   0.13039708    11229.347     1000 
 1054000   0.63510993   -2.0632971   0.95171223   -1.1115849   0.13709452    11261.548     1000 
 1056000   0.60176016   -2.1358899    0.9017376   -1.2341523   0.13274223    11243.387     1000 
 1058000   0.62431776   -2.1267045   0.93554017   -1.1911643   0.13422024    11299.635     1000 
 1060000    0.6166785    -2.128699   0.92409273   -1.2046063   0.13843258    11229.883     1000 
 1062000   0.62156033   -2.1168021   0.93140816    -1.185394   0.12215852    11322.462     1000 
 1064000   0.60672694   -2.1437198   0.90918032   -1.2345394   0.11374834    11463.473     1000 
 1066000   0.61094827   -2.2106959   0.91550598   -1.2951899   0.11877379    11273.952     1000 
 1068000   0.60592063   -2.1015675   0.90797207   -1.1935954   0.14652815    11121.229     1000 
 1070000   0.60203467   -2.0924068   0.90214895   -1.1902579   0.14025427    11203.659     1000 
 1072000    0.6051018   -2.1269129   0.90674504   -1.2201678   0.10940591    11347.607     1000 
 1074000   0.60121478   -2.0861752   0.90092035   -1.1852549   0.12925458    11268.472     1000 
 1076000   0.61958016   -2.1344256   0.92844087   -1.2059847   0.12352566    11336.515     1000 
 1078000   0.59547253   -2.1406079   0.89231559   -1.2482923    0.1291371    11319.448     1000 
 1080000   0.59618896   -2.1134019   0.89338915   -1.2200127    0.1356402    11075.547     1000 
 1082000   0.66990623   -2.1088766    1.0038545   -1.1050221   0.14514594    11151.889     1000 
 1084000   0.58109222   -2.1207076   0.87076669    -1.249941   0.11319127    11437.536     1000 
 1086000   0.59556469   -2.1038395   0.89245369   -1.2113858   0.13048467    11311.293     1000 
 1088000   0.61586929   -2.1095803   0.92288014   -1.1867001   0.12644974     11344.67     1000 
 1090000   0.62224986   -2.1164574   0.93244141   -1.1840159   0.14259893    11222.209     1000 
 1092000   0.61644662   -2.1134209   0.92374525   -1.1896756   0.14926827    11006.021     1000 
 1094000   0.61424536   -2.1184436   0.92044667   -1.1979969   0.13367127    11197.792     1000 
 1096000   0.60867933   -2.1358952   0.91210598   -1.2237892   0.13074977    11448.114     1000 
 1098000   0.61528447   -2.1285083   0.92200378   -1.2065045    0.1218659    11267.532     1000 
 1100000   0.61650019   -2.1397864   0.92382554   -1.2159608   0.13733348    11296.899     1000 
 1102000   0.62348372    -2.157838   0.93429036   -1.2235477   0.12952754    11425.922     1000 
 1104000   0.63577985   -2.1577962   0.95271611   -1.2050801   0.12618638    11526.156     1000 
 1106000   0.61175172   -2.1301368   0.91670996   -1.2134268   0.13135691    11334.173     1000 
 1108000   0.61703066   -2.1483258   0.92462044   -1.2237054   0.11768593    11297.942     1000 
 1110000   0.63529146    -2.133897   0.95198426   -1.1819127   0.13462729     11154.26     1000 
 1112000   0.62344964   -2.1230396   0.93423928   -1.1888003   0.14099341     11126.53     1000 
 1114000   0.63529431   -2.1652137   0.95198852   -1.2132252   0.11958812    11343.017     1000 
 1116000   0.61142479   -2.1063243   0.91622004   -1.1901043   0.13260526    11376.962     1000 
 1118000   0.61921498    -2.135059   0.92789365   -1.2071654   0.12611012    11394.416     1000 
 1120000   0.62516382   -2.1270039   0.93680799   -1.1901959    0.1306087    11236.729     1000 
 1122000   0.61010533   -2.1054895   0.91424284   -1.1912467   0.11925803    11467.691     1000 
 1124000   0.62485955    -2.126363   0.93635204   -1.1900109   0.11763965     11342.09     1000 
 1126000   0.60320559   -2.1496795   0.90390358   -1.2457759    0.1148983    11367.374     1000 
 1128000   0.60208339   -2.1579491   0.90222196   -1.2557272   0.11802766    11370.205     1000 
 1130000   0.61573376   -2.1051856   0.92267703   -1.1825086   0.13329292    11331.291     1000 
 1132000   0.61261893   -2.1298993   0.91800947   -1.2118899   0.12667484    11279.653     1000 
 1134000   0.64658768   -2.1309993   0.96891164   -1.1620877   0.12372073    11384.002     1000 
 1136000   0.61235752   -2.0517464   0.91761774   -1.1341286    0.1353538    11134.297     1000 
 1138000   0.60635044   -2.1486548   0.90861613   -1.2400386    0.1237784    11292.915     1000 
 1140000   0.61917196   -2.1435954   0.92782919   -1.2157662   0.11636662    11443.432     1000 
 1142000   0.63267112     -2.18417   0.94805768   -1.2361124   0.13387271     11365.29     1000 
 1144000   0.62661036   -2.1202074   0.93897563   -1.1812317   0.13240996    11146.855     1000 
 1146000   0.61966165   -2.1478104   0.92856298   -1.2192475   0.13140159    11391.539     1000 
 1148000   0.58875387   -2.1241727   0.88224768    -1.241925   0.13200068    11221.476     1000 
 1150000   0.64372108   -2.1722609   0.96461603   -1.2076449   0.13809732    11258.533     1000 
 1152000   0.60781383   -2.1374322   0.91080902   -1.2266232   0.13011483    11212.518     1000 
 1154000    0.6274142   -2.1171642   0.94018019    -1.176984   0.13417616    11399.604     1000 
 1156000   0.62718461   -2.0709869   0.93983614   -1.1311508    0.1401416     11149.43     1000 
 1158000    0.6248318   -2.1420499   0.93631046   -1.2057394     0.131009    11239.753     1000 
 1160000   0.64402168   -2.0730196   0.96506648   -1.1079531   0.14241526    11104.218     1000 
 1162000   0.61509935   -2.1326251   0.92172637   -1.2108987   0.13059811    11371.671     1000 
 1164000   0.61663618   -2.0954952   0.92402931   -1.1714659   0.12594649    11191.964     1000 
 1166000   0.59521803   -2.1475807   0.89193422   -1.2556464   0.13065165    11324.558     1000 
 1168000   0.61645308   -2.1307951   0.92375494   -1.2070402   0.12506697    11306.365     1000 
 1170000    0.6412471   -2.1203504   0.96090879   -1.1594416   0.14836574    11070.592     1000 
 1172000   0.61768685   -2.1100492   0.92560374   -1.1844455    0.1221598    11468.522     1000 
 1174000   0.62403069   -2.1045551   0.93510999   -1.1694451   0.13782221    11296.736     1000 
 1176000   0.61847454   -2.1167587    0.9267841   -1.1899746   0.11033521     11449.05     1000 
 1178000   0.62363187   -2.0918551   0.93451236   -1.1573428   0.13844012    11241.652     1000 
 1180000   0.63207388   -2.0735926   0.94716271   -1.1264299   0.14377539    11250.596     1000 
 1182000   0.59519689   -2.1518745   0.89190254    -1.259972   0.14036818    11335.274     1000 
 1184000   0.60721113   -2.1087829   0.90990588   -1.1988771   0.13332459    11195.278     1000 
 1186000   0.62811408   -2.1748194   0.94122895   -1.2335905   0.13165942    11446.864     1000 
 1188000   0.61554585   -2.0775278   0.92239545   -1.1551324   0.14306794    11204.053     1000 
 1190000    0.6004403   -2.1065314    0.8997598   -1.2067716   0.11418928    11176.704     1000 
 1192000   0.60497881   -2.1532028   0.90656075    -1.246642   0.11822755    11605.566     1000 
 1194000     0.631972   -2.1194771   0.94701004    -1.172467   0.12358584    11356.582     1000 
 1196000   0.58842364    -2.111104   0.88175282   -1.2293512   0.12248591    11106.124     1000 
 1198000   0.60359923   -2.1312351   0.90449344   -1.2267417   0.11553043    11313.712     1000 
 1200000   0.63769602   -2.1420709   0.95558748   -1.1864834   0.14353983    11246.912     1000 
 1202000   0.62988468   -2.1221909    0.9438822   -1.1783087   0.13152794    11228.788     1000 
 1204000     0.598338   -2.1462309   0.89660949   -1.2496214   0.13560544    11182.847     1000 
 1206000   0.61456888   -2.1336488   0.92093146   -1.2127174    0.1089846    11517.485     1000 
 1208000   0.61207068   -2.0936811   0.91718792   -1.1764932   0.12619318    11179.456     1000 
 1210000   0.60470958   -2.1634308   0.90615731   -1.2572735   0.11323634    11481.513     1000 
 1212000   0.62358215   -2.1145692   0.93443785   -1.1801313   0.13265754    11307.238     1000 
 1214000   0.61301954   -2.1601467   0.91860978   -1.2415369    0.1177721    11516.302     1000 
 1216000   0.63833391   -2.1165605   0.95654336   -1.1600172   0.13445955    11002.134     1000 
 1218000   0.64301179    -2.125711   0.96355316   -1.1621579   0.12762763    11388.776     1000 
 1220000   0.61410268   -2.1223696   0.92023287   -1.2021368   0.13682225    11021.201     1000 
 1222000   0.64405686   -2.0691225    0.9651192   -1.1040033   0.14375275    11087.126     1000 
 1224000   0.63202653   -2.1391297   0.94709176    -1.192038    0.1407632    11252.284     1000 
 1226000   0.62810958   -2.1599603   0.94122221   -1.2187381   0.12813826    11244.343     1000 
 1228000   0.60262896   -2.0786042    0.9030395   -1.1755647   0.12303718    11334.383     1000 
 1230000   0.60559352   -2.0718425   0.90748189   -1.1643607   0.14299029    11273.685     1000 
 1232000   0.62708324   -2.0510829   0.93968423   -1.1113987   0.13775241    11109.751     1000 
 1234000   0.62598978   -2.0919121   0.93804569   -1.1538665   0.12947991    11272.703     1000 
 1236000   0.65216507   -2.0581899   0.97726936   -1.0809205   0.13323819    11194.455     1000 
 1238000   0.63788131   -2.1051723   0.95586515   -1.1493071   0.13720139    11140.759     1000 
 1240000   0.61033731   -2.0882274   0.91459046   -1.1736369   0.13007484     11297.93     1000 
 1242000   0.63139044   -2.1214776   0.94613857    -1.175339   0.13993508    11341.605     1000 
 1244000   0.61289243   -2.1236676   0.91841931   -1.2052483   0.11986858    11394.724     1000 
 1246000   0.61765692   -2.1519971    0.9255589   -1.2264382   0.13056357    11258.514     1000 
 1248000   0.64219196   -2.1506485   0.96232465   -1.1883239   0.14376206    11215.757     1000 
 1250000   0.62086289   -2.1253542   0.93036304   -1.1949912   0.15075359    11069.449     1000 
 1252000   0.61683962   -2.1136726   0.92433416   -1.1893384     0.135273    11361.654     1000 
 1254000   0.65734478   -2.1148291   0.98503115    -1.129798   0.13802956    11275.675     1000 
 1256000   0.60338132   -2.1009837   0.90416691   -1.1968168   0.13923793    11127.158     1000 
 1258000   0.63109134   -2.1135765   0.94569038   -1.1678861   0.12962442    11286.447     1000 
 1260000   0.61564208   -2.0884692   0.92253966   -1.1659296   0.13392293    11151.776     1000 
 1262000   0.60495356   -2.0918126    0.9065229   -1.1852897   0.12305197     11233.31     1000 
 1264000   0.63907371   -2.1365624   0.95765195   -1.1789104   0.13447311    11256.315     1000 
 1266000   0.59356269   -2.1482506    0.8894537   -1.2587969   0.11599501    11199.022     1000 
 1268000   0.62019582   -2.1453792   0.92936344   -1.2160158   0.12149464    11249.679     1000 
 1270000   0.62192566   -2.1666353    0.9319556   -1.2346797   0.14088046     11244.83     1000 
 1272000   0.61367167   -2.0961602   0.91958699   -1.1765732   0.14032783    11228.939     1000 
 1274000   0.63604681   -2.0933275   0.95311615   -1.1402113   0.11614043    11339.929     1000 
 1276000   0.60840328   -2.1206348   0.91169232   -1.2089425   0.11258038    11439.993     1000 
 1278000   0.62377482   -2.1336528   0.93472656   -1.1989263   0.11965792    11390.121     1000 
 1280000   0.61114987   -2.1243707   0.91580808   -1.2085627   0.12507359    11324.919     1000 
 1282000   0.63364482   -2.0886778   0.94951677    -1.139161   0.13762235    11056.572     1000 
 1284000   0.62765798   -2.1490427   0.94054548   -1.2084973   0.13493873    11265.452     1000 
 1286000   0.62813403   -2.1294792   0.94125884   -1.1882204   0.12496943    11344.183     1000 
 1288000   0.60176675   -2.1247523   0.90174747   -1.2230048   0.12846583    11001.815     1000 
 1290000   0.63131168   -2.1842119   0.94602055   -1.2381914   0.11679503    11362.299     1000 
 1292000   0.61912769   -2.0831305   0.92776284   -1.1553677   0.12631374    11294.497     1000 
 1294000   0.62866205   -2.1375515   0.94205008   -1.1955014   0.13483336    11126.897     1000 
 1296000   0.60814547   -2.1086475   0.91130599   -1.1973415    0.1416884    11443.664     1000 
 1298000   0.63309861   -2.1180191   0.94869826   -1.1693208   0.12619424    11304.889     1000 
 1300000   0.61571067   -2.1620384   0.92264244    -1.239396   0.13137177    11250.796     1000 
 1302000   0.63914433   -2.1086612   0.95775777   -1.1509035   0.11650276    11276.383     1000 
 1304000   0.61722552    -2.121846   0.92491244   -1.1969335   0.13586457    11425.663     1000 
 1306000   0.61859837   -2.1055425   0.92696965   -1.1785728   0.11911976    11385.907     1000 
 1308000   0.62257401    -2.147978   0.93292716   -1.2150509   0.11965771    11437.945     1000 
 1310000   0.63002518   -2.0668994   0.94409273   -1.1228067   0.13178002    11327.323     1000 
 1312000   0.61757445   -2.1210593   0.92543532    -1.195624   0.11670378     11454.05     1000 
 1314000   0.62040722   -2.0933861   0.92968022   -1.1637058   0.14796312    11140.082     1000 
 1316000   0.63298073   -2.1362322   0.94852162   -1.1877106   0.11698713    11355.059     1000 
 1318000    0.6010582   -2.1100672   0.90068571   -1.2093815   0.14039127    11173.549     1000 
 1320000   0.61459787    -2.070666   0.92097491   -1.1496911   0.15165464     11040.31     1000 
 1322000   0.60738706   -2.1181004   0.91016951   -1.2079309     0.137822    11313.272     1000 
 1324000   0.64753837   -2.1574093   0.97033624    -1.187073   0.11415004    11515.855     1000 
 1326000   0.61747252   -2.1316422   0.92528257   -1.2063597   0.12422554    11282.428     1000 
 1328000   0.60310111   -2.1452808   0.90374701   -1.2415338   0.12590841    11331.054     1000 
 1330000    0.6166796   -2.0828693   0.92409438   -1.1587749   0.12844082    11003.218     1000 
 1332000   0.65491098   -2.1530464    0.9813841   -1.1716623   0.14428778    11281.692     1000 
 1334000   0.63474295   -2.1036716   0.95116232   -1.1525092   0.12873869    11146.846     1000 
 1336000   0.59747599    -2.116531   0.89531778   -1.2212132   0.14026537    11211.443     1000 
 1338000   0.60191583   -2.1181643   0.90197087   -1.2161934   0.11319364    11461.536     1000 
 1340000   0.64615068   -2.1467958    0.9682568    -1.178539   0.12872548    11402.865     1000 
 1342000   0.64319943    -2.109345   0.96383434   -1.1455107   0.13257207     11315.24     1000 
 1344000   0.60701883   -2.1231339   0.90961771   -1.2135162   0.12549655    11333.648     1000 
 1346000   0.66874253   -2.1032601    1.0021107   -1.1011494   0.13535194    11290.988     1000 
 1348000   0.61082718   -2.1571936   0.91532452   -1.2418691   0.13022644    11326.035     1000 
 1350000    0.6115616   -2.1292027   0.91642506   -1.2127777   0.12132967    11300.864     1000 
 1352000   0.62112159   -2.1208798    0.9307507   -1.1901291   0.13162197    11400.092     1000 
 1354000    0.5810493   -2.1449729   0.87070237   -1.2742706   0.14055773     11122.77     1000 
 1356000   0.59091543   -2.1120412   0.88548677   -1.2265545   0.12495757    11316.765     1000 
 1358000   0.61104438   -2.1030524      0.91565   -1.1874024   0.12847279    11247.835     1000 
 1360000   0.59887113   -2.1535688   0.89740839   -1.2561604    0.1349308    11253.276     1000 
 1362000   0.61073133   -2.0919531   0.91518089   -1.1767722   0.13076406    11355.648     1000 
 1364000   0.62249304   -2.1049531   0.93280581   -1.1721473     0.145695    11108.636     1000 
 1366000   0.61942269    -2.098471   0.92820491   -1.1702661   0.13822389    11149.557     1000 
 1368000   0.64115869   -2.1398972    0.9607763   -1.1791209   0.13249284    11314.417     1000 
 1370000   0.63323083   -2.1579588   0.94889639   -1.2090624   0.14266195    11240.034     1000 
 1372000   0.62744736   -2.0971402   0.94022986   -1.1569103   0.12213806    11342.722     1000 
 1374000   0.63792022   -2.1320701   0.95592345   -1.1761466   0.12890305    11282.479     1000 
 1376000   0.58852936    -2.150211   0.88191125   -1.2682998   0.13320031    11211.108     1000 
 1378000   0.61288769   -2.1397721    0.9184122   -1.2213599   0.12256785    11420.139     1000 
 1380000   0.60323588   -2.0922595   0.90394897   -1.1883106   0.14301512    11210.906     1000 
 1382000   0.62056725   -2.1590959   0.92992002   -1.2291759   0.13240673    11395.493     1000 
 1384000   0.64226347     -2.12885   0.96243181   -1.1664182   0.11663522    11311.117     1000 
 1386000   0.61796139   -2.1338629   0.92601515   -1.2078477    0.1157631    11540.344     1000 
 1388000   0.58220293   -2.1021277    0.8724311   -1.2296966   0.13191452    11139.236     1000 
 1390000   0.59619199   -2.0639794   0.89339369   -1.1705857   0.12287125    11341.142     1000 
 1392000   0.64021571   -2.1474364   0.95936323   -1.1880731   0.13827091    11291.398     1000 
 1394000   0.62604913   -2.0940706   0.93813463    -1.155936   0.13793727    11113.783     1000 
 1396000   0.62529959   -2.0713275   0.93701143   -1.1343161   0.12477439    11150.248     1000 
 1398000     0.619869    -2.102445   0.92887369   -1.1735713    0.1365076    11124.883     1000 
 1400000   0.60767106   -2.1210553   0.91059509   -1.2104603    0.1176984    11473.918     1000 
 1402000   0.62016555   -2.1428613   0.92931807   -1.2135432   0.13606184    11293.155     1000 
 1404000   0.60185705   -2.1339453   0.90188279   -1.2320625   0.12749562    11273.001     1000 
 1406000    0.6408306   -2.1187748   0.96028465   -1.1584901   0.13675526    11186.927     1000 
 1408000   0.63149697   -2.1667754   0.94629821   -1.2204772   0.12818006    11441.136     1000 
 1410000   0.62262404   -2.1436235   0.93300212   -1.2106214   0.13378846    11189.773     1000 
 1412000   0.61870645   -2.1302895   0.92713162   -1.2031579   0.12433521    11317.351     1000 
 1414000   0.60991081   -2.1003829   0.91395135   -1.1864316   0.14235709    11220.217     1000 
 1416000    0.6245169   -2.1157309   0.93583858   -1.1798924   0.12032552    11374.565     1000 
 1418000   0.61072507   -2.0963342   0.91517152   -1.1811626   0.12696005    11331.917     1000 
 1420000   0.62612491    -2.076477   0.93824818   -1.1382288    0.1350787    11173.371     1000 
 1422000   0.61510764   -2.1536554    0.9217388   -1.2319166   0.13071732    11273.584     1000 
 1424000     0.614315   -2.1355604   0.92055103   -1.2150094   0.12738584    11184.967     1000 
 1426000   0.61392195   -2.0844464   0.91996204   -1.1644843   0.12157258    11397.084     1000 
 1428000   0.62088087   -2.0970027   0.93038999   -1.1666127   0.13069075    11247.327     1000 
 1430000   0.60680981   -2.0832519    0.9093045   -1.1739474   0.12493442    11318.506     1000 
 1432000   0.63908725   -2.1201047   0.95767225   -1.1624324   0.13433209    11384.072     1000 
 1434000   0.61856866   -2.1232341   0.92692514   -1.1963089   0.11574662    11475.937     1000 
 1436000    0.6197033   -2.0601499   0.92862539   -1.1315245   0.11274922    11289.857     1000 
 1438000   0.62787284   -2.1114588   0.94086745   -1.1705913   0.14605132    11249.067     1000 
 1440000   0.59833924   -2.1631378   0.89661135   -1.2665264    0.1265136    11259.012     1000 
 1442000   0.62548186   -2.0908691   0.93728456   -1.1535846   0.12970331    11317.486     1000 
 1444000   0.62763069   -2.1608829   0.94050459   -1.2203783   0.12625038    11282.815     1000 
 1446000   0.59652408   -2.1033164   0.89389133    -1.209425    0.1326364    11256.093     1000 
 1448000   0.61149523   -2.0811969    0.9163256   -1.1648713   0.13629998    11164.355     1000 
 1450000   0.62693174   -2.1134073   0.93945721   -1.1739501   0.13496393     11329.39     1000 
 1452000   0.62236025   -2.1381093   0.93260683   -1.2055025   0.13865263    11275.885     1000 
 1454000   0.62343223   -2.1768643    0.9342132   -1.2426511   0.13112131    11454.386     1000 
 1456000   0.63220979   -2.1544589   0.94736638   -1.2070925   0.13456251    11201.673     1000 
 1458000   0.62493645   -2.1870931   0.93646727   -1.2506258   0.11547712    11601.504     1000 
 1460000   0.60408958   -2.0995487   0.90522824   -1.1943205   0.12506397    11231.699     1000 
 1462000    0.6086068   -2.1186787   0.91199729   -1.2066814   0.13413247    11128.399     1000 
 1464000   0.63678747    -2.057329   0.95422603   -1.1031029    0.1213705    11262.702     1000 
 1466000    0.6163554    -2.121729   0.92360857   -1.1981204   0.12102641    11447.862     1000 
 1468000   0.59781009   -2.1317093   0.89581842   -1.2358909   0.11269203    11321.713     1000 
 1470000   0.63450618   -2.1390269   0.95080751   -1.1882194   0.13640691    11172.455     1000 
 1472000   0.59719429   -2.1486213   0.89489565   -1.2537257   0.12730995     11307.46     1000 
 1474000   0.58288115    -2.109984    0.8734474   -1.2365366   0.12050058    11445.964     1000 
 1476000    0.6305971   -2.0954942   0.94494976   -1.1505444   0.13808707    11204.742     1000 
 1478000   0.62510557   -2.1406926   0.93672069   -1.2039719   0.12685523    11290.817     1000 
 1480000   0.60835194   -2.1887683   0.91161538   -1.2771529   0.12231976    11486.708     1000 
 1482000   0.64757926   -2.1084918   0.97039753   -1.1380943   0.13574634     11136.16     1000 
 1484000   0.61991255    -2.116458   0.92893896   -1.1875191   0.12749216    11196.859     1000 
 1486000   0.62236926   -2.1596372   0.93262034   -1.2270169   0.13458555    11503.013     1000 
 1488000   0.62206501   -2.1547779   0.93216441   -1.2226135   0.12189846    11583.971     1000 
 1490000   0.61222871   -2.1394972   0.91742472   -1.2220724    0.1130366    11431.203     1000 
 1492000   0.61558532   -2.0889655    0.9224546   -1.1665109   0.14633484    11241.891     1000 
 1494000    0.6305649   -2.1382679    0.9449015   -1.1933664   0.12649991    11283.664     1000 
 1496000      0.63934   -2.0647193   0.95805098   -1.1066684   0.14016254    11270.518     1000 
 1498000    0.6252305   -2.1473928    0.9369079   -1.2104849   0.12674003    11294.345     1000 
 1500000   0.62578066   -2.1161087   0.93773232   -1.1783764   0.12932709    11317.593     1000 
 1502000   0.62448991   -2.0487892   0.93579813   -1.1129911   0.14278469    11096.458     1000 
 1504000   0.59923804   -2.0921547   0.89795821   -1.1941965    0.1507389    11345.424     1000 
 1506000   0.60842822   -2.1587394   0.91172969   -1.2470097    0.1168349    11420.104     1000 
 1508000   0.60680678    -2.101658   0.90929996   -1.1923581   0.12078053    11439.249     1000 
 1510000   0.61108568   -2.0737278   0.91571188   -1.1580159   0.13934894    11158.547     1000 
 1512000   0.62941545   -2.0997621   0.94317905   -1.1565831   0.13951392    11096.873     1000 
 1514000   0.61810649   -2.1693352   0.92623258   -1.2431026   0.12104741    11407.206     1000 
 1516000   0.60580467   -2.1439049    0.9077983   -1.2361066   0.13528016    11084.652     1000 
 1518000   0.62402198   -2.0968311   0.93509693   -1.1617342   0.12499199    11334.567     1000 
 1520000   0.62618135   -2.1431218   0.93833275    -1.204789   0.14876667    10962.743     1000 
 1522000   0.60372615   -2.1336099   0.90468364   -1.2289262   0.12708954    11332.324     1000 
 1524000    0.6238007   -2.1023497   0.93476534   -1.1675843   0.14542904    11188.102     1000 
 1526000   0.62055685   -2.1226492   0.92990445   -1.1927448   0.13665575    11139.866     1000 
 1528000   0.63343627   -2.0757012   0.94920425   -1.1264969   0.13616009    11164.302     1000 
 1530000   0.60284396   -2.1945963   0.90336168   -1.2912346   0.11823035    11402.475     1000 
 1532000   0.62344134   -2.1107342   0.93422685   -1.1765073   0.13994914    11304.284     1000 
 1534000   0.62552305   -2.1335123   0.93734629    -1.196166   0.13756365    11299.863     1000 
 1536000   0.62472859   -2.1358643    0.9361558   -1.1997085   0.12999109    11543.656     1000 
 1538000   0.62348122   -2.1206027    0.9342866   -1.1863161   0.11992028    11268.143     1000 
 1540000   0.61319221   -2.1383611   0.91886853   -1.2194926   0.12427131    11249.284     1000 
 1542000   0.63087982   -2.1266099   0.94537341   -1.1812365   0.13757152    11155.639     1000 
 1544000   0.61909117   -2.1193522   0.92770812   -1.1916441   0.10781515     11676.94     1000 
 1546000   0.62133764   -2.1303643   0.93107445   -1.1992898   0.12372736    11329.888     1000 
 1548000   0.61901908   -2.1313476    0.9276001   -1.2037475   0.12619965    11256.591     1000 
 1550000   0.64377683   -2.1013409   0.96469958   -1.1366413   0.12107294    11431.814     1000 
 1552000   0.62098893   -2.0680897   0.93055191   -1.1375378   0.12159627    11427.765     1000 
 1554000   0.64718701   -2.1623702   0.96980973   -1.1925605   0.12832477    11344.974     1000 
 1556000   0.58932652   -2.1128195   0.88310579   -1.2297137   0.13868384    11284.903     1000 
 1558000   0.61880534   -2.1565943    0.9272798   -1.2293145   0.12935008    11441.073     1000 
 1560000   0.61489383   -2.1263616   0.92141841   -1.2049432   0.13516204    11364.765     1000 
 1562000   0.63815714    -2.097863   0.95627847   -1.1415845   0.13337247     11307.85     1000 
 1564000   0.63672124   -2.1241066   0.95412678   -1.1699798   0.12921186    11287.482     1000 
 1566000   0.64919546   -2.0941867    0.9728194   -1.1213673   0.13139815    11166.464     1000 
 1568000   0.60754825   -2.1293502   0.91041105   -1.2189392   0.11296818    11429.228     1000 
 1570000   0.60852914   -2.1661605   0.91188092   -1.2542796   0.14315894    11140.744     1000 
 1572000    0.6249642    -2.091924   0.93650886   -1.1554151   0.13315775    11199.859     1000 
 1574000   0.60725313   -2.0710731   0.90996881   -1.1611043   0.12846075    11178.729     1000 
 1576000   0.62591206   -2.0937048   0.93792922   -1.1557756   0.14412773    11123.282     1000 
[...]
 2614000   0.62380205   -2.1389146   0.93476737   -1.2041472    0.1250906     11424.97     1000 
 2616000   0.60372971   -2.1716337   0.90468897   -1.2669447   0.11760928    11447.762     1000 
 2618000   0.63349923   -2.0982467    0.9492986   -1.1489481   0.12346039    11205.176     1000 
 2620000   0.64708922   -2.1203953   0.96966319   -1.1507321   0.12146594     11387.05     1000 
 2622000   0.60496548   -2.1269126   0.90654077   -1.2203719   0.12969621    11315.816     1000 
 2624000   0.60576256   -2.1468927   0.90773519   -1.2391575   0.12138184    11463.585     1000 
 2626000    0.6353535    -2.108922   0.95207721   -1.1568448   0.13370129    11212.524     1000 
 2628000   0.64767346   -2.0898046   0.97053867   -1.1192659   0.14493661    11247.921     1000 
 2630000   0.62709451   -2.0955947   0.93970112   -1.1558936   0.12067127    11453.601     1000 
 2632000   0.58730677   -2.1556118   0.88007919   -1.2755327   0.11746941    11237.098     1000 
 2634000   0.63976998   -2.0590811   0.95869531   -1.1003858   0.14190899     11220.17     1000 
 2636000   0.59263755   -2.0974436   0.88806736   -1.2093762    0.1348136    11170.467     1000 
 2638000    0.6234649   -2.1212452   0.93426216    -1.186983   0.14929516    11136.455     1000 
 2640000   0.63909062   -2.1363645    0.9576773   -1.1786872   0.12841825    11529.251     1000 
 2642000   0.62998048    -2.131154   0.94402575   -1.1871283   0.12495396    11332.848     1000 
 2644000   0.62386966   -2.1528787   0.93486868     -1.21801      0.13437    11300.063     1000 
 2646000   0.64691284   -2.1492697   0.96939889   -1.1798708   0.12641778     11434.16     1000 
 2648000   0.62287194   -2.1438718    0.9333736   -1.2104982   0.13737421    11320.149     1000 
 2650000   0.61487083   -2.1432446   0.92138394   -1.2218606   0.11946039    11161.041     1000 
 2652000   0.62880673    -2.133323   0.94226689   -1.1910561   0.12346555    11201.582     1000 
 2654000   0.64064971   -2.1365565    0.9600136   -1.1765429   0.14015995    11349.066     1000 
 2656000   0.64283486   -2.1515031   0.96328803    -1.188215   0.11829297    11241.235     1000 
 2658000   0.63667989   -2.1646732   0.95406481   -1.2106084   0.11361225    11594.772     1000 
 2660000   0.61925498   -2.1136081   0.92795358   -1.1856545   0.14019209    11130.131     1000 
 2662000   0.64127703   -2.1251888   0.96095363   -1.1642352   0.13711817    11251.898     1000 
 2664000   0.62367302   -2.1556293   0.93457401   -1.2210553   0.11894811    11509.274     1000 
 2666000   0.60487452   -2.1286401   0.90640446   -1.2222357   0.11172585    11483.703     1000 
 2668000   0.65272885    -2.096914   0.97811418   -1.1187998    0.1326698    11221.136     1000 
 2670000   0.61658476   -2.1187746   0.92395226   -1.1948224   0.11958063     11262.01     1000 
 2672000   0.58701589   -2.1370649    0.8796433   -1.2574216   0.12275117     11428.49     1000 
 2674000   0.64653302   -2.0644188   0.96882973   -1.0955891   0.14318797    11215.771     1000 
 2676000   0.60413576   -2.1286964   0.90529744    -1.223399   0.12791319    11349.664     1000 
 2678000   0.61332127   -2.1386029   0.91906192   -1.2195409   0.12110076    11388.667     1000 
 2680000   0.62134113   -2.1260233   0.93107969   -1.1949436   0.13520705    11285.069     1000 
 2682000   0.62545915   -2.1422569   0.93725053   -1.2050064   0.14407231    11366.975     1000 
 2684000   0.62248265   -2.1403767   0.93279025   -1.2075864   0.12528433    11313.755     1000 
 2686000   0.57919453   -2.1176007   0.86792301   -1.2496777   0.12879574    11214.575     1000 
 2688000   0.60004877   -2.1380892   0.89917308   -1.2389161   0.12680257    11194.517     1000 
 2690000   0.59471629   -2.1517509   0.89118237   -1.2605685    0.1288166    11392.538     1000 
 2692000   0.60965705   -2.1220515   0.91357109   -1.2084805   0.15279747    11140.323     1000 
 2694000   0.59039962   -2.1319601   0.88471384   -1.2472463   0.12275954    11391.738     1000 
 2696000   0.60196164   -2.1485157   0.90203952   -1.2464762   0.12353847    11169.406     1000 
 2698000   0.60771559   -2.1632407   0.91066181   -1.2525789   0.12212545    11471.044     1000 
 2700000   0.61822192   -2.1537337   0.92640555   -1.2273282   0.12629117    11430.656     1000 
 2702000   0.61097972   -2.1095504   0.91555311   -1.1939973   0.12133688    11272.597     1000 
 2704000   0.62606128    -2.144958   0.93815283   -1.2068052   0.12703453      11322.3     1000 
 2706000   0.61588467   -2.0866596   0.92290317   -1.1637564   0.13058632     11337.01     1000 
 2708000   0.61799215   -2.1248917   0.92606123   -1.1988304   0.14135952    11263.296     1000 
 2710000   0.59484927   -2.1757666   0.89138163    -1.284385   0.11682234    11366.191     1000 
 2712000   0.59090958   -2.1167084   0.88547801   -1.2312304   0.12411626    11296.145     1000 
 2714000   0.60599079   -2.1659046    0.9080772   -1.2578274   0.11865602    11482.257     1000 
 2716000    0.6208821   -2.1730562   0.93039182   -1.2426644   0.13541515    11322.622     1000 
 2718000   0.62525739   -2.1525738    0.9369482   -1.2156256   0.11598111    11594.202     1000 
 2720000   0.61824102      -2.0799   0.92643417   -1.1534658   0.13102983    11126.591     1000 
 2722000   0.62015975   -2.0453104   0.92930938    -1.116001   0.14889612    11003.119     1000 
 2724000   0.61926745   -2.1607178   0.92797227   -1.2327455    0.1279026     11279.02     1000 
 2726000   0.65909177    -2.142414   0.98764902    -1.154765   0.14139215    11335.599     1000 
 2728000   0.59784396   -2.1164566   0.89586918   -1.2205874   0.12837922    11353.544     1000 
 2730000   0.62784877    -2.105736   0.94083138   -1.1649046   0.12301156    11431.122     1000 
 2732000   0.61550965    -2.096879   0.92234122   -1.1745378   0.13987583    11183.207     1000 
 2734000    0.5854092   -2.1643909   0.87723569   -1.2871552    0.1173366    11362.082     1000 
 2736000   0.60851533    -2.155506   0.91186023   -1.2436458   0.12729815    11200.918     1000 
 2738000   0.64378937   -2.1098079   0.96471837   -1.1450896   0.13614137    11194.154     1000 
 2740000   0.63998912    -2.127795    0.9590237   -1.1687713     0.137237    11195.554     1000 
 2742000   0.62305765   -2.1678458   0.93365189   -1.2341939   0.13638051    11285.665     1000 
 2744000    0.6136028   -2.1197139    0.9194838   -1.2002301   0.12051732    11335.989     1000 
 2746000   0.64256893   -2.1073742   0.96288954   -1.1444847   0.13587886    11125.641     1000 
 2748000   0.63968821   -2.1819709   0.95857279   -1.2233981   0.13327298    11276.517     1000 
 2750000   0.62343479   -2.1139437   0.93421703   -1.1797266   0.14200003    11321.606     1000 
 2752000   0.61093892   -2.1052212   0.91549198   -1.1897292   0.13536063    11226.852     1000 
 2754000   0.64551226   -2.1228335   0.96730012   -1.1555334   0.14500516    11276.351     1000 
 2756000   0.61304711   -2.1175413    0.9186511   -1.1988902   0.11307929    11378.626     1000 
 2758000   0.61697784   -2.1183587   0.92454129   -1.1938174   0.13532298    11080.526     1000 
 2760000   0.62124008   -2.1253492   0.93092826   -1.1944209   0.14417766     11200.61     1000 
 2762000   0.64532198   -2.1255504   0.96701499   -1.1585354   0.12539871    11513.781     1000 
 2764000   0.61180788   -2.1563147   0.91679412   -1.2395206   0.12046436     11430.63     1000 
 2766000   0.62273588   -2.1228309   0.93316971   -1.1896612   0.12907049    11405.043     1000 
 2768000   0.63642491   -2.1522464   0.95368273   -1.1985636   0.12009141    11471.306     1000 
 2770000   0.64538027   -2.1059609   0.96710233   -1.1388586   0.12487183    11435.635     1000 
 2772000   0.60091032   -2.1388336   0.90046412   -1.2383695   0.11743831    11392.918     1000 
 2774000   0.62117168   -2.1194725   0.93082576   -1.1886467   0.14938839    11163.416     1000 
 2776000   0.62988819   -2.0897151   0.94388746   -1.1458276   0.11229722    11576.591     1000 
 2778000   0.61917767   -2.1074414   0.92783774   -1.1796037   0.12951729    11289.039     1000 
 2780000   0.63396918   -2.1514293   0.95000282   -1.2014265   0.13230407     11135.69     1000 
 2782000   0.62608855   -2.1030914   0.93819369   -1.1648977   0.10690978    11498.823     1000 
 2784000   0.61401857   -2.0858851   0.92010682   -1.1657783   0.12465838    11272.916     1000 
 2786000   0.59745981   -2.0862644   0.89529353   -1.1909709    0.1465172    11184.701     1000 
 2788000    0.5919304   -2.1138118    0.8870077    -1.226804   0.12611506    11258.913     1000 
 2790000   0.62262887   -2.1311569   0.93300936   -1.1981475   0.13595395    11172.888     1000 
 2792000   0.62261697   -2.1397767   0.93299153   -1.2067852     0.127964     11354.16     1000 
 2794000   0.61400602   -2.0728013   0.92008802   -1.1527132    0.1289664     11287.28     1000 
 2796000   0.62448455   -2.1496745    0.9357901   -1.2138844   0.12525183    11328.681     1000 
 2798000   0.62699173   -2.1354027    0.9395471   -1.1958555   0.12195801      11211.9     1000 
 2800000   0.61576376   -2.1264536     0.922722   -1.2037316   0.13258471    11213.368     1000 
 2802000   0.60962853   -2.0761675   0.91352835   -1.1626392   0.13066244    11212.639     1000 
 2804000   0.61449063    -2.101746   0.92081421   -1.1809318   0.13343504    11217.018     1000 
 2806000      0.62278   -2.1202121   0.93323583   -1.1869762   0.12524086    11395.665     1000 
 2808000   0.59719348    -2.115917   0.89489443   -1.2210225   0.13300606     11253.42     1000 
 2810000   0.61644432   -2.1655469   0.92374181   -1.2418051   0.14684136    11093.884     1000 
 2812000   0.60395243   -2.1234812   0.90502271   -1.2184585   0.14325144    11218.862     1000 
 2814000   0.61953897   -2.1003414   0.92837914   -1.1719622   0.13635385    11224.712     1000 
 2816000   0.60594362   -2.1104093   0.90800651   -1.2024027   0.13884931    11192.173     1000 
 2818000   0.63237715   -2.0964958   0.94761716   -1.1488786   0.12716676    11455.853     1000 
 2820000   0.60553987   -2.1391882    0.9074015   -1.2317867   0.12081309    11400.047     1000 
 2822000   0.58568225   -2.1144573   0.87764485   -1.2368125   0.13036141    11357.797     1000 
 2824000    0.6147013   -2.1049175   0.92112989   -1.1837876   0.11790514     11458.03     1000 
 2826000   0.62058511   -2.1104953   0.92994679   -1.1805485   0.11713144    11463.577     1000 
 2828000   0.59818818   -2.0445062   0.89638499   -1.1481212   0.14454282    11052.072     1000 
 2830000   0.63111286   -2.1889775   0.94572262   -1.2432549   0.13109467    11399.473     1000 
 2832000    0.6171724   -2.0957792   0.92483284   -1.1709464   0.12094294    11314.121     1000 
 2834000   0.62474606   -2.1229651   0.93618197   -1.1867831   0.14381285    11206.521     1000 
 2836000   0.60976556   -2.1411149    0.9137337   -1.2273812    0.1343197    11132.226     1000 
 2838000   0.63401019   -2.2099677   0.95006428   -1.2599035   0.12731933    11444.425     1000 
 2840000    0.6221632   -2.1183508   0.93231156   -1.1860392    0.1369957     11282.08     1000 
 2842000   0.64257956   -2.1158602   0.96290548   -1.1529548   0.13320609    11264.146     1000 
 2844000   0.60758788   -2.1647126   0.91047043   -1.2542422   0.12637939    11573.539     1000 
 2846000   0.62925455   -2.1000356   0.94293795   -1.1570976   0.13496165     11107.74     1000 
 2848000   0.63265657   -2.1157233   0.94803587   -1.1676874   0.13325677    11207.012     1000 
 2850000   0.63409884   -2.1380144   0.95019712   -1.1878173   0.12905166    11353.911     1000 
 2852000    0.6177859   -2.1447264   0.92575218   -1.2189742   0.11315629    11507.359     1000 
 2854000   0.61867795   -2.1310555   0.92708891   -1.2039666    0.1274566    11456.096     1000 
 2856000   0.62730445   -2.1513161   0.94001572   -1.2113004   0.11330309    11499.643     1000 
 2858000   0.61841649   -2.0742931    0.9266971    -1.147596   0.13448084    11359.742     1000 
 2860000   0.58498083   -2.1052074   0.87659377   -1.2286137   0.12824041    11358.767     1000 
 2862000   0.64154815   -2.1261459    0.9613599    -1.164786   0.12431285    11206.403     1000 
 2864000   0.64443868   -2.1803711   0.96569136   -1.2146798   0.13637425    11321.669     1000 
 2866000   0.62470866   -2.2036672   0.93612593   -1.2675413   0.13065229    11445.865     1000 
 2868000   0.61261648   -2.1086228   0.91800579    -1.190617    0.1309189    11366.755     1000 
 2870000   0.64488703   -2.1299366   0.96636322   -1.1635734   0.12939982    11406.613     1000 
 2872000   0.63310428   -2.1446639   0.94870677   -1.1959571   0.12864849    11489.688     1000 
 2874000   0.59277782   -2.0493391   0.88827757   -1.1610615   0.14046326    11160.055     1000 
 2876000   0.61761792   -2.1208097   0.92550046   -1.1953092    0.1437139      11202.2     1000 
 2878000   0.59972682   -2.1059808   0.89869064   -1.2072902   0.14177677    11128.655     1000 
 2880000   0.62523976    -2.100868   0.93692178   -1.1639463   0.13679774    11208.084     1000 
 2882000   0.63210858   -2.1350113    0.9472147   -1.1877966   0.12405113    11443.032     1000 
 2884000   0.60391526    -2.166606   0.90496702    -1.261639   0.12533413    11294.034     1000 
 2886000   0.62897239   -2.1244613   0.94251513   -1.1819462   0.14690604    11188.616     1000 
 2888000   0.61223938   -2.1190967   0.91744071    -1.201656   0.12881139    11430.145     1000 
 2890000   0.58640464   -2.1034961   0.87872735   -1.2247687   0.14203134    11114.148     1000 
 2892000   0.63931272    -2.031508   0.95801011   -1.0734979   0.13339119     11102.96     1000 
 2894000   0.61278105    -2.110724   0.91825241   -1.1924716   0.10894889     11453.14     1000 
 2896000   0.60930248   -2.1164516   0.91303976   -1.2034118   0.12920597    11223.879     1000 
 2898000   0.60804812   -2.1310854    0.9111601   -1.2199253    0.1377452    11145.701     1000 
 2900000    0.6102206   -2.1871258   0.91441557   -1.2727103   0.12294644    11347.981     1000 
 2902000   0.62612066   -2.0757172   0.93824181   -1.1374754   0.13934774    11146.729     1000 
 2904000   0.62003475   -2.1384959   0.92912207   -1.2093738   0.11192162    11408.263     1000 
 2906000   0.62066053   -2.1697383    0.9300598   -1.2396785   0.13791116    11292.252     1000 
 2908000   0.60826507   -2.0687046   0.91148521   -1.1572194   0.13937025    11161.082     1000 
 2910000   0.64109238   -2.1358976   0.96067692   -1.1752207   0.13013358    11383.308     1000 
 2912000   0.56614905   -2.1127725   0.84837436   -1.2643981   0.14109456    11151.996     1000 
 2914000   0.62610683   -2.1597713   0.93822109   -1.2215502    0.1178498    11435.177     1000 
 2916000   0.62558156   -2.1245337   0.93743396   -1.1870998   0.14079944    11283.352     1000 
 2918000   0.65348175   -2.0742649   0.97924241   -1.0950225   0.13227639    11154.089     1000 
 2920000    0.5993126   -2.0783865   0.89806993   -1.1803166   0.12562045    11182.313     1000 
 2922000   0.61011834   -2.1705948   0.91426233   -1.2563325   0.13054152    11360.965     1000 
 2924000   0.63740595   -2.1736435   0.95515281   -1.2184907   0.13620453    11225.657     1000 
 2926000   0.61824107   -2.1210934   0.92643424   -1.1946592   0.13674613    11225.192     1000 
 2928000   0.66742647   -2.1112801    1.0001386   -1.1111415   0.13604363    11280.863     1000 
 2930000   0.63251419   -2.1239208   0.94782252   -1.1760983   0.13285987    11344.922     1000 
 2932000   0.64003589   -2.1037581   0.95909378   -1.1446643   0.13100147    11284.757     1000 
 2934000   0.63564542   -2.1235931   0.95251466   -1.1710784   0.12538522    11305.565     1000 
 2936000   0.59598713   -2.1600538   0.89308671   -1.2669671   0.11903053    11485.544     1000 
 2938000   0.62192313   -2.0757556   0.93195181   -1.1438038   0.12747656    11200.997     1000 
 2940000   0.60737063   -2.1677322   0.91014489   -1.2575874   0.11523279    11506.162     1000 
 2942000   0.62029694   -2.1447241   0.92951497   -1.2152091   0.12384517    11461.573     1000 
 2944000   0.63918381   -2.1495762   0.95781694   -1.1917592   0.13186706    11339.356     1000 
 2946000   0.61434036   -2.1165784   0.92058902   -1.1959893   0.12818172    11279.099     1000 
 2948000   0.63134946   -2.1200993   0.94607717   -1.1740221   0.12815434    11410.434     1000 
 2950000    0.6224627   -2.0927326   0.93276036   -1.1599722    0.1246105    11393.802     1000 
 2952000   0.63258761   -2.1608021   0.94793254   -1.2128696   0.11714487    11393.596     1000 
 2954000   0.59177798   -2.0951827   0.88677931   -1.2084033   0.14496382     11084.33     1000 
 2956000   0.62845281   -2.1280451   0.94173653   -1.1863085   0.13460902    11244.006     1000 
 2958000   0.65085049   -2.1234034   0.97529946    -1.148104   0.13539498    11279.274     1000 
 2960000   0.62132782    -2.119893   0.93105973   -1.1888332   0.13490302    11433.057     1000 
 2962000   0.59800648    -2.158525    0.8961127   -1.2624123   0.13096077    11474.941     1000 
 2964000    0.6068068   -2.1627396   0.90929999   -1.2534396   0.13061289    11268.691     1000 
 2966000   0.62218489   -2.1458786   0.93234406   -1.2135345   0.12456438     11311.32     1000 
 2968000   0.61053715    -2.132357   0.91488992   -1.2174671   0.11562488     11419.83     1000 
 2970000   0.64611649   -2.1461536   0.96820556    -1.177948   0.13482985    11327.019     1000 
 2972000   0.63455765    -2.130598   0.95088464   -1.1797133   0.15213683    11251.336     1000 
 2974000   0.63428563   -2.1280616   0.95047702   -1.1775846   0.12858977    11247.977     1000 
 2976000   0.62608215   -2.1027379    0.9381841   -1.1645538   0.12303754    11363.707     1000 
 2978000   0.60342462   -2.1100829   0.90423179   -1.2058511   0.12858256    11306.791     1000 
 2980000   0.62352764    -2.099343   0.93435616   -1.1649869   0.12751286    11227.564     1000 
 2982000   0.63389882   -2.1448077   0.94989738   -1.1949103   0.14226787    11282.068     1000 
 2984000   0.61629881   -2.1728836   0.92352376   -1.2493599   0.12335924    11353.705     1000 
 2986000    0.6329564    -2.129545   0.94848517   -1.1810598   0.11837518    11291.127     1000 
 2988000   0.61315431   -2.0804725   0.91881173   -1.1616608   0.14114048    11044.422     1000 
 2990000   0.60412287   -2.1451411   0.90527812    -1.239863   0.13879469    11111.582     1000 
 2992000   0.64392518   -2.1562857   0.96492188   -1.1913638   0.13959013    11303.579     1000 
 2994000   0.59302516   -2.1359932    0.8886482    -1.247345   0.12173984    11296.098     1000 
 2996000   0.62309408   -2.1481362   0.93370648   -1.2144297   0.13294449     11242.92     1000 
 2998000   0.63987065   -2.1033398   0.95884616   -1.1444936   0.12951946    11084.528     1000 
 3000000   0.56465562   -2.1211679   0.84613645   -1.2750315   0.13114133    11243.922     1000 
Loop time of 1498.9 on 4 procs for 3000000 steps with 1000 atoms

Performance: 864635.960 tau/day, 2001.472 timesteps/s
95.0% CPU use with 4 MPI tasks x 1 OpenMP threads

MPI task timing breakdown:
Section |  min time  |  avg time  |  max time  |%varavg| %total
---------------------------------------------------------------
Pair    | 510.39     | 511.28     | 512.18     |   3.4 | 34.11
Neigh   | 61.429     | 61.556     | 61.681     |   1.2 |  4.11
Comm    | 118        | 118.84     | 119.76     |   6.4 |  7.93
Output  | 0.033585   | 3.7227     | 4.9542     | 110.4 |  0.25
Modify  | 797.1      | 798.37     | 801.87     |   7.2 | 53.26
Other   |            | 5.133      |            |       |  0.34

Nlocal:        250.000 ave         256 max         245 min
Histogram: 2 0 0 0 0 0 0 1 0 1
Nghost:        1718.25 ave        1736 max        1701 min
Histogram: 1 0 1 0 0 0 0 1 0 1
Neighs:        14557.0 ave       15038 max       14130 min
Histogram: 2 0 0 0 0 0 0 0 1 1

Total # of neighbors = 58228
Ave neighs/atom = 58.228000
Neighbor list builds = 150000
Dangerous builds not checked

Total wall time: 0:24:58
