LAMMPS (29 Sep 2021 - Update 2)
OMP_NUM_THREADS environment is not set. Defaulting to 1 thread. (src/comm.cpp:98)
  using 1 OpenMP thread(s) per MPI task
# ----------------------- Inicialização -----------------------

units			lj
atom_style 		atomic
dimension 		3
boundary 		p p p

# -------------------- Criação dos Átomos ---------------------

read_data 		topologia.txt
Reading data file ...
  orthogonal box = (0.0000000 0.0000000 0.0000000) to (21.540000 21.540000 21.540000)
  1 by 2 by 2 MPI processor grid
  reading atoms ...
  1000 atoms
  read_data CPU = 0.020 seconds

velocity 		all create ${temp} 87287 rot yes dist gaussian
velocity 		all create 0.55 87287 rot yes dist gaussian

# ------------------ Interação Interatômica -------------------

pair_style		table linear 1300
pair_coeff		1 1 force.table AA 6.5
WARNING: 2 of 1300 force values in table AA are inconsistent with -dE/dr.
WARNING:  Should only be flagged at inflection points (src/pair_table.cpp:465)
pair_coeff		1 2 force.table AB 6.5
WARNING: 1 of 1300 force values in table AB are inconsistent with -dE/dr.
WARNING:  Should only be flagged at inflection points (src/pair_table.cpp:465)
pair_coeff		2 2 force.table BB 6.5
pair_write		1 1 1600 r 0.008 6.5 table.check AA
Appending to table file table.check with DATE: 2023-08-12
Neighbor list info ...
  update every 1 steps, delay 10 steps, check yes
  max neighbors/atom: 2000, page size: 100000
  master list distance cutoff = 6.8
  ghost atom cutoff = 6.8
  binsize = 3.4, bins = 7 7 7
  1 neighbor lists, perpetual/occasional/extra = 1 0 0
  (1) pair table, perpetual
      attributes: half, newton on
      pair build: half/bin/atomonly/newton
      stencil: half/bin/3d
      bin: standard
pair_write		1 2 1600 r 0.008 6.5 table.check AB
Appending to table file table.check with DATE: 2023-08-12
pair_write		2 2 1600 r 0.008 6.5 table.check BB
Appending to table file table.check with DATE: 2023-08-12

neighbor 		0.3 bin
neigh_modify	every 20 delay 0 check no

# ------------------------- Ensemble --------------------------------------

fix 1			all npt temp ${temp} ${temp} 0.5 iso ${press} ${press} 5
fix 1			all npt temp 0.55 ${temp} 0.5 iso ${press} ${press} 5
fix 1			all npt temp 0.55 0.55 0.5 iso ${press} ${press} 5
fix 1			all npt temp 0.55 0.55 0.5 iso 0.13 ${press} 5
fix 1			all npt temp 0.55 0.55 0.5 iso 0.13 0.13 5

# ---------------------- Função de Distribuição Radial -----------------------

compute RDF 	all rdf 2000 1 1 1 2 2 2
fix 2 			all ave/time 1 2000 2000 c_RDF[*] file rdf.data mode vector

# ------------------------- Execução ---------------------------

timestep 		0.005
thermo_style	custom step temp pe ke etotal press vol atoms
thermo			2000
run				3000000
Neighbor list info ...
  update every 20 steps, delay 0 steps, check no
  max neighbors/atom: 2000, page size: 100000
  master list distance cutoff = 6.8
  ghost atom cutoff = 6.8
  binsize = 3.4, bins = 7 7 7
  2 neighbor lists, perpetual/occasional/extra = 1 1 0
  (1) pair table, perpetual
      attributes: half, newton on
      pair build: half/bin/atomonly/newton
      stencil: half/bin/3d
      bin: standard
  (2) compute rdf, occasional, copy from (1)
      attributes: half, newton on
      pair build: copy
      stencil: none
      bin: none
Per MPI rank memory allocation (min/avg/max) = 2.675 | 2.675 | 2.675 Mbytes
Step Temp PotEng KinEng TotEng Press Volume Atoms 
       0         0.55   0.90118648     0.824175    1.7253615    1.3013415    9993.9483     1000 
    2000   0.54899593   -2.2656166    0.8226704   -1.4429462   0.11984937    11372.469     1000 
    4000   0.53148299   -2.3155004   0.79642727   -1.5190731   0.11784062    11468.913     1000 
    6000   0.55440839   -2.3287758   0.83078098   -1.4979948   0.13084219     11355.21     1000 
    8000   0.55916063   -2.2431729    0.8379022   -1.4052707    0.1488982    11084.983     1000 
   10000   0.56260744   -2.2699992   0.84306724   -1.4269319   0.12132346    11299.845     1000 
   12000   0.55568519   -2.3152916   0.83269426   -1.4825973    0.1296436    11244.714     1000 
   14000   0.52954813   -2.3069509   0.79352788    -1.513423    0.1207787    11223.283     1000 
   16000   0.52909234   -2.2746554   0.79284488   -1.4818105   0.12658962    11202.495     1000 
   18000    0.5486542   -2.2996705   0.82215831   -1.4775122   0.12431844    11241.274     1000 
   20000   0.54272818   -2.3169474   0.81327818   -1.5036693   0.11267451    11381.419     1000 
   22000   0.56039487   -2.2735551   0.83975171   -1.4338034   0.12770764    11245.703     1000 
   24000   0.55577557   -2.2952514   0.83282968   -1.4624217   0.13255606    11221.057     1000 
   26000   0.57151176   -2.3179136   0.85641038   -1.4615033   0.12469375    11262.899     1000 
   28000    0.5384484   -2.2600883   0.80686493   -1.4532233   0.11199999    11120.955     1000 
   30000   0.53035399   -2.3028241   0.79473545   -1.5080887   0.12780164    11263.071     1000 
   32000   0.55972378   -2.2964882   0.83874608   -1.4577422   0.11833794    11237.353     1000 
   34000   0.55193575   -2.3178833   0.82707572   -1.4908076   0.12231788    11297.338     1000 
   36000   0.56264223    -2.205811   0.84311938   -1.3626916   0.13738608    11018.118     1000 
   38000   0.55185982   -2.3153607   0.82696194   -1.4883987   0.12893974    11360.641     1000 
   40000   0.54557139   -2.2881264   0.81753873   -1.4705877   0.13063087    11177.809     1000 
   42000   0.52913248   -2.2813894   0.79290502   -1.4884844   0.12458359    11138.147     1000 
   44000   0.53484118   -2.2569228   0.80145951   -1.4554633   0.13118567    11233.115     1000 
   46000    0.5957338   -2.2899782    0.8927071   -1.3972711    0.1365419    11221.395     1000 
   48000   0.55356733   -2.2897794   0.82952064   -1.4602588   0.13516369      11193.1     1000 
   50000   0.52991328   -2.3087178   0.79407504   -1.5146428   0.12208296    11070.213     1000 
   52000   0.56459377   -2.2833539   0.84604377   -1.4373101   0.11315402    11332.241     1000 
   54000   0.54128519   -2.2810116   0.81111585   -1.4698958   0.13266278    11139.243     1000 
   56000   0.53332148   -2.2343134   0.79918224   -1.4351312   0.11669459    11208.542     1000 
   58000   0.56654507   -2.2728558   0.84896778    -1.423888   0.12678152    11287.084     1000 
   60000   0.54811947   -2.2977843   0.82135702   -1.4764273   0.13011586    11239.096     1000 
   62000   0.57841727   -2.2903735   0.86675828   -1.4236153   0.12463343    11262.998     1000 
   64000   0.57441687   -2.2820223   0.86076368   -1.4212586   0.13089985    11279.564     1000 
   66000   0.52735114   -2.2687764   0.79023568   -1.4785407   0.12936369    11286.759     1000 
   68000   0.53712209   -2.2853909   0.80487745   -1.4805135   0.14538482    11042.834     1000 
   70000   0.54701123    -2.262823   0.81969633   -1.4431266   0.13801101    11142.644     1000 
   72000   0.56565007   -2.2939555   0.84762663   -1.4463289   0.12647315    11231.203     1000 
   74000   0.56217699   -2.3043591   0.84242222   -1.4619369   0.13509087    11165.294     1000 
   76000    0.5393128   -2.2683653   0.80816023   -1.4602051   0.12349678     11306.84     1000 
   78000   0.54566955   -2.2664789   0.81768582   -1.4487931   0.14448567     11081.67     1000 
   80000    0.5856913    -2.273842   0.87765842   -1.3961835   0.12334872    11409.684     1000 
   82000   0.56404338   -2.2939819     0.845219   -1.4487629   0.13271046    11312.663     1000 
   84000   0.54369822   -2.2456566   0.81473178   -1.4309248   0.11920942    11378.172     1000 
   86000   0.55574347    -2.282824   0.83278159   -1.4500424   0.15398366    11120.122     1000 
   88000   0.55694374   -2.2207436   0.83458019   -1.3861634   0.13388212    11091.735     1000 
   90000    0.5647095   -2.2430505   0.84621719   -1.3968333   0.13460936    11172.401     1000 
   92000   0.56268606    -2.260383   0.84318506    -1.417198   0.12891572    11123.802     1000 
   94000   0.54683119   -2.2559644   0.81942654   -1.4365379   0.12680814    11333.003     1000 
   96000   0.54780642   -2.2452161   0.82088792   -1.4243281   0.14128393    11240.542     1000 
   98000   0.55370739   -2.2682191   0.82973052   -1.4384886   0.13793928    11189.466     1000 
  100000   0.55513907   -2.2954273   0.83187589   -1.4635514   0.12835317    11229.062     1000 
  102000   0.55159539   -2.3021088   0.82656569   -1.4755431   0.13045304    11241.815     1000 
  104000   0.56479513   -2.2107044    0.8463455   -1.3643589   0.13970653    11322.963     1000 
  106000   0.53666712   -2.2743069   0.80419568   -1.4701112    0.1208374    11188.801     1000 
  108000   0.54255532   -2.3047916   0.81301915   -1.4917724   0.11301673    11364.465     1000 
  110000   0.54005983   -2.2907557   0.80927966    -1.481476   0.12163548    11409.784     1000 
  112000    0.5573806   -2.3000763   0.83523483   -1.4648414   0.12679518    11393.172     1000 
  114000   0.55781904   -2.2759935   0.83589183   -1.4401016   0.13264419    11246.576     1000 
  116000   0.53412555   -2.2679417   0.80038714   -1.4675545   0.13254683    11154.743     1000 
  118000   0.54402518   -2.2411612   0.81522174   -1.4259395   0.13903608    11119.593     1000 
  120000   0.56576945   -2.2072495   0.84780552   -1.3594439   0.14933462    11049.766     1000 
  122000   0.53955128    -2.310486   0.80851759   -1.5019684   0.11971638    11248.471     1000 
  124000   0.55849692   -2.2944377   0.83690763   -1.4575301   0.13299204    11266.898     1000 
  126000   0.54977559   -2.2986294   0.82383872   -1.4747907   0.12850854    11268.909     1000 
  128000     0.558298   -2.2961728   0.83660955   -1.4595632   0.12722498    11192.431     1000 
  130000   0.52864941    -2.285612   0.79218115   -1.4934309   0.11859298    11227.355     1000 
  132000   0.57994899   -2.2715797   0.86905356   -1.4025262   0.11313713    11215.092     1000 
  134000   0.55743971   -2.2868778    0.8353234   -1.4515544    0.1364427    11167.281     1000 
  136000    0.5615858   -2.2132935   0.84153632   -1.3717571   0.13036799    11249.256     1000 
  138000   0.55216226    -2.219278   0.82741515   -1.3918628    0.1353123    11154.079     1000 
  140000   0.56585713   -2.2998797   0.84793692   -1.4519428   0.13555637    11236.205     1000 
  142000   0.54681746   -2.2982624   0.81940597   -1.4788565   0.11366886    11357.279     1000 
  144000   0.55343957   -2.2378216   0.82932919   -1.4084924   0.13154425    11261.771     1000 
  146000   0.54198344   -2.2692885   0.81216218   -1.4571263   0.13941878    11115.178     1000 
  148000   0.53025967   -2.2663169   0.79459411   -1.4717228   0.12819521    11204.903     1000 
  150000   0.57055247   -2.2830171   0.85497288   -1.4280442   0.12402855    11269.134     1000 
  152000   0.54094766   -2.3274575   0.81061007   -1.5168474   0.13040608    11173.576     1000 
  154000   0.53599394   -2.3157862   0.80318692   -1.5125993   0.14427616    10994.249     1000 
  156000     0.535677   -2.3445835   0.80271199   -1.5418715   0.12736605    11250.783     1000 
  158000   0.54273922   -2.2488417   0.81329473    -1.435547   0.12407291    11175.631     1000 
  160000   0.56477097   -2.2489482    0.8463093   -1.4026389   0.12213562    11211.571     1000 
  162000   0.53247013    -2.288665   0.79790649   -1.4907585   0.13129136    11210.863     1000 
  164000   0.54409831    -2.288515   0.81533131   -1.4731836   0.11733898    11246.423     1000 
  166000    0.5462914     -2.29724   0.81861767   -1.4786224   0.13069527    11139.413     1000 
  168000   0.53532203    -2.303661   0.80218007   -1.5014809   0.13003183    11284.976     1000 
  170000   0.54387747   -2.2808769   0.81500038   -1.4658766   0.13227184     11249.51     1000 
  172000   0.53379082   -2.2913508   0.79988555   -1.4914653    0.1359902    11296.858     1000 
  174000   0.56274308    -2.286157   0.84327051   -1.4428865   0.12053938    11250.361     1000 
  176000   0.54722841   -2.3099142   0.82002177   -1.4898924    0.1279106    11189.795     1000 
  178000   0.55847017   -2.2853866   0.83686754    -1.448519   0.14041989     11066.27     1000 
  180000    0.5496942   -2.2215222   0.82371676   -1.3978055    0.1452902    10958.596     1000 
  182000     0.558366   -2.2368132   0.83671146   -1.4001018   0.12904125    11233.666     1000 
  184000   0.55291541   -2.2958099   0.82854374   -1.4672662   0.12673648    11262.546     1000 
  186000   0.59018133   -2.2742802   0.88438672   -1.3898935   0.13024676     11169.56     1000 
  188000   0.54225416   -2.2503614   0.81256786   -1.4377935   0.12788855     11198.19     1000 
  190000   0.53680633    -2.277581   0.80440429   -1.4731767   0.11990204    11100.436     1000 
  192000   0.54649802   -2.3034515   0.81892728   -1.4845242   0.12517984    11329.868     1000 
  194000   0.53118341   -2.3003436   0.79597834   -1.5043652   0.11597702    11184.599     1000 
  196000   0.54218089   -2.2825566   0.81245806   -1.4700985   0.12429782    11176.442     1000 
  198000   0.55128701   -2.2645143   0.82610358   -1.4384107   0.14495029    11024.233     1000 
  200000    0.5587616    -2.279709   0.83730425   -1.4424047   0.13124566    11268.872     1000 
  202000   0.55369682   -2.2857454   0.82971468   -1.4560308   0.13468523    11165.893     1000 
  204000   0.55568717   -2.2865675   0.83269723   -1.4538703   0.12003314    11204.271     1000 
  206000   0.55744576     -2.28275   0.83533247   -1.4474175   0.11648639    11303.631     1000 
  208000   0.54749687   -2.2690831   0.82042406    -1.448659   0.12878709    11250.458     1000 
  210000   0.53880382   -2.3241734   0.80739753   -1.5167759   0.12830923    11333.677     1000 
  212000     0.567463   -2.3184612    0.8503433   -1.4681179   0.12516172    11250.738     1000 
  214000   0.55090881   -2.2792565   0.82553685   -1.4537197   0.12692144    11242.461     1000 
  216000   0.56568789   -2.3192133    0.8476833     -1.47153    0.1274585      11416.5     1000 
  218000   0.54837586   -2.3121027   0.82174123   -1.4903614   0.12032112    11362.637     1000 
  220000   0.53460662   -2.2650395   0.80110802   -1.4639315    0.1345768    11144.714     1000 
  222000   0.54678508   -2.2432232   0.81935744   -1.4238658   0.12350109    11256.801     1000 
  224000   0.57608108   -2.3051943    0.8632575   -1.4419368   0.12270149    11310.409     1000 
  226000   0.54831703   -2.2704964   0.82165307   -1.4488433   0.14286945    11137.242     1000 
  228000   0.54363341   -2.2973802   0.81463466   -1.4827456   0.12590477    11231.498     1000 
  230000   0.54863389   -2.2119748   0.82212789   -1.3898469   0.14507655     10983.51     1000 
  232000   0.55924061   -2.2643444   0.83802205   -1.4263223   0.12794314    11264.388     1000 
  234000   0.57853466   -2.3311436   0.86693419   -1.4642094   0.12021654    11415.141     1000 
  236000   0.53779807     -2.20098   0.80589041   -1.3950896   0.11818838    11184.837     1000 
  238000   0.54144584   -2.2803762   0.81135658   -1.4690196   0.13415731     11154.09     1000 
  240000   0.53875727   -2.2794892   0.80732777   -1.4721615   0.12507694    11483.945     1000 
  242000    0.5528973   -2.2299534   0.82851661   -1.4014368   0.14773993    10979.937     1000 
  244000   0.56144121   -2.2911571   0.84131965   -1.4498374   0.13085891    11194.009     1000 
  246000   0.55349029    -2.290705    0.8294052   -1.4612998   0.12985751    11195.884     1000 
  248000   0.53158959   -2.3169827     0.796587   -1.5203957   0.12000748    11424.353     1000 
  250000   0.56210277   -2.2800431     0.842311   -1.4377321    0.1310572    11161.389     1000 
  252000   0.54484595   -2.2875791   0.81645166   -1.4711275    0.1249243    11168.699     1000 
  254000   0.55101215   -2.2600363   0.82569171   -1.4343445   0.14216157    11124.381     1000 
  256000   0.54168963   -2.3131241    0.8117219   -1.5014022    0.1189241    11401.527     1000 
  258000   0.56105135    -2.277816   0.84073545   -1.4370806   0.12061564    11211.751     1000 
  260000   0.54641426    -2.347673   0.81880178   -1.5288712   0.13750058    11367.239     1000 
  262000   0.56842945   -2.2952429   0.85179153   -1.4434513   0.13017478    11179.887     1000 
  264000   0.54414652   -2.3205682   0.81540357   -1.5051646    0.1440984    11182.222     1000 
  266000   0.54465918   -2.2744868   0.81617178    -1.458315   0.12586886    11164.775     1000 
  268000   0.57138989    -2.249352   0.85622775   -1.3931243    0.1526668    11007.613     1000 
  270000   0.56117695   -2.3148588   0.84092366   -1.4739352   0.13156265    11309.162     1000 
  272000   0.54208729   -2.2476421    0.8123178   -1.4353243   0.14066325    10973.947     1000 
  274000   0.53879598   -2.2586103   0.80738578   -1.4512245   0.13454747    11210.594     1000 
  276000   0.55979105   -2.3032869   0.83884689     -1.46444   0.13915047    11322.018     1000 
  278000   0.53463113   -2.2917734   0.80114475   -1.4906287   0.11960592    11452.345     1000 
  280000    0.5684114   -2.2562567   0.85176448   -1.4044922   0.13267265    11142.634     1000 
  282000   0.54812187   -2.2790725   0.82136062   -1.4577119   0.12714116    11167.363     1000 
  284000   0.55853254   -2.2799323     0.836961   -1.4429713   0.14193767    11165.942     1000 
  286000   0.52923374   -2.2904613   0.79305676   -1.4974045     0.128697    11104.442     1000 
  288000   0.56296768   -2.2792667   0.84360707   -1.4356596   0.12277308    11245.362     1000 
  290000   0.55011294   -2.2467699   0.82434423   -1.4224257   0.13755544    11172.427     1000 
  292000   0.53317591   -2.2900292    0.7989641   -1.4910651   0.11928057    11289.951     1000 
  294000   0.54984192   -2.3387466   0.82393812   -1.5148085   0.12522688    11313.374     1000 
  296000    0.5168765   -2.2186245   0.77453944    -1.444085   0.12785301    11066.183     1000 
  298000     0.554753   -2.2704867   0.83129737   -1.4391894   0.12653716    11008.883     1000 
  300000   0.53186514   -2.2749857   0.79699992   -1.4779858   0.10651041    11394.727     1000 
  302000   0.52476559   -2.2276414   0.78636123   -1.4412801   0.13856367    11091.254     1000 
  304000   0.53360196    -2.243321   0.79960253   -1.4437184   0.12728317    11062.035     1000 
  306000   0.55189143   -2.3068886    0.8270093   -1.4798793   0.13772526    11124.382     1000 
  308000   0.55194072   -2.2864707   0.82708317   -1.4593876   0.12439743     11203.07     1000 
  310000   0.56102276   -2.2628466    0.8406926    -1.422154   0.13511065    11179.515     1000 
  312000   0.55729811   -2.2935494   0.83511122   -1.4584382   0.13168844    11334.461     1000 
  314000   0.55289622   -2.2839062   0.82851499   -1.4553912   0.14271428    11090.138     1000 
  316000   0.54083536   -2.2104852   0.81044178   -1.4000434   0.12447016    11222.193     1000 
  318000   0.55551547    -2.267774   0.83243993   -1.4353341    0.1346181    11166.804     1000 
  320000   0.55807448   -2.2764482   0.83627461   -1.4401736   0.12397203    11047.052     1000 
  322000    0.5572419   -2.3120497   0.83502699   -1.4770227   0.12946525    11179.706     1000 
  324000   0.56555382   -2.2390872   0.84748241   -1.3916048   0.13229077    11289.855     1000 
  326000   0.56617646   -2.2902364   0.84841543   -1.4418209   0.13511323    11188.165     1000 
  328000   0.56363938   -2.2625839   0.84461361   -1.4179703   0.13571075    11269.903     1000 
  330000   0.55686692   -2.2782375   0.83446507   -1.4437724   0.12078791    11321.496     1000 
  332000   0.55562783   -2.2406914    0.8326083   -1.4080831   0.13471892    11108.934     1000 
  334000   0.54071179   -2.2857825   0.81025662   -1.4755258    0.1192865    11222.753     1000 
  336000    0.5484444   -2.2871469   0.82184394    -1.465303   0.12498496    11161.887     1000 
  338000   0.55588236   -2.2653881   0.83298971   -1.4323984   0.12759712     11086.83     1000 
  340000   0.53368591   -2.2303719   0.79972834   -1.4306436    0.1195581    11243.868     1000 
  342000   0.57209144   -2.2997476   0.85727903   -1.4424686   0.13033217    11238.706     1000 
  344000   0.55598526   -2.3318471   0.83314392   -1.4987032   0.12319784    11402.583     1000 
  346000   0.55305171   -2.2294818   0.82874799   -1.4007338   0.14404517    11082.037     1000 
  348000   0.56488523    -2.275692   0.84648052   -1.4292115   0.13053144    11226.612     1000 
  350000   0.55095215   -2.2632555   0.82560179   -1.4376537   0.12343069    11294.713     1000 
  352000   0.56763408   -2.3290159   0.85059967   -1.4784163   0.12607825    11404.622     1000 
  354000   0.53518532   -2.2589034    0.8019752   -1.4569282   0.15036216    11174.736     1000 
  356000   0.55250554   -2.3169292   0.82792956   -1.4889997   0.13302721     11258.25     1000 
  358000   0.56133371   -2.2960235   0.84115856   -1.4548649   0.12873973    11264.609     1000 
  360000   0.53504236   -2.2903526   0.80176097   -1.4885916   0.13737106    11170.479     1000 
  362000   0.56434566   -2.2978337   0.84567197   -1.4521618   0.13229665    11303.207     1000 
  364000   0.53713264   -2.2208842   0.80489326   -1.4159909   0.13078758    11133.595     1000 
  366000   0.53372454   -2.2375867   0.79978622   -1.4378005   0.13015148    11296.807     1000 
  368000   0.52565171   -2.2479999   0.78768909   -1.4603108   0.12994177    11167.317     1000 
  370000   0.55023533   -2.2740157   0.82452764    -1.449488   0.12740688    11215.321     1000 
  372000   0.55916447    -2.287424   0.83790796    -1.449516    0.1326098    11390.036     1000 
  374000   0.53962338   -2.3108692   0.80862563   -1.5022436   0.11875445    11449.738     1000 
  376000   0.54459556   -2.2563626   0.81607645   -1.4402861   0.14161403    11043.008     1000 
  378000    0.5636798   -2.2844921   0.84467418   -1.4398179   0.12822664     11271.71     1000 
  380000   0.55510946   -2.2696848   0.83183152   -1.4378533   0.12458641    11180.814     1000 
  382000   0.56628421   -2.3360052   0.84857689   -1.4874283   0.13990055    11144.606     1000 
  384000   0.56530407   -2.2800729   0.84710814   -1.4329648   0.14301821    11131.503     1000 
  386000   0.52340681   -2.2597428   0.78432511   -1.4754177   0.14604467    11015.979     1000 
  388000   0.57010515   -2.3148647   0.85430256   -1.4605621   0.12723447     11290.28     1000 
  390000   0.54276983   -2.2333765   0.81334059   -1.4200359   0.12624416    11133.599     1000 
  392000   0.56268605   -2.2969228   0.84318504   -1.4537377   0.12938974    11314.126     1000 
  394000   0.53213064   -2.2817117   0.79739776    -1.484314   0.13490574    11215.721     1000 
  396000   0.53504299   -2.2845914   0.80176192   -1.4828294   0.12659402     11297.14     1000 
  398000   0.54945883   -2.2711609   0.82336405   -1.4477968   0.13347894    11083.621     1000 
  400000   0.54382428   -2.2950512   0.81492069   -1.4801305   0.12197277    11302.813     1000 
  402000    0.5533848   -2.2756229   0.82924712   -1.4463758   0.14004239    11152.569     1000 
  404000   0.57482317   -2.2563355   0.86137252    -1.394963   0.12632994    11229.945     1000 
  406000   0.55971132   -2.2866234   0.83872742    -1.447896   0.12431978    11356.202     1000 
  408000   0.53088575   -2.3066666    0.7955323   -1.5111343    0.1268416      11115.2     1000 
  410000   0.55838471   -2.2897384   0.83673949   -1.4529989   0.13807874    11112.355     1000 
  412000   0.57612576   -2.2828487   0.86332444   -1.4195243   0.13182166    11239.495     1000 
  414000   0.54726113   -2.2772709    0.8200708   -1.4572001   0.12417072    11323.745     1000 
  416000   0.55856258   -2.3251205   0.83700603   -1.4881145   0.13001214    11172.166     1000 
  418000   0.55613369   -2.2758793   0.83336633    -1.442513   0.12870611    11099.931     1000 
  420000   0.55579931   -2.2182467   0.83286527   -1.3853815   0.14551279    11039.492     1000 
  422000   0.53714691   -2.3058905   0.80491465   -1.5009758   0.12139505    11257.089     1000 
  424000   0.55645476   -2.3093354   0.83384746    -1.475488   0.12667678    11204.569     1000 
  426000   0.56444445   -2.2919826      0.84582   -1.4461626   0.13518075    11220.025     1000 
  428000   0.53692171   -2.2458042   0.80457718    -1.441227   0.11943935    11380.796     1000 
  430000    0.5337034   -2.2858991   0.79975455   -1.4861445   0.11687005    11350.319     1000 
  432000   0.54678117   -2.2391797   0.81935159   -1.4198281   0.12380678    11261.483     1000 
  434000   0.55826435   -2.2799203   0.83655912   -1.4433612   0.14384696    11032.611     1000 
  436000   0.57232382   -2.2811602   0.85762724   -1.4235329   0.12759229     11288.73     1000 
  438000   0.54747565    -2.231898   0.82039226   -1.4115058   0.13317126    11142.571     1000 
  440000   0.54822181   -2.2356255   0.82151039   -1.4141151   0.12001649    11267.596     1000 
  442000   0.54906823   -2.2283286   0.82277875   -1.4055498   0.12606117    11156.734     1000 
  444000   0.52701491   -2.2540399   0.78973184    -1.464308   0.13031512    11216.269     1000 
  446000   0.55315514   -2.2521456   0.82890297   -1.4232427   0.11706361    11484.814     1000 
  448000   0.56556097    -2.293716   0.84749311   -1.4462229   0.13245841    11163.854     1000 
  450000   0.59615952   -2.2787532   0.89334504   -1.3854082   0.11580145    11371.393     1000 
  452000   0.55047753   -2.3219164   0.82489058   -1.4970258   0.12120071    11327.383     1000 
  454000   0.55289686   -2.3071734   0.82851594   -1.4786575    0.1430388    11186.567     1000 
  456000   0.56306804   -2.2485212   0.84375746   -1.4047637   0.13218455    11282.272     1000 
  458000     0.552372   -2.3058354   0.82772945    -1.478106   0.11881036    11378.265     1000 
  460000   0.52091954   -2.2412576   0.78059793   -1.4606597   0.12059632    11238.357     1000 
  462000   0.54875649   -2.2732296    0.8223116    -1.450918   0.13996758    11111.529     1000 
  464000   0.56551774   -2.2593319   0.84742833   -1.4119036   0.13179216    11282.447     1000 
  466000   0.55316129   -2.2676339   0.82891219   -1.4387217   0.12039934    11281.668     1000 
  468000   0.54856297   -2.2905291   0.82202161   -1.4685075   0.12335516    11366.974     1000 
  470000   0.58674596   -2.2648528   0.87923882    -1.385614   0.12560099    11226.011     1000 
  472000   0.55203478   -2.2439609   0.82722412   -1.4167368   0.13069595    11314.271     1000 
  474000   0.53324422   -2.3068776   0.79906646   -1.5078111   0.13021846     11203.02     1000 
  476000   0.57969003   -2.2997381    0.8686655   -1.4310726   0.12023768    11388.307     1000 
  478000   0.57233438   -2.2657346   0.85764307   -1.4080915    0.1326412    11098.137     1000 
  480000   0.52981862   -2.2719731   0.79393321   -1.4780399   0.13635052    11211.452     1000 
  482000   0.57681773   -2.2458246   0.86436136   -1.3814633   0.13283411    11049.468     1000 
  484000   0.53463536   -2.2731159   0.80115109   -1.4719648   0.12957698    11296.127     1000 
  486000   0.55228262   -2.2583049    0.8275955   -1.4307094   0.12955175    11117.868     1000 
  488000   0.54062814   -2.2509492   0.81013127   -1.4408179   0.13498429    11123.723     1000 
  490000   0.55294394   -2.2733895   0.82858649    -1.444803   0.12990955    11082.674     1000 
  492000   0.54035635   -2.2896681   0.80972399   -1.4799441   0.12433512    11239.304     1000 
  494000   0.53253588   -2.2749034   0.79800502   -1.4768983   0.12805122    11260.803     1000 
  496000   0.54445783   -2.2507536   0.81587006   -1.4348835   0.11451998    11294.126     1000 
  498000   0.54594882   -2.2551603   0.81810431    -1.437056   0.12956777    11359.743     1000 
  500000   0.58865429   -2.2892912   0.88209846   -1.4071927   0.13664039    11202.079     1000 
  502000   0.54823434    -2.267507   0.82152916   -1.4459779   0.13289528    11366.702     1000 
  504000   0.54888977   -2.3042369   0.82251132   -1.4817256   0.11492499     11241.85     1000 
  506000   0.54636878   -2.3037459   0.81873361   -1.4850122   0.13267384    11199.757     1000 
  508000   0.54924329    -2.287232   0.82304107    -1.464191   0.13527155    11265.673     1000 
  510000   0.55396987   -2.2643931   0.83012385   -1.4342692   0.13171355    11034.615     1000 
  512000   0.56039229   -2.2731889   0.83974785   -1.4334411   0.12947189    11281.558     1000 
  514000   0.52120188   -2.2454098   0.78102102   -1.4643888   0.12337296    11238.101     1000 
  516000   0.58040624   -2.3105784   0.86973876   -1.4408397   0.11715545    11445.164     1000 
  518000   0.52790853   -2.3010918   0.79107093   -1.5100208   0.13928711    11137.901     1000 
  520000   0.55587272   -2.2931601   0.83297526   -1.4601848   0.13139394    11308.793     1000 
  522000   0.56021766   -2.2480444   0.83948617   -1.4085583   0.10611258      11368.9     1000 
  524000   0.56650656   -2.2776224   0.84891008   -1.4287123   0.13854914    11144.581     1000 
  526000   0.56541884   -2.2441333   0.84728013   -1.3968531   0.12535784    11139.432     1000 
  528000   0.53224723   -2.3043464   0.79757248    -1.506774   0.13020401    11176.096     1000 
  530000   0.51713204    -2.225306   0.77492236   -1.4503836   0.12600423    11179.249     1000 
  532000   0.56354878    -2.213537   0.84447784   -1.3690592   0.13611412    11097.496     1000 
  534000   0.55525967   -2.2844643   0.83205662   -1.4524077   0.11805834    11171.744     1000 
  536000   0.54830125   -2.2811856   0.82162942   -1.4595562   0.13132014    11171.889     1000 
  538000    0.5403204   -2.2754476   0.80967012   -1.4657775    0.1401302    11225.151     1000 
  540000   0.54896649   -2.3043407   0.82262629   -1.4817144   0.12610939    11212.173     1000 
  542000   0.54615705    -2.224029   0.81841633   -1.4056127   0.13719566    11058.491     1000 
  544000   0.55967057   -2.2299019   0.83866635   -1.3912356   0.14113067    11206.792     1000 
  546000   0.55389426   -2.2498817   0.83001054   -1.4198712   0.13043208    11177.657     1000 
  548000   0.54443885   -2.2501294   0.81584162   -1.4342878   0.13412801    11168.977     1000 
  550000   0.54255238   -2.2543552   0.81301474   -1.4413404   0.12633329    11245.225     1000 
  552000   0.54842779   -2.2671883   0.82181904   -1.4453693   0.14476343    11021.505     1000 
  554000   0.53418746   -2.2787786    0.8004799   -1.4782987   0.12750823    11282.589     1000 
  556000    0.5655302   -2.3010778     0.847447   -1.4536308    0.1289214    11289.575     1000 
  558000   0.56451366   -2.3002115   0.84592372   -1.4542878   0.13949571    11024.803     1000 
  560000   0.55830505   -2.1834615   0.83662012   -1.3468413   0.12973294    11171.397     1000 
  562000   0.56187062   -2.2635287   0.84196313   -1.4215656   0.12285161    11160.565     1000 
  564000   0.56943173   -2.3173532   0.85329344   -1.4640598   0.12704196    11195.682     1000 
  566000   0.57110895   -2.2679984   0.85580676   -1.4121916   0.12842765    11197.705     1000 
  568000   0.55907295   -2.2937322   0.83777082   -1.4559613   0.12205739    11363.021     1000 
  570000    0.5372592   -2.2484591   0.80508291   -1.4433762   0.13720198    11060.516     1000 
  572000   0.54212984   -2.3008913   0.81238157   -1.4885098   0.13981553    11183.819     1000 
  574000   0.54253763     -2.28187   0.81299264   -1.4688774   0.12238009    11279.125     1000 
  576000   0.54815332    -2.356134   0.82140775   -1.5347263   0.12906351    11203.786     1000 
  578000   0.53857081   -2.2647493   0.80704837   -1.4577009   0.13111419    11089.998     1000 
  580000   0.54524934   -2.3217988   0.81705614   -1.5047427   0.11381725    11343.444     1000 
  582000   0.51880985   -2.3078425   0.77743657   -1.5304059   0.13690791    11010.641     1000 
  584000   0.53535508   -2.2590506   0.80222958    -1.456821   0.12768162    11188.371     1000 
  586000    0.5521928   -2.3000813   0.82746091   -1.4726203   0.13177444    11185.261     1000 
  588000   0.55937857   -2.2544848   0.83822879   -1.4162561   0.14176589    11026.896     1000 
  590000   0.56858546   -2.3068904   0.85202531   -1.4548651    0.1262063    11238.227     1000 
  592000   0.55093746   -2.2282055   0.82557978   -1.4026257   0.12100312    11083.859     1000 
  594000   0.55494523    -2.312848   0.83158543   -1.4812625   0.12891869    10983.423     1000 
  596000   0.55061629   -2.2408386    0.8250985   -1.4157401   0.13264575    11210.497     1000 
  598000   0.54794936   -2.2684814   0.82110212   -1.4473793   0.12290258    11292.666     1000 
  600000   0.55816038   -2.2619676   0.83640332   -1.4255643   0.14063916    11186.188     1000 
  602000    0.5659277   -2.2603385   0.84804266   -1.4122959   0.14373143    11128.829     1000 
  604000   0.51814441   -2.2749483    0.7764394   -1.4985089   0.12049481     11187.55     1000 
  606000   0.55243342   -2.2856341   0.82782148   -1.4578126   0.12483845    11098.683     1000 
  608000   0.55245502   -2.2570608   0.82785384    -1.429207   0.14376398    11182.084     1000 
  610000   0.56062655   -2.2705269   0.84009889    -1.430428   0.12517718    11129.982     1000 
  612000   0.52717829   -2.2972925   0.78997667   -1.5073159   0.14185091    11094.511     1000 
  614000   0.56098808   -2.2994784   0.84064064   -1.4588378   0.12682854    11302.333     1000 
  616000   0.53882211   -2.3209987   0.80742493   -1.5135737   0.12143619    11510.588     1000 
  618000   0.55548969   -2.2502855    0.8324013   -1.4178842   0.13262631    11152.047     1000 
  620000   0.53640547   -2.2513116    0.8038036    -1.447508   0.13546876    11230.582     1000 
  622000   0.52112682   -2.2347884   0.78090854   -1.4538799   0.12660096    11025.311     1000 
  624000   0.56158999   -2.2529452   0.84154259   -1.4114026   0.15120806    11175.641     1000 
  626000   0.55268044   -2.3061771   0.82819163   -1.4779855   0.13359558    11263.809     1000 
  628000   0.53535705   -2.2835544   0.80223253   -1.4813219   0.12919136    11243.758     1000 
  630000   0.55068605   -2.2855346   0.82520305   -1.4603315   0.13687832    11271.305     1000 
  632000   0.55245211   -2.2354449   0.82784948   -1.4075955   0.13598714    11272.067     1000 
  634000    0.5487605   -2.2579972   0.82231761   -1.4356796   0.14197228    11212.357     1000 
  636000   0.52096801   -2.3075968   0.78067056   -1.5269263   0.14330476    11013.447     1000 
  638000   0.55017423   -2.2566729   0.82443608   -1.4322368   0.11981314    11279.488     1000 
  640000   0.52511146   -2.2425313   0.78687953   -1.4556517   0.12997837     11180.51     1000 
  642000   0.55338063   -2.2166439   0.82924088    -1.387403   0.13875554    11013.422     1000 
  644000   0.53878893   -2.2673841   0.80737521   -1.4600089   0.13904729    11106.992     1000 
  646000   0.52245457   -2.2828042   0.78289817   -1.4999061   0.11531301     11431.51     1000 
  648000     0.545193   -2.3119337   0.81697172    -1.494962   0.14402284    11029.839     1000 
  650000   0.55179032   -2.2852197   0.82685779   -1.4583619   0.14205908    11084.759     1000 
  652000   0.52004377   -2.3146336    0.7792856    -1.535348   0.12692534    11353.334     1000 
  654000   0.54395539   -2.2685421   0.81511716   -1.4534249   0.14034241    11213.031     1000 
  656000   0.57457744   -2.3328217    0.8610043   -1.4718174   0.12628585    11390.157     1000 
  658000   0.55327631   -2.2982813   0.82908455   -1.4691968    0.1291391    11228.106     1000 
  660000   0.55002068   -2.2500242     0.824206   -1.4258182   0.12447339    11196.396     1000 
  662000   0.53848304   -2.2795081   0.80691684   -1.4725912   0.12280461    11319.577     1000 
  664000   0.57059943   -2.2485822   0.85504324    -1.393539   0.13429181    11102.228     1000 
  666000   0.53742209   -2.2544966   0.80532699   -1.4491696   0.15592867    11063.266     1000 
  668000   0.59830039   -2.2792918   0.89655314   -1.3827386   0.13179562    11204.453     1000 
  670000   0.57732213    -2.277627   0.86511722   -1.4125098   0.13307466    11341.475     1000 
  672000    0.5484268   -2.3065997   0.82181756   -1.4847822   0.13158764    11172.966     1000 
  674000   0.58338289   -2.3016964   0.87419926   -1.4274971   0.13258028     11225.07     1000 
  676000   0.56241749   -2.2582397   0.84278261   -1.4154571   0.13764198    11159.057     1000 
  678000   0.57049878   -2.2545526   0.85489242   -1.3996602   0.13037263    11155.791     1000 
  680000   0.54175522   -2.2860665   0.81182019   -1.4742463   0.12909755    11157.936     1000 
  682000    0.5791461   -2.3472991   0.86785043   -1.4794487    0.1273209    11266.222     1000 
  684000   0.55281882   -2.2704598     0.828399   -1.4420608   0.12922389    11143.233     1000 
  686000    0.5175066   -2.3145652   0.77548364   -1.5390816   0.13352038    11268.726     1000 
  688000   0.53710017   -2.2932803    0.8048446   -1.4884357   0.12802989    11276.424     1000 
  690000   0.56306356     -2.28362   0.84375075   -1.4398693   0.13121485    11183.091     1000 
  692000   0.54546335   -2.2611141   0.81737683   -1.4437373   0.11883181    11294.663     1000 
  694000   0.57162416   -2.3106053    0.8565788   -1.4540265   0.13806691    11212.876     1000 
  696000   0.55634129   -2.3186434   0.83367742    -1.484966   0.12224777    11316.113     1000 
  698000   0.52449713   -2.2694612   0.78595894   -1.4835022   0.12368035    11208.542     1000 
  700000   0.55315587   -2.2759376   0.82890407   -1.4470336   0.12652499    11217.598     1000 
  702000   0.53417853   -2.2362563   0.80046653   -1.4357898   0.12633308    11113.518     1000 
  704000    0.5349161    -2.280056   0.80157178   -1.4784843   0.12944205    11268.086     1000 
  706000   0.55499597    -2.306207   0.83166146   -1.4745456   0.12659664    11369.791     1000 
  708000   0.53940263   -2.2817605   0.80829483   -1.4734656   0.13037359    11175.532     1000 
  710000   0.55499531   -2.2362805   0.83166048   -1.4046201   0.13950127    11086.719     1000 
  712000   0.55459714   -2.2771819   0.83106382   -1.4461181   0.12783825    11242.868     1000 
  714000   0.58646365   -2.2961866   0.87881577   -1.4173708   0.11719464    11235.802     1000 
  716000   0.54992059   -2.2726202     0.824056   -1.4485642   0.12452104    11303.122     1000 
  718000   0.53785128    -2.246495   0.80597015   -1.4405249   0.11802281    11246.026     1000 
  720000   0.57653546   -2.2595086   0.86393838   -1.3955702   0.13765557    11200.947     1000 
  722000   0.54757584   -2.2956058    0.8205424   -1.4750634   0.12524557     11205.58     1000 
  724000   0.56272776   -2.2300421   0.84324756   -1.3867945   0.12339174    11081.777     1000 
  726000   0.53193677    -2.244661   0.79710726   -1.4475537   0.13299264    11112.236     1000 
  728000   0.55000271    -2.259453   0.82417906    -1.435274    0.1309261    11115.888     1000 
  730000   0.55233394   -2.2392869   0.82767242   -1.4116145   0.12933325    11010.185     1000 
  732000   0.55985904   -2.3235773   0.83894877   -1.4846285   0.13924623     11225.97     1000 
  734000   0.53366077   -2.3059948   0.79969067   -1.5063041   0.12977712    11171.305     1000 
  736000   0.57967678   -2.3022595   0.86864565   -1.4336139   0.13402592    11156.019     1000 
  738000   0.54311748   -2.2885684   0.81386155   -1.4747069   0.13842276    11110.501     1000 
  740000   0.52471091   -2.2664888    0.7862793   -1.4802095   0.13589161    11100.851     1000 
  742000   0.56414103    -2.266339   0.84536534   -1.4209736   0.12895123    11105.244     1000 
  744000   0.52953394   -2.3432914    0.7935066   -1.5497848    0.1133921    11493.952     1000 
  746000   0.54278134   -2.3348551   0.81335784   -1.5214972   0.12137358    11242.909     1000 
  748000   0.56039879   -2.2529719   0.83975759   -1.4132143   0.13113899    11113.545     1000 
  750000   0.54147071   -2.3050243   0.81139386   -1.4936304   0.14116897    11109.541     1000 
  752000   0.54170276   -2.2723728   0.81174159   -1.4606312   0.13413156    11201.238     1000 
  754000   0.52668532   -2.3164349   0.78923795    -1.527197   0.11509422    11276.423     1000 
  756000    0.5358666   -2.2997377   0.80299611   -1.4967416   0.14151219    11165.682     1000 
  758000   0.55993302   -2.2690223   0.83905963   -1.4299627   0.11343823    11403.836     1000 
  760000   0.56984817    -2.274728   0.85391749   -1.4208105    0.1399862    11186.408     1000 
  762000   0.54152902   -2.2661362   0.81148123   -1.4546549   0.13819997    11227.371     1000 
  764000   0.55185168   -2.3289111   0.82694974   -1.5019614   0.11487822    11369.253     1000 
  766000    0.5622761    -2.290583   0.84257074   -1.4480122   0.11673637    11329.373     1000 
  768000   0.54516516   -2.2848907      0.81693   -1.4679607   0.14576585    11184.013     1000 
  770000   0.55860333   -2.3280496   0.83706709   -1.4909825   0.12300435    11274.934     1000 
  772000   0.56059451   -2.2447263   0.84005088   -1.4046755   0.11814772    11297.432     1000 
  774000   0.52677895   -2.2754378   0.78937826   -1.4860595   0.12193606    11209.071     1000 
  776000   0.56261582   -2.2602614    0.8430798   -1.4171816   0.13432333     11234.91     1000 
  778000    0.5654951   -2.2867629   0.84739441   -1.4393685   0.13223679    11240.958     1000 
  780000   0.56331085   -2.2420468   0.84412131   -1.3979254   0.14186696    11306.006     1000 
  782000   0.54577886   -2.2793041   0.81784962   -1.4614544    0.1177412    11267.849     1000 
  784000     0.544759    -2.322194   0.81632136   -1.5058727   0.13057195    11195.033     1000 
  786000   0.56383483   -2.2761868   0.84490649   -1.4312803   0.13620947    11167.872     1000 
  788000   0.56582401   -2.2824454   0.84788728   -1.4345582   0.12832859     11341.04     1000 
  790000   0.52481313   -2.2982624   0.78643248   -1.5118299   0.11481562    11221.087     1000 
  792000    0.5783137   -2.3102985   0.86660308   -1.4436954   0.13008084    11287.901     1000 
  794000   0.54324999   -2.2542586   0.81406012   -1.4401985   0.12074125    11216.799     1000 
  796000   0.54819797   -2.2619445   0.82147466   -1.4404698   0.13145598    11060.085     1000 
  798000   0.54739394   -2.2603005   0.82026982   -1.4400306   0.13361864    11060.455     1000 
  800000   0.54893133   -2.2862853    0.8225736   -1.4637117   0.13184515    11265.307     1000 
  802000   0.55632006   -2.2679725   0.83364561   -1.4343269   0.12789149     11112.09     1000 
  804000   0.55030549   -2.2682477   0.82463278   -1.4436149    0.1176154      11261.2     1000 
  806000   0.55702545   -2.3016342   0.83470264   -1.4669315   0.13097264    11192.265     1000 
  808000   0.56356733   -2.2888168   0.84450564   -1.4443112   0.13028611    11268.387     1000 
  810000   0.52950354   -2.2593393   0.79346105   -1.4658782   0.13007235    11123.952     1000 
  812000   0.53808777    -2.271613   0.80632453   -1.4652885   0.12184187    11271.658     1000 
  814000   0.53443034   -2.2468484   0.80084386   -1.4460046   0.12598128    11250.622     1000 
  816000   0.54132685   -2.2841694   0.81117828   -1.4729912   0.12363502    11204.308     1000 
  818000    0.5660551   -2.3266977   0.84823357   -1.4784641   0.13635302    11184.664     1000 
  820000   0.55969091   -2.2996224   0.83869682   -1.4609256   0.12409718     11260.06     1000 
  822000   0.54048353    -2.316719   0.80991457   -1.5068044   0.11996477    11280.789     1000 
  824000   0.57809983   -2.2513247   0.86628259   -1.3850421   0.13869056    11053.048     1000 
  826000   0.53834167   -2.2606871     0.806705   -1.4539821   0.12752195    11130.414     1000 
  828000   0.55022278   -2.3313504   0.82450884   -1.5068416   0.13618075    11289.443     1000 
  830000   0.56918405   -2.2481783    0.8529223    -1.395256   0.13663117    11161.827     1000 
  832000   0.55098442   -2.2856184   0.82565015   -1.4599682   0.12467042    11302.951     1000 
  834000   0.54855229   -2.2963161   0.82200561   -1.4743105   0.11547439    11493.934     1000 
  836000   0.54441842   -2.2800463     0.815811   -1.4642353    0.1289588    11284.856     1000 
  838000   0.52144916   -2.3057438   0.78139157   -1.5243523   0.13194672    11169.106     1000 
  840000   0.55126646   -2.2739529   0.82607279   -1.4478801   0.13879821    11166.242     1000 
  842000   0.55853253   -2.2683165     0.836961   -1.4313555   0.12888382     11167.43     1000 
  844000   0.55981447   -2.2770529   0.83888198   -1.4381709   0.13157683    11291.863     1000 
  846000   0.54626835   -2.2580064   0.81858313   -1.4394233    0.1208418     11170.11     1000 
  848000   0.54822472   -2.2611358   0.82151474    -1.439621    0.1462209    11114.381     1000 
  850000   0.55093056     -2.30533   0.82556945   -1.4797606   0.12657931    11187.803     1000 
  852000    0.5408145   -2.2597121   0.81041053   -1.4493015   0.13827323    11069.111     1000 
  854000   0.53782014   -2.2621902   0.80592348   -1.4562668   0.12184513    11238.037     1000 
  856000   0.52030555   -2.3122009   0.77967787    -1.532523   0.13833943    11182.132     1000 
  858000   0.57427048   -2.2832077   0.86054431   -1.4226634   0.12408499    11264.541     1000 
  860000   0.52569186   -2.2866174   0.78774926   -1.4988681   0.12172094    11185.653     1000 
  862000    0.5802711   -2.3312404   0.86953625   -1.4617041   0.14999467    11099.282     1000 
  864000   0.54894032   -2.2932668   0.82258706   -1.4706797   0.12584679     11316.53     1000 
  866000   0.52759891   -2.2719449   0.79060697   -1.4813379   0.13231692    11089.444     1000 
  868000   0.56793568   -2.3245541   0.85105161   -1.4735025   0.12740192    11286.649     1000 
  870000   0.54715512   -2.3279548   0.81991195   -1.5080428   0.13333726    11239.557     1000 
  872000   0.55324536   -2.3008873   0.82903817   -1.4718491   0.12633221    11261.144     1000 
  874000   0.54165638   -2.2618281   0.81167208    -1.450156   0.12525598    11208.163     1000 
  876000    0.5399249   -2.2511987   0.80907746   -1.4421212   0.12672012    11167.567     1000 
  878000    0.5421389   -2.2371396   0.81239514   -1.4247444   0.12318174    11118.917     1000 
  880000   0.54442247   -2.2335746   0.81581707   -1.4177576     0.132186    11077.925     1000 
  882000   0.58175751   -2.2901687   0.87176362   -1.4184051   0.12403188    11236.873     1000 
  884000   0.53973038    -2.276439   0.80878597    -1.467653   0.13431951    11072.705     1000 
  886000   0.56290552   -2.2600109   0.84351392    -1.416497   0.12912684     11121.17     1000 
  888000   0.54525773   -2.2989499   0.81706872   -1.4818812    0.1181781    11358.129     1000 
  890000   0.58336738   -2.3182165   0.87417602   -1.4440405   0.13529785     11302.47     1000 
  892000   0.55738495   -2.2789248   0.83524134   -1.4436834   0.13415777    11009.142     1000 
  894000   0.57401474    -2.305105   0.86016108   -1.4449439    0.1422205    11194.406     1000 
  896000   0.53382736   -2.2713866   0.79994029   -1.4714463    0.1350906    11272.509     1000 
  898000   0.54301977    -2.265084   0.81371512   -1.4513689   0.14523735    11023.637     1000 
  900000   0.54924134   -2.2513111   0.82303815    -1.428273   0.12282878    11254.773     1000 
  902000   0.56926294   -2.2549813   0.85304052   -1.4019408   0.12829985    11265.674     1000 
  904000   0.51523403   -2.2855584    0.7720782   -1.5134802   0.12971407    11056.357     1000 
  906000   0.56662356   -2.2850915    0.8490854   -1.4360061   0.12689308    11251.955     1000 
  908000   0.53564438   -2.3184458   0.80266311   -1.5157827   0.11321426    11346.788     1000 
  910000   0.53469935   -2.3065188   0.80124698   -1.5052718   0.13365003    11135.604     1000 
  912000   0.55640355   -2.3202409   0.83377071   -1.4864702   0.13157938    11374.425     1000 
  914000   0.55054832    -2.269277   0.82499666   -1.4442803   0.13389692    11031.588     1000 
  916000    0.5500894   -2.2419539   0.82430897   -1.4176449   0.14998335    10978.206     1000 
  918000   0.53919603   -2.2804202   0.80798526    -1.472435   0.12435217    11252.161     1000 
  920000   0.56069961   -2.3022595   0.84020837   -1.4620511   0.13093033    11236.086     1000 
  922000    0.5590133   -2.3247106   0.83768143   -1.4870292   0.11528195    11311.572     1000 
  924000   0.54405354    -2.281755   0.81526423   -1.4664907   0.14417323    11047.505     1000 
  926000   0.54511156    -2.311317   0.81684967   -1.4944673   0.12729753    11185.632     1000 
  928000   0.56112273   -2.2577011   0.84084242   -1.4168587   0.13416112    11337.117     1000 
  930000   0.53762616   -2.3364638    0.8056328    -1.530831   0.12591173    11261.143     1000 
  932000    0.5659506   -2.2869356   0.84807698   -1.4388587   0.13375092    11170.431     1000 
  934000   0.54701381   -2.2932958    0.8197002   -1.4735956   0.11857608    11299.894     1000 
  936000   0.55342013   -2.2849723   0.82930006   -1.4556722   0.13613725    11062.975     1000 
  938000   0.54408626   -2.2785399   0.81531326   -1.4632267   0.14187792    11028.979     1000 
  940000   0.53970857   -2.2573815   0.80875329   -1.4486282    0.1357684    11117.033     1000 
  942000   0.55005601   -2.2375272   0.82425894   -1.4132682   0.13249529    11184.414     1000 
  944000   0.55173673   -2.2048238   0.82677749   -1.3780463   0.13935467    11158.998     1000 
  946000   0.54333745   -2.2667587   0.81419117   -1.4525676   0.13152742    11217.541     1000 
  948000   0.51786248   -2.2417171   0.77601693   -1.4657002   0.13633199    11172.867     1000 
  950000   0.55399338   -2.2784636   0.83015908   -1.4483045    0.1331692    11162.642     1000 
  952000   0.54985271   -2.2945205   0.82395429   -1.4705662   0.12383309    11307.662     1000 
  954000   0.54935165   -2.3473665   0.82320345    -1.524163   0.11769207    11314.089     1000 
  956000   0.55895652   -2.2803068   0.83759635   -1.4427105   0.13443292    11066.255     1000 
  958000   0.54037672   -2.2743408   0.80975452   -1.4645862   0.13119744    11282.635     1000 
  960000   0.58930907    -2.274274   0.88307963   -1.3911944   0.11975605    11201.826     1000 
  962000   0.52830289   -2.2845605   0.79166188   -1.4928986   0.11849447     11249.34     1000 
  964000   0.54611488   -2.3045161   0.81835314   -1.4861629   0.12028809    11210.934     1000 
  966000   0.54922229   -2.2932867   0.82300959   -1.4702771   0.11879692    11368.706     1000 
  968000   0.53359459   -2.2685425   0.79959149    -1.468951   0.13306022    11319.241     1000 
  970000   0.53687926   -2.2459853   0.80451357   -1.4414717   0.14048246    11087.385     1000 
  972000   0.54788551   -2.2669917   0.82100644   -1.4459853   0.12993476    11151.405     1000 
  974000   0.52946211   -2.2994224   0.79339897   -1.5060234   0.11836845    11432.479     1000 
  976000   0.53593375    -2.267107   0.80309672   -1.4640103    0.1254969    11226.179     1000 
  978000   0.56225341   -2.2643609   0.84253674   -1.4218242   0.13292836    11237.451     1000 
  980000   0.56133967     -2.28997   0.84116749   -1.4488025   0.13184801    11275.719     1000 
  982000   0.54168395   -2.2019658    0.8117134   -1.3902524   0.13026252    11103.041     1000 
  984000   0.58282562   -2.2426338   0.87336419   -1.3692696    0.1364433     11217.17     1000 
  986000    0.5601952   -2.3051724    0.8394525   -1.4657199   0.13240144    11316.658     1000 
  988000   0.52673991   -2.2886623   0.78931975   -1.4993426   0.12269152    11226.464     1000 
  990000   0.54714934    -2.239715   0.81990328   -1.4198117   0.12874236    11096.939     1000 
  992000   0.53821808   -2.2787039   0.80651979   -1.4721841   0.12692452    11283.779     1000 
  994000   0.56679415   -2.3095222   0.84934103   -1.4601811   0.13473199    11254.734     1000 
  996000   0.55295915   -2.2580287   0.82860928   -1.4294194   0.12703534    11292.503     1000 
  998000   0.56282296   -2.2385337    0.8433902   -1.3951435   0.12144065    11247.909     1000 
 1000000    0.5738158   -2.2362144   0.85986298   -1.3763514   0.14978496      11014.1     1000 
 1002000    0.5794046   -2.2949928   0.86823779    -1.426755   0.11561278    11511.951     1000 
 1004000   0.55807542   -2.2596393   0.83627602   -1.4233633   0.11339672    11445.631     1000 
 1006000   0.52089154   -2.2603272   0.78055597   -1.4797713   0.13265583    11274.236     1000 
 1008000   0.53252712    -2.276511   0.79799189   -1.4785191   0.11900133    11240.306     1000 
 1010000   0.52885035   -2.3133314   0.79248225   -1.5208491   0.13748196    11154.653     1000 
 1012000   0.56500379   -2.2541591   0.84665818    -1.407501   0.13936841    11375.453     1000 
 1014000   0.54280466    -2.271092   0.81339278   -1.4576993   0.12213616    11328.524     1000 
 1016000   0.55728952   -2.3017851   0.83509834   -1.4666868   0.11559455    11371.839     1000 
 1018000   0.51882104   -2.2491802   0.77745333   -1.4717268   0.13619348    10962.259     1000 
 1020000   0.56516371   -2.3125415   0.84689782   -1.4656436   0.13975921    11291.442     1000 
 1022000   0.55892863    -2.254395   0.83755456   -1.4168405    0.1397329    11170.373     1000 
 1024000     0.556687   -2.2781033   0.83419546   -1.4439079    0.1267822     11221.01     1000 
 1026000   0.55447405    -2.295096   0.83087936   -1.4642167   0.13656771    11211.732     1000 
 1028000    0.5692141   -2.2678507   0.85296733   -1.4148833   0.13033537    11143.272     1000 
 1030000   0.57063178   -2.1986662   0.85509172   -1.3435745   0.13514543    11053.013     1000 
 1032000   0.52980794   -2.2806734   0.79391719   -1.4867562   0.13767538    11028.498     1000 
 1034000   0.55527667   -2.2834527   0.83208209   -1.4513706     0.120569    11257.044     1000 
 1036000   0.55979158   -2.3044315   0.83884769   -1.4655838   0.13205674    11208.064     1000 
 1038000   0.53717456    -2.261087   0.80495607   -1.4561309   0.13463471    11091.296     1000 
 1040000   0.54754908   -2.2482057    0.8205023   -1.4277034   0.13476795    11402.975     1000 
 1042000   0.54570423   -2.2564476   0.81773779   -1.4387098   0.12121323    11104.022     1000 
 1044000   0.56202991   -2.3348203   0.84220182   -1.4926185   0.13102566    11348.796     1000 
 1046000   0.54342798    -2.283837   0.81432683   -1.4695101   0.13245243    11284.837     1000 
 1048000   0.56247683   -2.2644704   0.84287153   -1.4215989   0.13246151    11256.542     1000 
 1050000   0.56078374   -2.2832717   0.84033444   -1.4429372   0.11053194    11295.527     1000 
 1052000   0.54808063   -2.2987845   0.82129882   -1.4774857   0.13203602    11164.541     1000 
 1054000   0.53916247   -2.2947302   0.80793496   -1.4867952   0.12518247    11303.318     1000 
 1056000   0.57911643   -2.3056347   0.86780597   -1.4378288   0.12962209    11185.588     1000 
 1058000   0.54366511    -2.226793   0.81468217   -1.4121109   0.14742691    11226.067     1000 
 1060000   0.55735271   -2.3214514   0.83519303   -1.4862583   0.12403068    11366.486     1000 
 1062000   0.54968539   -2.2494058   0.82370356   -1.4257022   0.12842312    11178.403     1000 
 1064000   0.52507364   -2.2221383   0.78682285   -1.4353154   0.12318797    11139.423     1000 
 1066000   0.55254947   -2.2491823   0.82799538   -1.4211869   0.13805328    11068.898     1000 
 1068000   0.55928531   -2.3416525   0.83808904   -1.5035635   0.10950799    11370.181     1000 
 1070000   0.54588918   -2.2404288   0.81801493   -1.4224139   0.12567601    11082.436     1000 
 1072000   0.54435285   -2.2698441   0.81571275   -1.4541314    0.1402165    11212.401     1000 
 1074000   0.54337039   -2.3003265   0.81424053    -1.486086   0.13435354    11136.224     1000 
 1076000   0.53214047   -2.2974924   0.79741249   -1.5000799    0.1162746     11487.38     1000 
 1078000   0.55136112   -2.2595589   0.82621464   -1.4333443   0.13767374    11104.578     1000 
 1080000   0.55409343   -2.2471291   0.83030901   -1.4168201   0.13228218     11076.41     1000 
 1082000   0.55490105   -2.3072462   0.83151922    -1.475727   0.12420932    11169.613     1000 
 1084000    0.5484298   -2.3366877   0.82182206   -1.5148657   0.11912956    11373.863     1000 
 1086000   0.56994159   -2.2953949   0.85405747   -1.4413374   0.13861927    11253.413     1000 
 1088000    0.5444872   -2.2924138   0.81591406   -1.4764997   0.12373026    11288.078     1000 
 1090000   0.56592355   -2.2681189   0.84803644   -1.4200825   0.10568627    11282.747     1000 
 1092000   0.55233181   -2.2515992   0.82766922     -1.42393   0.13219692    11189.385     1000 
 1094000    0.5588859   -2.2669126   0.83749052   -1.4294221   0.12668309    11266.921     1000 
 1096000   0.55087205   -2.2891435   0.82548176   -1.4636617    0.1340807    11070.994     1000 
 1098000   0.54225408   -2.2298746   0.81256774   -1.4173068   0.12931317    11078.882     1000 
 1100000   0.54128567   -2.2938917   0.81111657   -1.4827751   0.12293198    11168.526     1000 
 1102000   0.53705753    -2.268262    0.8047807   -1.4634813   0.14599365    11122.188     1000 
 1104000    0.5333579   -2.2645698   0.79923681    -1.465333   0.12568686    11396.395     1000 
 1106000   0.55173098   -2.2770708   0.82676888   -1.4503019   0.13059949    11127.998     1000 
 1108000   0.54565535   -2.3036117   0.81766454   -1.4859471   0.13366471    11209.953     1000 
 1110000   0.56163686   -2.2528064   0.84161283   -1.4111935   0.14689309    10846.994     1000 
 1112000   0.54782335   -2.3047286   0.82091328   -1.4838153   0.13373975    11301.916     1000 
 1114000   0.55904681   -2.2940264   0.83773165   -1.4562947   0.14178371    11035.891     1000 
 1116000   0.53288199   -2.2784736   0.79852366     -1.47995   0.12363003    11204.416     1000 
 1118000   0.55546271   -2.2929001   0.83236088   -1.4605393   0.11558094    11296.956     1000 
 1120000   0.54527964   -2.2281607   0.81710154   -1.4110592   0.12859427    11188.036     1000 
 1122000   0.56090108   -2.2956928   0.84051027   -1.4551826   0.13048259    11148.943     1000 
 1124000   0.54578658   -2.3012811   0.81786119   -1.4834199   0.12492713    11255.223     1000 
 1126000   0.53733968   -2.3363556   0.80520352   -1.5311521   0.11725438    11354.291     1000 
 1128000   0.56990681   -2.2183203   0.85400536   -1.3643149   0.13834251    11148.843     1000 
 1130000   0.55329396   -2.2552234     0.829111   -1.4261124   0.13358574    11212.149     1000 
 1132000    0.5437762   -2.2873445   0.81484864   -1.4724959   0.13189768    11153.066     1000 
 1134000   0.56683822   -2.2652329   0.84940707   -1.4158258   0.12506673    11341.698     1000 
 1136000   0.56384996   -2.2742776   0.84492917   -1.4293484   0.12577561    11269.096     1000 
 1138000   0.55273995   -2.2865515   0.82828082   -1.4582707   0.13226705    11219.217     1000 
 1140000   0.54958703   -2.2893384   0.82355616   -1.4657823   0.14392513    11151.448     1000 
 1142000   0.58776085   -2.3011658   0.88075964   -1.4204062   0.13413525    11105.901     1000 
 1144000   0.54466244   -2.3100547   0.81617666    -1.493878   0.13314859    11180.644     1000 
 1146000   0.56320104   -2.2593586   0.84395676   -1.4154019   0.12661328    11164.552     1000 
 1148000   0.53941944   -2.2937831   0.80832003    -1.485463   0.10732272    11300.257     1000 
 1150000   0.56144732   -2.2961635    0.8413288   -1.4548347   0.14213593    11138.487     1000 
 1152000   0.55045291   -2.2968323   0.82485369   -1.4719786   0.14102324    11118.572     1000 
 1154000   0.57049058   -2.2583635   0.85488013   -1.4034834   0.13615391    11052.054     1000 
 1156000   0.54291675   -2.2428086   0.81356074   -1.4292478   0.13229186    11172.709     1000 
 1158000   0.53197442   -2.2636142   0.79716366   -1.4664506   0.15147269    11041.209     1000 
 1160000   0.55312716   -2.3112775   0.82886105   -1.4824164   0.12684493    11324.731     1000 
 1162000   0.54015883   -2.2864519   0.80942801   -1.4770239   0.10879521    11267.014     1000 
 1164000   0.54445591   -2.2684248   0.81586718   -1.4525576   0.12748482    11207.618     1000 
 1166000   0.55782148    -2.260455   0.83589549   -1.4245595   0.12468025    11167.781     1000 
 1168000   0.52973168     -2.27435   0.79380292   -1.4805471   0.14141501    11237.023     1000 
 1170000   0.54182915   -2.2528841   0.81193098   -1.4409532    0.1307847    11067.402     1000 
 1172000   0.52071475   -2.2419367   0.78029106   -1.4616457   0.14243253    11040.473     1000 
 1174000   0.55229463   -2.2915163   0.82761351   -1.4639027   0.13414986    11135.308     1000 
 1176000   0.56229505   -2.2778068   0.84259913   -1.4352076    0.1319797    11205.444     1000 
 1178000   0.56566152   -2.2226625   0.84764379   -1.3750187   0.14145489    10975.912     1000 
 1180000   0.55266392   -2.2384945   0.82816689   -1.4103276   0.13755636    11245.034     1000 
 1182000    0.5513858     -2.27099   0.82625162   -1.4447383   0.12371662     11320.81     1000 
 1184000   0.56168701   -2.2926198   0.84168799   -1.4509318   0.12476171    11336.108     1000 
 1186000     0.554241   -2.3130038   0.83053014   -1.4824736   0.13279932    11177.246     1000 
 1188000   0.56669095   -2.2498207   0.84918638   -1.4006343   0.13590099    11052.052     1000 
 1190000   0.55237723   -2.2378694   0.82773728   -1.4101322   0.12185008    11255.819     1000 
 1192000   0.55318412    -2.290445    0.8289464   -1.4614986   0.14202325    11173.549     1000 
 1194000   0.53697849   -2.2839668   0.80466227   -1.4793046   0.13581314     11146.36     1000 
 1196000   0.58027194   -2.2768246    0.8695375   -1.4072871     0.149766    10974.317     1000 
 1198000   0.55086494   -2.2436789   0.82547111   -1.4182078   0.13539708    11048.626     1000 
 1200000   0.54295215   -2.2763892    0.8136138   -1.4627754   0.12014576    11167.328     1000 
 1202000   0.54012602   -2.2684036   0.80937884   -1.4590248   0.14097707    11221.308     1000 
 1204000   0.54659191    -2.313083   0.81906797    -1.494015    0.1248023    11366.503     1000 
 1206000   0.54775249    -2.310636   0.82080711   -1.4898289   0.13329418     11236.66     1000 
 1208000   0.56884156   -2.2719775   0.85240908   -1.4195685   0.13198727    11270.383     1000 
 1210000   0.54942625   -2.2542181   0.82331524   -1.4309029   0.15479608    11153.322     1000 
 1212000   0.53694911   -2.3071681   0.80461824   -1.5025499   0.10052462    11486.728     1000 
 1214000   0.54556872   -2.2828516   0.81753473   -1.4653169   0.10676957    11280.331     1000 
 1216000   0.55358071   -2.3000186    0.8295407   -1.4704779    0.1428119    11042.855     1000 
 1218000   0.55678857   -2.3187178   0.83434767   -1.4843701   0.12544113    11120.956     1000 
 1220000    0.5564703   -2.2477342   0.83387074   -1.4138635   0.13109198    11149.746     1000 
 1222000   0.53052469   -2.2553644   0.79499125   -1.4603732   0.13217247     11322.42     1000 
 1224000   0.57459898   -2.3036353   0.86103657   -1.4425987   0.13624756    11291.056     1000 
 1226000   0.52929855   -2.2918472   0.79315388   -1.4986933   0.12559013    11251.825     1000 
 1228000    0.5701139   -2.2331864   0.85431567   -1.3788708    0.1373709    11056.768     1000 
 1230000   0.55677213    -2.291802   0.83432303    -1.457479   0.13653269    11058.789     1000 
 1232000   0.56788505   -2.2392514   0.85097575   -1.3882756   0.13773198    11258.866     1000 
 1234000   0.55057477   -2.3134378   0.82503629   -1.4884015   0.12893805    11259.628     1000 
 1236000   0.57173387   -2.3026078   0.85674321   -1.4458646    0.1266448     11182.94     1000 
 1238000   0.54447101   -2.2659556    0.8158898   -1.4500658   0.12496872    11192.605     1000 
 1240000   0.53511233   -2.2926709   0.80186582   -1.4908051   0.13337133     11352.33     1000 
 1242000    0.5557737   -2.2368021    0.8328269   -1.4039752   0.13355007    11023.683     1000 
 1244000   0.53441495    -2.221734    0.8008208   -1.4209132    0.1186381    11117.314     1000 
 1246000   0.55331135   -2.2587743   0.82913705   -1.4296373   0.12804914    11232.142     1000 
 1248000    0.5708757   -2.2427701   0.85545724   -1.3873128   0.11624159    11323.497     1000 
 1250000   0.55577269   -2.3361189   0.83282537   -1.5032936   0.11369287    11286.186     1000 
 1252000   0.54737551   -2.2384839    0.8202422   -1.4182417   0.13447947    11211.887     1000 
 1254000   0.54474154   -2.2420231   0.81629519   -1.4257279   0.12512071    11191.819     1000 
 1256000   0.55639739   -2.2979874   0.83376149    -1.464226    0.1231912    11313.525     1000 
 1258000   0.53867965   -2.3131487   0.80721145   -1.5059372   0.13220191    11124.426     1000 
 1260000   0.54452158   -2.3023788   0.81596559   -1.4864132   0.13768818    11045.064     1000 
 1262000   0.55967167   -2.2389401     0.838668   -1.4002721   0.12947672    11267.339     1000 
 1264000     0.540299   -2.2844746   0.80963806   -1.4748365   0.12768735    11347.181     1000 
 1266000   0.55869862   -2.2319539   0.83720988    -1.394744   0.13367406    10961.062     1000 
 1268000   0.54836777    -2.318135    0.8217291   -1.4964059    0.1266841    11297.947     1000 
 1270000   0.55377379   -2.3101463   0.82983003   -1.4803163   0.12170147    11387.292     1000 
 1272000    0.5373289   -2.3456895   0.80518736   -1.5405022   0.10822372    11425.209     1000 
 1274000   0.51796056   -2.2688417    0.7761639   -1.4926778   0.13272559    11157.501     1000 
 1276000   0.52220001   -2.3249717   0.78251672   -1.5424549   0.12384711    11197.973     1000 
 1278000   0.55683049   -2.2572625   0.83441048    -1.422852   0.13393071    11171.934     1000 
 1280000   0.55489739   -2.2474449   0.83151374   -1.4159311   0.12357757    11369.899     1000 
 1282000   0.53214225   -2.2837464   0.79741517   -1.4863312   0.11067702    11325.285     1000 
 1284000   0.56828817   -2.2751198   0.85157982   -1.4235399   0.13901615     11085.66     1000 
 1286000   0.52686189   -2.2373721   0.78950254   -1.4478696     0.128669     11060.65     1000 
 1288000   0.57091134   -2.2597549   0.85551065   -1.4042442   0.13084117    11148.773     1000 
 1290000    0.5492408   -2.2697826   0.82303734   -1.4467452   0.15119973    10974.827     1000 
 1292000   0.55178002   -2.2832547   0.82684236   -1.4564124   0.13049636    11247.253     1000 
 1294000   0.52325656   -2.2944946   0.78409996   -1.5103947   0.12503196    11194.027     1000 
 1296000   0.55205806   -2.2637086     0.827259   -1.4364496   0.15112098    11041.923     1000 
 1298000   0.55780772   -2.2802164   0.83587486   -1.4443415   0.14591281    10932.117     1000 
 1300000   0.51747057   -2.2795862   0.77542964   -1.5041566   0.13227613     11273.91     1000 
 1302000   0.55192134   -2.2682355   0.82705413   -1.4411814   0.11984221    11351.345     1000 
 1304000   0.55834275   -2.2571659   0.83667662   -1.4204893    0.1283535    11281.204     1000 
 1306000   0.55026153   -2.2585687    0.8245669   -1.4340018   0.12088343    11153.027     1000 
 1308000   0.52746066   -2.2764253    0.7903998   -1.4860255   0.13272017    11193.768     1000 
 1310000   0.54172403   -2.2737365   0.81177346    -1.461963   0.13660595     11118.78     1000 
 1312000   0.54323022   -2.2993235   0.81403049    -1.485293   0.12471577    11284.018     1000 
 1314000   0.57251585    -2.265942     0.857915    -1.408027   0.12438337    11349.663     1000 
 1316000   0.57647846   -2.2566198   0.86385297   -1.3927669   0.12434376    11397.079     1000 
 1318000   0.55461561   -2.2532133    0.8310915   -1.4221218   0.13340942    11198.902     1000 
 1320000   0.53334719   -2.2611594   0.79922076   -1.4619387   0.13251458    11097.055     1000 
 1322000   0.53959682   -2.2586607   0.80858583   -1.4500749   0.12318384    11236.159     1000 
 1324000   0.54876171   -2.3003742   0.82231942   -1.4780548   0.13536584    11293.151     1000 
 1326000   0.54283874   -2.3296473   0.81344385   -1.5162034   0.12674898    11293.172     1000 
 1328000   0.55205024   -2.2264882   0.82724729    -1.399241   0.14254943    11146.666     1000 
 1330000   0.54863685   -2.2900657   0.82213233   -1.4679333   0.11063298    11373.003     1000 
 1332000   0.55484639     -2.24252   0.83143732   -1.4110827   0.12283081    11099.732     1000 
 1334000   0.53087918   -2.2613868   0.79552246   -1.4658643   0.12283331     11350.57     1000 
 1336000   0.57364196   -2.2826249   0.85960248   -1.4230224   0.12662906    11332.533     1000 
 1338000   0.56670991   -2.3410753    0.8492148   -1.4918605   0.12065673    11308.478     1000 
 1340000    0.5630265   -2.2763421   0.84369521   -1.4326469   0.13633363    11269.012     1000 
 1342000   0.55143873   -2.2507538   0.82633094   -1.4244228   0.14829467    11097.564     1000 
 1344000   0.54660544   -2.2760075   0.81908826   -1.4569192   0.15125052    11172.554     1000 
 1346000   0.57644373   -2.3103919   0.86380093    -1.446591   0.13253121    11198.108     1000 
 1348000   0.56911654   -2.2840702   0.85282114    -1.431249   0.13449276    11240.853     1000 
 1350000   0.55727117   -2.2467618   0.83507085    -1.411691   0.13943897    11299.326     1000 
 1352000   0.57024572   -2.2758336   0.85451322   -1.4213204   0.14243376     11030.83     1000 
 1354000   0.55830945   -2.2437115   0.83662672   -1.4070848   0.13191237    11156.003     1000 
 1356000   0.56075085   -2.3058835   0.84028515   -1.4655984   0.12871791    11169.068     1000 
 1358000   0.55046081   -2.2905034   0.82486552   -1.4656379   0.13660396    11225.349     1000 
 1360000   0.57627536   -2.2273385   0.86354863   -1.3637899   0.11868592    11138.306     1000 
 1362000   0.55744547    -2.283552   0.83533204     -1.44822   0.13135277    11188.261     1000 
 1364000   0.53673668   -2.2431738   0.80429991   -1.4388739   0.11771408    11182.922     1000 
 1366000   0.55881076    -2.289488   0.83737792     -1.45211   0.13909995    11273.589     1000 
 1368000   0.54821591   -2.2458054   0.82150154   -1.4243038   0.13160463    11249.844     1000 
 1370000   0.54622894   -2.2464993   0.81852406   -1.4279753   0.13302653    11126.478     1000 
 1372000   0.55332289   -2.2289417   0.82915435   -1.3997873   0.14454763    11132.646     1000 
 1374000   0.55580046   -2.2512984   0.83286699   -1.4184315    0.1334152    11079.803     1000 
 1376000   0.52740951   -2.3287852   0.79032314    -1.538462   0.13187027    11345.014     1000 
 1378000   0.56904527   -2.2388698   0.85271434   -1.3861554   0.13360321    11232.554     1000 
 1380000   0.55526555   -2.2873026   0.83206543   -1.4552371   0.14456502    11197.763     1000 
 1382000   0.54387666   -2.2753165   0.81499918   -1.4603173   0.13080951    11295.055     1000 
 1384000   0.55545186   -2.3372117   0.83234461   -1.5048671   0.11743704    11344.444     1000 
 1386000   0.52787984   -2.2531238   0.79102794   -1.4620958   0.14203361    10993.521     1000 
 1388000   0.54864689   -2.2816783   0.82214737   -1.4595309   0.14481977    11150.374     1000 
 1390000   0.54879048   -2.2562806   0.82236254   -1.4339181   0.13398091    11244.292     1000 
 1392000   0.55786936   -2.2757616   0.83596724   -1.4397944   0.13173949    11236.291     1000 
 1394000   0.54934961   -2.2658284   0.82320039    -1.442628   0.12469857    11373.074     1000 
 1396000   0.57528672   -2.3119916   0.86206716   -1.4499245   0.12386446    11293.718     1000 
 1398000    0.5638847   -2.2737847   0.84498123   -1.4288034   0.12184572    11218.937     1000 
 1400000   0.54620246    -2.291017   0.81848438   -1.4725326    0.1469345    11163.223     1000 
 1402000   0.53254637   -2.1964602   0.79802073   -1.3984395   0.13201501    11066.348     1000 
 1404000   0.53175036   -2.2707403   0.79682792   -1.4739124   0.11300162    11308.524     1000 
 1406000   0.56196186   -2.3023158   0.84209985   -1.4602159   0.12200864    11269.752     1000 
 1408000   0.55614756   -2.3509895   0.83338711   -1.5176023   0.12493149    11287.391     1000 
 1410000   0.55089766   -2.2921205   0.82552014   -1.4666004   0.13934799    11191.824     1000 
 1412000   0.53653018   -2.2896621   0.80399048   -1.4856716   0.13938404    11185.612     1000 
 1414000   0.55403358    -2.321006   0.83021932   -1.4907867    0.1337075    11282.777     1000 
 1416000    0.5529995   -2.2826636   0.82866976   -1.4539939   0.13053991    11140.417     1000 
 1418000   0.54656212   -2.2486314   0.81902334    -1.429608   0.12122458    11199.307     1000 
 1420000   0.56306375   -2.2806846   0.84375102   -1.4369335    0.1322139    11023.962     1000 
 1422000    0.5435482   -2.2861006   0.81450698   -1.4715936   0.13977814    11085.464     1000 
 1424000   0.53997336   -2.2087401   0.80915007     -1.39959   0.13436755    11005.316     1000 
 1426000   0.56026571   -2.2868435   0.83955817   -1.4472853   0.13736237    11258.842     1000 
 1428000   0.56429593   -2.3185312   0.84559745   -1.4729337   0.12516979    11158.878     1000 
 1430000   0.52546396   -2.3087436   0.78740774   -1.5213359   0.13158927    11124.241     1000 
 1432000   0.56098991   -2.2476373   0.84064338   -1.4069939   0.14350476    10994.845     1000 
 1434000   0.55216506   -2.3059985   0.82741934   -1.4785791    0.1256952    11326.337     1000 
 1436000   0.53949876   -2.2562032   0.80843889   -1.4477643   0.12542129    11278.228     1000 
 1438000   0.56788415   -2.2880282    0.8509744   -1.4370538   0.13051829    11291.312     1000 
 1440000    0.5643533   -2.2733935   0.84568341   -1.4277101   0.11560513    11424.773     1000 
 1442000   0.53808713    -2.288883   0.80632356   -1.4825594   0.12258172    11340.014     1000 
 1444000   0.56554598   -2.2927699   0.84747065   -1.4452993   0.13534961    11140.143     1000 
 1446000   0.55354129   -2.2326926   0.82948162   -1.4032109   0.13883332    11122.263     1000 
 1448000   0.53804429   -2.2532469   0.80625936   -1.4469876   0.13633115    11131.291     1000 
 1450000   0.54225568   -2.2894531   0.81257014   -1.4768829   0.13375985    11130.995     1000 
 1452000   0.52383913   -2.2531798   0.78497294   -1.4682068   0.14854854    11075.733     1000 
 1454000   0.56102657    -2.288428   0.84069832   -1.4477297   0.13764134    11274.249     1000 
 1456000   0.56886478   -2.2359302   0.85244388   -1.3834863   0.11976141    11388.362     1000 
 1458000   0.55190444     -2.26682    0.8270288   -1.4397912   0.13233328    11246.828     1000 
 1460000   0.54259696   -2.2601039   0.81308154   -1.4470223   0.13004941    11120.665     1000 
 1462000   0.56625256   -2.2116197   0.84852946   -1.3630902   0.13924881    10926.189     1000 
 1464000   0.54001833   -2.2644073   0.80921747   -1.4551899   0.12763363    11037.206     1000 
 1466000   0.55049201   -2.2542055   0.82491228   -1.4292932   0.14288553    11163.341     1000 
 1468000   0.54885342   -2.2858713   0.82245686   -1.4634145   0.12586811    11287.036     1000 
 1470000   0.53491126    -2.229546   0.80156452   -1.4279815   0.12944846    11208.432     1000 
 1472000   0.52974599   -2.2649249   0.79382436   -1.4711005   0.11793304    11312.136     1000 
 1474000   0.56437274   -2.2603501   0.84571255   -1.4146376   0.13309022    11180.706     1000 
 1476000    0.5527326   -2.2387146    0.8282698   -1.4104448   0.12806002     11178.85     1000 
 1478000   0.54540744   -2.1894495   0.81729304   -1.3721564   0.13557641    11139.509     1000 
 1480000   0.54211625     -2.31127    0.8123612   -1.4989088   0.12949199    11287.218     1000 
 1482000   0.52626928   -2.3272304   0.78861452   -1.5386159   0.12995331     11438.94     1000 
 1484000   0.55149021   -2.2329968   0.82640808   -1.4065887   0.11985284     11108.77     1000 
 1486000   0.53695745   -2.2798797   0.80463074   -1.4752489   0.13434512    11120.822     1000 
 1488000   0.53678245   -2.2012059   0.80436851   -1.3968374   0.12894681    11030.697     1000 
 1490000   0.55697544   -2.2742021    0.8346277   -1.4395744   0.13475662    11166.784     1000 
 1492000   0.54380423   -2.2903822   0.81489064   -1.4754915   0.13145089    11109.149     1000 
 1494000   0.55556348   -2.3411625   0.83251188   -1.5086506   0.12615762    11409.739     1000 
 1496000   0.55133491   -2.2902985   0.82617536   -1.4641232   0.12629565    11270.325     1000 
 1498000   0.52201178   -2.2399837   0.78223465   -1.4577491   0.12879583    11118.741     1000 
 1500000     0.540502   -2.2353272   0.80994225   -1.4253849   0.11434105    11228.557     1000 
 1502000   0.56304566   -2.2922443   0.84372393   -1.4485204   0.10666382    11397.133     1000 
 1504000   0.55139864   -2.3037471   0.82627087   -1.4774762   0.12522426    11244.165     1000 
 1506000    0.5461671     -2.29625    0.8184314   -1.4778186   0.12800298     11291.56     1000 
 1508000   0.53757719    -2.273479   0.80555943   -1.4679196   0.12917413    11234.918     1000 
 1510000   0.56304641   -2.2506674   0.84372505   -1.4069423   0.13461365    11160.096     1000 
 1512000     0.564258   -2.2145774   0.84554061   -1.3690367   0.13017052    11095.043     1000 
 1514000   0.54347941   -2.2571816    0.8144039   -1.4427777   0.13087546    11347.738     1000 
 1516000   0.52541223   -2.2711798   0.78733022   -1.4838496   0.12428834    11229.027     1000 
 1518000   0.55914276   -2.2832676   0.83787542   -1.4453922   0.13253565    11109.837     1000 
 1520000   0.53969645   -2.2927287   0.80873514   -1.4839936   0.12194314    11193.329     1000 
 1522000   0.57059275   -2.2667505   0.85503323   -1.4117173    0.1415761    11057.759     1000 
 1524000   0.57084262   -2.2592573   0.85540767   -1.4038497   0.13621785    11184.404     1000 
 1526000   0.55616756   -2.2933689   0.83341709   -1.4599518   0.12624456     11161.91     1000 
 1528000   0.54887477   -2.2271085   0.82248884   -1.4046197   0.13802503    11077.405     1000 
 1530000     0.562378   -2.2425358   0.84272343   -1.3998124   0.13897865    11179.357     1000 
 1532000   0.55534394   -2.2701522   0.83218289   -1.4379693   0.13706538    11099.082     1000 
 1534000   0.54713896   -2.2873255   0.81988774   -1.4674378   0.13682785    11216.085     1000 
 1536000    0.5626983   -2.3085003    0.8432034   -1.4652969   0.11800573    11271.589     1000 
 1538000   0.56820107    -2.304309    0.8514493   -1.4528597   0.12038729    11293.306     1000 
 1540000    0.5252464   -2.2797612   0.78708173   -1.4926794   0.12147845    11290.976     1000 
 1542000   0.53507802   -2.2613682   0.80181442   -1.4595538   0.13735463     11115.45     1000 
 1544000   0.55466963   -2.2779649   0.83117244   -1.4467925   0.14247076     11135.04     1000 
 1546000   0.53596886   -2.3234004   0.80314933   -1.5202511   0.12525737    11362.568     1000 
 1548000   0.56349743   -2.2685647    0.8444009   -1.4241638   0.13726182    11231.434     1000 
 1550000   0.55996331   -2.2823057   0.83910502   -1.4432006    0.1204894    11337.298     1000 
 1552000   0.52521637   -2.2712735   0.78703673   -1.4842368   0.12490974    11197.623     1000 
 1554000   0.53134745   -2.2631545   0.79622415   -1.4669304   0.12947856    11131.027     1000 
 1556000     0.548134    -2.290578    0.8213788   -1.4691992   0.13604809    11201.356     1000 
 1558000    0.5651514   -2.2340131   0.84687938   -1.3871338   0.12646516    11210.038     1000 
 1560000   0.52835978   -2.3036002   0.79174712   -1.5118531   0.12371929    11208.815     1000 
 1562000   0.51762566   -2.2870992   0.77566205   -1.5114372   0.12861717    11362.518     1000 
 1564000   0.54395443    -2.237897   0.81511571   -1.4227813    0.1441849    11004.262     1000 
 1566000   0.57802209    -2.269777   0.86616611   -1.4036109   0.12324988     11173.86     1000 
 1568000   0.55768611   -2.2111898   0.83569263   -1.3754971   0.14174248    11145.061     1000 
 1570000   0.58075787   -2.3090521   0.87026566   -1.4387865   0.12609006    11395.149     1000 
 1572000   0.58101583   -2.2426452   0.87065223   -1.3719929   0.12483854     11226.63     1000 
 1574000   0.55672638   -2.2937822   0.83425448   -1.4595277   0.13576791    11243.071     1000 
 1576000    0.5667666   -2.2303652   0.84929975   -1.3810654   0.12729723    11085.093     1000 
[...]
 2614000   0.54295349   -2.3158119    0.8136158   -1.5021961   0.13207269    11218.061     1000 
 2616000   0.56019651   -2.2787054   0.83945447    -1.439251   0.13716485    11167.044     1000 
 2618000   0.55768288   -2.2580129    0.8356878   -1.4223251   0.12830374    11377.738     1000 
 2620000   0.52667704   -2.2470517   0.78922554   -1.4578262   0.11904129    11314.501     1000 
 2622000   0.55761306   -2.2754146   0.83558317   -1.4398314     0.132066    11215.059     1000 
 2624000    0.5197196   -2.2664318   0.77879982    -1.487632    0.1379066    11128.631     1000 
 2626000     0.540598   -2.2675263   0.81008611   -1.4574402   0.14586576    11035.063     1000 
 2628000   0.55208613   -2.2646256   0.82730106   -1.4373246   0.14020658    11037.336     1000 
 2630000   0.54280513   -2.2377513   0.81339349   -1.4243578   0.13684461      11119.8     1000 
 2632000   0.53835412   -2.2859052   0.80672365   -1.4791815   0.12037271    11272.082     1000 
 2634000   0.54233403   -2.3003141   0.81268755   -1.4876265   0.12560074    11199.445     1000 
 2636000   0.56769961   -2.2586814   0.85069787   -1.4079835   0.14023249    11155.281     1000 
 2638000   0.56461534   -2.2487323   0.84607608   -1.4026562   0.14017267    11093.655     1000 
 2640000    0.5269566   -2.3106683   0.78964447   -1.5210239   0.12069643    11292.692     1000 
 2642000   0.56363947   -2.2566214   0.84461374   -1.4120077   0.13052072    11251.448     1000 
 2644000   0.54912854   -2.2455138   0.82286912   -1.4226447   0.14426341    11061.672     1000 
 2646000    0.5285476   -2.2289645   0.79202858   -1.4369359   0.13766817    11010.942     1000 
 2648000   0.56463146    -2.267435   0.84610024   -1.4213348     0.131248    11244.069     1000 
 2650000   0.57443431   -2.2897585   0.86078981   -1.4289687   0.13986729    11106.281     1000 
 2652000   0.53878813   -2.3009438   0.80737401   -1.4935698   0.12612808    11236.406     1000 
 2654000   0.54764545   -2.2791446    0.8206467   -1.4584979   0.12825101    11223.721     1000 
 2656000   0.55570172   -2.3265629   0.83271902   -1.4938439   0.13206613    11220.665     1000 
 2658000   0.53038211   -2.2826456   0.79477759    -1.487868   0.12003435    11268.569     1000 
 2660000   0.56920742   -2.3233494   0.85295732   -1.4703921   0.12760212    11198.654     1000 
 2662000   0.55069938   -2.2988774   0.82522302   -1.4736544   0.13939452     11364.39     1000 
 2664000   0.53437492   -2.2932539   0.80076082   -1.4924931   0.12213533    11208.446     1000 
 2666000   0.52935076   -2.2989958   0.79323212   -1.5057636   0.12680857    11180.976     1000 
 2668000   0.52436846   -2.2403092   0.78576614   -1.4545431    0.1343528    11161.333     1000 
 2670000   0.56342584   -2.3215487   0.84429363   -1.4772551   0.12893173    11164.549     1000 
 2672000   0.54423523   -2.2876447   0.81553649   -1.4721083   0.13364724    11278.882     1000 
 2674000   0.56599463   -2.3121357   0.84814296   -1.4639928   0.13353262    11115.526     1000 
 2676000   0.55544221   -2.2631295   0.83233016   -1.4307994   0.12511672    11262.559     1000 
 2678000   0.53227736   -2.2696478   0.79761762   -1.4720302   0.13413468    11113.636     1000 
 2680000   0.56929152   -2.2798816   0.85308335   -1.4267983    0.1285912    11148.949     1000 
 2682000   0.54438518   -2.2901782   0.81576119    -1.474417   0.14513597    11137.618     1000 
 2684000   0.54560711   -2.3106667   0.81759225   -1.4930745    0.1262488    11218.276     1000 
 2686000   0.56238125   -2.3208409   0.84272831   -1.4781126   0.12759019     11337.82     1000 
 2688000   0.56750983   -2.2725199   0.85041349   -1.4221064   0.12527563    11239.168     1000 
 2690000   0.56333185   -2.2589539   0.84415278   -1.4148011   0.13028231    11274.477     1000 
 2692000   0.55490805    -2.309124   0.83152971   -1.4775942   0.12501611    11418.077     1000 
 2694000   0.56288111   -2.2889459   0.84347735   -1.4454685   0.13779783    11114.192     1000 
 2696000   0.53892173   -2.2540132   0.80757422    -1.446439   0.13750653    11120.453     1000 
 2698000    0.5298821   -2.2660873   0.79402832    -1.472059   0.13207041    11159.129     1000 
 2700000    0.5480492   -2.2908236   0.82125173   -1.4695719   0.11493879    11368.005     1000 
 2702000   0.58438746   -2.2927684    0.8757046   -1.4170638   0.13318687     11241.89     1000 
 2704000   0.55481151   -2.3334028   0.83138505   -1.5020178    0.1280832    11279.148     1000 
 2706000   0.53274738   -2.2905878   0.79832195   -1.4922659   0.12117887    11441.162     1000 
 2708000   0.54278499   -2.3156734    0.8133633   -1.5023101   0.13029634    11115.259     1000 
 2710000     0.539866   -2.2829006   0.80898919   -1.4739114   0.14298803    11082.858     1000 
 2712000   0.54852769    -2.240617   0.82196875   -1.4186482   0.12909327     11045.68     1000 
 2714000   0.56917755   -2.3150733   0.85291255   -1.4621608   0.13499981    11201.979     1000 
 2716000   0.55266366    -2.342723   0.82816649   -1.5145565   0.14092089    11367.597     1000 
 2718000   0.55135037   -2.2785229   0.82619853   -1.4523243   0.13300134    11154.347     1000 
 2720000   0.53218806   -2.3092541    0.7974838   -1.5117703   0.12579668    11243.777     1000 
 2722000    0.5538657   -2.2633787   0.82996776   -1.4334109   0.15128298    10893.766     1000 
 2724000   0.54956448    -2.254518   0.82352238   -1.4309956   0.13127472    11163.929     1000 
 2726000   0.52046753   -2.3247188   0.77992059   -1.5447982    0.1202078    11372.728     1000 
 2728000   0.56842542   -2.2929619   0.85178548   -1.4411764   0.12225516     11214.07     1000 
 2730000   0.56833907   -2.3041532    0.8516561   -1.4524971   0.13976015    11171.317     1000 
 2732000   0.55358962   -2.3234271   0.82955405    -1.493873   0.13352611    11188.312     1000 
 2734000   0.52737117   -2.2475939    0.7902657   -1.4573282    0.1304686    11127.043     1000 
 2736000   0.52531829   -2.2620296   0.78718946   -1.4748402   0.11390875    11345.304     1000 
 2738000   0.54577514   -2.2701674   0.81784405   -1.4523233    0.1237045    11537.758     1000 
 2740000   0.53207774   -2.2187874   0.79731849    -1.421469   0.12629679    11180.396     1000 
 2742000   0.52964851   -2.2510295    0.7936783   -1.4573512    0.1189457    11237.344     1000 
 2744000   0.54483544   -2.2983156    0.8164359   -1.4818797   0.13792427    11323.648     1000 
 2746000   0.52177336   -2.2661895   0.78187737   -1.4843121   0.12123122    11212.792     1000 
 2748000   0.53851128   -2.2343608   0.80695915   -1.4274016    0.1242034    11251.848     1000 
 2750000   0.55807269     -2.25406   0.83627193    -1.417788   0.13473086    11114.708     1000 
 2752000   0.56187352   -2.3043346   0.84196747   -1.4623671   0.13901927    11364.054     1000 
 2754000   0.57129228   -2.2526262   0.85608149   -1.3965447   0.14107982    11018.222     1000 
 2756000   0.55248372   -2.2809605   0.82789686   -1.4530636   0.12316689    11278.156     1000 
 2758000   0.58480745    -2.322857   0.87633396    -1.446523   0.12922378    11323.353     1000 
 2760000   0.53943114   -2.2972518   0.80833757   -1.4889143   0.14448866    11257.689     1000 
 2762000   0.55370802   -2.2611963   0.82973146   -1.4314649   0.12114571    11312.792     1000 
 2764000   0.54543742   -2.2354517   0.81733797   -1.4181138   0.12531978    11242.474     1000 
 2766000   0.50294341   -2.2243463   0.75366069   -1.4706856   0.12765612    11133.022     1000 
 2768000   0.54872136   -2.2723802   0.82225895   -1.4501212   0.12500562    11303.175     1000 
 2770000   0.53651187   -2.2753912   0.80396304   -1.4714282   0.12236063    11322.434     1000 
 2772000   0.56533114   -2.2935104   0.84714872   -1.4463617   0.12434065    11196.043     1000 
 2774000   0.56535112   -2.2871933   0.84717865   -1.4400147   0.11765984    11568.845     1000 
 2776000   0.55779321   -2.2454192   0.83585312   -1.4095661   0.11810877    11260.762     1000 
 2778000   0.55418532   -2.2817003    0.8304467   -1.4512536   0.12594801    11231.656     1000 
 2780000   0.54240705   -2.2815393   0.81279696   -1.4687424   0.12309111    11301.413     1000 
 2782000   0.55005791   -2.2559496   0.82426178   -1.4316878   0.13409939    11173.598     1000 
 2784000   0.55869998   -2.2255604   0.83721192   -1.3883485   0.12336341    11278.898     1000 
 2786000   0.55051046    -2.296079   0.82493993   -1.4711391   0.11894831    11199.531     1000 
 2788000   0.53418267     -2.28795   0.80047274   -1.4874773   0.12962076    11262.393     1000 
 2790000   0.56413136   -2.3135803   0.84535085   -1.4682294   0.13571941    11218.493     1000 
 2792000   0.56220667   -2.2911143    0.8424667   -1.4486476   0.12985476     11219.19     1000 
 2794000    0.5557406   -2.3101642   0.83277729    -1.477387   0.14243086    11147.815     1000 
 2796000   0.52854186   -2.3324397   0.79201998   -1.5404197   0.12156134    11272.109     1000 
 2798000   0.53541058   -2.2544808   0.80231275   -1.4521681   0.13375996    11167.799     1000 
 2800000   0.55214328   -2.2824812    0.8273867   -1.4550945   0.12258218    11370.348     1000 
 2802000    0.5433495   -2.2878732   0.81420923   -1.4736639   0.13129983    11284.732     1000 
 2804000   0.57480456   -2.2945948   0.86134464   -1.4332501   0.13815495    11185.074     1000 
 2806000   0.54445969    -2.220893   0.81587284   -1.4050201   0.12754818      11176.5     1000 
 2808000    0.5281229   -2.2812005   0.79139217   -1.4898084   0.13136218    11152.937     1000 
 2810000   0.53340406   -2.2604142   0.79930599   -1.4611082   0.12480756    11420.045     1000 
 2812000   0.54564488   -2.3223234   0.81764886   -1.5046746   0.13810084    11199.508     1000 
 2814000   0.56026264   -2.3050584   0.83955357   -1.4655049   0.13048381    11315.323     1000 
 2816000    0.5622141   -2.2667861   0.84247782   -1.4243083   0.14531968     11151.48     1000 
 2818000   0.54796564   -2.2892429   0.82112652   -1.4681164   0.13367449    11150.847     1000 
 2820000   0.55527489   -2.2867027   0.83207942   -1.4546232   0.14786162    11155.737     1000 
 2822000   0.55227192   -2.2864793   0.82757947   -1.4588998   0.10543754    11504.743     1000 
 2824000   0.55493786   -2.2642192   0.83157438   -1.4326448   0.13028353    11281.756     1000 
 2826000   0.54731742   -2.2735753   0.82015515   -1.4534202   0.11540761     11159.59     1000 
 2828000   0.54142795   -2.3062821   0.81132979   -1.4949523   0.12511191    11368.304     1000 
 2830000   0.55488741   -2.2911529   0.83149879   -1.4596542   0.13194289    11278.868     1000 
 2832000   0.54816232   -2.2433953   0.82142124   -1.4219741   0.13015595    11278.828     1000 
 2834000   0.55808315   -2.2960767    0.8362876   -1.4597891    0.1340117    11271.825     1000 
 2836000    0.5556158   -2.2758431   0.83259028   -1.4432528    0.1258201     11451.87     1000 
 2838000   0.55896482   -2.2723476   0.83760878   -1.4347388   0.12578637    11166.888     1000 
 2840000   0.53528759    -2.265262   0.80212846   -1.4631336   0.12515606    11165.931     1000 
 2842000   0.51818989   -2.2766761   0.77650754   -1.5001685   0.11284421    11174.176     1000 
 2844000   0.56711387   -2.3098648   0.84982013   -1.4600447   0.13494217     11363.93     1000 
 2846000   0.56114158   -2.3228518   0.84087066   -1.4819811   0.14149724    11114.883     1000 
 2848000   0.53323853   -2.2537869   0.79905794    -1.454729   0.13323521    11214.559     1000 
 2850000   0.54915096   -2.3310117   0.82290271    -1.508109   0.12892028    11146.684     1000 
 2852000   0.54377178   -2.2791145   0.81484202   -1.4642724   0.11859918    11192.003     1000 
 2854000   0.55054615   -2.2891896   0.82499341   -1.4641962   0.14370217    11152.861     1000 
 2856000   0.55767019   -2.2479425   0.83566877   -1.4122737   0.13620685     11180.47     1000 
 2858000   0.55482732   -2.2800106   0.83140873   -1.4486018   0.14037391    11243.783     1000 
 2860000   0.54146009   -2.2959839   0.81137794   -1.4846059   0.13778073    11074.697     1000 
 2862000   0.55966804   -2.3079309   0.83866256   -1.4692683    0.1330596    11202.157     1000 
 2864000   0.57428536   -2.2598915   0.86056662   -1.3993249   0.12634394    11154.043     1000 
 2866000   0.52096443   -2.2945348    0.7806652   -1.5138696   0.13361734    11215.527     1000 
 2868000   0.55626478   -2.2630662   0.83356277   -1.4295034   0.12928275    11247.932     1000 
 2870000   0.56289245   -2.2910625   0.84349434   -1.4475682   0.13557168    11239.095     1000 
 2872000   0.55622403   -2.3001989    0.8335017   -1.4666972   0.13617011    11070.496     1000 
 2874000   0.56299017   -2.2814014   0.84364077   -1.4377606   0.13817368    11362.193     1000 
 2876000   0.54913617   -2.2756826   0.82288054    -1.452802   0.13269141    11306.842     1000 
 2878000   0.52716276   -2.2918001   0.78995339   -1.5018467   0.13386433    11166.073     1000 
 2880000   0.56565577   -2.2791283   0.84763517   -1.4314931   0.14340184    11061.644     1000 
 2882000   0.55884211   -2.2447505   0.83742491   -1.4073256   0.13252836    11288.091     1000 
 2884000    0.5442812    -2.254343   0.81560537   -1.4387377   0.14221473    11112.875     1000 
 2886000    0.5650001    -2.282847   0.84665265   -1.4361943   0.12757576    11249.975     1000 
 2888000   0.54981729   -2.2379892    0.8239012    -1.414088   0.12447647    11057.476     1000 
 2890000   0.52855907   -2.2690956   0.79204577   -1.4770499   0.13081143    11220.288     1000 
 2892000   0.55204795   -2.3383105   0.82724385   -1.5110666   0.11431628    11417.184     1000 
 2894000   0.54530218   -2.2371116   0.81713531   -1.4199763    0.1417083    11126.033     1000 
 2896000   0.56389733   -2.2666762   0.84500016   -1.4216761   0.12357729    11195.522     1000 
 2898000    0.5596554   -2.2798496   0.83864361    -1.441206   0.12637307    11378.248     1000 
 2900000     0.554535   -2.2704122    0.8309707   -1.4394415   0.14110648    11121.151     1000 
 2902000   0.54981071   -2.2263718   0.82389134   -1.4024805   0.12303817    11308.876     1000 
 2904000    0.5331885   -2.3010188   0.79898297   -1.5020359   0.12946399    11229.642     1000 
 2906000   0.54007322   -2.3313493   0.80929972   -1.5220495   0.13041742    11119.015     1000 
 2908000    0.5425153   -2.2881373   0.81295917   -1.4751781    0.1391407    11183.992     1000 
 2910000   0.55418525    -2.225463   0.83044659   -1.3950164   0.11764188    11229.168     1000 
 2912000   0.53072905   -2.2258019   0.79529748   -1.4305044   0.13467261     11110.34     1000 
 2914000    0.5687026   -2.3313844   0.85220084   -1.4791835   0.12773531    11369.381     1000 
 2916000   0.55348845   -2.2982476   0.82940245   -1.4688451   0.13968651    11155.789     1000 
 2918000   0.55097628    -2.268292   0.82563795   -1.4426541   0.12803719    11167.919     1000 
 2920000   0.58377175   -2.2649025   0.87478196   -1.3901206   0.12943483    11165.244     1000 
 2922000   0.56208559   -2.2972301   0.84228525   -1.4549448    0.1202103    11259.718     1000 
 2924000   0.53004387   -2.2991406   0.79427073   -1.5048699   0.12343429    11361.138     1000 
 2926000   0.55535305   -2.2767644   0.83219654   -1.4445679   0.12362875    11358.292     1000 
 2928000    0.5826321   -2.2996492    0.8730742    -1.426575   0.14453829    11050.506     1000 
 2930000   0.55594819   -2.3103858   0.83308836   -1.4772974   0.13338235    11381.704     1000 
 2932000    0.5434985   -2.2700395    0.8144325    -1.455607   0.12774167    11216.373     1000 
 2934000   0.57966931   -2.2575354   0.86863446   -1.3889009   0.14075339    11157.426     1000 
 2936000    0.5483767   -2.2843196   0.82174248   -1.4625771   0.14252805    11073.117     1000 
 2938000   0.55311313   -2.2727779   0.82884003   -1.4439378    0.1169766    11338.545     1000 
 2940000   0.54873996   -2.2543301   0.82228682   -1.4320433   0.11798583    11216.351     1000 
 2942000    0.5547636   -2.2848062   0.83131326    -1.453493   0.13720564    11173.004     1000 
 2944000   0.52466539   -2.2963148   0.78621109   -1.5101037   0.11582336    11433.088     1000 
 2946000   0.52014906   -2.2824498   0.77944336   -1.5030064   0.12788316    11200.762     1000 
 2948000   0.58200283   -2.2859634   0.87213124   -1.4138321   0.12855038    11452.604     1000 
 2950000   0.54173029   -2.2926561   0.81178284   -1.4808733   0.13208715    11072.757     1000 
 2952000   0.54376823   -2.3036098    0.8148367   -1.4887731   0.12240229     11207.07     1000 
 2954000   0.55609358   -2.3040675   0.83330624   -1.4707613    0.1308687     11351.14     1000 
 2956000   0.56700974    -2.299669    0.8496641   -1.4500049   0.12030109    11261.276     1000 
 2958000   0.53711877   -2.2421879   0.80487247   -1.4373155   0.13765207    11152.688     1000 
 2960000   0.58216244   -2.2496744   0.87237042    -1.377304     0.142727    11161.977     1000 
 2962000   0.55221282   -2.3187223    0.8274909   -1.4912314   0.13508839    11174.564     1000 
 2964000    0.5673703   -2.2517206    0.8502044   -1.4015162   0.13745644    11081.938     1000 
 2966000   0.55415896   -2.2761291    0.8304072   -1.4457219   0.12643473    11173.198     1000 
 2968000   0.53936748   -2.3350604   0.80824217   -1.5268183   0.13136021    11301.277     1000 
 2970000   0.52927721   -2.2811211    0.7931219   -1.4879992   0.13904539     11196.86     1000 
 2972000   0.51211912   -2.3161005    0.7674105     -1.54869   0.10991062    11449.817     1000 
 2974000    0.5466268   -2.2815426   0.81912026   -1.4624223    0.1397109    11114.801     1000 
 2976000   0.54349441   -2.2608076   0.81442638   -1.4463813   0.12871645    11198.821     1000 
 2978000   0.56086623   -2.3053489   0.84045805   -1.4648908    0.1339112    11264.668     1000 
 2980000   0.57530816   -2.3165347   0.86209927   -1.4544354   0.13042884    11227.535     1000 
 2982000   0.56376843   -2.2969735   0.84480699   -1.4521665   0.13726419    11166.441     1000 
 2984000   0.54891615   -2.2463826   0.82255085   -1.4238317   0.12777429    11127.857     1000 
 2986000   0.56151261   -2.2793926   0.84142665    -1.437966   0.12253838     11342.51     1000 
 2988000   0.55080628   -2.2848736   0.82538321   -1.4594904   0.12399375     11201.84     1000 
 2990000   0.54406535   -2.2323553   0.81528192   -1.4170734    0.1251123    11135.373     1000 
 2992000   0.56184024    -2.239156    0.8419176   -1.3972384   0.13195127    11285.669     1000 
 2994000   0.52136238   -2.2928021   0.78126152   -1.5115406   0.12333589    11346.151     1000 
 2996000   0.56043604   -2.3023012    0.8398134   -1.4624878   0.13842691    11163.788     1000 
 2998000   0.53414556   -2.2799171   0.80041713      -1.4795   0.12782267    11223.948     1000 
 3000000   0.54785592   -2.2831314    0.8209621   -1.4621693    0.1428369    11067.628     1000 
Loop time of 2497.26 on 4 procs for 3000000 steps with 1000 atoms

Performance: 518968.482 tau/day, 1201.316 timesteps/s
95.8% CPU use with 4 MPI tasks x 1 OpenMP threads

MPI task timing breakdown:
Section |  min time  |  avg time  |  max time  |%varavg| %total
---------------------------------------------------------------
Pair    | 815.15     | 847.26     | 882.44     |  88.9 | 33.93
Neigh   | 84.556     | 85.94      | 87.247     |  11.2 |  3.44
Comm    | 167.46     | 204.42     | 238.75     | 192.4 |  8.19
Output  | 0.19215    | 7.1104     | 9.4272     | 149.8 |  0.28
Modify  | 1343       | 1345.5     | 1352.3     |  10.6 | 53.88
Other   |            | 7.032      |            |       |  0.28

Nlocal:        250.000 ave         254 max         245 min
Histogram: 1 0 0 0 0 1 1 0 0 1
Nghost:        1723.50 ave        1733 max        1712 min
Histogram: 1 0 0 0 1 0 0 1 0 1
Neighs:        14821.2 ave       15260 max       14546 min
Histogram: 1 1 0 1 0 0 0 0 0 1

Total # of neighbors = 59285
Ave neighs/atom = 59.285000
Neighbor list builds = 150000
Dangerous builds not checked

Total wall time: 0:41:37
