LAMMPS (29 Sep 2021 - Update 2)
OMP_NUM_THREADS environment is not set. Defaulting to 1 thread. (src/comm.cpp:98)
  using 1 OpenMP thread(s) per MPI task
# ----------------------- Inicialização -----------------------

units			lj
atom_style 		atomic
dimension 		3
boundary 		p p p

# -------------------- Criação dos Átomos ---------------------

read_data 		topologia.txt
Reading data file ...
  orthogonal box = (0.0000000 0.0000000 0.0000000) to (21.540000 21.540000 21.540000)
  1 by 2 by 2 MPI processor grid
  reading atoms ...
  1000 atoms
  read_data CPU = 0.002 seconds

velocity 		all create ${temp} 87287 rot yes dist gaussian
velocity 		all create 0.44 87287 rot yes dist gaussian

# ------------------ Interação Interatômica -------------------

pair_style		table linear 1300
pair_coeff		1 1 force.table AA 6.5
WARNING: 2 of 1300 force values in table AA are inconsistent with -dE/dr.
WARNING:  Should only be flagged at inflection points (src/pair_table.cpp:465)
pair_coeff		1 2 force.table AB 6.5
WARNING: 1 of 1300 force values in table AB are inconsistent with -dE/dr.
WARNING:  Should only be flagged at inflection points (src/pair_table.cpp:465)
pair_coeff		2 2 force.table BB 6.5
pair_write		1 1 1600 r 0.008 6.5 table.check AA
Appending to table file table.check with DATE: 2023-08-12
Neighbor list info ...
  update every 1 steps, delay 10 steps, check yes
  max neighbors/atom: 2000, page size: 100000
  master list distance cutoff = 6.8
  ghost atom cutoff = 6.8
  binsize = 3.4, bins = 7 7 7
  1 neighbor lists, perpetual/occasional/extra = 1 0 0
  (1) pair table, perpetual
      attributes: half, newton on
      pair build: half/bin/atomonly/newton
      stencil: half/bin/3d
      bin: standard
pair_write		1 2 1600 r 0.008 6.5 table.check AB
Appending to table file table.check with DATE: 2023-08-12
pair_write		2 2 1600 r 0.008 6.5 table.check BB
Appending to table file table.check with DATE: 2023-08-12

neighbor 		0.3 bin
neigh_modify	every 20 delay 0 check no

# ------------------------- Ensemble --------------------------------------

fix 1			all npt temp ${temp} ${temp} 0.5 iso ${press} ${press} 5
fix 1			all npt temp 0.44 ${temp} 0.5 iso ${press} ${press} 5
fix 1			all npt temp 0.44 0.44 0.5 iso ${press} ${press} 5
fix 1			all npt temp 0.44 0.44 0.5 iso 0.13 ${press} 5
fix 1			all npt temp 0.44 0.44 0.5 iso 0.13 0.13 5

# ---------------------- Função de Distribuição Radial -----------------------

compute RDF 	all rdf 2000 1 1 1 2 2 2
fix 2 			all ave/time 1 2000 2000 c_RDF[*] file rdf.data mode vector

# ------------------------- Execução ---------------------------

timestep 		0.005
thermo_style	custom step temp pe ke etotal press vol atoms
thermo			2000
run				3000000
Neighbor list info ...
  update every 20 steps, delay 0 steps, check no
  max neighbors/atom: 2000, page size: 100000
  master list distance cutoff = 6.8
  ghost atom cutoff = 6.8
  binsize = 3.4, bins = 7 7 7
  2 neighbor lists, perpetual/occasional/extra = 1 1 0
  (1) pair table, perpetual
      attributes: half, newton on
      pair build: half/bin/atomonly/newton
      stencil: half/bin/3d
      bin: standard
  (2) compute rdf, occasional, copy from (1)
      attributes: half, newton on
      pair build: copy
      stencil: none
      bin: none
Per MPI rank memory allocation (min/avg/max) = 2.675 | 2.675 | 2.675 Mbytes
Step Temp PotEng KinEng TotEng Press Volume Atoms 
       0         0.44  -0.26787049      0.65934   0.39146951    0.5731438    9993.9483     1000 
    2000   0.45871914   -2.2306892   0.68739063   -1.5432986   0.13322347    11356.502     1000 
    4000   0.42723647   -2.2392908   0.64021385    -1.599077   0.12335475    11295.282     1000 
    6000    0.4411643    -2.215159   0.66108471   -1.5540743   0.13896269    11084.041     1000 
    8000   0.41660943   -2.2902801   0.62428923   -1.6659909   0.12327758    11408.335     1000 
   10000    0.4513191   -2.1699481   0.67630167   -1.4936464   0.12946907    11260.659     1000 
   12000   0.45367272   -2.2885265   0.67982858    -1.608698   0.14012044    11165.333     1000 
   14000   0.42154557   -2.2802865   0.63168603   -1.6486004   0.13046006     11311.16     1000 
   16000   0.42504532   -2.2582936   0.63693041   -1.6213632   0.12570894    11292.731     1000 
   18000   0.44960847   -2.2329335    0.6737383   -1.5591952   0.14714195    11174.333     1000 
   20000   0.45873325    -2.238229   0.68741177   -1.5508172   0.13853383    11179.703     1000 
   22000   0.43303413   -2.2260643   0.64890164   -1.5771626   0.13800106    11149.842     1000 
   24000   0.45787042   -2.2945575   0.68611882   -1.6084386   0.11019029    11465.669     1000 
   26000   0.42218399   -2.2722796   0.63264271   -1.6396369   0.13667796    11204.555     1000 
   28000   0.45636041   -2.2656544   0.68385608   -1.5817983   0.14892709    11142.075     1000 
   30000   0.42525344   -2.2498173   0.63724228    -1.612575   0.11969707    11374.563     1000 
   32000   0.45673005   -2.2991011   0.68440999   -1.6146911    0.1283427    11423.305     1000 
   34000    0.4429807   -2.2421225   0.66380658   -1.5783159   0.13720798    11240.769     1000 
   36000   0.43782029   -2.2685947   0.65607371    -1.612521   0.14542126    11272.804     1000 
   38000   0.44322723   -2.2760077     0.664176   -1.6118317   0.12896752    11318.949     1000 
   40000   0.42709719   -2.2752686   0.64000513   -1.6352634   0.13174635    11260.571     1000 
   42000   0.43754644   -2.2662588   0.65566334   -1.6105954   0.12727175    11388.638     1000 
   44000   0.43722071   -2.2433047   0.65517524   -1.5881295   0.12877118    11327.536     1000 
   46000   0.45309593   -2.2289461   0.67896425   -1.5499819   0.13751795    11228.761     1000 
   48000   0.43479426   -2.2565597    0.6515392   -1.6050205   0.10826409    11380.803     1000 
   50000   0.43788516   -2.2428982   0.65617091   -1.5867273   0.12960848    11328.443     1000 
   52000    0.4438966   -2.2734564   0.66517905   -1.6082773    0.1391209    11187.627     1000 
   54000   0.42787364   -2.2984099   0.64116865   -1.6572412   0.11861447    11359.335     1000 
   56000   0.45722787   -2.2614071   0.68515596   -1.5762512   0.13674059    11185.195     1000 
   58000   0.44088155   -2.2879627     0.660661   -1.6273017   0.12395131    11340.428     1000 
   60000   0.44230225   -2.2441468   0.66278992   -1.5813569   0.13038466    11323.678     1000 
   62000   0.43821192   -2.2883474   0.65666057   -1.6316868   0.12600022    11365.423     1000 
   64000   0.41433536   -2.2466542   0.62088154   -1.6257727     0.120245    11370.446     1000 
   66000   0.42677222   -2.2875916   0.63951818   -1.6480734   0.14317634    11214.143     1000 
   68000   0.42211227   -2.2765526   0.63253523   -1.6440174   0.13114301    11298.664     1000 
   70000   0.45608278   -2.2653189   0.68344004   -1.5818788   0.12767933    11318.616     1000 
   72000   0.45078779   -2.3012666   0.67550551   -1.6257611   0.12496996    11358.605     1000 
   74000   0.43695547   -2.2693305   0.65477778   -1.6145527   0.13909874    11290.515     1000 
   76000   0.43557627   -2.2715254   0.65271103   -1.6188144    0.1285461    11381.455     1000 
   78000   0.45063526   -2.2660923   0.67527693   -1.5908154   0.14444806    11311.874     1000 
   80000   0.42260524   -2.2491964   0.63327395   -1.6159224    0.1365146    11238.594     1000 
   82000   0.42454126   -2.2199368   0.63617508   -1.5837617   0.12035329    11171.997     1000 
   84000   0.44354536   -2.2656869   0.66465273   -1.6010342   0.12456257    11438.412     1000 
   86000   0.42334305    -2.236623   0.63437956   -1.6022434   0.13570182     11335.93     1000 
   88000   0.42893171   -2.2503658   0.64275417   -1.6076116   0.13699608    11304.386     1000 
   90000   0.43967799   -2.2511862   0.65885747   -1.5923288   0.12778458    11224.591     1000 
   92000   0.42693447   -2.2842466    0.6397613   -1.6444853   0.11794706    11392.016     1000 
   94000   0.45034769   -2.2832136   0.67484602   -1.6083675    0.1148051    11358.809     1000 
   96000   0.45215124   -2.2773899   0.67754863   -1.5998413   0.13258887    11310.888     1000 
   98000   0.44755808   -2.2753183   0.67066578   -1.6046526   0.12582159    11247.146     1000 
  100000   0.44025152    -2.269135   0.65971691   -1.6094181   0.12384049    11451.824     1000 
  102000   0.45458742   -2.2786258   0.68119924   -1.5974265   0.12952268    11270.049     1000 
  104000   0.42824051   -2.2439171    0.6417184   -1.6021987   0.12715902    11394.066     1000 
  106000   0.44569113   -2.2557206   0.66786816   -1.5878524   0.13351965    11338.732     1000 
  108000   0.44818053   -2.2152168   0.67159852   -1.5436183   0.13831985    11161.756     1000 
  110000   0.43496608   -2.3041296   0.65179666   -1.6523329   0.10673996    11503.175     1000 
  112000   0.43134374   -2.2526431   0.64636859   -1.6062745   0.13048627    11422.465     1000 
  114000   0.41184115   -2.2704595   0.61714397   -1.6533156   0.12536779    11398.738     1000 
  116000   0.44499057   -2.2569095   0.66681837   -1.5900911   0.11713821    11414.379     1000 
  118000   0.43792343   -2.2661657   0.65622825   -1.6099374   0.13335873    11262.537     1000 
  120000   0.43324797   -2.2178897   0.64922209   -1.5686677   0.14125544    11274.069     1000 
  122000    0.4640529   -2.2833049   0.69538327   -1.5879216   0.14220553    11381.838     1000 
  124000   0.44949326   -2.2521539   0.67356564   -1.5785882   0.12933124    11287.485     1000 
  126000   0.43435955   -2.2714765   0.65088778   -1.6205887   0.13141528    11294.546     1000 
  128000   0.43787985   -2.2643438   0.65616295   -1.6081808   0.13312926    11296.691     1000 
  130000    0.4462043   -2.2272409   0.66863715   -1.5586037   0.13030717    11321.904     1000 
  132000   0.43128224   -2.2648408   0.64627644   -1.6185644   0.13553076    11314.209     1000 
  134000   0.43488982   -2.3116728    0.6516824   -1.6599904   0.12848691    11273.392     1000 
  136000   0.41634911   -2.2446572   0.62389914   -1.6207581    0.1105716    11437.408     1000 
  138000   0.43297531   -2.3266957    0.6488135   -1.6778822   0.12654963    11375.067     1000 
  140000   0.44916826   -2.2353621   0.67307864   -1.5622835   0.13359869    11277.579     1000 
  142000   0.43488224   -2.2072529   0.65167104   -1.5555818   0.14254601    11126.785     1000 
  144000    0.4411477   -2.2732376   0.66105983   -1.6121778   0.13446219     11284.37     1000 
  146000   0.46648285   -2.2955917   0.69902456   -1.5965671   0.11839724    11588.007     1000 
  148000   0.44896728   -2.2835822   0.67277747   -1.6108047   0.13915629    11266.287     1000 
  150000   0.42352866   -2.3003164    0.6346577   -1.6656587   0.13563097    11345.835     1000 
  152000   0.44322318   -2.3046695   0.66416993   -1.6404996   0.14792432    11257.192     1000 
  154000   0.44975208   -2.2918153   0.67395349   -1.6178618   0.12645869    11334.499     1000 
  156000   0.43999078   -2.2887747   0.65932619   -1.6294485   0.13659871    11306.441     1000 
  158000   0.44041751   -2.2437125   0.65996564   -1.5837469    0.1380002    11271.552     1000 
  160000   0.44547453   -2.2670703   0.66754358   -1.5995267   0.12791806    11267.346     1000 
  162000   0.44492311   -2.2336501   0.66671728   -1.5669328   0.12961326    11369.797     1000 
  164000   0.44128161    -2.218032   0.66126049   -1.5567715   0.12698739    11321.426     1000 
  166000   0.45423967   -2.2421519   0.68067814   -1.5614738   0.11998756    11305.338     1000 
  168000   0.44225426   -2.2818532   0.66271801   -1.6191352   0.12239086    11360.804     1000 
  170000   0.45341116   -2.2746886   0.67943662   -1.5952519   0.13028902    11309.765     1000 
  172000   0.44746832   -2.2714896   0.67053127   -1.6009583   0.13420015    11261.751     1000 
  174000   0.43524524   -2.2822191   0.65221499   -1.6300041   0.12674074    11426.405     1000 
  176000   0.43494344   -2.2726341   0.65176274   -1.6208713   0.12702616    11399.118     1000 
  178000   0.43150771   -2.2435634    0.6466143   -1.5969491   0.12711749    11380.703     1000 
  180000   0.45051168     -2.32421   0.67509176   -1.6491183   0.12801227    11453.427     1000 
  182000   0.43449065   -2.2567837   0.65108424   -1.6056995   0.14547073    11159.201     1000 
  184000   0.44478038   -2.2733577    0.6665034   -1.6068543   0.12907251    11345.065     1000 
  186000   0.42754896   -2.2508093   0.64068211   -1.6101272   0.11978361    11469.738     1000 
  188000   0.44732282   -2.2328407   0.67031325   -1.5625274   0.14263302    11154.071     1000 
  190000   0.45249793   -2.2425662   0.67806815    -1.564498   0.14169339     11263.33     1000 
  192000   0.43734655   -2.2437769    0.6553638   -1.5884131    0.1167028    11353.614     1000 
  194000   0.45433448   -2.1794495   0.68082022   -1.4986293   0.13816574    11159.346     1000 
  196000    0.4329687   -2.3006154    0.6488036   -1.6518118   0.11839855    11426.391     1000 
  198000   0.44731293   -2.2427807   0.67029843   -1.5724823   0.13676242    11303.777     1000 
  200000   0.43811821   -2.3030985   0.65652013   -1.6465784   0.12353416    11364.173     1000 
  202000   0.42871633   -2.2674284   0.64243142    -1.624997   0.13483809    11340.811     1000 
  204000    0.4406578   -2.2909624   0.66032571   -1.6306367   0.13307286     11314.65     1000 
  206000   0.43761751   -2.3005666   0.65576984   -1.6447968   0.13616744    11364.783     1000 
  208000   0.42932618   -2.2639053   0.64334529     -1.62056   0.13148389    11267.901     1000 
  210000   0.44202357   -2.2591937   0.66237232   -1.5968214   0.11692459    11417.335     1000 
  212000   0.45857972   -2.2389426   0.68718172   -1.5517609    0.1173341    11317.654     1000 
  214000   0.42457192   -2.2657072   0.63622103   -1.6294862   0.13112388    11304.801     1000 
  216000   0.43001694    -2.284691   0.64438038   -1.6403107   0.12140926     11484.15     1000 
  218000   0.43998217   -2.2961595   0.65931328   -1.6368462   0.13206193    11337.426     1000 
  220000   0.45269947   -2.3175746   0.67837015   -1.6392044   0.13143188    11435.173     1000 
  222000   0.44106317   -2.2581019   0.66093316   -1.5971687   0.14988892     11136.81     1000 
  224000   0.44696187   -2.2491664   0.66977237    -1.579394    0.1283568    11300.202     1000 
  226000   0.43542639   -2.2892168   0.65248644   -1.6367304   0.13743602    11225.782     1000 
  228000   0.43565261    -2.264167   0.65282544   -1.6113416   0.13712982    11300.309     1000 
  230000   0.43780038   -2.2236392   0.65604387   -1.5675953   0.12828824    11360.504     1000 
  232000   0.45652999   -2.2453175    0.6841102   -1.5612073   0.13274658    11283.167     1000 
  234000   0.44027658    -2.237188   0.65975445   -1.5774335    0.1292086    11304.384     1000 
  236000   0.43655779   -2.2644678   0.65418184   -1.6102859    0.1329721    11239.955     1000 
  238000   0.43263785   -2.2996976   0.64830782   -1.6513898   0.14395438    11236.235     1000 
  240000   0.43121104   -2.2445876   0.64616974   -1.5984178   0.12424231    11289.735     1000 
  242000   0.43664339   -2.2859778   0.65431011   -1.6316677   0.13011725    11370.657     1000 
  244000   0.42553577   -2.2393846   0.63766535   -1.6017193   0.13403634    11298.148     1000 
  246000   0.43719263   -2.2429457   0.65513315   -1.5878126   0.13398186    11254.982     1000 
  248000   0.43175232   -2.3075007   0.64698085   -1.6605198   0.12652562    11415.568     1000 
  250000   0.43584913   -2.2315431   0.65311993   -1.5784232   0.12535382    11262.579     1000 
  252000   0.44371198   -2.2496001    0.6649024   -1.5846977   0.14155624     11214.47     1000 
  254000   0.42918098   -2.2590273   0.64312771   -1.6158996    0.1356774    11264.693     1000 
  256000   0.43969338   -2.2715966   0.65888053   -1.6127161   0.13278648    11319.885     1000 
  258000   0.43279899   -2.2343846   0.64854929   -1.5858353   0.11790576    11405.796     1000 
  260000   0.43182883   -2.3044171    0.6470955   -1.6573216   0.12788256    11419.681     1000 
  262000    0.4228162   -2.2813339   0.63359007   -1.6477438   0.12699302    11196.595     1000 
  264000   0.43285615   -2.2513404   0.64863494   -1.6027054   0.11770178    11302.612     1000 
  266000   0.44758231   -2.2351925    0.6707021   -1.5644904   0.11908751    11373.806     1000 
  268000   0.43103374    -2.232229   0.64590405   -1.5863249    0.1508307    11152.119     1000 
  270000   0.45865947   -2.2749665   0.68730121   -1.5876653   0.13712306    11294.122     1000 
  272000   0.43066475   -2.2729031   0.64535113   -1.6275519    0.1286019    11289.762     1000 
  274000   0.42190588   -2.2272252   0.63222596   -1.5949993   0.12834689    11302.498     1000 
  276000   0.44874161   -2.2742438    0.6724393   -1.6018045   0.13881626    11249.744     1000 
  278000   0.45194759    -2.244469   0.67724346   -1.5672256   0.15042088    11155.812     1000 
  280000   0.42823288   -2.2840085   0.64170697   -1.6423015   0.13972307    11268.977     1000 
  282000   0.43504342   -2.2690265   0.65191257   -1.6171139   0.13220798    11335.687     1000 
  284000   0.44924184   -2.2396295    0.6731889   -1.5664406   0.12913209    11255.214     1000 
  286000    0.4345229    -2.263916   0.65113256   -1.6127835   0.13288398    11385.229     1000 
  288000   0.44145047   -2.2557011   0.66151353   -1.5941876   0.13518699    11214.098     1000 
  290000   0.43495252   -2.2676347   0.65177635   -1.6158584   0.12306014    11397.047     1000 
  292000   0.43456228   -2.2436972   0.65119157   -1.5925056   0.12438865    11319.978     1000 
  294000   0.44866344   -2.3089145   0.67232216   -1.6365923   0.12196238    11354.893     1000 
  296000   0.44863951   -2.2862685   0.67228631   -1.6139822   0.12779858    11312.389     1000 
  298000   0.43688659   -2.2490618   0.65467455   -1.5943873   0.12105023    11273.387     1000 
  300000   0.42688485   -2.2831416   0.63968695   -1.6434546   0.13030522    11374.579     1000 
  302000   0.44809575   -2.2329456   0.67147148   -1.5614741   0.14558152    11197.018     1000 
  304000   0.44483407   -2.2643177   0.66658386   -1.5977339   0.13806451    11276.976     1000 
  306000   0.43561564   -2.2859024   0.65277004   -1.6331324   0.12299935    11389.868     1000 
  308000   0.44115389   -2.3132268   0.66106911   -1.6521577   0.11731897    11284.839     1000 
  310000    0.4285133   -2.2210969   0.64212718   -1.5789698   0.12509732    11282.701     1000 
  312000   0.43170815   -2.2818215   0.64691466   -1.6349068   0.12695114    11339.581     1000 
  314000   0.43467443   -2.2805908   0.65135963   -1.6292312   0.13139881    11317.863     1000 
  316000   0.43256619   -2.2195321   0.64820043   -1.5713317   0.13312069        11282     1000 
  318000   0.42615234   -2.2867937   0.63858928   -1.6482044   0.13201077    11330.643     1000 
  320000   0.45184968   -2.3002209   0.67709674   -1.6231242   0.11326284    11527.146     1000 
  322000   0.44454627   -2.2501405   0.66615258   -1.5839879   0.13790531    11304.025     1000 
  324000   0.44948439   -2.1930682   0.67355236   -1.5195158   0.13150306    11196.327     1000 
  326000   0.44583592   -2.2599795   0.66808512   -1.5918944   0.13800278    11277.055     1000 
  328000   0.44353933    -2.261891   0.66464369   -1.5972473   0.12896409    11392.272     1000 
  330000    0.4398405   -2.2698073   0.65910099   -1.6107063   0.12317802    11312.792     1000 
  332000   0.43909511   -2.2719043   0.65798402   -1.6139202   0.12668308    11286.929     1000 
  334000   0.45473856   -2.2385577   0.68142573   -1.5571319   0.11673377    11389.251     1000 
  336000   0.42198498   -2.1979901   0.63234449   -1.5656456   0.13494676    11301.966     1000 
  338000   0.43355617   -2.2871444   0.64968393   -1.6374604   0.13436549    11263.191     1000 
  340000   0.45091621   -2.2614411   0.67569795   -1.5857432   0.13593468    11266.629     1000 
  342000   0.45234353   -2.2730608   0.67783678    -1.595224   0.13475163    11287.377     1000 
  344000   0.42905364   -2.3035561   0.64293687   -1.6606192   0.12711725    11394.286     1000 
  346000   0.44156789   -2.2116137   0.66168948   -1.5499242   0.12925425    11236.784     1000 
  348000   0.42977393   -2.2597347   0.64401623   -1.6157185   0.13237367    11264.714     1000 
  350000   0.42196813   -2.2578015   0.63231925   -1.6254823   0.13036287    11203.669     1000 
  352000   0.45953573   -2.2530914   0.68861429   -1.5644771   0.13340715    11382.055     1000 
  354000   0.43395284   -2.2599666   0.65027832   -1.6096883   0.12783895    11396.779     1000 
  356000   0.42272043   -2.2480294   0.63344656   -1.6145828   0.13547266    11298.256     1000 
  358000   0.44986938   -2.2915529   0.67412926   -1.6174237    0.1261607     11340.02     1000 
  360000   0.42864764   -2.2485036    0.6423285   -1.6061751    0.1335854    11237.416     1000 
  362000   0.41784467   -2.2573872   0.62614024    -1.631247   0.12530728    11220.546     1000 
  364000   0.44510252   -2.2505337   0.66698613   -1.5835475    0.1236798    11374.472     1000 
  366000   0.42989551    -2.244567   0.64419842   -1.6003686   0.13052834    11167.623     1000 
  368000   0.44271494   -2.3482154   0.66340834   -1.6848071   0.13023026    11400.237     1000 
  370000   0.43987364   -2.2712728   0.65915065   -1.6121221   0.12312901    11344.963     1000 
  372000   0.45195544   -2.2795823   0.67725523    -1.602327   0.13968722    11214.555     1000 
  374000   0.45288198   -2.2945121   0.67864364   -1.6158685   0.13711825    11365.451     1000 
  376000   0.42877123   -2.2730979   0.64251369   -1.6305842   0.13009425    11329.726     1000 
  378000   0.44546588   -2.2422627   0.66753062   -1.5747321   0.15147541    11135.673     1000 
  380000   0.45605351   -2.2189568   0.68339619   -1.5355606    0.1338173    11169.948     1000 
  382000   0.44303902   -2.2754529   0.66389397   -1.6115589     0.122001    11485.639     1000 
  384000   0.42735553    -2.262169   0.64039226   -1.6217768   0.13586051    11287.703     1000 
  386000   0.45048728   -2.2778832   0.67505519    -1.602828   0.13205296    11243.223     1000 
  388000   0.46124255    -2.247878   0.69117196   -1.5567061   0.12927589    11315.517     1000 
  390000   0.43398965   -2.2684335   0.65033349   -1.6181001   0.13199049    11299.756     1000 
  392000   0.42122569   -2.3029679    0.6312067   -1.6717612   0.13423731    11201.647     1000 
  394000   0.45592427   -2.2538196   0.68320252   -1.5706171   0.13053258    11352.226     1000 
  396000   0.44721845    -2.259659   0.67015685   -1.5895022   0.13189831    11239.179     1000 
  398000   0.43322788   -2.2423717   0.64919198   -1.5931798   0.12950753    11262.812     1000 
  400000   0.44356991   -2.2498813    0.6646895   -1.5851918   0.12122071    11374.739     1000 
  402000   0.43686085   -2.2717232   0.65463598   -1.6170873   0.11735409    11337.956     1000 
  404000   0.44391396   -2.2989183   0.66520507   -1.6337132   0.13845312    11340.492     1000 
  406000   0.45299949   -2.2719537   0.67881974   -1.5931339   0.12721039    11379.723     1000 
  408000   0.41235148   -2.2591304   0.61790869   -1.6412217   0.13715225    11115.502     1000 
  410000   0.45366535   -2.2950449   0.67981752   -1.6152274    0.1294681    11369.131     1000 
  412000   0.44517251   -2.2749925     0.667091   -1.6079015   0.12976259    11368.804     1000 
  414000   0.43539009   -2.2698532   0.65243205   -1.6174211   0.12948933    11297.804     1000 
  416000   0.46104789   -2.2474108   0.69088026   -1.5565305   0.13673313     11281.64     1000 
  418000   0.41861183   -2.3234879   0.62728982   -1.6961981   0.13396077    11304.922     1000 
  420000   0.44029092   -2.2914416   0.65977595   -1.6316656   0.13116599    11495.217     1000 
  422000   0.42295758   -2.2603526   0.63380193   -1.6265507   0.13285169    11282.839     1000 
  424000   0.43209953   -2.2759531   0.64750114    -1.628452    0.1279715      11404.9     1000 
  426000   0.45176121   -2.2607193   0.67696417   -1.5837551   0.11902685    11456.364     1000 
  428000   0.44385345   -2.2433603    0.6651144   -1.5782459   0.12622875    11291.414     1000 
  430000   0.44490351   -2.2468059   0.66668791   -1.5801179   0.13348333    11290.746     1000 
  432000   0.45546852   -2.2069667   0.68251957   -1.5244471   0.14625604    11216.566     1000 
  434000   0.44103566   -2.2711397   0.66089194   -1.6102477    0.1352272    11343.967     1000 
  436000   0.45064118   -2.2516675   0.67528581   -1.5763816   0.12540964    11325.219     1000 
  438000   0.43797396   -2.2348385   0.65630398   -1.5785345   0.14277213    11160.244     1000 
  440000   0.44313899   -2.2559119   0.66404378   -1.5918681    0.1220658    11352.281     1000 
  442000   0.44018135   -2.2082689   0.65961175   -1.5486572   0.12662777    11243.847     1000 
  444000   0.43013354   -2.2376341    0.6445551    -1.593079   0.14533465    11270.228     1000 
  446000   0.44005751   -2.2949068   0.65942617   -1.6354806    0.1259017    11273.186     1000 
  448000   0.44001128   -2.2727682   0.65935691   -1.6134113   0.12387633    11465.632     1000 
  450000   0.43248576   -2.2490426   0.64807991   -1.6009627   0.12622998    11338.436     1000 
  452000   0.43425092   -2.2659087     0.650725   -1.6151837   0.13543606      11232.1     1000 
  454000   0.42484989   -2.3078755   0.63663755    -1.671238   0.13001373    11241.967     1000 
  456000   0.45918675   -2.2457105   0.68809135   -1.5576192   0.13729177    11242.627     1000 
  458000   0.42186644   -2.2151423   0.63216686   -1.5829754   0.12280466    11253.947     1000 
  460000   0.42367943   -2.2671597   0.63488362   -1.6322761   0.13502734    11339.747     1000 
  462000   0.43332222   -2.2235892   0.64933334   -1.5742559   0.13006764    11259.259     1000 
  464000   0.43468537   -2.2322238   0.65137602   -1.5808478   0.13259607    11189.183     1000 
  466000   0.43881442   -2.2213848   0.65756341   -1.5638214    0.1276462    11257.824     1000 
  468000   0.43266351    -2.251623   0.64834627   -1.6032767   0.12995251    11202.986     1000 
  470000   0.43026745   -2.2265952   0.64475577   -1.5818394   0.12864468    11356.865     1000 
  472000   0.42690724   -2.2927672    0.6397205   -1.6530467   0.12406412    11289.651     1000 
  474000   0.44181982   -2.3090827     0.662067   -1.6470157   0.11786512    11436.808     1000 
  476000   0.43160635   -2.2694726   0.64676212   -1.6227104   0.14654338    11275.963     1000 
  478000   0.44196575   -2.2625855   0.66228568   -1.6002999    0.1311087    11249.106     1000 
  480000   0.44238716   -2.2537649   0.66291715   -1.5908478   0.11925362    11347.981     1000 
  482000    0.4372481   -2.2259174   0.65521627   -1.5707011   0.13401503    11217.224     1000 
  484000   0.45401603    -2.265719   0.68034302    -1.585376   0.13192788    11369.752     1000 
  486000   0.44253143   -2.3045427   0.66313335   -1.6414094    0.1300009    11335.739     1000 
  488000   0.42734795   -2.2384285   0.64038091   -1.5980476   0.12054777    11387.763     1000 
  490000   0.43320987   -2.2685351   0.64916498   -1.6193701    0.1263587     11304.72     1000 
  492000   0.44747293   -2.2692352   0.67053819   -1.5986971   0.13313121    11270.759     1000 
  494000   0.42746854   -2.2877218    0.6405616   -1.6471602   0.12687991    11424.692     1000 
  496000     0.453474   -2.3071725   0.67953079   -1.6276417   0.14884237    11186.139     1000 
  498000   0.43483314   -2.3011654   0.65159746    -1.649568   0.12131267    11361.917     1000 
  500000   0.44872179   -2.2850036    0.6724096    -1.612594   0.13138216    11191.746     1000 
  502000   0.42408047   -2.2487338   0.63548458   -1.6132492   0.12663447    11305.636     1000 
  504000   0.45474039   -2.2287559   0.68142848   -1.5473274   0.14082778     11240.09     1000 
  506000   0.45676758   -2.2948626   0.68446621   -1.6103964   0.11281935    11517.947     1000 
  508000   0.43472867   -2.2308349    0.6514409    -1.579394   0.13893068     11185.61     1000 
  510000   0.44750106    -2.243035   0.67058033   -1.5724547   0.12494683    11386.823     1000 
  512000   0.43309776   -2.2732221     0.648997   -1.6242251   0.13835909    11297.104     1000 
  514000   0.43778507   -2.2615749   0.65602093    -1.605554   0.14036115     11131.13     1000 
  516000   0.44432603    -2.237598   0.66582255   -1.5717754   0.12160628    11372.426     1000 
  518000    0.4433218   -2.1924756   0.66431772   -1.5281579   0.13828379    11156.324     1000 
  520000   0.44917547   -2.2950878   0.67308944   -1.6219983   0.13007983    11396.044     1000 
  522000   0.44132676   -2.3036864   0.66132815   -1.6423583   0.14098195    11270.707     1000 
  524000   0.42976376   -2.2601701   0.64400099   -1.6161691   0.12501438    11317.316     1000 
  526000   0.45661741   -2.2499237   0.68424119   -1.5656825   0.12300014    11391.031     1000 
  528000   0.43981399   -2.2537028   0.65906127   -1.5946415   0.12771352    11339.402     1000 
  530000   0.44558104   -2.2834258   0.66770319   -1.6157226   0.12160585    11396.977     1000 
  532000   0.44739047   -2.1984125   0.67041461   -1.5279979   0.13166365    11242.975     1000 
  534000   0.43795186   -2.2384474   0.65627086   -1.5821766   0.13070622    11292.143     1000 
  536000    0.4375177    -2.248908   0.65562027   -1.5932877    0.1350605    11287.664     1000 
  538000   0.43779916   -2.2729985   0.65604204   -1.6169565   0.12742557     11263.19     1000 
  540000   0.44540737   -2.2693562   0.66744294   -1.6019133   0.13046573    11287.126     1000 
  542000   0.43666237   -2.2899126   0.65433856   -1.6355741    0.1391396      11347.4     1000 
  544000   0.45290962   -2.2607671   0.67868507    -1.582082   0.12768117    11317.266     1000 
  546000   0.41675122   -2.2763758    0.6245017   -1.6518741   0.13209351    11383.401     1000 
  548000   0.47042199   -2.2409141   0.70492735   -1.5359868   0.13911746    11265.976     1000 
  550000   0.45249855   -2.2154132   0.67806907   -1.5373442   0.13323106    11176.707     1000 
  552000   0.45019392   -2.3136028   0.67461559   -1.6389872   0.11897028    11494.144     1000 
  554000    0.4499581   -2.2798447   0.67426221   -1.6055825   0.13485202    11308.245     1000 
  556000   0.42816065   -2.2205712   0.64159873   -1.5789725   0.13674357    11115.959     1000 
  558000   0.41187076   -2.2377534   0.61718833   -1.6205651   0.12338309    11288.444     1000 
  560000   0.45456368   -2.2761141   0.68116368   -1.5949504   0.13537041    11335.479     1000 
  562000   0.43598662   -2.3053945   0.65332595   -1.6520685   0.13830377    11283.397     1000 
  564000   0.43268354   -2.3462201   0.64837628   -1.6978438   0.12272864    11487.835     1000 
  566000    0.4480939   -2.2452041   0.67146871   -1.5737354   0.14035545    11163.073     1000 
  568000   0.43629538   -2.2673354   0.65378862   -1.6135468   0.12061506    11317.815     1000 
  570000    0.4289743   -2.3050706     0.642818   -1.6622526   0.13850925    11321.673     1000 
  572000   0.42938582   -2.2638937   0.64343465    -1.620459   0.14702674    11171.223     1000 
  574000   0.45425143    -2.297428   0.68069576   -1.6167322   0.12111919    11413.958     1000 
  576000   0.44137909   -2.3103832   0.66140656   -1.6489767   0.11542174    11446.928     1000 
  578000   0.42842039   -2.2189831   0.64198796   -1.5769951   0.13788024    11250.258     1000 
  580000   0.44300256   -2.2543705   0.66383933   -1.5905311   0.14305702    11303.915     1000 
  582000   0.43966078   -2.2605538   0.65883167   -1.6017221   0.12507779    11314.604     1000 
  584000   0.44885042   -2.2552653   0.67260235   -1.5826629   0.12759158    11424.602     1000 
  586000   0.44946826   -2.2683375   0.67352819   -1.5948093   0.12232404        11507     1000 
  588000   0.44824121   -2.2581749   0.67168945   -1.5864855   0.13064591    11260.619     1000 
  590000   0.43713777   -2.2545945   0.65505094   -1.5995436   0.13349792    11275.793     1000 
  592000   0.44597249   -2.2722327   0.66828978   -1.6039429   0.13073958    11407.213     1000 
  594000   0.44009687   -2.2710842   0.65948516   -1.6115991   0.12606784    11374.562     1000 
  596000   0.44849822   -2.2518096   0.67207458    -1.579735   0.11832421     11286.21     1000 
  598000   0.44838306   -2.2620356   0.67190202   -1.5901336   0.13401682    11295.908     1000 
  600000   0.44594726   -2.2426553   0.66825197   -1.5744033   0.11351591    11402.335     1000 
  602000   0.43294559   -2.2378016   0.64876897   -1.5890326   0.12370287    11344.312     1000 
  604000   0.43438325   -2.2692448   0.65092329   -1.6183215    0.1366235    11256.741     1000 
  606000    0.4406578   -2.2927271   0.66032571   -1.6324014   0.14472673     11176.73     1000 
  608000   0.42907279   -2.2869543   0.64296557   -1.6439887   0.11960019    11522.465     1000 
  610000   0.43703325   -2.2363351   0.65489432   -1.5814408   0.12919497    11279.888     1000 
  612000     0.445044   -2.2694566   0.66689843   -1.6025582   0.12781986    11316.236     1000 
  614000   0.43008188   -2.2421631   0.64447769   -1.5976854   0.10997886    11473.436     1000 
  616000   0.43154549   -2.2637771   0.64667091   -1.6171062   0.12203452    11371.711     1000 
  618000   0.44536553   -2.2910259   0.66738025   -1.6236457   0.13090996    11392.197     1000 
  620000   0.43827538   -2.3114853   0.65675565   -1.6547296   0.13202618    11387.322     1000 
  622000   0.44251655   -2.2426589   0.66311106   -1.5795479   0.13476724    11296.802     1000 
  624000   0.43770413   -2.2480784   0.65589964   -1.5921787   0.11696269    11410.078     1000 
  626000   0.44803591   -2.2873903   0.67138182   -1.6160084   0.13188392    11362.618     1000 
  628000   0.42239614   -2.2365038   0.63296061   -1.6035432   0.12510457    11305.163     1000 
  630000   0.45280523   -2.2502424   0.67852864   -1.5717138   0.13887124    11233.084     1000 
  632000   0.43244287   -2.2557942   0.64801564   -1.6077785   0.14226527    11260.212     1000 
  634000    0.4220712    -2.297752   0.63247369   -1.6652783   0.12769155    11343.107     1000 
  636000    0.4682126   -2.3443664   0.70161657   -1.6427499   0.13266102    11347.685     1000 
  638000   0.41253393   -2.3038173   0.61818209   -1.6856353    0.1100074    11393.636     1000 
  640000   0.44090441   -2.2852973   0.66069525    -1.624602   0.12460044    11363.464     1000 
  642000   0.44207015   -2.2773862   0.66244211   -1.6149441   0.12454854    11375.565     1000 
  644000   0.44060536   -2.2822319   0.66024714   -1.6219847   0.13137651    11303.199     1000 
  646000   0.44428922    -2.240218    0.6657674   -1.5744506   0.13774532    11322.374     1000 
  648000   0.44366659   -2.2224658   0.66483438   -1.5576314   0.13094192    11351.275     1000 
  650000   0.44031596   -2.2543084   0.65981347   -1.5944949   0.13077264    11223.735     1000 
  652000   0.44327625   -2.1951526   0.66424945   -1.5309031   0.12243059    11389.428     1000 
  654000   0.44202318   -2.2607829   0.66237174   -1.5984112   0.13703422    11243.776     1000 
  656000   0.43790265   -2.3091313   0.65619712   -1.6529342   0.13461529    11399.553     1000 
  658000   0.41821317   -2.2746353   0.62669243   -1.6479428   0.13412375    11276.013     1000 
  660000   0.44492913   -2.2642614    0.6667263   -1.5975351   0.14291178    11246.584     1000 
  662000   0.43550815   -2.2655493   0.65260897   -1.6129403   0.12877272    11365.457     1000 
  664000   0.43205142   -2.2208198   0.64742905   -1.5733907   0.14326232    11121.042     1000 
  666000   0.44315705   -2.2458892   0.66407083   -1.5818183   0.13473226    11243.596     1000 
  668000   0.46282956   -2.2903041    0.6935501    -1.596754   0.13692977    11235.113     1000 
  670000   0.44071576   -2.2981068   0.66041257   -1.6376942   0.12848694    11290.828     1000 
  672000   0.43459615   -2.2839376   0.65124233   -1.6326953   0.13383324    11312.024     1000 
  674000   0.42706669   -2.2367744   0.63995943   -1.5968149   0.11935171    11346.026     1000 
  676000   0.43808068   -2.1901064   0.65646389   -1.5336425   0.13015927    11174.231     1000 
  678000   0.43118727   -2.2582072   0.64613412   -1.6120731    0.1368009     11277.45     1000 
  680000   0.43412117   -2.2830873   0.65053057   -1.6325568   0.12921079    11297.039     1000 
  682000   0.44494002   -2.2652971   0.66674263   -1.5985544   0.12731524    11343.841     1000 
  684000   0.43117812   -2.2466719   0.64612041   -1.6005515   0.12069151    11322.821     1000 
  686000   0.43856548   -2.3179716   0.65719038   -1.6607812   0.12085378    11295.515     1000 
  688000   0.44514663   -2.2703618   0.66705223   -1.6033095   0.12462559    11388.481     1000 
  690000   0.41781914   -2.2716871   0.62610198   -1.6455851   0.11929184    11408.127     1000 
  692000   0.44580574   -2.2494695   0.66803991   -1.5814296   0.13281282    11301.651     1000 
  694000   0.43314602   -2.2111278   0.64906931   -1.5620585   0.13213329    11208.633     1000 
  696000   0.45867832   -2.2772609   0.68732946   -1.5899314   0.13808252    11244.992     1000 
  698000   0.43615789   -2.2636967   0.65358259   -1.6101141    0.1381121     11249.04     1000 
  700000   0.45325254   -2.3008575   0.67919893   -1.6216586   0.12780158    11343.184     1000 
  702000   0.45043278   -2.2499157   0.67497351   -1.5749421   0.11974323    11272.066     1000 
  704000   0.45856407   -2.2560709   0.68715825   -1.5689126   0.14469943    11360.153     1000 
  706000   0.44774939   -2.2573124   0.67095246     -1.58636   0.11605917    11338.772     1000 
  708000   0.45510629     -2.26695   0.68197678   -1.5849732     0.146824    11173.784     1000 
  710000   0.42804357   -2.2338297    0.6414233   -1.5924064   0.13926071    11214.446     1000 
  712000   0.45082568   -2.2449864   0.67556227   -1.5694241   0.12378924    11356.593     1000 
  714000   0.45867091   -2.2391301   0.68731836   -1.5518117   0.12628653    11328.823     1000 
  716000   0.47286124   -2.2538383   0.70858257   -1.5452557   0.13509504     11226.11     1000 
  718000   0.42451864   -2.2743823   0.63614118   -1.6382411   0.12495442    11347.207     1000 
  720000   0.41786258   -2.3025981   0.62616707   -1.6764311   0.11722764    11399.083     1000 
  722000   0.42757016   -2.2529403   0.64071388   -1.6122265   0.11829524    11341.114     1000 
  724000   0.42000645   -2.2992957   0.62937967   -1.6699161   0.12545308     11494.58     1000 
  726000   0.44629636   -2.2927153    0.6687751   -1.6239402   0.14053108    11303.486     1000 
  728000   0.42450053    -2.291096   0.63611404    -1.654982   0.11784235    11332.281     1000 
  730000   0.44266478   -2.2909736   0.66333317   -1.6276405   0.12600995    11393.444     1000 
  732000   0.44489478   -2.2888057   0.66667483   -1.6221309   0.12950662    11346.611     1000 
  734000   0.44648358   -2.2884229   0.66905564   -1.6193672   0.13744881    11229.705     1000 
  736000   0.42653068    -2.236332   0.63915623   -1.5971758   0.12073703    11263.269     1000 
  738000   0.43305764   -2.2672216   0.64893687   -1.6182848   0.12048571    11455.601     1000 
  740000   0.44739717   -2.2782645   0.67042466   -1.6078398   0.13004323    11437.649     1000 
  742000   0.44459625   -2.2062572   0.66622748   -1.5400297   0.12665381    11174.693     1000 
  744000   0.45441531   -2.2368736   0.68094135   -1.5559323   0.12849204    11397.013     1000 
  746000    0.4345674   -2.2398521   0.65119924   -1.5886528   0.11570904    11452.332     1000 
  748000   0.42678066   -2.2479716   0.63953082   -1.6084407   0.13375796    11178.727     1000 
  750000   0.44092761   -2.2958367   0.66073002   -1.6351067    0.1230883     11398.08     1000 
  752000   0.44022555   -2.2290981   0.65967798   -1.5694202   0.14310609    11162.386     1000 
  754000    0.4331153   -2.2756475   0.64902328   -1.6266242   0.12952684    11384.859     1000 
  756000   0.43155081   -2.2543697   0.64667889   -1.6076908   0.12925732    11294.863     1000 
  758000   0.42909699   -2.2647519   0.64300184   -1.6217501   0.12379628    11375.422     1000 
  760000   0.44313489   -2.2708322   0.66403763   -1.6067946   0.14293831    11266.971     1000 
  762000   0.43432896   -2.2602207   0.65084194   -1.6093787   0.11887482    11420.739     1000 
  764000   0.44330584   -2.2267666    0.6642938   -1.5624728   0.12213835    11324.112     1000 
  766000   0.43447016   -2.2455159   0.65105354   -1.5944624   0.12486525    11311.852     1000 
  768000   0.44871325   -2.2301968    0.6723968      -1.5578    0.1357261    11228.996     1000 
  770000   0.43721618   -2.2658242   0.65516844   -1.6106557   0.11622455    11500.602     1000 
  772000   0.42547535   -2.2871998   0.63757481   -1.6496249   0.12596082    11326.265     1000 
  774000   0.43847892   -2.2205473   0.65706066   -1.5634866   0.13300572    11199.969     1000 
  776000   0.43951051   -2.2520124    0.6586065   -1.5934059   0.14602494    11256.357     1000 
  778000   0.43219117   -2.2623544   0.64763847   -1.6147159   0.12596849    11347.995     1000 
  780000   0.45030351   -2.2505505   0.67477981   -1.5757707   0.13763184    11281.495     1000 
  782000   0.43818751   -2.2854623   0.65662398   -1.6288383   0.13138163    11279.977     1000 
  784000   0.45620274   -2.2450704   0.68361981   -1.5614506   0.13811232    11219.291     1000 
  786000   0.43075191   -2.3033885   0.64548173   -1.6579068   0.11257685    11503.535     1000 
  788000   0.46158815   -2.2878666   0.69168985   -1.5961768   0.12903344    11331.895     1000 
  790000   0.43990434   -2.2975654   0.65919666   -1.6383687   0.13260642     11389.86     1000 
  792000   0.42092591   -2.2682787   0.63075747   -1.6375212   0.12584149    11258.075     1000 
  794000   0.44177945   -2.2225691   0.66200651   -1.5605626    0.1348172    11195.619     1000 
  796000   0.45207277   -2.3152464   0.67743104   -1.6378154   0.11447677    11469.492     1000 
  798000   0.44039984   -2.2673345   0.65993916   -1.6073953   0.15025316    11203.261     1000 
  800000   0.44474388   -2.2562111   0.66644871   -1.5897624   0.12551264    11364.151     1000 
  802000   0.43645867   -2.2735039   0.65403331   -1.6194706   0.11595574    11461.285     1000 
  804000   0.44368946   -2.2843495   0.66486865   -1.6194808   0.12391066    11341.807     1000 
  806000   0.45936141   -2.2614778   0.68835308   -1.5731247   0.12984702    11382.183     1000 
  808000   0.43756725   -2.2514037   0.65569452   -1.5957092   0.12965602    11293.137     1000 
  810000   0.43907294   -2.2694931   0.65795079   -1.6115423   0.13404132    11369.571     1000 
  812000   0.43340636   -2.2263624   0.64945943   -1.5769029   0.12914245    11262.389     1000 
  814000   0.45144163   -2.2358332   0.67648529   -1.5593479   0.13472112    11276.269     1000 
  816000   0.45351082   -2.2542119   0.67958596   -1.5746259   0.13947257    11278.589     1000 
  818000   0.43718808   -2.2520365   0.65512634   -1.5969101   0.14050439    11290.773     1000 
  820000    0.4503868   -2.2378918   0.67490462   -1.5629871   0.13517262    11213.057     1000 
  822000   0.42812848   -2.2453293   0.64155052   -1.6037787   0.13697057     11232.85     1000 
  824000   0.47118847   -2.3055139   0.70607592    -1.599438   0.14396295    11269.959     1000 
  826000   0.44422289   -2.2995808     0.665668   -1.6339128   0.13553495    11298.545     1000 
  828000   0.43331252   -2.3101139   0.64931881   -1.6607951    0.1245767     11410.14     1000 
  830000   0.45055471   -2.2743375   0.67515623   -1.5991813   0.12266662    11497.339     1000 
  832000   0.44193063    -2.280531   0.66223305   -1.6182979   0.12232512     11424.66     1000 
  834000   0.43767666   -2.2721037   0.65585848   -1.6162452   0.13228355    11220.014     1000 
  836000   0.41016067   -2.2720597   0.61462576    -1.657434   0.12502415    11337.292     1000 
  838000   0.43464023   -2.2759065   0.65130838   -1.6245981   0.13241712    11374.559     1000 
  840000   0.43651511   -2.2100347   0.65411789   -1.5559168   0.12064527    11317.267     1000 
  842000   0.42497546   -2.3026783   0.63682573   -1.6658526   0.12292592    11320.989     1000 
  844000   0.43831753   -2.2377802   0.65681882   -1.5809614   0.12574767    11246.045     1000 
  846000   0.43270747   -2.2242394   0.64841215   -1.5758273   0.11614015    11347.274     1000 
  848000   0.43974229   -2.2614281   0.65895382   -1.6024743   0.11249867    11388.394     1000 
  850000   0.44078583   -2.2688189   0.66051757   -1.6083013   0.12798865    11325.804     1000 
  852000   0.44006564    -2.234553   0.65943836   -1.5751146    0.1337418     11175.11     1000 
  854000   0.42959254   -2.2805827   0.64374442   -1.6368383   0.11793892     11378.07     1000 
  856000   0.45187029   -2.2911518   0.67712763   -1.6140241   0.13610293    11289.241     1000 
  858000   0.46116884   -2.2921049   0.69106151   -1.6010434   0.14541086    11228.945     1000 
  860000     0.447519   -2.2731522   0.67060722    -1.602545   0.13287042    11268.297     1000 
  862000   0.45893425   -2.2557464   0.68771298   -1.5680335   0.13339831    11237.463     1000 
  864000   0.45276595   -2.2488928   0.67846977    -1.570423    0.1279372    11358.951     1000 
  866000   0.42760568   -2.2448898   0.64076711   -1.6041227   0.12985863    11368.861     1000 
  868000   0.42189524   -2.2812081   0.63221001    -1.648998   0.13293096    11308.318     1000 
  870000   0.44059343   -2.2941755   0.66022926   -1.6339462   0.12829588    11319.675     1000 
  872000   0.43269133   -2.2629838   0.64838796   -1.6145959   0.13777631    11226.259     1000 
  874000   0.43761913     -2.25093   0.65577226   -1.5951577   0.13427186    11258.528     1000 
  876000   0.43204255   -2.2740336   0.64741577   -1.6266178   0.13223358    11273.463     1000 
  878000    0.4195933   -2.2895342   0.62876057   -1.6607736   0.13508742    11308.775     1000 
  880000   0.43499995   -2.2242246   0.65184743   -1.5723772   0.12797229    11300.069     1000 
  882000   0.43546825   -2.2361889   0.65254918   -1.5836397   0.11828604    11310.179     1000 
  884000   0.42298656   -2.2967722   0.63384536   -1.6629268   0.12459063    11278.461     1000 
  886000   0.43800473    -2.271737   0.65635009   -1.6153869   0.11370805    11431.841     1000 
  888000   0.43379924   -2.2545918   0.65004816   -1.6045437   0.13383107    11263.733     1000 
  890000   0.43881757   -2.2001137   0.65756813   -1.5425456   0.13900249    11238.171     1000 
  892000   0.43881528   -2.2816928    0.6575647   -1.6241281   0.13493076     11284.75     1000 
  894000   0.43178388   -2.2480712   0.64702814    -1.601043   0.13147993    11248.219     1000 
  896000   0.44423686   -2.2597318   0.66568894   -1.5940429    0.1318677    11318.065     1000 
  898000    0.4485705   -2.2635557   0.67218289   -1.5913728   0.12789161    11331.956     1000 
  900000   0.43285429   -2.3106418   0.64863215   -1.6620097   0.14081791    11252.496     1000 
  902000   0.43278064   -2.2635734   0.64852178   -1.6150517   0.12723731    11360.796     1000 
  904000   0.43876994    -2.293216   0.65749675   -1.6357192   0.12065172    11354.216     1000 
  906000   0.43381156   -2.2586362   0.65006663   -1.6085696   0.12275828    11370.397     1000 
  908000   0.43303378   -2.2924281   0.64890112    -1.643527   0.12766966    11314.826     1000 
  910000   0.44858973   -2.2933497   0.67221171    -1.621138   0.11745915    11458.172     1000 
  912000   0.44859492   -2.2853282   0.67221948   -1.6131088   0.12795295    11420.084     1000 
  914000   0.44818364   -2.2544393   0.67160319   -1.5828362   0.13096079    11186.085     1000 
  916000   0.45217876   -2.2592211   0.67758987   -1.5816312   0.13048096    11283.126     1000 
  918000   0.43929503   -2.2293927    0.6582836   -1.5711091   0.14270101    11196.361     1000 
  920000   0.44789904   -2.2871707   0.67117671    -1.615994   0.11504658    11456.461     1000 
  922000   0.42662465   -2.3006804   0.63929703   -1.6613833   0.11972289    11488.541     1000 
  924000   0.43497902   -2.2368656   0.65181606   -1.5850495   0.12217328    11371.885     1000 
  926000   0.45419041   -2.2268462   0.68060433   -1.5462419    0.1341043    11288.276     1000 
  928000   0.43869968   -2.2607219   0.65739147   -1.6033304   0.13077453    11356.542     1000 
  930000   0.44488134   -2.2610295   0.66665468   -1.5943749   0.13310631    11264.881     1000 
  932000   0.44552649   -2.2599413   0.66762144   -1.5923199   0.12408025    11404.626     1000 
  934000   0.45247388   -2.2237942   0.67803211    -1.545762     0.125625    11502.234     1000 
  936000   0.46396232   -2.2822364   0.69524754   -1.5869889   0.13765285    11257.938     1000 
  938000   0.44722659   -2.2840415   0.67016905   -1.6138724   0.13514741    11346.135     1000 
  940000    0.4524804   -2.3002091   0.67804188   -1.6221672   0.13067842    11262.312     1000 
  942000   0.44640937   -2.2438307   0.66894444   -1.5748863   0.14274319    11223.365     1000 
  944000    0.4331798   -2.2423832   0.64911994   -1.5932633    0.1349472    11202.128     1000 
  946000   0.41746551   -2.2436146   0.62557207   -1.6180426   0.13844446    11298.606     1000 
  948000   0.44052359   -2.2226398   0.66012461   -1.5625152   0.12938912    11269.735     1000 
  950000   0.43328757   -2.3182624   0.64928142    -1.668981   0.13071252    11304.262     1000 
  952000   0.43608947   -2.2590935   0.65348007   -1.6056134   0.12766318    11352.204     1000 
  954000   0.45137635   -2.3267813   0.67638746   -1.6503938   0.12421418    11393.089     1000 
  956000   0.44430668   -2.1885092   0.66579356   -1.5227157   0.13284639    11209.612     1000 
  958000   0.42229321   -2.2707516   0.63280637   -1.6379452   0.13116909    11229.304     1000 
  960000   0.46913137   -2.2574215   0.70299336   -1.5544281   0.14225099    11262.511     1000 
  962000    0.4519244   -2.2782284   0.67720871   -1.6010197   0.12836649    11419.609     1000 
  964000   0.43794899   -2.2218538   0.65626656   -1.5655872   0.12728458    11354.299     1000 
  966000   0.43329401   -2.2083205   0.64929107   -1.5590294   0.14089122    11156.797     1000 
  968000   0.43147821   -2.2784938   0.64657009   -1.6319237   0.12662862    11328.464     1000 
  970000   0.44754473   -2.2797729   0.67064577   -1.6091272   0.11261061    11542.637     1000 
  972000     0.439834   -2.3227163   0.65909125   -1.6636251   0.13406725    11302.609     1000 
  974000   0.44538239   -2.3127516   0.66740551   -1.6453461   0.11820625    11485.618     1000 
  976000   0.45130696   -2.3051186   0.67628348   -1.6288351   0.12334501    11413.321     1000 
  978000   0.43401397   -2.2912968   0.65036994   -1.6409268   0.12871137    11348.794     1000 
  980000   0.43164098   -2.2643074     0.646814   -1.6174934   0.13113694    11141.012     1000 
  982000   0.45365663    -2.219196   0.67980446   -1.5393915    0.1309392    11336.387     1000 
  984000    0.4313001   -2.2368098   0.64630321   -1.5905066    0.1331419    11219.141     1000 
  986000   0.43539092   -2.2571943   0.65243329    -1.604761   0.12268505    11315.781     1000 
  988000   0.45143789   -2.2661103   0.67647968   -1.5896306   0.13517879    11335.541     1000 
  990000   0.43906613   -2.2513498   0.65794059   -1.5934092    0.1404881    11225.329     1000 
  992000   0.45080023   -2.2360736   0.67552415   -1.5605494   0.12539989    11215.472     1000 
  994000   0.45177489   -2.2637744   0.67698468   -1.5867898   0.13395748    11323.159     1000 
  996000    0.4476775   -2.2709863   0.67084474   -1.6001416   0.12617944     11390.74     1000 
  998000   0.44717563   -2.2706578   0.67009268   -1.6005651   0.14565184    11260.795     1000 
 1000000   0.44781602   -2.2606392    0.6710523   -1.5895869   0.11718292    11353.364     1000 
 1002000   0.43120277    -2.299293   0.64615735   -1.6531356   0.13266857     11365.54     1000 
 1004000   0.42460292   -2.3056568   0.63626748   -1.6693893   0.12770023    11425.714     1000 
 1006000   0.44923268   -2.2714175   0.67317517   -1.5982423   0.13402287    11372.987     1000 
 1008000   0.43228089   -2.3017767   0.64777292   -1.6540038   0.12325551     11399.64     1000 
 1010000   0.45141565   -2.2399422   0.67644635   -1.5634959    0.1202086    11472.056     1000 
 1012000   0.42603145   -2.2649443   0.63840812   -1.6265361   0.12825205    11367.663     1000 
 1014000   0.41400632   -2.2466771   0.62038847   -1.6262886   0.12341101    11389.084     1000 
 1016000   0.43457344   -2.2439128    0.6512083   -1.5927045   0.12086713    11383.302     1000 
 1018000   0.44920154   -2.2503352   0.67312851   -1.5772067     0.124686    11282.002     1000 
 1020000   0.44828688   -2.2612647   0.67175788   -1.5895068   0.14006017    11195.651     1000 
 1022000   0.41135422   -2.2570107    0.6164143   -1.6405964   0.12293663    11287.841     1000 
 1024000   0.43449848   -2.2693546   0.65109597   -1.6182587    0.1333423     11250.15     1000 
 1026000   0.45697573   -2.2842948   0.68477814   -1.5995167   0.13327719    11358.393     1000 
 1028000   0.43655922   -2.2644736   0.65418399   -1.6102896   0.12933683    11259.876     1000 
 1030000   0.45557674   -2.2778246   0.68268174   -1.5951429   0.12216469     11322.82     1000 
 1032000   0.44471845    -2.272168    0.6664106   -1.6057574   0.13075316    11362.726     1000 
 1034000    0.4334863   -2.3197431   0.64957923   -1.6701638    0.1141926    11484.761     1000 
 1036000   0.44795995   -2.3115218   0.67126799   -1.6402538   0.14034658    11285.081     1000 
 1038000   0.45395552   -2.2825066   0.68025235   -1.6022542    0.1310501    11405.235     1000 
 1040000   0.44786005    -2.256116   0.67111829   -1.5849977   0.12740357    11319.467     1000 
 1042000   0.43577343   -2.2298209   0.65300648   -1.5768144   0.14490419    11211.794     1000 
 1044000   0.43105886   -2.2286366    0.6459417   -1.5826949   0.12331404    11299.786     1000 
 1046000   0.42328426   -2.2754448   0.63429147   -1.6411534   0.12238525    11347.295     1000 
 1048000   0.44236091   -2.2911081   0.66287782   -1.6282303   0.12219446     11377.45     1000 
 1050000   0.45120456     -2.30046   0.67613003   -1.6243299   0.11820096    11423.107     1000 
 1052000    0.4784809   -2.2287385   0.71700363   -1.5117349   0.13158333    11242.844     1000 
 1054000   0.45280899   -2.2592071   0.67853427   -1.5806729   0.13709443    11358.397     1000 
 1056000   0.42767578   -2.2461988   0.64087215   -1.6053266   0.13257276    11376.227     1000 
 1058000   0.43366029   -2.2299277   0.64983995   -1.5800878   0.13455157    11278.281     1000 
 1060000   0.44556244   -2.2634533   0.66767531    -1.595778   0.12673785     11461.64     1000 
 1062000   0.44661375   -2.2676104    0.6692507   -1.5983597   0.13262906    11361.838     1000 
 1064000   0.45244935   -2.2568256   0.67799535   -1.5788303   0.12427021    11341.564     1000 
 1066000   0.42119986   -2.2204119   0.63116799   -1.5892439   0.12080744    11253.855     1000 
 1068000   0.46039092   -2.2386087    0.6898958   -1.5487129   0.13544275    11271.147     1000 
 1070000   0.44055296   -2.2685479   0.66016862   -1.6083793   0.14041492    11214.535     1000 
 1072000   0.42400417   -2.2500434   0.63537024   -1.6146732   0.12561883    11300.231     1000 
 1074000   0.45322248   -2.2162059   0.67915389    -1.537052   0.13979081    11293.413     1000 
 1076000   0.44755116   -2.2320119   0.67065541   -1.5613565   0.12465268    11254.582     1000 
 1078000   0.43443543   -2.2840716   0.65100149   -1.6330701   0.12730943    11358.093     1000 
 1080000   0.45382348   -2.2900321   0.68005449   -1.6099776   0.13443304    11330.902     1000 
 1082000   0.45850083   -2.2353053   0.68706349   -1.5482418   0.11918145     11409.89     1000 
 1084000   0.43862129   -2.2613144     0.657274   -1.6040404   0.12224495     11434.08     1000 
 1086000   0.45309906   -2.2547964   0.67896895   -1.5758274   0.11920651    11434.803     1000 
 1088000   0.43849076   -2.3058871    0.6570784   -1.6488087   0.12663576    11398.729     1000 
 1090000   0.45007809   -2.2534222   0.67444202   -1.5789802   0.13394131    11315.834     1000 
 1092000   0.43517933   -2.2248131   0.65211623   -1.5726969   0.12647278    11258.964     1000 
 1094000   0.42234885   -2.2288817   0.63288975   -1.5959919   0.12067842    11363.651     1000 
 1096000   0.43737005    -2.176692   0.65539903    -1.521293   0.12869092     11225.63     1000 
 1098000   0.45186174   -2.3022302   0.67711482   -1.6251154   0.12446914    11257.681     1000 
 1100000   0.41701321   -2.2790996    0.6248943   -1.6542053   0.12270231    11365.195     1000 
 1102000   0.43447055   -2.2762095   0.65105412   -1.6251554   0.13849522     11278.75     1000 
 1104000   0.43829033   -2.2744385   0.65677806   -1.6176605   0.12419749    11414.236     1000 
 1106000   0.44320191   -2.2206243   0.66413806   -1.5564862   0.13488671    11143.921     1000 
 1108000   0.46099907   -2.2476128    0.6908071   -1.5568057   0.13152428    11407.441     1000 
 1110000    0.4212602    -2.240095   0.63125841   -1.6088366   0.12697787    11313.642     1000 
 1112000   0.44051594   -2.2407499   0.66011313   -1.5806368   0.12719436    11329.255     1000 
 1114000   0.42752743   -2.2488512   0.64064985   -1.6082014   0.13334156    11205.648     1000 
 1116000   0.44899914   -2.2743345   0.67282521   -1.6015093   0.13987169    11308.437     1000 
 1118000   0.42654291   -2.2157856   0.63917455   -1.5766111   0.13150975    11251.539     1000 
 1120000   0.42889423   -2.2468842     0.642698   -1.6041862   0.13542201    11314.429     1000 
 1122000   0.44408726    -2.248022   0.66546476   -1.5825573    0.1255858    11329.176     1000 
 1124000   0.43906986   -2.2525751   0.65794618   -1.5946289   0.11933927    11340.609     1000 
 1126000   0.42569396   -2.2378541    0.6379024   -1.5999517   0.12291547    11277.601     1000 
 1128000    0.4368649   -2.2863159   0.65464205   -1.6316739   0.13169573    11360.077     1000 
 1130000   0.44616547   -2.2538103   0.66857896   -1.5852314   0.13440586    11223.781     1000 
 1132000   0.44878066   -2.2093803   0.67249782   -1.5368825   0.12856163    11211.644     1000 
 1134000   0.42792968   -2.2792007   0.64125262    -1.637948   0.12546461    11360.344     1000 
 1136000   0.42903992   -2.2741912   0.64291632   -1.6312749   0.12048167    11443.364     1000 
 1138000    0.4339773   -2.2775989   0.65031498   -1.6272839   0.13952305    11289.243     1000 
 1140000   0.45192859   -2.2793831   0.67721499   -1.6021681   0.13735241    11302.088     1000 
 1142000   0.43706574   -2.2845088   0.65494302   -1.6295658   0.12307799    11455.529     1000 
 1144000    0.4326004   -2.2609393   0.64825171   -1.6126876   0.13171929    11341.996     1000 
 1146000   0.43104051   -2.2220188    0.6459142   -1.5761046   0.12617877    11350.068     1000 
 1148000   0.42873038   -2.2067948   0.64245247   -1.5643424   0.12666148    11280.139     1000 
 1150000   0.44982663   -2.2283868    0.6740652   -1.5543216   0.13571047     11372.37     1000 
 1152000   0.45201938   -2.2577319   0.67735104   -1.5803808   0.12157163    11408.637     1000 
 1154000   0.45674617   -2.2949873   0.68443413   -1.6105531   0.12529595    11458.545     1000 
 1156000   0.44463989   -2.2251153   0.66629288   -1.5588224   0.13929374    11199.945     1000 
 1158000   0.44309291   -2.2461023   0.66397473   -1.5821276   0.13909289    11271.924     1000 
 1160000   0.43737958   -2.2600607    0.6554133   -1.6046474    0.1140637    11422.663     1000 
 1162000   0.42577074   -2.2919196   0.63801745   -1.6539021   0.13707984    11305.858     1000 
 1164000   0.44129399   -2.2351044   0.66127904   -1.5738253   0.13246984    11259.973     1000 
 1166000   0.44408762    -2.273485    0.6654653   -1.6080197   0.12803459    11330.776     1000 
 1168000   0.45185104   -2.2847487   0.67709879   -1.6076499   0.12863163    11335.156     1000 
 1170000   0.44820425   -2.2338559   0.67163406   -1.5622218   0.12362441    11439.165     1000 
 1172000   0.45755081   -2.2746292   0.68563988   -1.5889893   0.12085686    11415.148     1000 
 1174000   0.44023312   -2.2721334   0.65968933    -1.612444   0.13658148    11382.166     1000 
 1176000   0.41806715   -2.2498715   0.62647363   -1.6233978   0.12461969    11349.815     1000 
 1178000   0.42506317   -2.2770467   0.63695716   -1.6400895   0.13657708    11339.944     1000 
 1180000   0.41322028   -2.2680814   0.61921059   -1.6488708   0.12874164    11294.719     1000 
 1182000   0.44461044   -2.2866542   0.66624875   -1.6204055   0.14088384    11251.457     1000 
 1184000      0.46679   -2.2668697   0.69948481   -1.5673849   0.12602945    11413.768     1000 
 1186000   0.44631228   -2.2537412   0.66879895   -1.5849423   0.13541905    11185.742     1000 
 1188000   0.44069896   -2.2508242    0.6603874   -1.5904369   0.11822548    11420.943     1000 
 1190000   0.44972415   -2.2522543   0.67391164   -1.5783427   0.14227342    11254.376     1000 
 1192000   0.45175106   -2.2735575   0.67694897   -1.5966086   0.13295163    11252.729     1000 
 1194000   0.44886511   -2.2424892   0.67262436   -1.5698648   0.13428047    11282.062     1000 
 1196000   0.44398857   -2.2447999   0.66531687    -1.579483   0.11530658    11378.418     1000 
 1198000   0.44294069   -2.3088855   0.66374663   -1.6451389   0.12392171    11367.817     1000 
 1200000   0.41553972   -2.2651103   0.62268626    -1.642424   0.14057926    11221.903     1000 
 1202000   0.41936162   -2.2421972   0.62841339   -1.6137839   0.11849288    11344.846     1000 
 1204000   0.42606658   -2.2600036   0.63846077   -1.6215429   0.12384206    11361.079     1000 
 1206000   0.42390937   -2.2594454   0.63522819   -1.6242172   0.13115904    11380.383     1000 
 1208000   0.47107836   -2.2792926   0.70591092   -1.5733817   0.13716136    11309.702     1000 
 1210000   0.43630481   -2.2498542   0.65380276   -1.5960514   0.13705387    11254.078     1000 
 1212000   0.44499843   -2.2624113   0.66683015   -1.5955812   0.12851921    11220.117     1000 
 1214000   0.44175068   -2.2580186   0.66196339   -1.5960552    0.1389383    11241.027     1000 
 1216000   0.45338561   -2.2628082   0.67939833   -1.5834099   0.12825418    11334.606     1000 
 1218000   0.44850748   -2.2999096   0.67208846   -1.6278211   0.12977584    11329.085     1000 
 1220000   0.44874452   -2.2574257   0.67244367   -1.5849821   0.11955803    11373.573     1000 
 1222000   0.42591006   -2.2917013   0.63822622   -1.6534751   0.11985443    11315.783     1000 
 1224000   0.43092364   -2.2901481   0.64573907    -1.644409   0.11177542    11432.926     1000 
 1226000   0.43964103   -2.2039674   0.65880208   -1.5451653   0.13264539    11237.441     1000 
 1228000   0.43674865   -2.2777855   0.65446785   -1.6233176   0.13275126    11278.814     1000 
 1230000   0.44200962   -2.2911799   0.66235142   -1.6288285    0.1326005    11347.885     1000 
 1232000    0.4245849   -2.2441255   0.63624048    -1.607885    0.1307406    11162.272     1000 
 1234000   0.43138722   -2.2505812   0.64643375   -1.6041474   0.14147158    11244.418     1000 
 1236000    0.4289217    -2.254335   0.64273917   -1.6115959   0.12593271    11318.283     1000 
 1238000   0.43369902   -2.3077362   0.64989798   -1.6578383   0.12328755    11346.804     1000 
 1240000   0.43341284   -2.2417476   0.64946913   -1.5922785   0.14498827    11139.707     1000 
 1242000   0.44195798   -2.2950017   0.66227403   -1.6327276   0.12573148    11304.273     1000 
 1244000   0.45969279   -2.2303164   0.68884964   -1.5414667   0.12712764    11338.075     1000 
 1246000   0.44905282   -2.2537063   0.67290566   -1.5808006   0.13448436    11213.468     1000 
 1248000   0.43399535   -2.2149899   0.65034204   -1.5646479   0.13498225    11296.093     1000 
 1250000   0.43763449   -2.2331886   0.65579528   -1.5773933   0.12306389    11310.003     1000 
 1252000   0.44748973   -2.2615427   0.67056337   -1.5909793   0.12387704    11384.967     1000 
 1254000   0.45196557   -2.3282126   0.67727041   -1.6509422   0.12534347    11407.458     1000 
 1256000   0.42019343   -2.2253988   0.62965985   -1.5957389   0.13070901    11360.917     1000 
 1258000   0.43646468   -2.2359845   0.65404232   -1.5819422   0.12695003     11325.56     1000 
 1260000    0.4255306   -2.2670682    0.6376576   -1.6294106   0.11758377    11301.674     1000 
 1262000   0.41462819   -2.2075819   0.62132035   -1.5862615   0.12972304    11304.718     1000 
 1264000   0.44394233   -2.2211645   0.66524759   -1.5559169   0.14020116    11251.682     1000 
 1266000   0.43707313   -2.2227985   0.65495409   -1.5678444   0.13356271    11261.468     1000 
 1268000   0.44285062   -2.2604592   0.66361165   -1.5968476   0.13485433    11205.856     1000 
 1270000   0.43553966   -2.2950748   0.65265618   -1.6424186   0.12509876    11317.768     1000 
 1272000   0.43505928   -2.2490767   0.65193633   -1.5971404   0.14019709    11261.478     1000 
 1274000   0.42753008   -2.2323586   0.64065383   -1.5917048    0.1358239    11100.079     1000 
 1276000   0.43997548   -2.2776328   0.65930325   -1.6183295   0.13091267    11330.244     1000 
 1278000   0.42947976   -2.2675937   0.64357542   -1.6240183    0.1300656    11352.637     1000 
 1280000   0.43326893   -2.3087526   0.64925349   -1.6594991   0.13036113    11400.783     1000 
 1282000   0.44160724   -2.3021084   0.66174844     -1.64036    0.1334574    11378.354     1000 
 1284000   0.46005843   -2.2868876   0.68939755   -1.5974901   0.13864711    11296.887     1000 
 1286000   0.43841292    -2.205862   0.65696176   -1.5489002   0.13361438    11213.821     1000 
 1288000    0.4496785   -2.3099016   0.67384324   -1.6360583   0.12981928     11427.54     1000 
 1290000   0.44753619   -2.2271563   0.67063298   -1.5565233   0.12596284    11235.425     1000 
 1292000   0.44471184   -2.2526919   0.66640069   -1.5862912   0.12773054    11212.038     1000 
 1294000   0.43858148   -2.2148087   0.65721435   -1.5575943   0.14572933    11115.146     1000 
 1296000    0.4175762    -2.247312   0.62573794    -1.621574    0.1318699    11327.554     1000 
 1298000   0.42736902   -2.3073006   0.64041248   -1.6668881   0.12962255    11319.007     1000 
 1300000   0.43006013   -2.2517138    0.6444451   -1.6072687   0.12629676    11351.285     1000 
 1302000   0.44581901   -2.2369332   0.66805979   -1.5688734   0.13883019    11258.938     1000 
 1304000   0.44555781   -2.2328545   0.66766837   -1.5651862   0.14013581    11203.041     1000 
 1306000   0.44516917   -2.2914426   0.66708599   -1.6243566   0.12918178    11348.481     1000 
 1308000   0.42398873   -2.2951766   0.63534712   -1.6598295   0.12581917    11424.069     1000 
 1310000   0.42661506   -2.2308172   0.63928267   -1.5915346   0.12686683    11275.688     1000 
 1312000   0.44105371   -2.2424084   0.66091898   -1.5814895   0.13063188    11284.886     1000 
 1314000   0.42581389   -2.3040934   0.63808212   -1.6660112   0.11826526    11356.024     1000 
 1316000   0.43189604   -2.2583079   0.64719621   -1.6111117   0.12837182    11264.732     1000 
 1318000   0.45084069   -2.2870499   0.67558477   -1.6114651   0.13292708    11214.224     1000 
 1320000   0.43921669   -2.2931996   0.65816621   -1.6350333   0.12810382    11348.347     1000 
 1322000    0.4550043   -2.3332697   0.68182394   -1.6514458     0.128076    11399.833     1000 
 1324000   0.42282352   -2.2841221   0.63360105    -1.650521   0.13581278    11326.294     1000 
 1326000   0.44440926   -2.2537652   0.66594728   -1.5878179   0.13870826    11247.995     1000 
 1328000   0.43089464   -2.2596396   0.64569562    -1.613944   0.11744705    11399.302     1000 
 1330000   0.45944398   -2.2588144    0.6884768   -1.5703376    0.1178341    11399.928     1000 
 1332000   0.44170659   -2.2038506   0.66189732   -1.5419533   0.13291874    11157.829     1000 
 1334000   0.42779472   -2.2215239   0.64105038   -1.5804735   0.12810801    11262.644     1000 
 1336000    0.4391947   -2.2734105   0.65813326   -1.6152772   0.12828839    11402.022     1000 
 1338000   0.43283744   -2.2568102   0.64860691   -1.6082033   0.13021182    11284.501     1000 
 1340000   0.44953924   -2.2583102   0.67363455   -1.5846756   0.12854665    11373.561     1000 
 1342000     0.443054   -2.2623142   0.66391642   -1.5983978   0.12342738    11251.814     1000 
 1344000   0.44193387   -2.2413998    0.6622379   -1.5791619   0.13546105    11324.083     1000 
 1346000   0.44645629    -2.246396   0.66901475   -1.5773813   0.13282903    11269.344     1000 
 1348000   0.44289707   -2.3292445   0.66368126   -1.6655633   0.13279438    11477.084     1000 
 1350000   0.43859993   -2.3444314     0.657242   -1.6871894   0.12415209    11483.533     1000 
 1352000   0.42832567   -2.2230997   0.64184602   -1.5812537   0.12442358    11338.804     1000 
 1354000   0.45087377   -2.2108808   0.67563434   -1.5352464   0.13002141    11198.898     1000 
 1356000   0.43960771    -2.282906   0.65875215   -1.6241538   0.12617146    11324.689     1000 
 1358000   0.42985218   -2.2629678   0.64413349   -1.6188343   0.12887515    11271.937     1000 
 1360000   0.44722063   -2.2636276   0.67016012   -1.5934675   0.12828453    11338.563     1000 
 1362000   0.43042139   -2.3020868   0.64498646   -1.6571004   0.11251211    11456.992     1000 
 1364000   0.40158825   -2.2241853   0.60177999   -1.6224053     0.122725    11267.558     1000 
 1366000   0.45325593   -2.2919501     0.679204   -1.6127461   0.14453285    11201.814     1000 
 1368000   0.42887205   -2.2782754   0.64266477   -1.6356106   0.13152951    11256.821     1000 
 1370000   0.45209463   -2.2656909    0.6774638   -1.5882271   0.13645041    11341.704     1000 
 1372000   0.44215694    -2.240694   0.66257217   -1.5781218   0.12615513    11370.571     1000 
 1374000   0.44783515     -2.31668   0.67108097   -1.6455991    0.1229451    11427.584     1000 
 1376000   0.42898725   -2.2418627   0.64283739   -1.5990253   0.13542503    11230.636     1000 
 1378000    0.4116678   -2.2378188   0.61688419   -1.6209346   0.11601656    11424.563     1000 
 1380000   0.42157554   -2.2573122   0.63173095   -1.6255813   0.12973062    11295.347     1000 
 1382000    0.4337717   -2.2296792   0.65000689   -1.5796723   0.14463584    11259.119     1000 
 1384000   0.43861589   -2.2866659   0.65726591      -1.6294   0.13158627    11262.787     1000 
 1386000   0.43596061   -2.2391998   0.65328697   -1.5859128   0.11646308    11334.931     1000 
 1388000   0.43559511   -2.2498615   0.65273928   -1.5971222   0.12814011    11231.117     1000 
 1390000   0.45635415   -2.2650625    0.6838467   -1.5812158   0.11633089     11544.15     1000 
 1392000   0.44361495   -2.3077175     0.664757   -1.6429605   0.12776407    11349.989     1000 
 1394000   0.43371194   -2.2381205   0.64991734   -1.5882032   0.13565714    11286.384     1000 
 1396000   0.43021264    -2.284382   0.64467364   -1.6397084   0.13024427    11310.733     1000 
 1398000   0.43641932    -2.254181   0.65397435   -1.6002066   0.12511634    11373.878     1000 
 1400000    0.4345716   -2.2764122   0.65120554   -1.6252067   0.12450673    11358.446     1000 
 1402000   0.41823288   -2.3037227   0.62672197   -1.6770007   0.11870426    11412.868     1000 
 1404000    0.4179361    -2.267675   0.62627724   -1.6413978   0.12239114    11334.984     1000 
 1406000   0.45971737   -2.2780544   0.68888647   -1.5891679   0.11452404    11507.324     1000 
 1408000    0.4418176    -2.266525   0.66206367   -1.6044613   0.12744113    11352.638     1000 
 1410000   0.43893987   -2.2498684   0.65775139    -1.592117    0.1298166    11299.947     1000 
 1412000   0.43244781   -2.2741488   0.64802305   -1.6261257   0.13289116    11300.379     1000 
 1414000   0.44113604   -2.2766261   0.66104236   -1.6155837   0.13641797    11314.867     1000 
 1416000   0.42502973   -2.2420919   0.63690705   -1.6051849    0.1219262    11307.917     1000 
 1418000   0.44579625   -2.2729385   0.66802567   -1.6049128   0.12676735    11292.188     1000 
 1420000   0.42962514   -2.2879467   0.64379327   -1.6441535   0.13104992    11239.429     1000 
 1422000   0.44002638   -2.2645223   0.65937952   -1.6051428   0.12963335    11358.617     1000 
 1424000   0.43111692   -2.2558384    0.6460287   -1.6098097   0.13122706    11250.232     1000 
 1426000    0.4376566   -2.3226482   0.65582842   -1.6668198    0.1308343    11305.846     1000 
 1428000   0.44218602   -2.2174563   0.66261574   -1.5548406   0.12813225    11295.389     1000 
 1430000   0.44735332    -2.267556   0.67035895   -1.5971971   0.13148459    11293.513     1000 
 1432000   0.42645986   -2.2358542    0.6390501   -1.5968041   0.13298255     11308.36     1000 
 1434000   0.45446857   -2.2077249   0.68102115   -1.5267037   0.12409435    11183.152     1000 
 1436000   0.45497788   -2.2907721   0.68178435   -1.6089878   0.12432663    11241.152     1000 
 1438000   0.43932029   -2.2609163   0.65832146   -1.6025949   0.14138342    11252.907     1000 
 1440000   0.45955696   -2.2217343   0.68864611   -1.5330882   0.14094174    11303.904     1000 
 1442000    0.4255218   -2.3053738   0.63764441   -1.6677294   0.11837664    11389.946     1000 
 1444000    0.4408021    -2.280947   0.66054195   -1.6204051   0.13463097    11287.507     1000 
 1446000   0.43398735    -2.252785   0.65033004   -1.6024549   0.14090392    11252.935     1000 
 1448000   0.44838902   -2.2832634   0.67191094   -1.6113524   0.14348626    11215.155     1000 
 1450000   0.44500978   -2.1971267   0.66684715   -1.5302796   0.14795549    11251.926     1000 
 1452000   0.45636186   -2.2839007   0.68385825   -1.6000425   0.12944859    11333.618     1000 
 1454000   0.44390863    -2.260494   0.66519709   -1.5952969   0.13361555    11199.124     1000 
 1456000   0.44221126   -2.3017897   0.66265358   -1.6391361   0.12351354     11425.16     1000 
 1458000   0.44367474   -2.2618908    0.6648466   -1.5970442   0.13728978    11315.993     1000 
 1460000   0.43440706   -2.2257252   0.65095898   -1.5747663    0.1173231    11428.738     1000 
 1462000   0.45720398   -2.2980767   0.68512017   -1.6129565   0.12319195    11376.443     1000 
 1464000   0.43481697   -2.2710476   0.65157323   -1.6194744   0.13728613    11237.121     1000 
 1466000   0.44902748    -2.301547   0.67286768   -1.6286793   0.11766786    11414.475     1000 
 1468000   0.43627194   -2.2872568    0.6537535   -1.6335033   0.13758369    11301.287     1000 
 1470000   0.44140048    -2.224035   0.66143862   -1.5625963   0.14540215    11120.872     1000 
 1472000   0.43903092   -2.1824318   0.65788784    -1.524544   0.14226368    11196.806     1000 
 1474000   0.43963437   -2.2923857    0.6587921   -1.6335936   0.12820385     11371.91     1000 
 1476000   0.43160337   -2.2975415   0.64675765   -1.6507838   0.13393086    11360.223     1000 
 1478000   0.45820482   -2.2857162   0.68661992   -1.5990963    0.1334381    11379.372     1000 
 1480000    0.4239465   -2.2872939   0.63528383   -1.6520101   0.11003543     11358.94     1000 
 1482000   0.44560397   -2.2817546   0.66773755   -1.6140171   0.12861242    11351.095     1000 
 1484000   0.43561703   -2.2825196   0.65277212   -1.6297475    0.1299147    11289.539     1000 
 1486000   0.45336755   -2.2616642   0.67937128   -1.5822929   0.12913507    11277.661     1000 
 1488000   0.44972017   -2.2653346   0.67390567    -1.591429   0.14025219    11171.497     1000 
 1490000    0.4183733    -2.258252   0.62693238   -1.6313196   0.12062158    11384.113     1000 
 1492000   0.45005268   -2.2432388   0.67440395   -1.5688349   0.13498425    11190.734     1000 
 1494000   0.44643424   -2.2547966   0.66898171   -1.5858148   0.12680608    11349.346     1000 
 1496000   0.44822298   -2.2802409   0.67166214   -1.6085788    0.1321729    11299.622     1000 
 1498000   0.44063883   -2.2658078   0.66029729   -1.6055105   0.13331526     11297.63     1000 
 1500000   0.42697731   -2.2445788   0.63982549   -1.6047533   0.13021146    11217.202     1000 
 1502000   0.44628744   -2.2908115   0.66876173   -1.6220497   0.12745614    11281.553     1000 
 1504000   0.45382394   -2.2644208   0.68005517   -1.5843657   0.13051851    11281.819     1000 
 1506000   0.46208789   -2.3014666   0.69243871   -1.6090279   0.13561706    11287.813     1000 
 1508000   0.45692376   -2.2796449   0.68470025   -1.5949447   0.12041193    11362.941     1000 
 1510000   0.43222215   -2.2520936    0.6476849   -1.6044087   0.13685313    11273.863     1000 
 1512000   0.43597885   -2.2748042   0.65331431   -1.6214899   0.14520919    11265.629     1000 
 1514000   0.44603862   -2.3170284   0.66838887   -1.6486395    0.1306255    11430.823     1000 
 1516000   0.42393245   -2.2650963   0.63526278   -1.6298335   0.11846763    11310.282     1000 
 1518000    0.4378804    -2.244844   0.65616378   -1.5886803   0.14298621    11078.446     1000 
 1520000   0.42882876   -2.2754823    0.6425999   -1.6328824   0.12837143    11318.721     1000 
 1522000   0.43859089   -2.2495344   0.65722844    -1.592306   0.12667968    11342.682     1000 
 1524000   0.44914556   -2.3178454   0.67304462   -1.6448007   0.12584484    11302.036     1000 
 1526000   0.44710947   -2.2716419   0.66999354   -1.6016484   0.12032855    11317.219     1000 
 1528000   0.42672927    -2.232286   0.63945382   -1.5928322    0.1303429    11286.128     1000 
 1530000   0.43494678   -2.2861549   0.65176775   -1.6343872   0.12288784    11404.697     1000 
 1532000   0.45032123   -2.2530173   0.67480636   -1.5782109   0.12911917    11441.195     1000 
 1534000   0.43499609   -2.2375129   0.65184163   -1.5856713   0.13349641    11156.693     1000 
 1536000   0.43478459   -2.2948223   0.65152471   -1.6432976   0.12840884    11446.442     1000 
 1538000   0.42008404   -2.2741627   0.62949594   -1.6446668    0.1198051    11386.585     1000 
 1540000   0.44345619   -2.2794701    0.6645191    -1.614951   0.12974521     11317.33     1000 
 1542000   0.43102169   -2.2341112   0.64588601   -1.5882252   0.13368112    11248.721     1000 
 1544000   0.42106643   -2.3048667   0.63096805   -1.6738987   0.12706693    11301.053     1000 
 1546000   0.42586454   -2.2592944   0.63815802   -1.6211364   0.12342603    11372.389     1000 
 1548000   0.44888353   -2.2995737   0.67265197   -1.6269218   0.13339803    11328.721     1000 
 1550000   0.43845887   -2.3128958   0.65703062   -1.6558652   0.13162572    11306.575     1000 
 1552000   0.44105439   -2.3450645   0.66092001   -1.6841445   0.13294623    11380.499     1000 
 1554000   0.44185727   -2.2268877   0.66212313   -1.5647646   0.13158531    11283.451     1000 
 1556000   0.42852417   -2.2646817   0.64214347   -1.6225383   0.12962997    11273.464     1000 
 1558000   0.43560303   -2.2670257   0.65275114   -1.6142746   0.12599608    11365.675     1000 
 1560000    0.4462688   -2.2684753   0.66873379   -1.5997415   0.12599637    11422.222     1000 
 1562000   0.44340009   -2.2961209   0.66443504   -1.6316859   0.13932204    11269.716     1000 
 1564000   0.43380521   -2.2374313   0.65005711   -1.5873742   0.14290541    11286.985     1000 
 1566000   0.44961735   -2.2684818   0.67375161   -1.5947302   0.12758125    11356.891     1000 
 1568000   0.44840582   -2.3188753   0.67193612   -1.6469392   0.13441131    11327.859     1000 
 1570000   0.44279737   -2.2541446   0.66353186   -1.5906127   0.11593954     11403.58     1000 
 1572000   0.46479996   -2.2433064   0.69650274   -1.5468037   0.13143255    11336.924     1000 
 1574000   0.43657577   -2.2830182    0.6542088   -1.6288094   0.12217686    11467.171     1000 
 1576000   0.45474317   -2.2776108   0.68143264   -1.5961781   0.12618384    11417.009     1000 
[...]
 2614000   0.45969963   -2.2818201    0.6888599   -1.5929602   0.12986076    11357.397     1000 
 2616000   0.43897938   -2.2782631    0.6578106   -1.6204525   0.12776517    11345.711     1000 
 2618000   0.45415176   -2.2609051   0.68054641   -1.5803587   0.12150046     11371.27     1000 
 2620000   0.42835555   -2.2981689   0.64189079   -1.6562781   0.13210247    11298.293     1000 
 2622000   0.44640868   -2.2788269   0.66894341   -1.6098835   0.13667789    11309.907     1000 
 2624000   0.44799185   -2.2931267   0.67131579   -1.6218109   0.13344673    11361.849     1000 
 2626000   0.44850545   -2.2555461   0.67208541   -1.5834607    0.1343976    11228.325     1000 
 2628000   0.43802893   -2.2563401   0.65638635   -1.5999537   0.13089606    11279.153     1000 
 2630000    0.4181101   -2.2678064   0.62653799   -1.6412684   0.12793366    11370.951     1000 
 2632000   0.44141879   -2.2694575   0.66146605   -1.6079915   0.12619894    11299.663     1000 
 2634000    0.4296488   -2.2434843   0.64382872   -1.5996556   0.12285341    11281.803     1000 
 2636000   0.45164061   -2.1584944   0.67678345   -1.4817109   0.12339498        11161     1000 
 2638000   0.43798167   -2.2687092   0.65631553   -1.6123936   0.13864498    11369.028     1000 
 2640000   0.43403718    -2.293254   0.65040472   -1.6428493   0.13793391    11279.916     1000 
 2642000   0.45245054   -2.2859624   0.67799713   -1.6079653   0.12196327    11331.003     1000 
 2644000   0.44723536   -2.2812315   0.67018218   -1.6110493   0.11681659    11504.335     1000 
 2646000   0.45254514   -2.2594617    0.6781389   -1.5813228   0.13026798     11329.49     1000 
 2648000   0.44882761   -2.2585314   0.67256817   -1.5859633   0.13685408    11261.468     1000 
 2650000   0.45727931   -2.3661817   0.68523304   -1.6809486   0.12505208    11416.551     1000 
 2652000   0.45154461   -2.2924715    0.6766396   -1.6158319   0.14151689    11191.227     1000 
 2654000   0.44320587   -2.2596962     0.664144   -1.5955522   0.13768656    11145.802     1000 
 2656000   0.44260864   -2.2468667   0.66324904   -1.5836176    0.1285868    11316.521     1000 
 2658000   0.44050471   -2.2855277   0.66009631   -1.6254313   0.12140171    11252.469     1000 
 2660000   0.45494602   -2.2675627   0.68173661   -1.5858261   0.13379208    11293.155     1000 
 2662000    0.4602253   -2.2675497   0.68964762   -1.5779021   0.13088094    11314.238     1000 
 2664000   0.44276774   -2.2799946   0.66348746   -1.6165072   0.13116887    11394.281     1000 
 2666000   0.43345233   -2.2433279   0.64952832   -1.5937996   0.12884502    11241.803     1000 
 2668000   0.46084517   -2.2802517   0.69057649   -1.5896753   0.14282537    11279.016     1000 
 2670000   0.43673614   -2.2892706   0.65444911   -1.6348215   0.12766429    11367.461     1000 
 2672000   0.43753779   -2.2738504   0.65565038      -1.6182   0.12229259    11338.124     1000 
 2674000   0.43377737    -2.277737   0.65001539   -1.6277216   0.12659684    11378.797     1000 
 2676000   0.43651143   -2.2453487   0.65411238   -1.5912363    0.1411453    11262.327     1000 
 2678000   0.43197534   -2.2211894   0.64731504   -1.5738744   0.11793943    11355.768     1000 
 2680000   0.43579657   -2.2592909   0.65304115   -1.6062498   0.13689112    11234.359     1000 
 2682000   0.43239429   -2.2568962   0.64794284   -1.6089533    0.1342953    11308.609     1000 
 2684000   0.42747648   -2.2706324    0.6405735   -1.6300589   0.12656631    11336.653     1000 
 2686000   0.44026217   -2.2387392   0.65973286   -1.5790064   0.13010441    11311.912     1000 
 2688000   0.42462397    -2.222524   0.63629902    -1.586225   0.12230976    11227.287     1000 
 2690000   0.43186144   -2.2642582   0.64714437   -1.6171138   0.13446926    11332.872     1000 
 2692000   0.43814858   -2.2589038   0.65656564   -1.6023381   0.13877679    11152.423     1000 
 2694000   0.43793747   -2.2647096   0.65624929   -1.6084603   0.13407352    11239.824     1000 
 2696000    0.4413609   -2.2528201   0.66137931   -1.5914408   0.12508798    11331.191     1000 
 2698000   0.42746891   -2.3279131   0.64056216    -1.687351   0.12746725    11451.613     1000 
 2700000   0.45833843   -2.2525892   0.68682014    -1.565769   0.13252743    11243.176     1000 
 2702000   0.44441753   -2.2659871   0.66595967   -1.6000275   0.12106025     11444.36     1000 
 2704000    0.4355601   -2.2945621    0.6526868   -1.6418753   0.12035696    11363.874     1000 
 2706000    0.4279251   -2.3031013   0.64124577   -1.6618556   0.13673849    11324.653     1000 
 2708000   0.43940313   -2.2051662    0.6584456   -1.5467206   0.12034728    11352.292     1000 
 2710000   0.45901795   -2.2805418   0.68783839   -1.5927034   0.13414141    11331.365     1000 
 2712000   0.45262637   -2.2582001   0.67826062   -1.5799395   0.13222574    11274.069     1000 
 2714000   0.44916739    -2.269463   0.67307733   -1.5963856   0.13322361    11339.583     1000 
 2716000   0.42703867   -2.2539716   0.63991745   -1.6140542   0.13037336    11255.599     1000 
 2718000   0.43629796    -2.262601   0.65379249   -1.6088085   0.12419414    11357.074     1000 
 2720000   0.42683407   -2.2868326   0.63961086   -1.6472217   0.13800574        11253     1000 
 2722000   0.43589659   -2.2732979   0.65319104   -1.6201069   0.11547219    11398.482     1000 
 2724000   0.46703545   -2.3010202   0.69985263   -1.6011675   0.13364319      11348.9     1000 
 2726000    0.4487399   -2.2704538   0.67243674   -1.5980171   0.13696388    11374.977     1000 
 2728000   0.42497259   -2.2549866   0.63682142   -1.6181652   0.12181166     11276.83     1000 
 2730000   0.44688084   -2.1961992   0.66965095   -1.5265483   0.13986155    11204.163     1000 
 2732000   0.44929823   -2.2533881    0.6732734   -1.5801147   0.13448532    11277.919     1000 
 2734000   0.45309289   -2.2923932   0.67895969   -1.6134335   0.13622485    11278.873     1000 
 2736000   0.46580769   -2.2651084   0.69801283   -1.5670956   0.13589871    11295.313     1000 
 2738000   0.42097915   -2.2380343   0.63083726    -1.607197   0.13064053    11188.983     1000 
 2740000   0.42344677   -2.2809825   0.63453499   -1.6464475   0.12053916    11436.511     1000 
 2742000   0.44983754   -2.2640716   0.67408155     -1.58999    0.1366616    11258.315     1000 
 2744000   0.42778923   -2.2162056   0.64104217   -1.5751634   0.14034694    11191.298     1000 
 2746000   0.43693367   -2.3060235    0.6547451   -1.6512784   0.13647898    11348.911     1000 
 2748000   0.42727082   -2.2027598   0.64026533   -1.5624945   0.13647097    11211.624     1000 
 2750000     0.452658   -2.2477795   0.67830801   -1.5694714   0.13237975    11283.429     1000 
 2752000   0.43444925   -2.2541858    0.6510222   -1.6031636   0.12714473     11280.18     1000 
 2754000   0.42247995   -2.3039315    0.6330862   -1.6708453    0.1271961    11405.793     1000 
 2756000   0.42862539   -2.2307142   0.64229515   -1.5884191   0.14021792    11271.354     1000 
 2758000   0.44361809   -2.2996302   0.66476171   -1.6348685   0.12523817    11428.414     1000 
 2760000   0.44795726   -2.2719736   0.67126396   -1.6007097   0.13259858    11280.794     1000 
 2762000   0.46452055   -2.2469451   0.69608405    -1.550861   0.14502017    11174.686     1000 
 2764000   0.42500698   -2.2600753   0.63687296   -1.6232024   0.14871556     11199.23     1000 
 2766000   0.43215043   -2.2620386   0.64757741   -1.6144612   0.12687879    11302.461     1000 
 2768000   0.45139418    -2.285443   0.67641418   -1.6090288   0.13284815    11358.384     1000 
 2770000   0.43349397     -2.27942   0.64959071   -1.6298293   0.12607989    11292.644     1000 
 2772000   0.44200363   -2.2697013   0.66234244   -1.6073588   0.13054368    11266.139     1000 
 2774000   0.44691817   -2.2882859   0.66970688    -1.618579   0.11690875    11461.256     1000 
 2776000   0.43362663   -2.2997743    0.6497895   -1.6499848   0.12392366    11388.801     1000 
 2778000   0.42233532   -2.2630332   0.63286948   -1.6301637   0.13837849    11220.187     1000 
 2780000   0.43723734   -2.2780717   0.65520015   -1.6228715   0.13163824    11510.076     1000 
 2782000    0.4473449   -2.2811378   0.67034633   -1.6107915   0.12652956    11423.213     1000 
 2784000   0.45133106   -2.2319538    0.6763196   -1.5556342   0.12911104    11423.106     1000 
 2786000   0.43438284   -2.2598472   0.65092268   -1.6089245   0.12844675    11363.949     1000 
 2788000   0.43991194   -2.3020373   0.65920804   -1.6428293   0.12902668    11319.777     1000 
 2790000   0.44304024   -2.2257173   0.66389579   -1.5618215   0.13863133    11166.545     1000 
 2792000   0.44687193      -2.2654   0.66963759   -1.5957624   0.13904096    11314.394     1000 
 2794000   0.44893688      -2.2601   0.67273191   -1.5873681   0.13054434    11279.601     1000 
 2796000   0.46326668   -2.2675166   0.69420512   -1.5733115   0.12458425    11396.381     1000 
 2798000   0.42305956   -2.2216643   0.63395474   -1.5877096   0.12921112    11286.985     1000 
 2800000   0.43648419   -2.2606513   0.65407157   -1.6065798   0.12997472    11252.897     1000 
 2802000   0.44778518   -2.2618216    0.6710061   -1.5908155   0.13296378    11352.236     1000 
 2804000   0.43285384   -2.2472787   0.64863148   -1.5986473   0.14228236    11179.501     1000 
 2806000   0.45501028   -2.2843676   0.68183291   -1.6025347   0.13716876    11332.199     1000 
 2808000   0.45034985   -2.2749568   0.67484926   -1.6001076   0.12157845    11416.962     1000 
 2810000   0.44733999   -2.2862465   0.67033898   -1.6159075   0.13825299    11278.583     1000 
 2812000   0.43353917   -2.2462699   0.64965845   -1.5966115   0.13120557      11378.1     1000 
 2814000   0.43641886   -2.2521352   0.65397366   -1.5981616   0.12250425    11293.921     1000 
 2816000   0.45012107   -2.3368841   0.67450642   -1.6623777   0.12121604    11619.249     1000 
 2818000   0.44022665   -2.2449012   0.65967963   -1.5852215   0.14311605    11160.518     1000 
 2820000   0.43890118   -2.2794259   0.65769342   -1.6217325   0.12198446     11334.69     1000 
 2822000   0.45236533   -2.2459798   0.67786944   -1.5681104   0.12872787    11258.998     1000 
 2824000   0.44289398   -2.1755203   0.66367663   -1.5118437   0.13564291    11265.592     1000 
 2826000   0.44629139   -2.2662916   0.66876765    -1.597524   0.12962908     11325.69     1000 
 2828000   0.42039112   -2.2299699   0.62995609   -1.6000138   0.15060557     11094.23     1000 
 2830000   0.45013155    -2.245507   0.67452212   -1.5709849   0.13235392    11281.799     1000 
 2832000   0.44177606   -2.2712986   0.66200143   -1.6092972   0.13333824    11249.753     1000 
 2834000   0.43996115    -2.225784   0.65928178   -1.5665023   0.11824184    11274.939     1000 
 2836000   0.43525543   -2.2312182   0.65223026    -1.578988   0.13287512    11206.348     1000 
 2838000    0.4556971   -2.2567197    0.6828621   -1.5738576   0.13186621    11237.842     1000 
 2840000   0.43555722   -2.2471727   0.65268249   -1.5944902   0.13338855    11281.386     1000 
 2842000   0.45441623   -2.2530624   0.68094272   -1.5721197   0.13123277    11211.137     1000 
 2844000   0.45909524   -2.2600591   0.68795421   -1.5721049   0.13691054    11324.057     1000 
 2846000   0.42637794   -2.2820387   0.63892734   -1.6431114    0.1375819    11164.398     1000 
 2848000   0.46545391   -2.2804236   0.69748268   -1.5829409   0.12416051    11445.775     1000 
 2850000   0.44746736   -2.2442724   0.67052984   -1.5737426   0.13431898    11273.479     1000 
 2852000   0.43445167   -2.2923797   0.65102583   -1.6413538   0.12547129    11461.291     1000 
 2854000   0.44716762    -2.224144   0.67008068   -1.5540633   0.12968557    11244.272     1000 
 2856000   0.44188151   -2.2532626   0.66215945   -1.5911031   0.13754112    11311.755     1000 
 2858000   0.43406983   -2.2413446   0.65045364   -1.5908909   0.13294719    11319.491     1000 
 2860000   0.46508126   -2.2339301   0.69692427   -1.5370058   0.12332589    11320.529     1000 
 2862000   0.45165262   -2.2555089   0.67680146   -1.5787074   0.12985662    11265.741     1000 
 2864000    0.4222481   -2.2642765   0.63273878   -1.6315378   0.12461912    11226.229     1000 
 2866000   0.42681353   -2.2428874   0.63958007   -1.6033074   0.13951445    11239.749     1000 
 2868000   0.46186978   -2.2556613   0.69211186   -1.5635494   0.14095101    11152.768     1000 
 2870000   0.43261565   -2.2714633   0.64827455   -1.6231888   0.12863179    11257.574     1000 
 2872000   0.44274118   -2.2455379   0.66344766   -1.5820903   0.13114354    11324.043     1000 
 2874000   0.44142338   -2.2825172   0.66147294   -1.6210443   0.13123195    11287.465     1000 
 2876000   0.43817411   -2.2576864   0.65660391   -1.6010825   0.13229217    11337.403     1000 
 2878000   0.45102859   -2.2494501   0.67586635   -1.5735838   0.14297196    11272.007     1000 
 2880000   0.43070806   -2.2337757   0.64541603   -1.5883597   0.12760865     11179.17     1000 
 2882000   0.43057707   -2.2478519   0.64521973   -1.6026321   0.13644179    11405.362     1000 
 2884000   0.42687039   -2.2509264   0.63966528   -1.6112611   0.13278942    11224.389     1000 
 2886000   0.44141689   -2.2472035   0.66146321   -1.5857403   0.13295644    11219.478     1000 
 2888000   0.44130996   -2.2983048   0.66130298   -1.6370018    0.1279884    11369.944     1000 
 2890000   0.44621326   -2.2566203   0.66865056   -1.5879698    0.1238541    11384.329     1000 
 2892000   0.44061258    -2.277017   0.66025795    -1.616759   0.13154433     11240.14     1000 
 2894000    0.4478839   -2.2824878   0.67115402   -1.6113338   0.12520064    11316.079     1000 
 2896000   0.44711341   -2.2813339   0.66999944   -1.6113345   0.13835452    11322.009     1000 
 2898000   0.44341438   -2.2547206   0.66445645   -1.5902642   0.13169433    11268.243     1000 
 2900000   0.43965977   -2.2055233   0.65883016   -1.5466932   0.13789084    11217.416     1000 
 2902000    0.4496112   -2.2590504   0.67374239   -1.5853081   0.13277726    11413.601     1000 
 2904000   0.43666038   -2.2198038   0.65433558   -1.5654682    0.1260111    11258.127     1000 
 2906000   0.44347279   -2.2616085   0.66454398   -1.5970645   0.12746561    11345.313     1000 
 2908000   0.43176464   -2.2814751   0.64699931   -1.6344757    0.1164579    11544.645     1000 
 2910000   0.44793057   -2.2775431   0.67122396   -1.6063192   0.14228543    11308.725     1000 
 2912000   0.42738542   -2.2364588   0.64043705   -1.5960218   0.13145651    11183.567     1000 
 2914000   0.45030657   -2.2658455    0.6747844   -1.5910611   0.13514046    11385.685     1000 
 2916000   0.43229506    -2.239943   0.64779415   -1.5921489   0.13074813    11240.931     1000 
 2918000   0.42775276   -2.2700382   0.64098751   -1.6290507    0.1245289    11347.962     1000 
 2920000   0.43704983   -2.3022055   0.65491918   -1.6472863   0.12192963    11409.663     1000 
 2922000   0.43693541   -2.2341733   0.65474771   -1.5794256   0.12882045    11318.584     1000 
 2924000   0.44992822    -2.246069   0.67421743   -1.5718516   0.12847721    11314.539     1000 
 2926000   0.42865114   -2.2453051   0.64233373   -1.6029713   0.13271744    11247.431     1000 
 2928000    0.4464646   -2.3066599   0.66902721   -1.6376327   0.13154422     11382.72     1000 
 2930000   0.42218059   -2.2369731   0.63263761   -1.6043355   0.12331424    11360.177     1000 
 2932000   0.42047282   -2.2426864   0.63007852   -1.6126078   0.12061604     11328.52     1000 
 2934000   0.43363638   -2.2718521   0.64980411    -1.622048   0.13000955    11191.302     1000 
 2936000   0.46230968   -2.2362493   0.69277105   -1.5434782   0.12343932     11299.24     1000 
 2938000   0.45513185   -2.2837003   0.68201508   -1.6016852   0.12522038    11397.612     1000 
 2940000   0.43823591   -2.2790058    0.6566965   -1.6223093   0.12177172    11363.122     1000 
 2942000   0.43582106   -2.2634342   0.65307786   -1.6103564   0.13436074    11240.596     1000 
 2944000   0.42329715   -2.2273515   0.63431078   -1.5930408   0.12310875    11347.773     1000 
 2946000   0.41996936    -2.223992   0.62932408   -1.5946679    0.1316072    11208.024     1000 
 2948000   0.42170066   -2.2605234   0.63191844   -1.6286049   0.12125278    11366.849     1000 
 2950000   0.44177316   -2.2454075   0.66199708   -1.5834104   0.14023921    11455.105     1000 
 2952000   0.43961279   -2.2371588   0.65875977    -1.578399   0.12438407    11323.788     1000 
 2954000   0.42284072   -2.2626619   0.63362681   -1.6290351    0.1189731     11369.02     1000 
 2956000   0.43039221   -2.2381496   0.64494273   -1.5932068   0.14723168    11184.197     1000 
 2958000   0.42366087   -2.2799883   0.63485581   -1.6451325   0.13591909    11300.429     1000 
 2960000   0.45522459   -2.2489783   0.68215404   -1.5668243    0.1337119     11211.27     1000 
 2962000   0.43941879   -2.2133229   0.65846906   -1.5548539   0.13804992    11264.761     1000 
 2964000   0.44156699   -2.2355879   0.66168813   -1.5738998   0.13279732    11205.992     1000 
 2966000   0.46063853   -2.2742551   0.69026683   -1.5839883   0.13543217    11351.028     1000 
 2968000   0.45468447   -2.2837729   0.68134468   -1.6024282   0.13378669    11311.586     1000 
 2970000   0.44211077   -2.2353283   0.66250299   -1.5728253   0.13006522    11361.853     1000 
 2972000   0.47448782   -2.2248997      0.71102   -1.5138797   0.13235037    11252.658     1000 
 2974000   0.42649135    -2.204738   0.63909729   -1.5656407   0.13083502    11225.706     1000 
 2976000   0.45478568   -2.2770093   0.68149634   -1.5955129   0.12595761    11354.269     1000 
 2978000   0.43971989   -2.2745329   0.65892026   -1.6156126   0.14139304    11228.027     1000 
 2980000   0.43906993   -2.2300602   0.65794629    -1.572114    0.1369361     11125.05     1000 
 2982000   0.44421759   -2.2291028   0.66566005   -1.5634427   0.14065475    11202.015     1000 
 2984000    0.4513197   -2.3285003   0.67630257   -1.6521977   0.12381379    11351.061     1000 
 2986000   0.44729355   -2.2918775   0.67026939   -1.6216081   0.12637383    11365.965     1000 
 2988000    0.4478923   -2.2402346   0.67116662   -1.5690679   0.13566948     11272.39     1000 
 2990000   0.44285758    -2.225108   0.66362208   -1.5614859   0.12378199    11244.727     1000 
 2992000   0.43755478   -2.2439182   0.65567585   -1.5882423   0.13393205    11257.033     1000 
 2994000   0.44501209   -2.2468288   0.66685062   -1.5799782   0.13830433    11213.997     1000 
 2996000   0.44629843   -2.2998865   0.66877819   -1.6311083   0.14135868    11342.038     1000 
 2998000   0.43902566   -2.2681533   0.65787995   -1.6102733   0.13002368    11402.845     1000 
 3000000   0.44951372   -2.2820476   0.67359631   -1.6084513   0.13514556    11278.243     1000 
Loop time of 1477.94 on 4 procs for 3000000 steps with 1000 atoms

Performance: 876895.557 tau/day, 2029.851 timesteps/s
95.0% CPU use with 4 MPI tasks x 1 OpenMP threads

MPI task timing breakdown:
Section |  min time  |  avg time  |  max time  |%varavg| %total
---------------------------------------------------------------
Pair    | 503.14     | 508.52     | 513.41     |  16.5 | 34.41
Neigh   | 60.522     | 60.632     | 60.786     |   1.4 |  4.10
Comm    | 109.27     | 113.8      | 119.33     |  34.0 |  7.70
Output  | 0.033573   | 3.6825     | 4.9003     | 109.8 |  0.25
Modify  | 784.7      | 786.18     | 790.28     |   8.4 | 53.19
Other   |            | 5.118      |            |       |  0.35

Nlocal:        250.000 ave         258 max         241 min
Histogram: 1 0 0 0 1 0 0 1 0 1
Nghost:        1722.25 ave        1745 max        1707 min
Histogram: 2 0 0 0 0 1 0 0 0 1
Neighs:        14603.0 ave       15322 max       13785 min
Histogram: 1 0 0 0 1 0 1 0 0 1

Total # of neighbors = 58412
Ave neighs/atom = 58.412000
Neighbor list builds = 150000
Dangerous builds not checked

Total wall time: 0:24:37
