LAMMPS (3 Mar 2020)
# ----------------------- Inicialização -----------------------

units			lj
atom_style 		atomic
dimension 		3
boundary 		p p p

# -------------------- Criação dos Átomos ---------------------

read_data 		topologia.txt
  orthogonal box = (0 0 0) to (21.54 21.54 21.54)
  1 by 2 by 2 MPI processor grid
  reading atoms ...
  1000 atoms
  read_data CPU = 0.00139493 secs

velocity 		all create ${temp} 87287 rot yes dist gaussian
velocity 		all create 0.57 87287 rot yes dist gaussian

# ------------------ Interação Interatômica -------------------

pair_style		table linear 1300
pair_coeff		1 1 force.table AA 6.5
WARNING: 2 of 1300 force values in table are inconsistent with -dE/dr.
  Should only be flagged at inflection points (src/pair_table.cpp:483)
pair_coeff		1 2 force.table AB 6.5
WARNING: 1 of 1300 force values in table are inconsistent with -dE/dr.
  Should only be flagged at inflection points (src/pair_table.cpp:483)
pair_coeff		2 2 force.table BB 6.5
pair_write		1 1 1600 r 0.008 6.5 table.check AA
Neighbor list info ...
  update every 1 steps, delay 10 steps, check yes
  max neighbors/atom: 2000, page size: 100000
  master list distance cutoff = 6.8
  ghost atom cutoff = 6.8
  binsize = 3.4, bins = 7 7 7
  1 neighbor lists, perpetual/occasional/extra = 1 0 0
  (1) pair table, perpetual
      attributes: half, newton on
      pair build: half/bin/atomonly/newton
      stencil: half/bin/3d/newton
      bin: standard
pair_write		1 2 1600 r 0.008 6.5 table.check AB
pair_write		2 2 1600 r 0.008 6.5 table.check BB

neighbor 		0.3 bin
neigh_modify	every 20 delay 0 check no

# ------------------------- Ensemble --------------------------------------

fix 1			all npt temp ${temp} ${temp} 0.5 iso ${press} ${press} 5
fix 1			all npt temp 0.57 ${temp} 0.5 iso ${press} ${press} 5
fix 1			all npt temp 0.57 0.57 0.5 iso ${press} ${press} 5
fix 1			all npt temp 0.57 0.57 0.5 iso 0.13 ${press} 5
fix 1			all npt temp 0.57 0.57 0.5 iso 0.13 0.13 5

# ---------------------- Função de Distribuição Radial -----------------------

#compute RDF 	all rdf 2000 1 1 1 2 2 2
#fix 2 			all ave/time 1 2000 2000 c_RDF[*] file rdf.data mode vector

# ------------------------- Execução ---------------------------

timestep 		0.005
thermo_style	custom step temp pe ke etotal press vol atoms
thermo			2000
run				3000000
Per MPI rank memory allocation (min/avg/max) = 2.675 | 2.675 | 2.675 Mbytes
Step Temp PotEng KinEng TotEng Press Volume Atoms 
       0         0.57  -0.46933715     0.854145   0.38480785   0.44434752    9993.9483     1000 
    2000   0.58739647   -1.7890272   0.88021361  -0.90881356   0.13390279    11466.955     1000 
    4000   0.59622743   -1.8724153   0.89344681  -0.97896852    0.1279656    11612.054     1000 
    6000   0.56558903    -1.825347   0.84753517  -0.97781186   0.13716145    11585.331     1000 
    8000   0.52936604   -1.8166655   0.79325502   -1.0234105   0.13169687    11323.904     1000 
   10000    0.5784763   -1.8711685   0.86684673   -1.0043218   0.12622455    11513.739     1000 
   12000   0.55870331   -1.8644904   0.83721691   -1.0272735     0.132218    11391.325     1000 
   14000     0.569005   -1.8041115   0.85265399  -0.95145756   0.12648403    11507.385     1000 
   16000   0.56103001   -1.7927391   0.84070347  -0.95203567   0.12757763    11481.247     1000 
   18000   0.54692932   -1.7762579   0.81957358  -0.95668434   0.13807752    11485.413     1000 
   20000   0.56510447   -1.7737643   0.84680904  -0.92695527   0.13622324    11438.781     1000 
   22000   0.55992628   -1.8452334   0.83904953   -1.0061839   0.12385217    11446.453     1000 
   24000   0.54543676   -1.7720834   0.81733699   -0.9547464   0.12423977    11631.479     1000 
   26000   0.56959416   -1.7999513   0.85353685  -0.94641446   0.12142638    11682.976     1000 
   28000   0.57468865   -1.8326038   0.86117095  -0.97143288   0.12541504    11658.441     1000 
   30000   0.54723493    -1.834954   0.82003155   -1.0149225   0.12673686    11405.633     1000 
   32000    0.5635662   -1.8074336   0.84450395  -0.96292961   0.14501094    11419.863     1000 
   34000   0.56793354   -1.7988081   0.85104841  -0.94775971   0.12448706    11390.796     1000 
   36000   0.56545845   -1.8101352   0.84733948  -0.96279574   0.13583759    11488.031     1000 
   38000   0.56257809   -1.7813434   0.84302327  -0.93832012   0.13141949     11512.45     1000 
   40000    0.5828703   -1.8127611   0.87343114  -0.93932995    0.1336067    11522.093     1000 
   42000   0.55983913   -1.8169942   0.83891894  -0.97807525   0.13210237    11638.595     1000 
   44000    0.5953643   -1.7784185   0.89215341  -0.88626507   0.13334194    11359.981     1000 
   46000   0.57273069   -1.8278053   0.85823693  -0.96956841    0.1338869    11493.452     1000 
   48000   0.54427833   -1.7811411   0.81560107  -0.96554007    0.1194947    11527.834     1000 
   50000    0.5662905   -1.8444385   0.84858631  -0.99585217   0.14500879    11369.999     1000 
   52000   0.55712948   -1.8248224   0.83485852  -0.98996386   0.12915601    11564.668     1000 
   54000    0.5747531   -1.7761676   0.86126752   -0.9149001   0.13220786    11664.575     1000 
   56000   0.58773031   -1.8109421   0.88071387  -0.93022819   0.13405602    11457.364     1000 
   58000   0.57343426   -1.8267446   0.85929124   -0.9674534   0.13654467     11414.88     1000 
   60000   0.54915142   -1.7622183    0.8229034  -0.93931488   0.13028594    11618.729     1000 
   62000   0.59974938   -1.8128507   0.89872444  -0.91412628   0.14727484    11265.594     1000 
   64000   0.57297902   -1.8444972   0.85860906  -0.98588817   0.12273486    11591.467     1000 
   66000   0.57924916   -1.8109118   0.86800487  -0.94290696   0.10604451    11788.372     1000 
   68000   0.55284591     -1.80168    0.8284396  -0.97324042   0.14785025    11372.435     1000 
   70000   0.57813165   -1.8314242   0.86633028  -0.96509392   0.13616981    11447.317     1000 
   72000   0.56677002   -1.8166026   0.84930487  -0.96729771   0.13238389    11491.058     1000 
   74000   0.58635751   -1.7882228   0.87865673  -0.90956609   0.13314159    11495.011     1000 
   76000   0.59295292   -1.7639837   0.88853996  -0.87544375   0.13450377     11336.87     1000 
   78000   0.57179796   -1.8318069   0.85683924  -0.97496761    0.1288338     11510.38     1000 
   80000   0.57176266   -1.8336421   0.85678634  -0.97685579   0.12748716    11442.042     1000 
   82000   0.57286167    -1.792833   0.85843321  -0.93439976   0.13057261    11628.576     1000 
   84000   0.56208373   -1.8368766   0.84228247  -0.99459417   0.13053799    11503.825     1000 
   86000   0.56634456   -1.8604487   0.84866732   -1.0117814   0.12539596    11710.412     1000 
   88000   0.56163386   -1.8132453   0.84160834  -0.97163698   0.13222448    11325.642     1000 
   90000   0.56067963   -1.8151693   0.84017842  -0.97499084   0.13516342    11420.256     1000 
   92000   0.57001424   -1.8398401   0.85416634  -0.98567372    0.1287905    11459.611     1000 
   94000   0.56943446   -1.8140249   0.85329754  -0.96072739   0.14693432    11452.892     1000 
   96000   0.59144296   -1.7877323   0.88627728    -0.901455    0.1381247    11435.987     1000 
   98000   0.58634703   -1.7696024   0.87864103  -0.89096142   0.13878941    11487.346     1000 
  100000   0.58664381   -1.8387225   0.87908575  -0.95963673   0.13412747    11641.985     1000 
  102000   0.57072467   -1.7679784   0.85523091  -0.91274751   0.14867826    11257.772     1000 
  104000   0.57009895   -1.8439544   0.85429328  -0.98966112   0.13380452    11549.482     1000 
  106000   0.58833893   -1.7546503   0.88162588  -0.87302442   0.12948506    11474.937     1000 
  108000   0.59024279   -1.8182315   0.88447883  -0.93375269   0.12886791    11531.765     1000 
  110000   0.55726195   -1.8357176   0.83505703   -1.0006605   0.12498287    11591.672     1000 
  112000   0.52968927   -1.8086219   0.79373937   -1.0148826   0.13247209    11658.071     1000 
  114000    0.5622331   -1.8067426    0.8425063  -0.96423632   0.14017775    11394.855     1000 
  116000   0.57686986   -1.7937553   0.86443948  -0.92931583   0.13892681    11357.123     1000 
  118000   0.54719408   -1.8213015   0.81997033   -1.0013311   0.13468407    11390.479     1000 
  120000   0.54489231   -1.7747857   0.81652112  -0.95826454   0.13356132    11388.228     1000 
  122000   0.57453662   -1.7766643   0.86094312  -0.91572114   0.13003388    11473.487     1000 
  124000   0.56110131    -1.791062   0.84081031  -0.95025172   0.12638887    11508.713     1000 
  126000   0.55902708   -1.8531258   0.83770207   -1.0154237   0.12928245    11581.273     1000 
  128000   0.57752405   -1.8400779   0.86541979  -0.97465807   0.13896093    11418.402     1000 
  130000   0.57776443   -1.8079575      0.86578  -0.94217749   0.12835635    11620.956     1000 
  132000   0.55821374   -1.8440534   0.83648329   -1.0075701   0.12967603    11489.987     1000 
  134000   0.55882597   -1.7803153   0.83740072  -0.94291458    0.1209126    11648.143     1000 
  136000   0.59389374   -1.7523346   0.88994977  -0.86238481   0.14109414     11513.38     1000 
  138000   0.54999556    -1.773401   0.82416834  -0.94923261   0.12025035    11518.632     1000 
  140000    0.5452292   -1.7909753   0.81702596  -0.97394932   0.12517385    11526.288     1000 
  142000   0.57737774   -1.7808222   0.86520054  -0.91562163   0.13466545    11557.733     1000 
  144000   0.56932303   -1.7982991   0.85313056   -0.9451685   0.12279639    11587.959     1000 
  146000   0.58434364      -1.8148   0.87563894  -0.93916103   0.12079756    11502.111     1000 
  148000   0.60357601   -1.8067366   0.90445865  -0.90227795   0.13798625    11469.031     1000 
  150000   0.57425252   -1.7977671   0.86051741  -0.93724968   0.13317475    11478.214     1000 
  152000   0.57704682   -1.8356306   0.86470467  -0.97092597   0.12118994    11437.784     1000 
  154000   0.55592563   -1.7807312   0.83305456  -0.94767664   0.14243831    11464.536     1000 
  156000   0.58264823   -1.8568517   0.87309838  -0.98375333   0.12769896     11628.43     1000 
  158000   0.59618042   -1.8237617   0.89337635  -0.93038531    0.1281616     11635.13     1000 
  160000   0.57295471   -1.8751828   0.85857263   -1.0166102    0.1228216    11741.792     1000 
  162000   0.56303235   -1.8064906   0.84370397  -0.96278666   0.13204135    11358.623     1000 
  164000   0.56559202   -1.8308826   0.84753965  -0.98334296   0.11950478    11707.644     1000 
  166000   0.56129531   -1.8105693   0.84110102  -0.96946828    0.1261805    11462.074     1000 
  168000   0.57687286   -1.8134046   0.86444398  -0.94896059   0.13411783     11643.77     1000 
  170000   0.58020915   -1.7503474   0.86944341  -0.88090396   0.12684652    11554.139     1000 
  172000   0.57247646   -1.8636987   0.85785597   -1.0058427   0.12948093     11417.43     1000 
  174000   0.53849188   -1.8531937   0.80693009   -1.0462636   0.12874503    11598.716     1000 
  176000    0.6000655   -1.8222643   0.89919815  -0.92306612   0.13691312    11579.036     1000 
  178000   0.57526194   -1.8139186   0.86203002  -0.95188854   0.14044933    11445.824     1000 
  180000   0.55872204   -1.7892233   0.83724498  -0.95197835   0.13202821    11546.054     1000 
  182000   0.57079798   -1.7929705   0.85534078  -0.93762974   0.13808323     11421.48     1000 
  184000   0.55269462   -1.8137341   0.82821289  -0.98552125   0.14164668    11439.844     1000 
  186000   0.56107028   -1.7812933   0.84076381  -0.94052945   0.12679844    11507.665     1000 
  188000   0.57026711   -1.8052365   0.85454526  -0.95069129   0.13381698    11345.225     1000 
  190000   0.57672742   -1.8167908   0.86422605  -0.95256472   0.12982941    11547.017     1000 
  192000   0.56431968   -1.7959272   0.84563305  -0.95029418   0.12248508    11613.604     1000 
  194000    0.5598639   -1.7830661   0.83895606  -0.94410999   0.12283556    11573.529     1000 
  196000   0.57881448   -1.8330901    0.8673535  -0.96573656   0.12848502    11557.916     1000 
  198000   0.55521421   -1.7709611   0.83198849  -0.93897262   0.13184477    11390.613     1000 
  200000   0.56448406   -1.8603235   0.84587937   -1.0144441   0.12898899     11626.65     1000 
  202000    0.5861311   -1.8952166   0.87831745   -1.0168991   0.13356441    11537.761     1000 
  204000   0.57837111   -1.8229519   0.86668911  -0.95626281   0.13169376    11632.104     1000 
  206000   0.55909538   -1.7674854   0.83780443  -0.92968097   0.11909934    11618.332     1000 
  208000   0.57474386    -1.855068   0.86125367   -0.9938143    0.1340239    11723.581     1000 
  210000   0.54687162   -1.8135385   0.81948712  -0.99405133   0.12401298     11497.38     1000 
  212000   0.58733442   -1.7731672   0.88012063  -0.89304658   0.12832913    11469.287     1000 
  214000   0.58371782   -1.8544169   0.87470115  -0.97971572   0.12712192    11624.398     1000 
  216000   0.57666521   -1.7747367   0.86413282  -0.91060388   0.12806104    11496.302     1000 
  218000   0.57291173   -1.8053462   0.85850823  -0.94683796   0.12198409    11559.844     1000 
  220000   0.58106142    -1.846778   0.87072054   -0.9760575    0.1168224     11818.63     1000 
  222000    0.5625183   -1.8272822   0.84293367  -0.98434857   0.13100992    11497.159     1000 
  224000   0.57529631   -1.8159177   0.86208152  -0.95383617   0.12980827     11511.04     1000 
  226000    0.5641263   -1.8167248   0.84534326  -0.97138157   0.12197622    11471.776     1000 
  228000   0.55548678   -1.8158403   0.83239694  -0.98344338   0.11684896      11769.4     1000 
  230000   0.59262859   -1.8248993   0.88805394  -0.93684541   0.12338367    11589.064     1000 
  232000   0.55400297   -1.8366029   0.83017346   -1.0064294    0.1416635    11407.284     1000 
  234000   0.56564358   -1.7959213   0.84761691  -0.94830437   0.12810709    11598.049     1000 
  236000   0.56357273   -1.7543843   0.84451373  -0.90987055   0.13170928    11670.844     1000 
  238000   0.58367296   -1.7985262   0.87463393  -0.92389223   0.13376318    11488.141     1000 
  240000   0.57400816    -1.807357   0.86015123  -0.94720576   0.13311072    11487.441     1000 
  242000   0.58320739   -1.8520784   0.87393627  -0.97814212   0.12275479    11662.288     1000 
  244000   0.55596633   -1.7741518   0.83311554  -0.94103627   0.12840359    11425.103     1000 
  246000   0.59803998   -1.7807738   0.89616291   -0.8846109   0.12677177    11562.028     1000 
  248000   0.56406191   -1.7802694   0.84524678  -0.93502264   0.13220525     11620.71     1000 
  250000   0.56665923   -1.8011534   0.84913886  -0.95201459   0.12912092    11507.194     1000 
  252000   0.55357436    -1.847909   0.82953118   -1.0183778   0.13717732    11471.117     1000 
  254000   0.54606686    -1.806342   0.81828119  -0.98806076   0.12920683    11517.016     1000 
  256000   0.56584263   -1.8075844   0.84791518  -0.95966918    0.1317203    11595.672     1000 
  258000    0.5734414   -1.7474426   0.85930194  -0.88814066   0.13631012     11549.15     1000 
  260000   0.54910908   -1.8337953   0.82283995   -1.0109553   0.12420541    11481.004     1000 
  262000   0.55990733   -1.8184442   0.83902113  -0.97942305   0.13035965    11472.076     1000 
  264000   0.56669958   -1.7923497   0.84919931  -0.94315037   0.13296761    11443.813     1000 
  266000    0.5917056   -1.8261971   0.88667084  -0.93952621   0.12785094    11598.085     1000 
  268000   0.58034416   -1.7997237   0.86964572  -0.93007794   0.12820612    11610.291     1000 
  270000   0.58670002   -1.8027068   0.87916997  -0.92353687   0.13244805    11615.861     1000 
  272000   0.57176232   -1.7744545   0.85678583  -0.91766869   0.12870232    11606.166     1000 
  274000   0.57284438    -1.835161    0.8584073  -0.97675374   0.12201616    11667.685     1000 
  276000   0.55923808   -1.7899177   0.83801827  -0.95189947   0.12999295    11423.456     1000 
  278000   0.56773065    -1.783878   0.85074437  -0.93313367   0.14247271    11500.935     1000 
  280000   0.56170463   -1.8271508    0.8417144  -0.98543645    0.1396957    11677.031     1000 
  282000   0.55434297   -1.8162796   0.83068295  -0.98559665   0.13948083    11355.668     1000 
  284000   0.56838921   -1.8218019   0.85173123  -0.97007072   0.13035186    11554.226     1000 
  286000   0.55124909   -1.7903841   0.82604677  -0.96433729   0.13352349    11505.474     1000 
  288000   0.59532917    -1.828201   0.89210076  -0.93610028   0.12304538    11604.653     1000 
  290000   0.56537312   -1.8150338   0.84721161  -0.96782215   0.12689309    11571.394     1000 
  292000   0.56219754   -1.8216828   0.84245301  -0.97922982   0.12993618    11424.935     1000 
  294000   0.54460547   -1.7983942   0.81609129  -0.98230295   0.13647258    11287.549     1000 
  296000   0.56647619   -1.8346309   0.84886457  -0.98576633   0.13219053    11500.095     1000 
  298000   0.54484367    -1.822698   0.81644824   -1.0062497   0.12176972     11649.59     1000 
  300000    0.5391021   -1.8842023    0.8078445   -1.0763578   0.12563079    11624.931     1000 
  302000   0.58534327   -1.7990944   0.87713689  -0.92195746   0.12743009    11625.983     1000 
  304000   0.57247333   -1.8933143   0.85785129    -1.035463   0.13421301    11504.526     1000 
  306000   0.55717305   -1.8163257   0.83492382  -0.98140188   0.13685553     11416.75     1000 
  308000    0.5706886   -1.8585364   0.85517687   -1.0033596   0.12079529    11654.796     1000 
  310000   0.56362639    -1.826047   0.84459415  -0.98145286   0.12937962    11481.864     1000 
  312000   0.54633678     -1.85197   0.81868566   -1.0332844   0.12361803    11617.333     1000 
  314000   0.57983934   -1.7905893   0.86888925  -0.92170006   0.13330724    11491.221     1000 
  316000   0.55701694    -1.812711   0.83468988  -0.97802114    0.1240436    11552.793     1000 
  318000   0.56890876   -1.7658467   0.85250977  -0.91333695   0.13697567    11414.096     1000 
  320000   0.56475025   -1.8225774   0.84627826  -0.97629912   0.13987321    11426.944     1000 
  322000   0.57956496   -1.8237867   0.86847809  -0.95530859   0.12988083    11508.902     1000 
  324000   0.60847828   -1.7770998   0.91180471  -0.86529514   0.11984754    11571.013     1000 
  326000   0.56927841   -1.8371747    0.8530637  -0.98411103   0.13817669    11460.543     1000 
  328000   0.57039666   -1.7964713   0.85473939  -0.94173196   0.13515245    11486.811     1000 
  330000   0.54969977    -1.807212   0.82372511  -0.98348692   0.11726371    11639.961     1000 
  332000   0.56109936   -1.7882928    0.8408074  -0.94748536   0.13107268    11440.279     1000 
  334000   0.58105637   -1.7891909   0.87071297  -0.91847793   0.13611739    11452.461     1000 
  336000   0.58040127   -1.8540513    0.8697313  -0.98431998   0.12731958    11618.121     1000 
  338000   0.57918513   -1.7969223   0.86790892  -0.92901338   0.13396109    11476.288     1000 
  340000   0.59099385    -1.821697   0.88560428  -0.93609276   0.12923916    11400.465     1000 
  342000   0.57234751   -1.7940077   0.85766274  -0.93634492   0.12620766    11458.576     1000 
  344000   0.58493837   -1.7979081   0.87653015  -0.92137798   0.13254598    11574.059     1000 
  346000   0.57683166   -1.8228083   0.86438224  -0.95842604   0.11824564    11615.026     1000 
  348000   0.56693439   -1.8094811   0.84955119  -0.95992992   0.11863101    11743.101     1000 
  350000   0.55057567   -1.8085399   0.82503764  -0.98350231   0.13719771    11636.228     1000 
  352000   0.54744552   -1.8142419   0.82034712  -0.99389475   0.11492205     11605.08     1000 
  354000   0.60524537   -1.7953451   0.90696019  -0.88838495   0.12138443    11636.825     1000 
  356000   0.54148923   -1.7977889   0.81142161  -0.98636726   0.12539836    11476.574     1000 
  358000   0.54590733     -1.82946   0.81804214   -1.0114179   0.13836271    11480.478     1000 
  360000   0.57315243    -1.859132   0.85886891    -1.000263   0.11869303    11567.615     1000 
  362000   0.55241425   -1.8475349   0.82779276   -1.0197422   0.13446499    11487.269     1000 
  364000   0.55401541   -1.8550557    0.8301921   -1.0248636   0.13788793    11523.384     1000 
  366000   0.58178202   -1.8529943   0.87180035  -0.98119394   0.13451567    11528.267     1000 
  368000   0.55073407   -1.8272513     0.825275   -1.0019763     0.128643    11623.416     1000 
  370000   0.54916327   -1.8084418   0.82292116  -0.98552062   0.13159127    11454.337     1000 
  372000    0.5614063    -1.802653   0.84126733  -0.96138572   0.12116975    11673.177     1000 
  374000   0.56575411   -1.8205056   0.84778253  -0.97272305   0.13141845    11497.887     1000 
  376000   0.57568133   -1.8173623   0.86265848  -0.95470377   0.12595526    11444.175     1000 
  378000   0.55940602   -1.8365354   0.83826992   -0.9982655   0.12681173    11633.429     1000 
  380000   0.55332794   -1.8830713   0.82916192   -1.0539094   0.12037771    11788.986     1000 
  382000    0.5703586   -1.8349524   0.85468237  -0.98027002   0.12570086    11672.903     1000 
  384000   0.52921748   -1.7968944    0.7930324    -1.003862    0.1355642    11501.971     1000 
  386000   0.56236152   -1.7710424   0.84269874  -0.92834365   0.14381625    11325.264     1000 
  388000   0.54876221   -1.8619041   0.82232017   -1.0395839   0.11920507    11607.155     1000 
  390000   0.56422066   -1.7929452   0.84548466  -0.94746058   0.12709381    11565.402     1000 
  392000   0.56740864   -1.7931321   0.85026185  -0.94287024    0.1405745    11356.901     1000 
  394000   0.56257063   -1.8284492   0.84301209  -0.98543714   0.13348256    11511.253     1000 
  396000   0.56337756   -1.8609302   0.84422127   -1.0167089   0.12598279    11543.136     1000 
  398000   0.56032628   -1.8253801   0.83964893   -0.9857312   0.12718564    11614.736     1000 
  400000   0.54697637    -1.802037    0.8196441  -0.98239294    0.1345219      11604.1     1000 
  402000   0.56214587   -1.7973537   0.84237559   -0.9549781   0.13524297    11399.372     1000 
  404000   0.56457177   -1.8472136    0.8460108   -1.0012028   0.13303856    11487.673     1000 
  406000   0.56137198   -1.7886645   0.84121591  -0.94744857   0.13812171     11486.79     1000 
  408000   0.58296867   -1.8370336   0.87357855  -0.96345506   0.13397185     11556.43     1000 
  410000    0.5774921   -1.8399742   0.86537192  -0.97460232   0.12547607    11577.533     1000 
  412000   0.58218261   -1.8460826   0.87240064  -0.97368198    0.1369781     11443.79     1000 
  414000   0.54470641   -1.8509931   0.81624255   -1.0347505   0.12647502    11613.636     1000 
  416000   0.58485368   -1.8610167   0.87640325  -0.98461349   0.13443432    11550.973     1000 
  418000   0.56760188   -1.8110598   0.85055142  -0.96050838   0.12980527     11562.25     1000 
  420000   0.56495467   -1.8385266   0.84658457  -0.99194199   0.11756333    11736.946     1000 
  422000   0.56423294   -1.8124747   0.84550306  -0.96697168   0.11928455    11636.831     1000 
  424000   0.56382411   -1.8105975   0.84489043  -0.96570706   0.13590124    11460.628     1000 
  426000   0.55127256   -1.7681222   0.82608193  -0.94204031   0.12587135    11668.031     1000 
  428000   0.56686822   -1.8487921   0.84945202  -0.99934008   0.13720645    11470.479     1000 
  430000   0.57984625   -1.7587694    0.8688996  -0.88986979   0.13652914    11435.098     1000 
  432000   0.58951728   -1.8405652   0.88339165  -0.95717352   0.14186349    11337.311     1000 
  434000   0.55719058   -1.8178235   0.83495008  -0.98287346   0.13533482    11380.999     1000 
  436000   0.59983369   -1.8193665   0.89885078  -0.92051572   0.12911501    11537.186     1000 
  438000   0.55418602   -1.8218761   0.83044776   -0.9914283   0.13253881     11384.88     1000 
  440000    0.5716799   -1.7809511   0.85666234  -0.92428881    0.1269589    11505.471     1000 
  442000   0.58042053    -1.811783   0.86976016  -0.94202283   0.12402356    11589.502     1000 
  444000   0.58347772   -1.7762839   0.87434136   -0.9019425   0.14259963    11389.411     1000 
  446000   0.52963196   -1.8038404    0.7936535   -1.0101869   0.12362325    11695.766     1000 
  448000   0.55642223   -1.8099493    0.8337987  -0.97615063    0.1192767    11762.718     1000 
  450000   0.57940157   -1.8139793   0.86823325  -0.94574609   0.13467248    11467.062     1000 
  452000   0.58311576   -1.7808542   0.87379896   -0.9070552   0.13701804    11526.614     1000 
  454000   0.57560611   -1.8085087   0.86254576  -0.94596299   0.12045482    11525.412     1000 
  456000   0.55213579   -1.7428983   0.82737549  -0.91552281   0.13439055    11473.932     1000 
  458000   0.55732745   -1.8522774   0.83515519   -1.0171222   0.12123711    11478.231     1000 
  460000   0.56468799   -1.8573745   0.84618496   -1.0111896   0.11953648    11671.639     1000 
  462000   0.55403544   -1.7848646   0.83022211   -0.9546425   0.12263705    11486.869     1000 
  464000   0.57129342   -1.7905034   0.85608319  -0.93442019   0.13853619    11471.156     1000 
  466000   0.59395139   -1.7996713   0.89003615  -0.90963515   0.13416788    11377.677     1000 
  468000   0.57318252   -1.8259845     0.858914  -0.96707055   0.12166613    11523.408     1000 
  470000   0.56972509   -1.7939406   0.85373304  -0.94020757   0.13808415    11469.485     1000 
  472000   0.56783137    -1.783055   0.85089531  -0.93215967   0.12190531    11717.449     1000 
  474000   0.55019985   -1.7919379   0.82447447  -0.96746347   0.12455074    11487.396     1000 
  476000   0.56270445   -1.8515554   0.84321263   -1.0083428   0.11629866    11590.225     1000 
  478000   0.56203665   -1.8071779   0.84221193  -0.96496597   0.13588638    11489.308     1000 
  480000    0.6097843    -1.824885   0.91376177  -0.91112327   0.12696813    11656.787     1000 
  482000   0.57991214   -1.8283324   0.86899835  -0.95933405   0.11348846     11739.95     1000 
  484000   0.56980362   -1.8536331   0.85385073  -0.99978237   0.12837117    11663.277     1000 
  486000   0.56978402    -1.804856   0.85382135  -0.95103465   0.12274031    11599.332     1000 
  488000   0.56406974   -1.7865972    0.8452585  -0.94133872   0.13197574    11473.859     1000 
  490000   0.59613666   -1.8401653   0.89331078  -0.94685452   0.13804803    11594.658     1000 
  492000   0.59311918   -1.8216444    0.8887891  -0.93285534   0.13904181    11374.488     1000 
  494000   0.58903403   -1.7948582    0.8826675  -0.91219069   0.13565495    11603.057     1000 
  496000   0.57509686   -1.8410992   0.86178264  -0.97931653    0.1287466    11333.309     1000 
  498000   0.57230908   -1.8094055   0.85760515  -0.95180037   0.13616512    11463.253     1000 
  500000   0.56569797   -1.7352663   0.84769841   -0.8875679   0.11595319    11469.024     1000 
  502000   0.55737005   -1.8105704   0.83521901  -0.97535137   0.13076602    11513.685     1000 
  504000   0.55934148   -1.7852012   0.83817321    -0.947028   0.13037325    11643.239     1000 
  506000   0.55557274   -1.8134441   0.83252575  -0.98091836   0.13360007    11485.189     1000 
  508000   0.57216018   -1.8291718   0.85738204  -0.97178974   0.14061575     11463.45     1000 
  510000   0.57571787   -1.8242267   0.86271323  -0.96151349   0.13093739    11499.807     1000 
  512000   0.58876273   -1.7960575   0.88226095  -0.91379659   0.14173835    11270.943     1000 
  514000   0.55319425   -1.8149515   0.82896159  -0.98598991   0.12543286    11599.771     1000 
  516000    0.5868479   -1.8527427   0.87939158  -0.97335114   0.14030944    11524.948     1000 
  518000   0.56843637   -1.8293318   0.85180189  -0.97752989   0.11707364    11650.074     1000 
  520000   0.56761381   -1.8382478   0.85056929  -0.98767853   0.13522974    11560.542     1000 
  522000   0.56028345    -1.742183   0.83958475  -0.90259823    0.1133318    11699.019     1000 
  524000   0.55460355   -1.8271531   0.83107342  -0.99607972   0.13541239    11505.475     1000 
  526000   0.56348854   -1.8773233   0.84438758   -1.0329357   0.11443029    11693.374     1000 
  528000   0.56733006     -1.83303    0.8501441  -0.98288589   0.12204444    11630.241     1000 
  530000   0.55746886   -1.7884017   0.83536708  -0.95303463   0.13658464    11449.999     1000 
  532000   0.56235904   -1.7831886   0.84269502  -0.94049358   0.13736035    11448.189     1000 
  534000   0.57848838   -1.8537564   0.86686484  -0.98689158   0.12137889    11555.756     1000 
  536000   0.54586561   -1.8024739   0.81797961  -0.98449434   0.14750681    11311.163     1000 
  538000    0.5631227   -1.8183968   0.84383937  -0.97455741   0.12910794    11584.904     1000 
  540000   0.54879302   -1.7998753   0.82236634  -0.97750895   0.12958916    11680.387     1000 
  542000   0.56198701   -1.7578432   0.84213753  -0.91570568   0.13047726    11544.582     1000 
  544000   0.55357845   -1.8004648    0.8295373  -0.97092746   0.13267308    11554.233     1000 
  546000   0.58314677   -1.7946169   0.87384544   -0.9207715   0.13724766    11410.137     1000 
  548000   0.58172296    -1.792266   0.87171185  -0.92055413   0.11700806    11589.098     1000 
  550000   0.58660599   -1.8132881   0.87902907  -0.93425905   0.14610679    11393.438     1000 
  552000   0.55645885     -1.78503   0.83385359  -0.95117637   0.14109252    11259.092     1000 
  554000   0.56258972   -1.8398378   0.84304069  -0.99679708   0.12617999    11538.655     1000 
  556000   0.56705821   -1.7910591   0.84973673  -0.94132238   0.15088796    11354.304     1000 
  558000   0.56188403   -1.8051821   0.84198321  -0.96319888   0.13513233    11326.497     1000 
  560000   0.56399481   -1.8329149   0.84514622  -0.98776871   0.13288551    11494.207     1000 
  562000   0.57652915   -1.7878469   0.86392893  -0.92391801   0.13178289    11465.314     1000 
  564000    0.5919549   -1.7706631   0.88704442  -0.88361869   0.14083606    11461.123     1000 
  566000   0.57188288   -1.8115114   0.85696649  -0.95454488   0.12351512    11535.474     1000 
  568000   0.56163897   -1.8284711     0.841616  -0.98685508   0.12230377    11456.974     1000 
  570000   0.58955412   -1.8394695   0.88344684  -0.95602265   0.13857177    11486.467     1000 
  572000   0.57611069   -1.7839416   0.86330187  -0.92063976   0.12885962    11530.896     1000 
  574000   0.56798004   -1.8589763    0.8511181   -1.0078582   0.13309437    11744.084     1000 
  576000   0.56182778   -1.7759578   0.84189892  -0.93405883   0.12611035    11614.002     1000 
  578000   0.57274533   -1.7858392   0.85825888  -0.92758027   0.13430665    11563.878     1000 
  580000   0.56506001   -1.8078179   0.84674242  -0.96107552   0.13248924    11505.673     1000 
  582000   0.56167268   -1.8202245   0.84166651  -0.97855797   0.13025258    11576.804     1000 
  584000   0.56692558    -1.863851   0.84953797    -1.014313   0.12370328    11375.118     1000 
  586000    0.5853806    -1.787886   0.87719282  -0.91069313   0.12073928    11664.897     1000 
  588000    0.5627038   -1.8266886   0.84321164  -0.98347697    0.1343293    11666.858     1000 
  590000   0.55839421   -1.8216865   0.83675373   -0.9849328   0.13092358    11503.445     1000 
  592000   0.56181655   -1.8681397   0.84188211   -1.0262576   0.12928823    11628.733     1000 
  594000   0.58639281   -1.8116781   0.87870962   -0.9329685   0.13684653    11544.754     1000 
  596000   0.57675036   -1.7920538   0.86426041  -0.92779341   0.13721154    11358.815     1000 
  598000   0.56035396   -1.7734955    0.8396904  -0.93380515   0.13016279    11451.713     1000 
  600000   0.58067274   -1.7952084    0.8701381  -0.92507033   0.13843886    11658.312     1000 
  602000    0.5702532   -1.8753153   0.85452442   -1.0207909   0.12271881    11693.652     1000 
  604000   0.58758265   -1.7808552   0.88049261  -0.90036258   0.13710277    11387.501     1000 
  606000   0.56097973   -1.8272246   0.84062813  -0.98659648    0.1339102    11465.531     1000 
  608000    0.5750109   -1.7977751   0.86165384   -0.9361213   0.13393207    11508.121     1000 
  610000   0.55767081    -1.789159   0.83566971   -0.9534893   0.11792399    11732.127     1000 
  612000   0.58628446   -1.8036352   0.87854727  -0.92508796    0.1371045     11480.79     1000 
  614000   0.55678671   -1.8125972   0.83434488  -0.97825228   0.12712984    11406.647     1000 
  616000   0.54978999   -1.8336082    0.8238603   -1.0097479   0.13176097    11472.688     1000 
  618000   0.57309774   -1.8471032   0.85878696  -0.98831628   0.13201378     11466.88     1000 
  620000   0.57165756   -1.7956949   0.85662885  -0.93906604   0.13844689    11337.846     1000 
  622000   0.57973526   -1.8071967   0.86873329  -0.93846343   0.12815391    11487.872     1000 
  624000    0.5727802   -1.8253749   0.85831113  -0.96706377   0.13145472    11546.528     1000 
  626000   0.55185805   -1.8385461   0.82695929   -1.0115868   0.12597518    11594.162     1000 
  628000   0.55800494   -1.8076958    0.8361704  -0.97152537   0.13316393    11482.663     1000 
  630000   0.58552823   -1.8404111   0.87741405  -0.96299701   0.12258208    11653.723     1000 
  632000   0.57320457   -1.8361288   0.85894705  -0.97718174   0.15198228    11326.412     1000 
  634000   0.54221366   -1.8604187   0.81250716   -1.0479116   0.12659829    11533.915     1000 
  636000   0.58119161    -1.773616   0.87091563  -0.90270042   0.12812324    11494.876     1000 
  638000   0.56384315   -1.8077228   0.84491896  -0.96280387   0.12682857    11565.278     1000 
  640000   0.57279726   -1.8006574    0.8583367  -0.94232068   0.12753336    11550.643     1000 
  642000   0.54918157   -1.8296169   0.82294858   -1.0066684   0.12485411    11539.218     1000 
  644000   0.58051885   -1.7818758    0.8699075  -0.91196833   0.13533658    11461.124     1000 
  646000   0.57777293   -1.7915015   0.86579274  -0.92570881   0.12257796     11647.46     1000 
  648000   0.58219122    -1.837553   0.87241355  -0.96513948   0.11621436    11701.168     1000 
  650000   0.56665661   -1.8099294   0.84913493  -0.96079449   0.12754338    11448.407     1000 
  652000   0.57916621   -1.8001958   0.86788057  -0.93231519   0.13610875    11511.793     1000 
  654000   0.58936106   -1.7311228   0.88315754  -0.84796524   0.13738607    11321.604     1000 
  656000   0.59045826   -1.8325924    0.8848017  -0.94779068   0.12383298     11708.37     1000 
  658000   0.57791895   -1.8332786   0.86601154  -0.96726708   0.11899711    11690.721     1000 
  660000   0.60503527   -1.7991715   0.90664536  -0.89252613   0.13326283    11522.917     1000 
  662000   0.58549734   -1.8292373   0.87736777  -0.95186956    0.1343241    11520.453     1000 
  664000   0.58277648   -1.8298967   0.87329056  -0.95660617    0.1199697    11586.104     1000 
  666000   0.56266607   -1.7993395   0.84315511  -0.95618437   0.12949236    11517.931     1000 
  668000   0.57721983   -1.7587327   0.86496391  -0.89376883   0.13644195    11353.199     1000 
  670000   0.56908571   -1.8672983   0.85277494   -1.0145234   0.11654208    11702.107     1000 
  672000   0.59153187   -1.8265426   0.88641051  -0.94013208   0.13054452    11500.079     1000 
  674000   0.56072031   -1.8115957   0.84023938   -0.9713563   0.13729935    11485.463     1000 
  676000   0.57883101   -1.8224646   0.86737828  -0.95508634   0.13071156    11562.731     1000 
  678000   0.56675489   -1.7807981   0.84928221  -0.93151587   0.14315459    11443.603     1000 
  680000     0.568923   -1.8028122   0.85253111  -0.95028108    0.1224361    11568.897     1000 
  682000   0.55669165   -1.8483834   0.83420244    -1.014181   0.13199486    11511.251     1000 
  684000    0.5644385   -1.7884818   0.84581109  -0.94267066   0.13165276    11458.612     1000 
  686000   0.56670976   -1.8356109   0.84921458  -0.98639631   0.13235083    11570.404     1000 
  688000   0.59205452   -1.8493079    0.8871937  -0.96211416   0.13393562    11570.224     1000 
  690000   0.59938367    -1.780368   0.89817642  -0.88219157   0.12858304    11476.186     1000 
  692000   0.57097571   -1.7666095    0.8556071  -0.91100241   0.13601045    11358.912     1000 
  694000    0.5592146   -1.8388926   0.83798308   -1.0009095   0.12791702    11574.666     1000 
  696000    0.5748324   -1.8149326   0.86138635  -0.95354624   0.11603282    11719.164     1000 
  698000    0.5456787   -1.8332767   0.81769953   -1.0155772   0.12314755    11674.072     1000 
  700000   0.55496935   -1.7995729   0.83162158  -0.96795129   0.12141245    11588.245     1000 
  702000   0.56112212   -1.8282106    0.8408415  -0.98736906     0.138604     11457.21     1000 
  704000   0.56574677   -1.8352621   0.84777153  -0.98749056   0.12393253    11525.407     1000 
  706000   0.53967217   -1.8061282   0.80869874  -0.99742947   0.13441108    11430.382     1000 
  708000   0.57807875   -1.8093815   0.86625101  -0.94313049   0.13279854    11420.868     1000 
  710000   0.57423068   -1.7701114   0.86048467  -0.90962674   0.13178922    11525.304     1000 
  712000   0.55208406   -1.8151842   0.82729797  -0.98788626   0.13538096    11475.623     1000 
  714000   0.56673059   -1.8278202    0.8492458  -0.97857437   0.11928179    11753.091     1000 
  716000   0.59046854   -1.7979025   0.88481711  -0.91308536   0.12957518    11458.337     1000 
  718000   0.58283106   -1.8231957   0.87337234  -0.94982338   0.13740969    11494.347     1000 
  720000   0.56934736   -1.8508771   0.85316702   -0.9977101   0.12182031    11552.531     1000 
  722000   0.58184761   -1.8230447   0.87189864   -0.9511461   0.12608345    11603.121     1000 
  724000   0.58488135    -1.793513    0.8764447  -0.91706833   0.12553016    11690.448     1000 
  726000   0.57359367   -1.8184435   0.85953011  -0.95891344   0.12574242    11712.664     1000 
  728000   0.56111895   -1.7910447   0.84083675  -0.95020795   0.13285053    11424.429     1000 
  730000   0.55631273   -1.8307193   0.83363462  -0.99708468   0.13689917    11453.662     1000 
  732000   0.57462745   -1.8515038   0.86107924  -0.99042457   0.12499164    11579.077     1000 
  734000   0.53858232   -1.8180342   0.80706561   -1.0109686   0.14295592    11350.833     1000 
  736000   0.58063005   -1.7974431   0.87007414    -0.927369   0.13155789    11489.308     1000 
  738000   0.56656701   -1.8429494   0.84900067  -0.99394875   0.13044655    11585.403     1000 
  740000   0.57935546   -1.8162758   0.86816416  -0.94811167   0.13574799    11356.464     1000 
  742000   0.55115777   -1.7509012   0.82590992  -0.92499131   0.13168579    11504.498     1000 
  744000   0.57864372   -1.8070316   0.86709761  -0.93993398   0.13433505    11475.843     1000 
  746000   0.54851468   -1.7913911   0.82194925  -0.96944188   0.13497616    11364.599     1000 
  748000   0.57793393   -1.8157971     0.866034  -0.94976308   0.12946983    11556.066     1000 
  750000   0.55216342    -1.856827   0.82741689   -1.0294101   0.13051717    11568.033     1000 
  752000   0.60943123   -1.8141375   0.91323271  -0.90090477   0.12685916    11674.637     1000 
  754000    0.5870243   -1.8372497   0.87965592  -0.95759378   0.13721666    11534.645     1000 
  756000   0.55713447   -1.8729144   0.83486601   -1.0380484   0.12018411    11618.577     1000 
  758000   0.55461474   -1.8120714   0.83109019  -0.98098116   0.13168037    11421.851     1000 
  760000   0.58533983   -1.8483972   0.87713173  -0.97126546    0.1254799    11690.515     1000 
  762000   0.56658035   -1.7849034   0.84902065  -0.93588274   0.12811821    11373.499     1000 
  764000   0.60313591    -1.768847   0.90379916  -0.86504785   0.13720639    11469.057     1000 
  766000   0.54688453   -1.8382001   0.81950647   -1.0186936   0.11247094    11641.239     1000 
  768000   0.54162197   -1.7995539   0.81162053  -0.98793338   0.12689182    11402.886     1000 
  770000    0.5748798   -1.8581218   0.86145738  -0.99666439   0.13300445    11573.626     1000 
  772000   0.58084326   -1.8227016   0.87039362    -0.952308   0.12806023    11602.144     1000 
  774000   0.60216841   -1.8507616   0.90234936  -0.94841222   0.13608243    11603.796     1000 
  776000   0.54991468    -1.818368   0.82404715   -0.9943208   0.12935703    11442.671     1000 
  778000   0.59997738   -1.8229158    0.8990661   -0.9238497   0.14099918    11572.692     1000 
  780000   0.56037641   -1.8438508   0.83972405   -1.0041267   0.13574502    11535.339     1000 
  782000   0.58424142   -1.8050883   0.87548576  -0.92960253   0.13508459    11417.399     1000 
  784000   0.54758665   -1.8045303   0.82055859  -0.98397166    0.1304577    11556.811     1000 
  786000   0.56263337   -1.8052295   0.84310611  -0.96212342   0.13592885     11485.53     1000 
  788000   0.57052026   -1.7687653   0.85492461  -0.91384073    0.1309276    11408.614     1000 
  790000   0.54776217   -1.7965077   0.82082161  -0.97568612   0.14752371    11453.415     1000 
  792000    0.5592116   -1.8389408   0.83797858   -1.0009622   0.11961757    11693.139     1000 
  794000   0.55070375   -1.8259779   0.82522957   -1.0007483   0.12721536    11493.857     1000 
  796000   0.53122376   -1.8101799    0.7960388   -1.0141411   0.13493285    11424.379     1000 
  798000   0.58801953   -1.8127607   0.88114726  -0.93161344    0.1352528     11504.91     1000 
  800000   0.57120216   -1.7919747   0.85594643  -0.93602826   0.14297596    11386.828     1000 
  802000   0.55671856   -1.8167855   0.83424276  -0.98254278   0.13578084    11518.654     1000 
  804000   0.57216362   -1.8512749   0.85738719   -0.9938877   0.12860947    11485.934     1000 
  806000   0.59295566   -1.8003388   0.88854406  -0.91179477   0.13009693    11622.689     1000 
  808000   0.56592082   -1.8110402   0.84803235  -0.96300782   0.13274366    11597.625     1000 
  810000    0.5734559   -1.8575853   0.85932367  -0.99826162   0.13430518    11374.489     1000 
  812000   0.56622981   -1.7850383   0.84849538  -0.93654297   0.11622417    11646.452     1000 
  814000   0.56139533   -1.8601542   0.84125091   -1.0189033   0.13694785    11419.641     1000 
  816000   0.55183175   -1.8212269   0.82691987  -0.99430698   0.14088105     11319.45     1000 
  818000     0.554263   -1.8457749   0.83056311   -1.0152118   0.13364025    11463.325     1000 
  820000   0.58367672   -1.8346895   0.87463957  -0.96004989   0.12823534    11652.412     1000 
  822000   0.57047377    -1.775756   0.85485495  -0.92090105   0.13338108    11496.814     1000 
  824000   0.56264987   -1.7713141   0.84313083  -0.92818322   0.11754692    11619.445     1000 
  826000   0.54183875   -1.8287722   0.81194536   -1.0168268   0.13158208    11425.812     1000 
  828000   0.55062974   -1.8244906   0.82511866  -0.99937192   0.13075711    11376.048     1000 
  830000    0.5918199   -1.8348488   0.88684212  -0.94800673   0.11131685    11742.185     1000 
  832000   0.56335765   -1.8554431   0.84419144   -1.0112517   0.11443544    11721.282     1000 
  834000   0.54585557   -1.7685011   0.81796457  -0.95053651   0.13187571    11424.391     1000 
  836000   0.57246038   -1.8051758   0.85783188  -0.94734391   0.13976498    11422.184     1000 
  838000   0.56970438   -1.7981298   0.85370202  -0.94442778    0.1390521     11472.74     1000 
  840000     0.566019   -1.8385595   0.84817948  -0.99038001   0.11835847    11595.061     1000 
  842000   0.58753761   -1.8048631   0.88042511  -0.92443802   0.13647222    11399.841     1000 
  844000   0.59009408   -1.8256773   0.88425598  -0.94142135    0.1294874    11653.983     1000 
  846000   0.57472966   -1.8094872    0.8612324  -0.94825482   0.13278075    11452.451     1000 
  848000   0.58023556   -1.7864062   0.86948298  -0.91692322   0.13849805    11457.797     1000 
  850000   0.56146756   -1.8560681   0.84135914    -1.014709   0.13316901      11551.9     1000 
  852000   0.55446445   -1.7897255   0.83086498  -0.95886051   0.11945715    11627.676     1000 
  854000   0.57407007   -1.8225145   0.86024401  -0.96227053   0.12731044    11453.183     1000 
  856000   0.53821403   -1.8295488   0.80651372   -1.0230351   0.12836676    11466.145     1000 
  858000   0.57758868   -1.8227566   0.86551664  -0.95723999   0.11875417     11686.12     1000 
  860000   0.57797474   -1.7544508   0.86609516  -0.88835566   0.12536114    11587.374     1000 
  862000   0.59290716   -1.7952351   0.88847138  -0.90676374   0.13200058    11455.188     1000 
  864000    0.5577871   -1.8262433   0.83584397  -0.99039937   0.12335241    11591.997     1000 
  866000   0.56729332    -1.824915   0.85008905  -0.97482599   0.12446867     11461.98     1000 
  868000   0.57310839   -1.8519278   0.85880293  -0.99312487   0.12291668    11608.291     1000 
  870000   0.57344675   -1.8308126   0.85930995  -0.97150266   0.12855197    11580.256     1000 
  872000   0.58786903   -1.8365503   0.88092173  -0.95562853   0.13687961    11499.794     1000 
  874000    0.5793493   -1.7736518   0.86815492  -0.90549684   0.13495075    11599.322     1000 
  876000   0.55915769   -1.7708491   0.83789779  -0.93295133   0.12861495    11526.039     1000 
  878000   0.57134431   -1.8276787   0.85615945   -0.9715193   0.13255541    11425.599     1000 
  880000    0.5708186   -1.8382535   0.85537167  -0.98288182   0.12726408    11596.747     1000 
  882000   0.60331228   -1.7903368   0.90406345  -0.88627336   0.12469445    11574.892     1000 
  884000   0.56527517   -1.7723607   0.84706485  -0.92529587   0.12364162    11574.613     1000 
  886000   0.60242694   -1.7912756   0.90273677  -0.88853879   0.12664328      11484.3     1000 
  888000   0.56333089   -1.8180528   0.84415133  -0.97390142   0.13274009    11522.035     1000 
  890000   0.60545732   -1.8466926   0.90727779  -0.93941484   0.12965952    11622.478     1000 
  892000   0.57783823   -1.7977898   0.86589059  -0.93189918   0.13752687    11396.197     1000 
  894000   0.54438213   -1.7688859   0.81575662  -0.95312925   0.12277924    11631.896     1000 
  896000    0.5703177   -1.8273824   0.85462108  -0.97276129   0.14013677    11488.853     1000 
  898000    0.5469241   -1.8578982   0.81956576   -1.0383325   0.12426611    11666.749     1000 
  900000   0.54732732   -1.8141118   0.82016998  -0.99394181   0.12703564    11510.025     1000 
  902000   0.57238134   -1.8588919   0.85771343   -1.0011784   0.12860847    11517.402     1000 
  904000   0.58410753   -1.8341083   0.87528513  -0.95882313   0.12310724    11536.355     1000 
  906000   0.59992767   -1.8017864   0.89899161  -0.90279477   0.12303336    11614.444     1000 
  908000   0.58211316   -1.8590978   0.87229657  -0.98680126   0.12361283    11529.985     1000 
  910000    0.5690274   -1.7949582   0.85268756  -0.94227064    0.1438559    11407.615     1000 
  912000   0.54282322   -1.8168707   0.81342059   -1.0034501   0.13851944    11496.921     1000 
  914000   0.57438751   -1.7618539   0.86071968  -0.90113422   0.13140007    11441.329     1000 
  916000   0.56491525   -1.8491709    0.8465255   -1.0026454   0.11929777    11542.572     1000 
  918000    0.5890809   -1.7967798   0.88273772  -0.91404212   0.12657043    11430.911     1000 
  920000   0.53868268   -1.7524897     0.807216  -0.94527371   0.12175671    11458.069     1000 
  922000   0.55244392   -1.8058446   0.82783721  -0.97800736   0.12089982    11576.461     1000 
  924000   0.57153935   -1.8256327   0.85645171  -0.96918097   0.13030011    11505.551     1000 
  926000   0.57824978   -1.8306898    0.8665073  -0.96418252   0.14237391    11398.552     1000 
  928000   0.56666744   -1.7808174   0.84915116  -0.93166627   0.13000058    11394.894     1000 
  930000    0.5727274   -1.8159536     0.858232  -0.95772161    0.1483287    11349.082     1000 
  932000   0.58117046   -1.8262146   0.87088394  -0.95533067    0.1333652    11535.135     1000 
  934000   0.56114727   -1.7625776   0.84087918  -0.92169844   0.13726051    11332.313     1000 
  936000   0.56562685   -1.7902532   0.84759183  -0.94266133   0.12589126    11458.967     1000 
  938000   0.56759623   -1.8639736   0.85054295   -1.0134306   0.12143371    11629.733     1000 
  940000   0.58674454   -1.8601757    0.8792367  -0.98093901   0.11661576    11547.558     1000 
  942000   0.57886093   -1.7884295    0.8674231  -0.92100642   0.13317539    11434.451     1000 
  944000   0.55314608   -1.8562607    0.8288894   -1.0273713   0.13051583    11559.917     1000 
  946000   0.55916727   -1.8160548   0.83791215  -0.97814263   0.13129531    11510.956     1000 
  948000   0.56082647   -1.7867221   0.84039846  -0.94632361   0.13937541    11353.499     1000 
  950000   0.54685436   -1.8723915   0.81946125   -1.0529303   0.13128408    11588.584     1000 
  952000    0.5814678   -1.8116109   0.87132949  -0.94028139   0.14745662    11457.997     1000 
  954000   0.55655856   -1.7844829     0.834003  -0.95047986   0.13594602    11534.909     1000 
  956000   0.54441894   -1.8254387   0.81581179   -1.0096269     0.120295    11668.004     1000 
  958000   0.57991795    -1.798889   0.86900706  -0.92988192   0.12412805    11609.045     1000 
  960000   0.58615983   -1.8206172    0.8783605  -0.94225671   0.13343369    11523.042     1000 
  962000   0.56061542   -1.7987661    0.8400822   -0.9586839    0.1376184    11455.501     1000 
  964000   0.59328725   -1.7682804   0.88904095  -0.87923943   0.14107576    11312.392     1000 
  966000   0.55622457   -1.8316045   0.83350252  -0.99810197   0.12255361    11532.041     1000 
  968000   0.55873635   -1.8251399   0.83726643  -0.98787344   0.12184656    11551.261     1000 
  970000   0.55308938   -1.8102604   0.82880443  -0.98145595   0.12567915    11633.206     1000 
  972000   0.57121725   -1.8450622   0.85596905  -0.98909315   0.12004333    11644.603     1000 
  974000   0.58671662    -1.836251   0.87919485  -0.95705616    0.1330524    11503.127     1000 
  976000   0.58453764   -1.8402867   0.87592965  -0.96435702   0.14320136    11477.941     1000 
  978000   0.58774125   -1.8164804   0.88073026  -0.93575018   0.12631454    11603.375     1000 
  980000   0.59142123   -1.8422575   0.88624471   -0.9560128   0.13393939    11444.448     1000 
  982000   0.57619415   -1.8013197   0.86342693  -0.93789279   0.13587394    11499.307     1000 
  984000    0.5699407   -1.8082775   0.85405615  -0.95422131   0.12346997    11512.346     1000 
  986000   0.56766737   -1.7306163   0.85064956  -0.87996672   0.13405405    11416.557     1000 
  988000   0.56980386   -1.8155836   0.85385108  -0.96173248   0.12019864    11565.723     1000 
  990000   0.57198159    -1.815463   0.85711442  -0.95834855   0.12709406    11494.977     1000 
  992000   0.54660442   -1.8112814   0.81908673  -0.99219464   0.13557433    11475.858     1000 
  994000   0.55365044   -1.8355425   0.82964518   -1.0058973   0.11991052    11583.102     1000 
  996000   0.54294632   -1.8699293   0.81360506   -1.0563243    0.1181635    11572.057     1000 
  998000   0.57632852   -1.8240588   0.86362828  -0.96043051   0.12589682    11527.959     1000 
 1000000   0.57812411   -1.8330488   0.86631898  -0.96672984   0.12670186    11546.605     1000 
 1002000    0.5651493   -1.7983221   0.84687622  -0.95144584   0.13025713    11619.078     1000 
 1004000   0.56159465   -1.8517177   0.84154958   -1.0101682    0.1255563    11598.101     1000 
 1006000    0.5898052   -1.8299433   0.88382309  -0.94612024   0.13777163     11380.86     1000 
 1008000   0.59365591   -1.8148424   0.88959338  -0.92524906    0.1332809     11395.34     1000 
 1010000   0.56160975   -1.8235434   0.84157221  -0.98197116   0.12553406    11466.136     1000 
 1012000    0.5734688   -1.8007377     0.859343  -0.94139468   0.12540332    11540.306     1000 
 1014000   0.56561582   -1.8920122   0.84757531   -1.0444369   0.12782012    11691.541     1000 
 1016000    0.5589062   -1.7861449   0.83752095  -0.94862399   0.12410773     11652.52     1000 
 1018000   0.56308334   -1.7985398   0.84378038  -0.95475942   0.14341135    11235.202     1000 
 1020000   0.57177371   -1.8504148    0.8568029   -0.9936119   0.12624433    11639.536     1000 
 1022000   0.55789802   -1.7868762   0.83601018    -0.950866   0.12555518     11679.74     1000 
 1024000   0.55276844   -1.8438577    0.8283235   -1.0155342   0.13021698    11579.495     1000 
 1026000   0.59325262   -1.7916682   0.88898905  -0.90267912   0.13365522    11477.209     1000 
 1028000   0.59437724   -1.7993566   0.89067429  -0.90868227   0.12746259    11491.551     1000 
 1030000   0.57255268   -1.7907403   0.85797019  -0.93277011   0.13007968    11357.025     1000 
 1032000    0.5903829   -1.8454862   0.88468878  -0.96079746    0.1352286    11561.311     1000 
 1034000   0.58976534   -1.8574122   0.88376336  -0.97364883   0.12456098    11602.915     1000 
 1036000    0.5882546   -1.8203406   0.88149952  -0.93884109   0.13786498     11497.02     1000 
 1038000   0.53681231   -1.8015996   0.80441325  -0.99718634   0.12003884    11664.632     1000 
 1040000   0.55125271   -1.7877679   0.82605219  -0.96171571   0.13217809    11395.213     1000 
 1042000    0.5573236   -1.7815619   0.83514941  -0.94641247    0.1197163    11639.674     1000 
 1044000   0.59503302   -1.8083147   0.89165698  -0.91665774   0.14180082     11495.11     1000 
 1046000   0.57733116   -1.8305074   0.86513074  -0.96537667   0.12449954    11580.107     1000 
 1048000   0.56711194   -1.7900461   0.84981724  -0.94022888   0.14177339    11317.397     1000 
 1050000   0.55480797   -1.8058704   0.83137974  -0.97449067   0.12816652    11642.138     1000 
 1052000   0.56260918   -1.7585095   0.84306985  -0.91543963    0.1398033    11358.848     1000 
 1054000    0.5630985   -1.8176294    0.8438031  -0.97382629   0.13669264    11404.143     1000 
 1056000   0.56987075   -1.7648396   0.85395131  -0.91088831   0.12812393    11516.281     1000 
 1058000   0.58568748   -1.8102001   0.87765269  -0.93254737   0.12343612    11683.702     1000 
 1060000   0.56531613   -1.7516576   0.84712622  -0.90453137   0.13303028    11369.474     1000 
 1062000   0.56024771   -1.7642089   0.83953119  -0.92467771   0.13701627    11422.913     1000 
 1064000   0.58514807   -1.8172792   0.87684438  -0.94043478   0.13111073    11505.734     1000 
 1066000    0.5773555   -1.8278602   0.86516722  -0.96269303   0.12801555     11477.83     1000 
 1068000   0.58771622    -1.862801   0.88069275  -0.98210827   0.13294943    11650.105     1000 
 1070000   0.56739661   -1.7705305   0.85024381   -0.9202867   0.13465315    11532.925     1000 
 1072000   0.58030107   -1.8489231   0.86958115  -0.97934192   0.13771371     11603.32     1000 
 1074000   0.56978614   -1.7841802   0.85382454  -0.93035571   0.11365538    11626.455     1000 
 1076000   0.54354443   -1.8404638   0.81450133   -1.0259625   0.12539398     11490.61     1000 
 1078000   0.57430772   -1.8169273   0.86060011   -0.9563272   0.12421627    11428.428     1000 
 1080000   0.57510063   -1.7727301   0.86178829  -0.91094183   0.14179874    11371.783     1000 
 1082000   0.58933792   -1.8222525   0.88312287   -0.9391296   0.13606967    11464.405     1000 
 1084000   0.59006563   -1.8017414   0.88421335  -0.91752805   0.12717626    11633.478     1000 
 1086000   0.56788571   -1.8509131   0.85097674  -0.99993633   0.12510984    11684.264     1000 
 1088000   0.58647074   -1.7969337   0.87882641  -0.91810732   0.11663435    11624.141     1000 
 1090000   0.58341744   -1.8631988   0.87425104  -0.98894775   0.12684349     11660.75     1000 
 1092000   0.55461444    -1.763769   0.83108974  -0.93267924   0.11019195    11522.146     1000 
 1094000   0.54873932    -1.845448   0.82228587   -1.0231621   0.12741913    11533.708     1000 
 1096000   0.57730256   -1.8099606   0.86508789  -0.94487269   0.13820103    11347.344     1000 
 1098000    0.5515283   -1.8116317   0.82646515  -0.98516653   0.13451881    11520.845     1000 
 1100000   0.56111959    -1.832476    0.8408377  -0.99163827   0.15056489    11379.443     1000 
 1102000   0.58555082   -1.8656721   0.87744791  -0.98822419   0.12624092    11659.331     1000 
 1104000   0.59655263   -1.7786499   0.89393412  -0.88471581   0.12776673    11490.816     1000 
 1106000    0.5628038   -1.8546847   0.84336149   -1.0113232   0.13849807    11349.821     1000 
 1108000   0.56295564   -1.7950945   0.84358903  -0.95150543   0.14085958    11457.935     1000 
 1110000   0.55206654    -1.822408   0.82727172  -0.99513628   0.13281448    11534.641     1000 
 1112000   0.55411258   -1.7878357    0.8303377  -0.95749805    0.1251806    11638.727     1000 
 1114000   0.56186953    -1.797816    0.8419615  -0.95585446   0.13040357    11505.409     1000 
 1116000   0.55525539   -1.8213069   0.83205021  -0.98925671   0.12929913    11549.451     1000 
 1118000   0.55969078   -1.8013316   0.83869664  -0.96263501   0.13739881    11468.967     1000 
 1120000   0.58207171   -1.7384836   0.87223446  -0.86624913   0.12910864    11438.458     1000 
 1122000   0.58278158   -1.7193502   0.87329819  -0.84605204   0.13128152     11341.24     1000 
 1124000     0.544884   -1.8396851   0.81650868   -1.0231764   0.12263281    11541.244     1000 
 1126000   0.57917407   -1.8260927   0.86789234  -0.95820033    0.1155776    11635.822     1000 
 1128000   0.58096164   -1.8605803   0.87057102  -0.99000929   0.12676335    11527.094     1000 
 1130000   0.55921642   -1.7534233   0.83798581   -0.9154375   0.12463896    11444.881     1000 
 1132000   0.57016695   -1.8373684   0.85439518  -0.98297319   0.12614668    11633.907     1000 
 1134000   0.57210327    -1.824211   0.85729675  -0.96691429   0.12408194    11639.135     1000 
 1136000   0.58438932   -1.7919428    0.8757074   -0.9162354   0.12513529    11593.646     1000 
 1138000   0.57045019    -1.848158   0.85481961  -0.99333839   0.12147687    11528.845     1000 
 1140000   0.54685436   -1.8308886   0.81946126   -1.0114273   0.12508456    11548.466     1000 
 1142000   0.54453454   -1.8797777   0.81598501   -1.0637927   0.11763708    11781.441     1000 
 1144000   0.57841049   -1.8285312   0.86674813  -0.96178303   0.13899883    11524.821     1000 
 1146000   0.56734313   -1.8569959   0.85016368   -1.0068322   0.13109344    11500.457     1000 
 1148000   0.58973402   -1.8555573   0.88371643  -0.97184088   0.13172917    11480.544     1000 
 1150000   0.59615339   -1.8622576   0.89333585   -0.9689217   0.12781458    11591.028     1000 
 1152000   0.57433945   -1.8380853   0.86064767  -0.97743767   0.11606381    11733.529     1000 
 1154000   0.57023713   -1.8088033   0.85450034  -0.95430294   0.12977767    11571.211     1000 
 1156000   0.59743916   -1.8136373   0.89526258  -0.91837475   0.11456779    11509.688     1000 
 1158000   0.59235299   -1.8348205   0.88764095  -0.94717958   0.14027715    11491.006     1000 
 1160000   0.56629224   -1.7978298   0.84858892  -0.94924084   0.14725661    11345.933     1000 
 1162000   0.57598287   -1.7708466   0.86311034  -0.90773631   0.13660949    11299.462     1000 
 1164000   0.56394139   -1.8352853   0.84506617  -0.99021911   0.13249543    11466.722     1000 
 1166000   0.55450391   -1.7875911   0.83092411  -0.95666698   0.12457968    11515.466     1000 
 1168000   0.55502226   -1.7543749   0.83170086  -0.92267405   0.13301873    11488.877     1000 
 1170000    0.5600971   -1.8064692    0.8393055  -0.96716373   0.13503331    11520.502     1000 
 1172000   0.57203873   -1.7760614   0.85720003  -0.91886134   0.12289747    11609.547     1000 
 1174000   0.54979761   -1.8339364   0.82387173   -1.0100646   0.11916428    11582.963     1000 
 1176000   0.56316321   -1.7938222   0.84390007  -0.94992214   0.14027291    11512.866     1000 
 1178000   0.56083295   -1.8184901   0.84040817  -0.97808193   0.13455073    11383.044     1000 
 1180000   0.55500024   -1.8204194   0.83166786  -0.98875153   0.12603016    11518.838     1000 
 1182000   0.59176479   -1.8820527   0.88675953  -0.99529312   0.13513944    11585.287     1000 
 1184000   0.58426151   -1.7735283   0.87551587  -0.89801246   0.12345861     11358.49     1000 
 1186000   0.58423913   -1.8038799   0.87548234  -0.92839752   0.13521986    11407.249     1000 
 1188000   0.56391505   -1.8337739   0.84502671  -0.98874717   0.11720578    11584.588     1000 
 1190000   0.56270059   -1.7868075   0.84320683  -0.94360071   0.12592216    11527.693     1000 
 1192000   0.56922544   -1.7997295   0.85298433  -0.94674513   0.13902068    11425.667     1000 
 1194000    0.5837125   -1.7646913   0.87469318  -0.88999815   0.14698708    11398.504     1000 
 1196000   0.56324326   -1.8538362   0.84402002   -1.0098162    0.1287286    11569.784     1000 
 1198000   0.56859372   -1.8231655   0.85203768  -0.97112784   0.12854476    11531.387     1000 
 1200000   0.57289774   -1.7922228   0.85848727  -0.93373552   0.13270619    11458.108     1000 
 1202000   0.56001273   -1.8002082   0.83917907  -0.96102909   0.13267567    11451.644     1000 
 1204000   0.58529263   -1.8259148   0.87706101  -0.94885378    0.1304647    11420.878     1000 
 1206000   0.55020531    -1.801695   0.82448265  -0.97721233   0.12425696    11545.739     1000 
 1208000   0.55938714   -1.8040665   0.83824163  -0.96582486   0.13533218    11606.268     1000 
 1210000   0.57015009   -1.8409823   0.85436991  -0.98661238   0.12437788    11537.198     1000 
 1212000   0.59920984   -1.7703795   0.89791595  -0.87246351    0.1442806    11350.366     1000 
 1214000   0.56060253   -1.8010977   0.84006289  -0.96103481   0.12717029    11490.874     1000 
 1216000   0.59464484   -1.7831654   0.89107529  -0.89209007    0.1318763    11529.702     1000 
 1218000    0.5812818   -1.8013015   0.87105077  -0.93025075    0.1276121    11624.329     1000 
 1220000   0.57361566   -1.7933482   0.85956307  -0.93378513    0.1215351    11626.625     1000 
 1222000   0.60917979   -1.7977944   0.91285592  -0.88493845   0.13016905     11503.91     1000 
 1224000   0.59036351   -1.7162874   0.88465972  -0.83162769   0.14272011    11206.358     1000 
 1226000   0.56292955   -1.8362528   0.84354993  -0.99270288   0.12453039    11520.662     1000 
 1228000   0.58718969   -1.8381448   0.87990375  -0.95824101   0.13474143     11733.11     1000 
 1230000   0.56390996   -1.8094864   0.84501907  -0.96446738   0.13763885    11354.259     1000 
 1232000   0.57650388   -1.7849379   0.86389106   -0.9210468   0.12886983    11424.247     1000 
 1234000   0.56760287   -1.7661153    0.8505529  -0.91556236    0.1197466    11515.893     1000 
 1236000    0.5578885   -1.8482965   0.83599592   -1.0123006   0.13125835    11576.844     1000 
 1238000   0.56687016   -1.8625151   0.84945494   -1.0130602   0.13681278    11422.269     1000 
 1240000   0.57204694   -1.7744702   0.85721234  -0.91725789    0.1265928    11650.054     1000 
 1242000   0.57761543    -1.843443   0.86555673  -0.97788627   0.13197249    11573.928     1000 
 1244000   0.58803769   -1.8234746   0.88117447  -0.94230009    0.1354331    11370.927     1000 
 1246000   0.57927908   -1.8576073   0.86804969   -0.9895576   0.14334772    11406.328     1000 
 1248000   0.57439399   -1.8286482   0.86072939  -0.96791885   0.13593661    11417.979     1000 
 1250000   0.56642645   -1.8257724   0.84879003   -0.9769824   0.13353384    11580.497     1000 
 1252000   0.59543085   -1.8079878   0.89225313  -0.91573466   0.12609554    11580.283     1000 
 1254000   0.56293477   -1.7897372   0.84355776  -0.94617946   0.12247018    11471.485     1000 
 1256000    0.5786573   -1.8701093   0.86711796   -1.0029913   0.12829613    11690.019     1000 
 1258000   0.53374814   -1.8105295   0.79982159   -1.0107079   0.11969328    11540.266     1000 
 1260000   0.56579657   -1.8322064   0.84784617  -0.98436026   0.11567396    11663.971     1000 
 1262000   0.57524943   -1.8016628   0.86201127  -0.93965151   0.12693069    11568.444     1000 
 1264000    0.5708572   -1.8490174   0.85542951  -0.99358788   0.12124657     11667.68     1000 
 1266000   0.57904193   -1.8013888   0.86769433  -0.93369444   0.12938855    11588.732     1000 
 1268000   0.54738358   -1.7640492    0.8202543  -0.94379489   0.12146258    11653.168     1000 
 1270000   0.58478145   -1.8101084     0.876295  -0.93381339    0.1326773    11497.138     1000 
 1272000   0.58260141   -1.8105682   0.87302821     -0.93754   0.13812238    11447.771     1000 
 1274000   0.55556508   -1.8184893   0.83251428    -0.985975   0.13368935     11442.14     1000 
 1276000   0.58399951   -1.8004966   0.87512327   -0.9253733   0.12863204     11541.67     1000 
 1278000   0.58145817   -1.8559742   0.87131506  -0.98465911   0.12470979    11563.354     1000 
 1280000   0.55308973   -1.8442926   0.82880496   -1.0154877   0.12159571    11633.689     1000 
 1282000   0.58157394   -1.8079301   0.87148855   -0.9364416    0.1294888     11412.07     1000 
 1284000   0.58117385   -1.8640774   0.87088902  -0.99318841   0.11781274    11791.681     1000 
 1286000   0.55898259   -1.7649304   0.83763541  -0.92729504   0.12921057     11394.79     1000 
 1288000    0.5647633    -1.837733   0.84629781  -0.99143516   0.12887783    11417.877     1000 
 1290000   0.58564977    -1.836963   0.87759618  -0.95936683   0.14024021     11449.14     1000 
 1292000   0.58013429   -1.7845259   0.86933124  -0.91519463   0.13828668    11460.179     1000 
 1294000   0.56650949   -1.7840948   0.84891447  -0.93518033   0.12525354    11495.666     1000 
 1296000   0.56048416   -1.8098831   0.83988552  -0.96999755   0.12467744    11562.538     1000 
 1298000   0.55672661    -1.827653   0.83425482  -0.99339813    0.1239185    11553.845     1000 
 1300000    0.5569107   -1.8056182   0.83453069  -0.97108749   0.12435842    11519.585     1000 
 1302000   0.54475789   -1.8135369   0.81631969  -0.99721717   0.12159263    11645.531     1000 
 1304000   0.55306703   -1.8490402   0.82877095   -1.0202692    0.1070567    11745.229     1000 
 1306000   0.53557317   -1.8220106   0.80255639   -1.0194542   0.12786409    11383.486     1000 
 1308000   0.57157211   -1.8269482    0.8565008  -0.97044735    0.1316757    11513.526     1000 
 1310000   0.55169782   -1.8521921   0.82671919   -1.0254729   0.12708664    11588.244     1000 
 1312000   0.56287714   -1.8153252   0.84347139  -0.97185377   0.12780285    11423.371     1000 
 1314000   0.54978651     -1.84243   0.82385509   -1.0185749   0.13193007    11392.004     1000 
 1316000   0.53870617   -1.8361789   0.80725119   -1.0289277   0.12595252    11544.806     1000 
 1318000   0.57837371   -1.8212525     0.866693  -0.95455948   0.12052854    11523.471     1000 
 1320000   0.57967234   -1.8174992     0.868639  -0.94886016   0.12530433    11606.861     1000 
 1322000   0.58289985   -1.8177206   0.87347543  -0.94424512   0.11983348    11571.683     1000 
 1324000   0.54842797   -1.8239554   0.82181932   -1.0021361   0.12810732    11595.845     1000 
 1326000   0.58304532   -1.8250544   0.87369342  -0.95136101    0.1382704    11647.612     1000 
 1328000   0.57004771   -1.7625882   0.85421649  -0.90837176   0.14319144    11318.083     1000 
 1330000   0.56387836   -1.8243113   0.84497172  -0.97933961   0.12822758    11631.387     1000 
 1332000   0.56930386   -1.8162963   0.85310183  -0.96319451   0.11895751    11662.409     1000 
 1334000   0.55902131   -1.8533004   0.83769343    -1.015607   0.12822065    11591.569     1000 
 1336000   0.56962015   -1.7590727    0.8535758  -0.90549692   0.12339788    11574.547     1000 
 1338000   0.56197517   -1.8080796    0.8421198  -0.96595985   0.12842138    11469.212     1000 
 1340000   0.56257425    -1.789209   0.84301752  -0.94619148   0.13071715    11467.625     1000 
 1342000   0.56893069   -1.7952423   0.85254263  -0.94269964   0.12858148    11557.125     1000 
 1344000   0.57715017   -1.7914176   0.86485953  -0.92655805   0.13514514    11401.683     1000 
 1346000   0.54902299   -1.7778794   0.82271094  -0.95516843   0.12161314    11469.507     1000 
 1348000   0.57042685   -1.7781928   0.85478463  -0.92340818   0.12882131    11666.954     1000 
 1350000   0.52797283   -1.8287366   0.79116729   -1.0375693   0.11719701    11576.587     1000 
 1352000   0.57022937    -1.800763   0.85448871   -0.9462743   0.14600634    11266.036     1000 
 1354000   0.57433092   -1.7666801   0.86063489  -0.90604522   0.12309881    11561.217     1000 
 1356000   0.57424255   -1.8110874   0.86050246  -0.95058494   0.12246507    11560.776     1000 
 1358000   0.57034494   -1.8031401   0.85466189  -0.94847824   0.13116398     11625.02     1000 
 1360000   0.55705756   -1.8517164   0.83475076   -1.0169656   0.13360132     11604.17     1000 
 1362000   0.58203823   -1.7874785   0.87218429  -0.91529425   0.11422507    11607.983     1000 
 1364000   0.54889441   -1.8023505   0.82251827  -0.97983224   0.13209186    11430.106     1000 
 1366000   0.56537179   -1.8135649   0.84720962  -0.96635531    0.1343252    11432.235     1000 
 1368000   0.56590617   -1.8228393   0.84801039  -0.97482894   0.12355709    11646.391     1000 
 1370000    0.5521071   -1.7560071   0.82733248  -0.92867463   0.13868939    11317.448     1000 
 1372000   0.56158099   -1.8102924   0.84152912  -0.96876327   0.13681665    11388.967     1000 
 1374000   0.54450267   -1.8419899   0.81593726   -1.0260526    0.1327216    11464.459     1000 
 1376000   0.57808875   -1.7967704   0.86626599  -0.93050442   0.12705471    11466.532     1000 
 1378000   0.56829576   -1.7960471    0.8515912  -0.94445593   0.13215021     11552.76     1000 
 1380000   0.56078762   -1.8166905   0.84034026  -0.97635021   0.12266641    11601.324     1000 
 1382000   0.59328235   -1.8059508   0.88903361  -0.91691721   0.13033038      11483.3     1000 
 1384000   0.56331086   -1.8247892   0.84412133   -0.9806679   0.13379032    11367.248     1000 
 1386000   0.56142249   -1.7837774    0.8412916   -0.9424858   0.13812711    11447.652     1000 
 1388000    0.5539745    -1.840685   0.83013079   -1.0105542   0.10749812    11670.847     1000 
 1390000   0.55394349   -1.7872953   0.83008433  -0.95721102   0.13207404    11526.069     1000 
 1392000   0.58842126   -1.7730603   0.88174926  -0.89131104   0.12616256    11663.245     1000 
 1394000   0.58229359   -1.7932712   0.87256694  -0.92070422   0.13616103    11343.401     1000 
 1396000   0.59731505   -1.7417777    0.8950766   -0.8467011   0.13020135    11535.663     1000 
 1398000   0.57607801   -1.8445126   0.86325289  -0.98125973   0.12345617    11511.697     1000 
 1400000   0.56873881   -1.7966209   0.85225511  -0.94436577   0.12677443    11547.035     1000 
 1402000   0.57391971   -1.8341315   0.86001869  -0.97411282   0.14048392      11590.9     1000 
 1404000   0.56919632   -1.7788109   0.85294068  -0.92587018   0.14125779    11483.887     1000 
 1406000   0.56220302   -1.7992821   0.84246123  -0.95682082   0.13822986    11458.268     1000 
 1408000   0.57024024   -1.7614613   0.85450501  -0.90695629   0.13676449    11472.657     1000 
 1410000   0.56266129   -1.8223771   0.84314794  -0.97922916   0.13041391    11512.161     1000 
 1412000   0.56066031   -1.8843113   0.84014947   -1.0441618   0.12887211    11484.534     1000 
 1414000   0.58770076   -1.8179641   0.88066958  -0.93729447    0.1380282    11421.037     1000 
 1416000   0.60058152   -1.7504579    0.8999714  -0.85048653   0.13740146    11505.511     1000 
 1418000   0.56386131   -1.8224565   0.84494618  -0.97751033   0.12412671    11579.743     1000 
 1420000   0.59069148   -1.7547898   0.88515118  -0.86963865   0.14632912      11326.9     1000 
 1422000   0.57289859   -1.7900911   0.85848853   -0.9316026   0.13198895    11467.369     1000 
 1424000   0.56590567   -1.8440815   0.84800965  -0.99607182   0.12558569    11710.077     1000 
 1426000   0.56775355   -1.7850763   0.85077869  -0.93429757   0.13391788    11397.478     1000 
 1428000   0.57589696   -1.7618169    0.8629816  -0.89883534   0.13589621     11496.77     1000 
 1430000   0.60110789   -1.8046979   0.90076018   -0.9039377   0.13943006    11405.357     1000 
 1432000   0.59152038   -1.8062535   0.88639329  -0.91986022   0.14157217    11366.554     1000 
 1434000   0.56395598    -1.823382   0.84508803  -0.97829399   0.13804268    11405.285     1000 
 1436000   0.56341071   -1.8422187   0.84427095   -0.9979477   0.13717535    11413.059     1000 
 1438000   0.57168214    -1.810599   0.85666569  -0.95393332   0.13045263    11449.343     1000 
 1440000   0.56492375   -1.7765586   0.84653824  -0.93002038   0.13796066    11439.566     1000 
 1442000   0.61823183   -1.9221724    0.9264204    -0.995752   0.11994894    11631.593     1000 
 1444000   0.57214647   -1.7669049   0.85736149  -0.90954346   0.13006207    11393.157     1000 
 1446000   0.56382126    -1.858655   0.84488615   -1.0137689    0.1266198    11736.459     1000 
 1448000    0.5651093   -1.8103335   0.84681628  -0.96351721   0.12327871    11638.229     1000 
 1450000   0.58414326   -1.7906198   0.87533868  -0.91528112    0.1353597    11333.886     1000 
 1452000   0.56626761   -1.8132394   0.84855201  -0.96468739   0.14440212    11416.884     1000 
 1454000   0.56808996   -1.8253193    0.8512828  -0.97403655   0.13476755    11468.739     1000 
 1456000   0.57336699   -1.8392478   0.85919043  -0.98005741   0.14052257    11443.736     1000 
 1458000    0.5486786   -1.7472283   0.82219489  -0.92503342   0.14380007    11215.002     1000 
 1460000   0.59150433    -1.733374   0.88636924  -0.84700476   0.12808438    11587.273     1000 
 1462000    0.5536211   -1.7880126   0.82960121   -0.9584114   0.12266246    11600.451     1000 
 1464000   0.58821071   -1.7867293   0.88143374  -0.90529554   0.13346668    11437.478     1000 
 1466000   0.54428009   -1.8557341   0.81560372   -1.0401304     0.129227    11510.906     1000 
 1468000   0.57126853   -1.7772504    0.8560459  -0.92120453   0.14995805    11437.369     1000 
 1470000   0.56507571   -1.7945039   0.84676595  -0.94773798    0.1251596    11544.013     1000 
 1472000   0.56734461   -1.8452055   0.85016589  -0.99503962    0.1295244    11483.336     1000 
 1474000   0.55395809   -1.8582772    0.8301062    -1.028171   0.14962414      11399.8     1000 
 1476000   0.56523736   -1.7589987   0.84700818  -0.91199049   0.13264136    11560.407     1000 
 1478000   0.58704886   -1.8116604   0.87969271  -0.93196772   0.11816485    11666.283     1000 
 1480000   0.56824172   -1.8128936   0.85151022  -0.96138343   0.12616091    11521.707     1000 
 1482000   0.56596716    -1.783363   0.84810179   -0.9352612   0.13394503    11580.374     1000 
 1484000   0.58614844   -1.8016025   0.87834343  -0.92325904   0.13350685    11546.478     1000 
 1486000   0.57049892   -1.8435112   0.85489264  -0.98861861   0.13829404    11551.178     1000 
 1488000   0.58209014   -1.8412774   0.87226208  -0.96901529   0.13546029    11475.095     1000 
 1490000   0.55940626   -1.8126424   0.83827028   -0.9743721   0.13494753    11216.447     1000 
 1492000   0.55773088   -1.8188681   0.83575972  -0.98310841   0.14219491    11289.935     1000 
 1494000   0.57558783   -1.8031682   0.86251836  -0.94064982   0.14382062    11409.945     1000 
 1496000   0.55792468   -1.8047378   0.83605013  -0.96868767   0.13279787      11519.4     1000 
 1498000   0.58894914   -1.8329026   0.88254028  -0.95036229   0.12808084    11403.093     1000 
 1500000   0.55994329   -1.8113625   0.83907501  -0.97228749   0.13200211    11396.642     1000 
 1502000   0.55754709    -1.869451   0.83548432   -1.0339667   0.12529622    11666.631     1000 
 1504000   0.57868296   -1.8299531   0.86715642  -0.96279666   0.14310034    11439.729     1000 
 1506000   0.59027596   -1.7842815   0.88452853  -0.89975297   0.15285864    11359.036     1000 
 1508000   0.55995634   -1.7836184   0.83909458  -0.94452378   0.12964627    11562.422     1000 
 1510000   0.57447072   -1.8196908   0.86084437  -0.95884638   0.13382485    11545.827     1000 
 1512000   0.57612088   -1.8202134   0.86331714  -0.95689631   0.12206033    11630.786     1000 
 1514000    0.5766688   -1.8139852   0.86413819  -0.94984703   0.13716612    11564.663     1000 
 1516000    0.5367604   -1.7780928   0.80433546  -0.97375737    0.1173147    11638.031     1000 
 1518000   0.55729393   -1.8556916   0.83510496   -1.0205866   0.12561489    11478.456     1000 
 1520000   0.58910468   -1.8011716   0.88277336  -0.91839827   0.12878413    11520.912     1000 
 1522000   0.58380241   -1.8738107   0.87482791  -0.99898283   0.11556248     11720.34     1000 
 1524000   0.57735646   -1.7731003   0.86516865   -0.9079317   0.13054447    11434.181     1000 
 1526000   0.54464612   -1.7891024   0.81615221  -0.97295019   0.12177484    11674.742     1000 
 1528000   0.57500592   -1.7834233   0.86164636  -0.92177698   0.14435722    11283.794     1000 
 1530000   0.54945354   -1.8095596   0.82335613  -0.98620343   0.12772261    11465.715     1000 
 1532000   0.61043796   -1.8494718   0.91474128  -0.93473048   0.13894302    11478.465     1000 
 1534000   0.57554412   -1.8404584   0.86245286  -0.97800551   0.13433168    11462.281     1000 
 1536000   0.57247516   -1.7579465   0.85785403  -0.90009249   0.12794909    11583.919     1000 
 1538000   0.56041904   -1.7896996   0.83978793  -0.94991169   0.14080762    11420.797     1000 
 1540000   0.55927637   -1.8376942   0.83807565  -0.99961857   0.12888896    11469.301     1000 
 1542000    0.5500832   -1.8589884   0.82429967   -1.0346888   0.12872685    11465.836     1000 
 1544000   0.53959551   -1.8611067   0.80858387   -1.0525229   0.11812665    11782.561     1000 
 1546000   0.56862513   -1.7988861   0.85208475  -0.94680132   0.12217759    11598.088     1000 
 1548000   0.57461968   -1.8160897   0.86106759  -0.95502208   0.14431665    11412.339     1000 
 1550000   0.59416989    -1.825013   0.89036358  -0.93464946   0.13298973        11597     1000 
 1552000   0.59569978   -1.8543602   0.89265612  -0.96170411   0.12385426    11739.348     1000 
 1554000   0.56629152   -1.7899746   0.84858784  -0.94138673   0.13876938    11423.908     1000 
 1556000   0.56234894   -1.8186911   0.84267988  -0.97601118   0.14219848    11381.737     1000 
 1558000   0.58266211   -1.7568577   0.87311916   -0.8837385   0.14368177    11373.275     1000 
 1560000   0.56356485   -1.7706562   0.84450193  -0.92615425   0.13905013    11293.511     1000 
 1562000   0.56023392   -1.8109802   0.83951053  -0.97146969   0.12726373     11694.29     1000 
 1564000   0.56319612   -1.8455221   0.84394939   -1.0015727   0.13406897    11527.616     1000 
 1566000   0.60053185   -1.8604803   0.89989698  -0.96058331   0.13607047    11509.521     1000 
 1568000   0.56791049   -1.7904288   0.85101387  -0.93941494   0.12914484    11510.108     1000 
 1570000   0.56355248   -1.7905439    0.8444834  -0.94606046   0.13590767    11341.066     1000 
 1572000   0.57824113   -1.7969873   0.86649433  -0.93049299   0.13336642    11453.267     1000 
 1574000     0.558935   -1.7939748    0.8375641  -0.95641073   0.12881942    11424.394     1000 
 1576000   0.57559223   -1.8099871   0.86252496   -0.9474621   0.12885955    11598.113     1000 
 1578000   0.56493271   -1.7839237   0.84655167  -0.93737205   0.13284984    11407.487     1000 
 1580000   0.58040414   -1.7837763   0.86973561  -0.91404072   0.12276309    11598.816     1000 
 1582000   0.58335849   -1.8421187    0.8741627  -0.96795601   0.12093973    11497.802     1000 
 1584000   0.57264207   -1.8128437   0.85810414  -0.95473957   0.12709767    11497.495     1000 
 1586000    0.5689634   -1.7814151   0.85259166  -0.92882348   0.13170819    11409.626     1000 
 1588000   0.56409262   -1.7834903   0.84529279   -0.9381975   0.11853651    11489.142     1000 
 1590000   0.56443502   -1.8089663   0.84580587  -0.96316045   0.12681739    11464.806     1000 
 1592000   0.57800871   -1.8096308   0.86614606  -0.94348478    0.1401074    11463.402     1000 
 1594000   0.57470081    -1.777294   0.86118916  -0.91610488   0.12042981    11631.298     1000 
 1596000   0.55910662   -1.8722102   0.83782127   -1.0343889   0.12953991    11605.723     1000 
[...]
 2612000   0.55734231   -1.8617481   0.83517746   -1.0265707   0.12577908    11530.555     1000 
 2614000   0.57460877    -1.770592   0.86105125  -0.90954075   0.13124016    11447.129     1000 
 2616000   0.57681201   -1.8252142    0.8643528   -0.9608614   0.12520514     11471.39     1000 
 2618000    0.5713475   -1.8378603   0.85616423  -0.98169606   0.12550538    11556.229     1000 
 2620000   0.56415994   -1.7967302   0.84539367  -0.95133652   0.13527205    11349.367     1000 
 2622000    0.5615778   -1.8802574   0.84152434   -1.0387331   0.13801249    11399.784     1000 
 2624000    0.5745082   -1.7893198   0.86090054   -0.9284193   0.13524986    11489.349     1000 
 2626000   0.57987201   -1.7922435   0.86893821  -0.92330526   0.13129977    11513.984     1000 
 2628000    0.5657938   -1.8140983     0.847842   -0.9662563   0.14112627    11485.452     1000 
 2630000   0.56642745   -1.8280894   0.84879154  -0.97929783   0.12652505    11519.196     1000 
 2632000   0.54575393   -1.8357257   0.81781227   -1.0179134    0.1241736    11555.939     1000 
 2634000   0.56359727   -1.8084512   0.84455051  -0.96390065   0.12418548    11525.103     1000 
 2636000   0.57199475   -1.7926024   0.85713414  -0.93546822   0.12615164    11473.318     1000 
 2638000   0.59541901   -1.8049383   0.89223539  -0.91270289   0.11967902    11658.997     1000 
 2640000   0.57993625   -1.8222498   0.86903447  -0.95321538   0.12843958    11583.958     1000 
 2642000   0.56602169    -1.878881    0.8481835   -1.0306975   0.13000691    11634.979     1000 
 2644000   0.57836984   -1.8387385   0.86668721  -0.97205126   0.13140199    11544.241     1000 
 2646000   0.59236848   -1.8314439   0.88766417  -0.94377969   0.13290812    11520.224     1000 
 2648000   0.58616549   -1.8115168   0.87836899  -0.93314776   0.12935783    11498.097     1000 
 2650000   0.57008937   -1.8320452   0.85427893  -0.97776628   0.13792398    11406.794     1000 
 2652000   0.57761262   -1.7955557   0.86555252  -0.93000318   0.13691072    11454.186     1000 
 2654000    0.5611003   -1.8123566    0.8408088  -0.97154778   0.13665448    11516.597     1000 
 2656000   0.55510252   -1.8109161   0.83182112  -0.97909495   0.11898328    11545.802     1000 
 2658000   0.57082592   -1.8146681   0.85538264  -0.95928549    0.1229465    11627.254     1000 
 2660000   0.55701276   -1.8347032   0.83468363   -1.0000196   0.13306515    11459.927     1000 
 2662000   0.57352583   -1.7772708   0.85942845   -0.9178424   0.12106096     11475.23     1000 
 2664000   0.58149055   -1.8160825   0.87136359  -0.94471888   0.11785902    11586.016     1000 
 2666000   0.57133029   -1.8279885   0.85613843  -0.97185011   0.12878392    11534.204     1000 
 2668000   0.55214706    -1.800515   0.82739237  -0.97312263   0.13421321    11465.895     1000 
 2670000   0.57520986   -1.8357328   0.86195198  -0.97378084    0.1319129    11635.967     1000 
 2672000   0.55544318   -1.7641109    0.8323316  -0.93177927   0.13755143    11371.122     1000 
 2674000   0.56362625   -1.8015719   0.84459394  -0.95697797   0.13050845    11578.723     1000 
 2676000   0.57577881   -1.8186066   0.86280455  -0.95580203    0.1445978    11547.349     1000 
 2678000   0.55934371   -1.8364176   0.83817655  -0.99824106   0.13702968    11486.764     1000 
 2680000    0.5568493   -1.8396903   0.83443868   -1.0052517    0.1301984    11624.105     1000 
 2682000   0.57869203   -1.8224453   0.86717001  -0.95527533   0.13344007      11565.3     1000 
 2684000   0.56824541   -1.7954766   0.85151575   -0.9439609   0.14196448    11505.279     1000 
 2686000   0.59062746   -1.7802095   0.88505525  -0.89515421   0.13141364    11411.916     1000 
 2688000   0.55869726   -1.8264042   0.83720784  -0.98919638   0.12802605    11434.766     1000 
 2690000   0.56863171   -1.8457496   0.85209461  -0.99365502   0.13385827    11493.255     1000 
 2692000   0.57204862   -1.8144755   0.85721486  -0.95726065   0.13232805    11537.863     1000 
 2694000   0.60544397    -1.774058   0.90725779  -0.86680024   0.12995246    11647.445     1000 
 2696000   0.57322045   -1.8042457   0.85897085  -0.94527489   0.12923539    11531.455     1000 
 2698000   0.58417609   -1.7902405   0.87538788  -0.91485265   0.12846069    11592.108     1000 
 2700000   0.60562136    -1.846001   0.90752361  -0.93847742   0.13727076    11514.128     1000 
 2702000   0.57128571   -1.8666645   0.85607163   -1.0105929   0.12165613    11623.791     1000 
 2704000   0.57626591   -1.8072889   0.86353447  -0.94375445   0.13411668    11411.331     1000 
 2706000   0.57401767   -1.7673589   0.86016548  -0.90719345   0.13131166    11433.097     1000 
 2708000   0.56221614   -1.8322548   0.84248089  -0.98977391   0.12741478    11596.539     1000 
 2710000   0.58001891   -1.8055866   0.86915833  -0.93642824   0.12194499    11624.397     1000 
 2712000   0.56377885   -1.7973351   0.84482261  -0.95251252   0.12147198    11491.794     1000 
 2714000   0.56951512   -1.8448527   0.85341841  -0.99143424   0.12752553    11658.847     1000 
 2716000   0.55445747   -1.8088429   0.83085453  -0.97798841   0.12027052    11590.624     1000 
 2718000   0.57839944    -1.805747   0.86673156  -0.93901543   0.11999032    11675.171     1000 
 2720000   0.58401622   -1.8623625   0.87514831  -0.98721422   0.12547439    11742.861     1000 
 2722000   0.58182923   -1.7972067    0.8718711  -0.92533563   0.13284459    11440.099     1000 
 2724000   0.55916819   -1.8558032   0.83791354   -1.0178897   0.12530331    11593.072     1000 
 2726000   0.57813614   -1.8261004     0.866337  -0.95976336   0.13166196     11419.95     1000 
 2728000    0.5661279   -1.7988948   0.84834266  -0.95055211   0.11965031    11589.312     1000 
 2730000   0.54406404   -1.7552971   0.81527997  -0.94001711   0.13169422    11396.034     1000 
 2732000   0.57909073   -1.8052479   0.86776746  -0.93748046     0.131439     11335.92     1000 
 2734000   0.56107896   -1.8067763   0.84077682  -0.96599952   0.12202308    11555.366     1000 
 2736000   0.58192435   -1.7764216   0.87201364  -0.90440795   0.14496697    11451.422     1000 
 2738000   0.57433337    -1.779979   0.86063856  -0.91934044    0.1398302        11487     1000 
 2740000    0.5517287   -1.7999677   0.82676546  -0.97320228   0.13730076     11473.47     1000 
 2742000   0.56922054   -1.8450303   0.85297698  -0.99205335   0.12783675    11558.785     1000 
 2744000   0.55346953   -1.8394151    0.8293741    -1.010041   0.12788192    11695.056     1000 
 2746000   0.54636293   -1.8107461   0.81872485  -0.99202126   0.13010045    11418.425     1000 
 2748000   0.57076156   -1.8159386    0.8552862  -0.96065242   0.12875817    11582.923     1000 
 2750000   0.58494829   -1.7760795   0.87654502  -0.89953452   0.14214622    11410.377     1000 
 2752000   0.57861324   -1.8524308   0.86705195  -0.98537884   0.12662331     11602.64     1000 
 2754000   0.57585317   -1.7649631   0.86291597  -0.90204708   0.13641706    11414.553     1000 
 2756000   0.58209941   -1.7624981   0.87227596  -0.89022216   0.13043211     11523.59     1000 
 2758000   0.56665099   -1.7973834   0.84912651   -0.9482569   0.12542649    11565.547     1000 
 2760000   0.53806405    -1.851637   0.80628898    -1.045348    0.1141257    11763.671     1000 
 2762000   0.59885646   -1.7892498   0.89738641  -0.89186341   0.13146069    11665.918     1000 
 2764000   0.57819383   -1.8355677   0.86642346  -0.96914425   0.13110239    11525.675     1000 
 2766000   0.56363022   -1.7887454   0.84459988  -0.94414555   0.13946428    11435.425     1000 
 2768000   0.55943183   -1.8846204    0.8383086   -1.0463118    0.1211956    11628.751     1000 
 2770000   0.56208385   -1.8192179   0.84228265  -0.97693527   0.13107442    11496.813     1000 
 2772000   0.55193532   -1.7840227   0.82707508  -0.95694761   0.14198365    11369.861     1000 
 2774000   0.58349829   -1.8218764   0.87437219  -0.94750424   0.13118613    11526.053     1000 
 2776000   0.56440845   -1.8021336   0.84576607  -0.95636755   0.12199901    11549.034     1000 
 2778000    0.5663817   -1.7870728   0.84872297  -0.93834987   0.14755612    11363.983     1000 
 2780000   0.54068348   -1.8258053    0.8102142   -1.0155911   0.12387659    11632.438     1000 
 2782000   0.59377583   -1.7941717   0.88977308  -0.90439862      0.13114    11622.032     1000 
 2784000   0.56372039    -1.800501   0.84473501  -0.95576603    0.1312218    11414.476     1000 
 2786000    0.5861959   -1.8151584   0.87841456  -0.93674384   0.13187914    11442.566     1000 
 2788000   0.55986608   -1.8087279   0.83895933  -0.96976859   0.11825236    11699.645     1000 
 2790000   0.53554798   -1.8717854   0.80251865   -1.0692668   0.11086474    11921.024     1000 
 2792000   0.57479547   -1.8309804   0.86133102  -0.96964933   0.13459771    11550.693     1000 
 2794000   0.55189459   -1.8394752   0.82701404   -1.0124612   0.10934013    11719.868     1000 
 2796000   0.54395805   -1.7456213   0.81512113  -0.93050018   0.13790623     11443.52     1000 
 2798000   0.58682812   -1.7853234   0.87936194  -0.90596145   0.13002678    11453.936     1000 
 2800000   0.58869606   -1.8228859   0.88216105  -0.94072485   0.13685298    11572.056     1000 
 2802000   0.54496275   -1.8954016   0.81662668   -1.0787749   0.12226957    11572.123     1000 
 2804000    0.5635908   -1.8281158   0.84454082  -0.98357496   0.12233021    11663.854     1000 
 2806000   0.59009584   -1.7700276   0.88425862  -0.88576895   0.13602482    11415.661     1000 
 2808000   0.59129031   -1.8005372   0.88604852  -0.91448869   0.13338665    11544.352     1000 
 2810000   0.56785377   -1.8711561   0.85092887   -1.0202272   0.11200481    11697.231     1000 
 2812000   0.57387579   -1.7944293   0.85995287   -0.9344764   0.12956605    11386.003     1000 
 2814000   0.56839673   -1.7811674    0.8517425   -0.9294249   0.12943052    11508.601     1000 
 2816000   0.57091277   -1.7912226   0.85551279  -0.93570985   0.12671345    11548.423     1000 
 2818000   0.58326217   -1.8239864   0.87401836  -0.94996804   0.12787986    11555.516     1000 
 2820000   0.56290397   -1.7755303    0.8435116  -0.93201873   0.13037658    11504.869     1000 
 2822000   0.57325339   -1.7170678    0.8590202  -0.85804757   0.13239522    11553.111     1000 
 2824000   0.58227216   -1.8113624   0.87253483  -0.93882761   0.13399896    11546.672     1000 
 2826000    0.5674316   -1.8167155   0.85029625  -0.96641929    0.1324584    11493.606     1000 
 2828000   0.55767995   -1.8407853   0.83568341   -1.0051019   0.13211051    11470.619     1000 
 2830000    0.5673872   -1.8174519   0.85022972  -0.96722221   0.13877607    11446.629     1000 
 2832000   0.54547627   -1.8888536   0.81739619   -1.0714574    0.1244597      11583.8     1000 
 2834000   0.57422712   -1.8168935   0.86047934  -0.95641416   0.13538384    11481.489     1000 
 2836000   0.57916303   -1.8544781    0.8678758  -0.98660234   0.12290674    11607.889     1000 
 2838000    0.5599745   -1.8505933   0.83912178   -1.0114715   0.12762317    11488.677     1000 
 2840000   0.56705213   -1.8136243   0.84972762  -0.96389667   0.13408489    11427.433     1000 
 2842000   0.56839282   -1.8110034   0.85173664  -0.95926678   0.13682247    11456.305     1000 
 2844000   0.55299412   -1.8035693   0.82866169   -0.9749076   0.13048798    11500.043     1000 
 2846000   0.57182584   -1.7956188   0.85688102  -0.93873782   0.12342976    11597.475     1000 
 2848000    0.5706791   -1.8129571   0.85516263  -0.95779447   0.13403933    11603.833     1000 
 2850000   0.55962606   -1.8605864   0.83859965   -1.0219868   0.11678841     11548.87     1000 
 2852000   0.57777737   -1.8298286   0.86579939  -0.96402918   0.12127376    11652.551     1000 
 2854000   0.57447847   -1.8280619   0.86085598  -0.96720594     0.128477    11592.895     1000 
 2856000   0.58613791   -1.7681775   0.87832767  -0.88984988   0.14129084    11407.005     1000 
 2858000   0.58231296   -1.8200979   0.87259597  -0.94750193   0.13255614    11600.247     1000 
 2860000   0.59707175   -1.8345674   0.89471201  -0.93985541   0.12162884    11725.753     1000 
 2862000   0.55679902    -1.842784   0.83436334   -1.0084207   0.13529246    11599.543     1000 
 2864000   0.57160069   -1.8075324   0.85654363  -0.95098873   0.12245006    11601.079     1000 
 2866000   0.56090193   -1.7976464   0.84051154  -0.95713489   0.13302474    11580.924     1000 
 2868000   0.55716689   -1.8191222   0.83491458  -0.98420759    0.1124048    11602.059     1000 
 2870000   0.56501959   -1.8506287   0.84668186   -1.0039469   0.12550794    11591.771     1000 
 2872000   0.58736947   -1.8098267   0.88017315   -0.9296535   0.12611713    11566.222     1000 
 2874000   0.58322484   -1.8186696   0.87396243  -0.94470714   0.12632083    11700.898     1000 
 2876000   0.55807722   -1.8328605   0.83627872  -0.99658177   0.12523831    11521.255     1000 
 2878000   0.60168304   -1.8328027   0.90162203  -0.93118062   0.13727579    11406.066     1000 
 2880000   0.56002885   -1.8852585   0.83920323   -1.0460553   0.11934257    11514.353     1000 
 2882000   0.59014673   -1.7968328   0.88433487  -0.91249794   0.13312934    11584.709     1000 
 2884000   0.56380205   -1.8150023   0.84485737  -0.97014494   0.11895651    11574.223     1000 
 2886000   0.56727252   -1.8317073   0.85005787  -0.98164944   0.11615045    11661.543     1000 
 2888000   0.58307589   -1.7543149   0.87373922  -0.88057566   0.13130265    11592.357     1000 
 2890000   0.54509186   -1.7933303   0.81682015  -0.97651013   0.12476892    11652.569     1000 
 2892000   0.57109103   -1.8267848    0.8557799  -0.97100486   0.13907263    11375.607     1000 
 2894000    0.5876651   -1.7857428   0.88061616  -0.90512667   0.13802803    11466.122     1000 
 2896000   0.58677313   -1.7987345   0.87927954  -0.91945493   0.12597098    11700.209     1000 
 2898000    0.5691809   -1.8305891   0.85291758  -0.97767152   0.12526911    11605.157     1000 
 2900000   0.57900733   -1.8028681   0.86764249  -0.93522565   0.13526904    11686.425     1000 
 2902000    0.5704987    -1.809432    0.8548923  -0.95453969   0.12463521    11476.942     1000 
 2904000   0.57486643   -1.8231714   0.86143735  -0.96173408   0.12773543    11537.945     1000 
 2906000   0.59909212   -1.8243729   0.89773955  -0.92663337   0.13208514    11513.341     1000 
 2908000   0.57291179   -1.7719835   0.85850832   -0.9134752   0.12917707    11559.668     1000 
 2910000   0.58012086   -1.7883368   0.86931112  -0.91902568   0.14089227    11521.734     1000 
 2912000   0.56031012   -1.7600412   0.83962471  -0.92041646   0.12958756    11467.438     1000 
 2914000   0.59670035    -1.800738   0.89415548  -0.90658255   0.14130504    11538.229     1000 
 2916000   0.54900148   -1.8638256   0.82267872   -1.0411469   0.11031454    11718.631     1000 
 2918000   0.59028806   -1.8293427   0.88454666  -0.94479607    0.1375117    11464.347     1000 
 2920000   0.53251017   -1.8468269   0.79796648   -1.0488604   0.12577661     11684.05     1000 
 2922000   0.54188524   -1.7984812   0.81201504  -0.98646614   0.14014948    11485.716     1000 
 2924000   0.58254152   -1.8132625   0.87293847  -0.94032402   0.13259614    11494.664     1000 
 2926000   0.56637316   -1.8012488   0.84871017  -0.95253863   0.12397263    11699.924     1000 
 2928000   0.59629176   -1.7883662   0.89354321  -0.89482298   0.12884477    11533.315     1000 
 2930000   0.57963211   -1.8635099   0.86857872  -0.99493119    0.1326221    11496.207     1000 
 2932000   0.57370801   -1.7796007   0.85970146  -0.91989922   0.11531512    11609.148     1000 
 2934000   0.58346406   -1.7706369    0.8743209  -0.89631602   0.12989568    11616.962     1000 
 2936000   0.57545034   -1.8324687   0.86231233  -0.97015635   0.13971185    11463.935     1000 
 2938000   0.54066813   -1.8293007   0.81019119   -1.0191095   0.12069001    11561.513     1000 
 2940000   0.57825328   -1.8059761   0.86651254  -0.93946358   0.13776539    11568.348     1000 
 2942000   0.55822949   -1.7748195   0.83650688  -0.93831265   0.13408738    11539.352     1000 
 2944000   0.60554292   -1.8407908   0.90740607  -0.93338476   0.12083982    11619.164     1000 
 2946000   0.57147028   -1.7953249   0.85634822  -0.93897664   0.12165851    11613.777     1000 
 2948000   0.55645421   -1.8468466   0.83384663   -1.0129999   0.11795559    11668.584     1000 
 2950000   0.57743213   -1.8007831   0.86528205  -0.93550106   0.12288506    11566.543     1000 
 2952000    0.5803753   -1.8818602   0.86969238   -1.0121678   0.12675958    11555.463     1000 
 2954000   0.56281498   -1.7596671   0.84337825  -0.91628883   0.13143478    11398.562     1000 
 2956000   0.53607816   -1.8190542   0.80331313    -1.015741   0.12329572    11594.318     1000 
 2958000   0.56569513   -1.8181571   0.84769415  -0.97046294   0.13037014    11454.583     1000 
 2960000   0.57422657   -1.8281816   0.86047851  -0.96770311   0.12104472    11608.858     1000 
 2962000   0.58328026   -1.8385483   0.87404547  -0.96450286   0.12003456     11591.86     1000 
 2964000   0.57069298    -1.798197   0.85518342  -0.94301358   0.13813564    11407.477     1000 
 2966000    0.5560238   -1.8048156   0.83320166  -0.97161395   0.13336008    11418.249     1000 
 2968000   0.57693858   -1.8105045   0.86454246  -0.94596204   0.12891433    11572.934     1000 
 2970000   0.56674973   -1.7948204   0.84927448  -0.94554597   0.13542033    11464.427     1000 
 2972000   0.54787684   -1.8254397   0.82099345   -1.0044462   0.12270255    11669.873     1000 
 2974000   0.57813054   -1.8661511   0.86632862  -0.99982251    0.1293484    11537.313     1000 
 2976000   0.56230415    -1.751569   0.84261277   -0.9089562    0.1287844    11430.095     1000 
 2978000   0.56266992   -1.8299568   0.84316087  -0.98679593   0.12681481    11675.388     1000 
 2980000   0.56909396   -1.8048953    0.8527873    -0.952108   0.11519481    11731.015     1000 
 2982000   0.56523952   -1.8263303   0.84701141  -0.97931887   0.11567245     11649.18     1000 
 2984000   0.55918887   -1.8024157   0.83794452  -0.96447119   0.13037422    11448.287     1000 
 2986000   0.55815396   -1.8827926    0.8363937   -1.0463989   0.13008926     11634.11     1000 
 2988000   0.57841734    -1.841312   0.86675838   -0.9745536   0.11670498    11668.249     1000 
 2990000   0.57855163   -1.8529928   0.86695962  -0.98603314   0.13406133    11625.984     1000 
 2992000    0.5471778   -1.8679551   0.81994593   -1.0480092   0.12491897    11627.308     1000 
 2994000   0.58021842   -1.8113374    0.8694573  -0.94188012   0.12246206    11556.278     1000 
 2996000   0.55568914   -1.8665197   0.83270017   -1.0338196   0.12453507    11600.781     1000 
 2998000   0.57077157   -1.8220928    0.8553012  -0.96679156   0.12551445    11627.043     1000 
 3000000   0.56463775   -1.8812427   0.84610967    -1.035133    0.1266028     11471.57     1000 
Loop time of 1080.96 on 4 procs for 3000000 steps with 1000 atoms

Performance: 1198934.829 tau/day, 2775.312 timesteps/s
95.3% CPU use with 4 MPI tasks x no OpenMP threads

MPI task timing breakdown:
Section |  min time  |  avg time  |  max time  |%varavg| %total
---------------------------------------------------------------
Pair    | 792.03     | 795.6      | 798.6      |   8.8 | 73.60
Neigh   | 74.853     | 75.111     | 75.498     |   2.8 |  6.95
Comm    | 156.07     | 158.9      | 162.43     |  20.2 | 14.70
Output  | 0.023635   | 0.026477   | 0.034769   |   2.9 |  0.00
Modify  | 44.495     | 44.633     | 44.791     |   1.6 |  4.13
Other   |            | 6.694      |            |       |  0.62

Nlocal:    250 ave 260 max 242 min
Histogram: 1 0 1 0 0 1 0 0 0 1
Nghost:    1703 ave 1730 max 1679 min
Histogram: 1 0 0 0 2 0 0 0 0 1
Neighs:    14280.2 ave 14901 max 13590 min
Histogram: 1 0 0 0 1 0 1 0 0 1

Total # of neighbors = 57121
Ave neighs/atom = 57.121
Neighbor list builds = 150000
Dangerous builds not checked

Total wall time: 0:18:00
