LAMMPS (3 Mar 2020)
# ----------------------- Inicialização -----------------------

units			lj
atom_style 		atomic
dimension 		3
boundary 		p p p

# -------------------- Criação dos Átomos ---------------------

read_data 		topologia.txt
  orthogonal box = (0 0 0) to (21.54 21.54 21.54)
  1 by 2 by 2 MPI processor grid
  reading atoms ...
  1000 atoms
  read_data CPU = 0.00223774 secs

velocity 		all create ${temp} 87287 rot yes dist gaussian
velocity 		all create 0.47 87287 rot yes dist gaussian

# ------------------ Interação Interatômica -------------------

pair_style		table linear 1600
pair_coeff		1 1 force.table AA 8.0
WARNING: 3 of 1600 force values in table are inconsistent with -dE/dr.
  Should only be flagged at inflection points (src/pair_table.cpp:483)
pair_coeff		1 2 force.table AB 8.0
WARNING: 1 of 1600 force values in table are inconsistent with -dE/dr.
  Should only be flagged at inflection points (src/pair_table.cpp:483)
pair_coeff		2 2 force.table BB 8.0
pair_write		1 1 1600 r 0.008 8.0 table.check AA
Neighbor list info ...
  update every 1 steps, delay 10 steps, check yes
  max neighbors/atom: 2000, page size: 100000
  master list distance cutoff = 8.3
  ghost atom cutoff = 8.3
  binsize = 4.15, bins = 6 6 6
  1 neighbor lists, perpetual/occasional/extra = 1 0 0
  (1) pair table, perpetual
      attributes: half, newton on
      pair build: half/bin/atomonly/newton
      stencil: half/bin/3d/newton
      bin: standard
pair_write		1 2 1600 r 0.008 8.0 table.check AB
pair_write		2 2 1600 r 0.008 8.0 table.check BB

neighbor 		0.3 bin
neigh_modify		every 20 delay 0 check no

# ------------------------- Ensemble --------------------------------------

fix 1			all npt temp ${temp} ${temp} 0.5 iso ${press} ${press} 5
fix 1			all npt temp 0.47 ${temp} 0.5 iso ${press} ${press} 5
fix 1			all npt temp 0.47 0.47 0.5 iso ${press} ${press} 5
fix 1			all npt temp 0.47 0.47 0.5 iso 0.13 ${press} 5
fix 1			all npt temp 0.47 0.47 0.5 iso 0.13 0.13 5

# ---------------------- Função de Distribuição Radial -----------------------

#compute RDF 		all rdf 2000 1 1 1 2 2 2
#fix 2 			all ave/time 1 2000 2000 c_RDF[*] file rdf.data mode vector

# ------------------------- Execução ---------------------------

timestep 		0.005
thermo_style		custom step temp pe ke etotal press vol atoms
thermo			2000
run			3000000
Per MPI rank memory allocation (min/avg/max) = 2.675 | 2.675 | 2.675 Mbytes
Step Temp PotEng KinEng TotEng Press Volume Atoms 
       0         0.47   0.29699107     0.704295    1.0012861   0.93084856    9993.9483     1000 
    2000   0.45551677   -2.3268564   0.68259188   -1.6442645   0.13309077    11223.028     1000 
    4000   0.46489696   -2.2917744    0.6966481   -1.5951263   0.14286265    11156.838     1000 
    6000   0.46158056   -2.2835518   0.69167848   -1.5918734   0.13187906    11097.455     1000 
    8000   0.46338309   -2.3176146   0.69437956    -1.623235   0.12161286    11266.636     1000 
   10000    0.4834666   -2.3255713    0.7244747   -1.6010966   0.13565524    11120.969     1000 
   12000   0.47832248   -2.3516302   0.71676623    -1.634864   0.13730993    11127.555     1000 
   14000   0.46594436   -2.3038256   0.69821763   -1.6056079   0.12392574    11194.961     1000 
   16000   0.46279513   -2.3342916    0.6934985   -1.6407931   0.13113546    11300.943     1000 
   18000   0.47663534    -2.364869   0.71423806    -1.650631    0.1358783    11179.852     1000 
   20000   0.47865131   -2.3286638   0.71725898   -1.6114048    0.1286182    11155.612     1000 
   22000   0.46440867   -2.3677025   0.69591638   -1.6717861   0.12781751    11325.745     1000 
   24000   0.46959489    -2.362784   0.70368794   -1.6590961   0.12648135    11293.959     1000 
   26000   0.48913099   -2.3915811   0.73296279   -1.6586183   0.13072868    11249.181     1000 
   28000    0.4600825    -2.336528   0.68943363   -1.6470944   0.13411061     11215.18     1000 
   30000   0.46371815   -2.3542499   0.69488164   -1.6593683   0.13684583    11149.476     1000 
   32000   0.48580741   -2.3210339    0.7279824   -1.5930515   0.12882318    11259.678     1000 
   34000   0.48267754   -2.3394158   0.72329229   -1.6161235   0.14421615     11211.31     1000 
   36000   0.47109506   -2.3717644   0.70593595   -1.6658285   0.13012651    11210.068     1000 
   38000    0.4658787   -2.3316286   0.69811923   -1.6335093   0.12483347    11218.379     1000 
   40000   0.48906883   -2.3462923   0.73286965   -1.6134226   0.13804632    11216.957     1000 
   42000   0.46753399   -2.3144053   0.70059969   -1.6138056   0.12671339    11253.058     1000 
   44000   0.46407232   -2.3685321   0.69541236   -1.6731197   0.12743661    11234.238     1000 
   46000   0.46484036   -2.3135386   0.69656327   -1.6169753    0.1266418    11241.739     1000 
   48000   0.45642139   -2.3984628   0.68394745   -1.7145153   0.11826997    11328.972     1000 
   50000   0.47353613   -2.3073501    0.7095939   -1.5977562   0.14310508    11103.206     1000 
   52000   0.46031929   -2.3955013   0.68978845   -1.7057129   0.13838262    11264.691     1000 
   54000   0.47224053   -2.3152852   0.70765243   -1.6076327   0.14485313    11191.991     1000 
   56000   0.46766269   -2.3177228   0.70079254   -1.6169303   0.12053319    11169.538     1000 
   58000    0.4716729     -2.31829   0.70680185   -1.6114882   0.12146621    11177.062     1000 
   60000   0.47892829   -2.3635955   0.71767404   -1.6459215   0.12005047    11257.834     1000 
   62000    0.4698341   -2.4057955   0.70404639   -1.7017491   0.13638851    11119.023     1000 
   64000   0.47548638   -2.3550278   0.71251634   -1.6425115   0.12208581    11234.808     1000 
   66000    0.4591102   -2.3478242   0.68797663   -1.6598476   0.11794752    11315.413     1000 
   68000   0.47247769   -2.3504825   0.70800782   -1.6424747   0.14244455    11037.446     1000 
   70000   0.45270101   -2.3999474   0.67837246   -1.7215749    0.1258846    11295.883     1000 
   72000   0.48519796    -2.354024   0.72706915   -1.6269549   0.12705615    11297.072     1000 
   74000   0.46397014   -2.4024575   0.69525925   -1.7071983   0.11111124    11355.198     1000 
   76000    0.4839623   -2.3681469   0.72521751   -1.6429294   0.12898148    11247.345     1000 
   78000   0.49100594   -2.3664097   0.73577239   -1.6306373   0.13343278    11197.812     1000 
   80000   0.46636547   -2.3538393   0.69884866   -1.6549906   0.12678718    11161.918     1000 
   82000   0.47617848   -2.2995255   0.71355345   -1.5859721   0.14682263     11112.02     1000 
   84000   0.46140873   -2.3482009   0.69142098     -1.65678   0.13073725    11093.179     1000 
   86000   0.49294017   -2.3524784   0.73867085   -1.6138075   0.13258596    11151.223     1000 
   88000   0.47863037   -2.3572246   0.71722761    -1.639997   0.13172649    11177.183     1000 
   90000   0.48923725   -2.3330567   0.73312202   -1.5999347   0.11799115    11250.205     1000 
   92000   0.49837713   -2.2722438   0.74681812   -1.5254257   0.13803922    10980.379     1000 
   94000   0.44684291    -2.314519    0.6695941   -1.6449249   0.13785278    11130.292     1000 
   96000    0.4532212   -2.3202813   0.67915196   -1.6411293   0.10845245    11307.533     1000 
   98000   0.47295863   -2.3662016   0.70872851   -1.6574731   0.12315156    11229.944     1000 
  100000   0.46331287   -2.3564643   0.69427433   -1.6621899   0.12152187      11292.7     1000 
  102000   0.46550712   -2.3783773   0.69756242   -1.6808148   0.12924374     11206.79     1000 
  104000   0.47271648   -2.3632259   0.70836565   -1.6548603   0.13421816    10999.829     1000 
  106000   0.47985327   -2.3162317   0.71906013   -1.5971716   0.14559062    11090.849     1000 
  108000   0.48748182   -2.2940358    0.7304915   -1.5635443   0.14269125    11048.915     1000 
  110000   0.46905437   -2.3624234   0.70287798   -1.6595454   0.12997422    11203.299     1000 
  112000   0.48081297   -2.3215228   0.72049823   -1.6010245   0.11948343    11313.403     1000 
  114000   0.47207386   -2.3462409   0.70740268   -1.6388382   0.13350733    11181.236     1000 
  116000   0.47956246    -2.350822   0.71862435   -1.6321976   0.12408211    11215.265     1000 
  118000   0.46595638   -2.3327868   0.69823563   -1.6345512   0.13578562    11054.414     1000 
  120000   0.48032944   -2.3246127   0.71977367    -1.604839   0.12936997    11226.689     1000 
  122000   0.45468207    -2.323428   0.68134108   -1.6420869   0.12792772    11073.307     1000 
  124000   0.48876189   -2.3423249    0.7324097   -1.6099152   0.13339828    11177.822     1000 
  126000   0.45178569   -2.3560316   0.67700085   -1.6790307   0.14215164    11086.017     1000 
  128000   0.46599895   -2.3464491   0.69829942   -1.6481496   0.13720326    11276.173     1000 
  130000   0.49283081   -2.3117273   0.73850697   -1.5732204   0.14576306    10940.603     1000 
  132000   0.48207695    -2.387056   0.72239231   -1.6646637   0.13765027    11159.839     1000 
  134000   0.47247886   -2.3086906   0.70800957    -1.600681   0.13949668    10962.585     1000 
  136000   0.46285925   -2.3328931   0.69359459   -1.6392985   0.15590758    11027.764     1000 
  138000    0.4595233   -2.3626122   0.68859567   -1.6740165   0.11444645    11278.154     1000 
  140000   0.47033395   -2.3527183   0.70479542   -1.6479229   0.13843565    11185.456     1000 
  142000   0.47588468   -2.3423894   0.71311319   -1.6292762    0.1390739    11080.716     1000 
  144000   0.48090448   -2.3642204   0.72063537    -1.643585   0.12400586    11204.152     1000 
  146000   0.45947262   -2.3656394   0.68851973   -1.6771197    0.1326354    11276.119     1000 
  148000   0.48146947   -2.3281046     0.721482   -1.6066226   0.13023759    11199.627     1000 
  150000   0.46779808   -2.3150543   0.70099542   -1.6140589   0.12202644    11320.573     1000 
  152000   0.46131017   -2.3197849   0.69127329   -1.6285116   0.13072398    11126.892     1000 
  154000   0.47207211   -2.3249995   0.70740006   -1.6175994   0.14879759    10974.509     1000 
  156000   0.46668155   -2.3515955    0.6993223   -1.6522732   0.13106309    11166.233     1000 
  158000   0.45132164   -2.3005303   0.67630547   -1.6242248   0.13396289    11002.043     1000 
  160000   0.47058354      -2.3598   0.70516943   -1.6546306   0.12853471    11196.517     1000 
  162000   0.48034081   -2.3488461    0.7197907   -1.6290555   0.14454456    11143.913     1000 
  164000   0.44570939   -2.3366726   0.66789552   -1.6687771   0.13365157     11229.99     1000 
  166000   0.46954484   -2.3454415   0.70361294   -1.6418286   0.13778295    11246.138     1000 
  168000   0.46808091   -2.3348332   0.70141925    -1.633414    0.1329376    11171.988     1000 
  170000   0.48831448   -2.3152411   0.73173924   -1.5835018   0.12222016    11315.434     1000 
  172000   0.46768446   -2.3208487   0.70082516   -1.6200235   0.12766538    11281.038     1000 
  174000   0.47700567   -2.3137356     0.714793   -1.5989426   0.14119803    11088.586     1000 
  176000   0.47202704   -2.3163538   0.70733252   -1.6090212   0.12502466    11219.764     1000 
  178000   0.46680461   -2.3253165    0.6995067   -1.6258098   0.12593893    11178.007     1000 
  180000   0.48543523   -2.3032302   0.72742469   -1.5758055   0.14515554     11059.74     1000 
  182000   0.44742163   -2.3138641   0.67046131   -1.6434027   0.12086951    11155.695     1000 
  184000   0.46526046   -2.3212202   0.69719279   -1.6240274   0.13333843    11076.566     1000 
  186000   0.44592127   -2.3414304   0.66821302   -1.6732174   0.13183477    11271.064     1000 
  188000   0.45927219   -2.3556362   0.68821937   -1.6674168   0.12254767    11228.369     1000 
  190000   0.45817527   -2.3418621   0.68657565   -1.6552865   0.13195027    11263.824     1000 
  192000   0.48310565   -2.3604785   0.72393382   -1.6365447   0.13050381    11125.586     1000 
  194000   0.49184139   -2.3552679   0.73702432   -1.6182436   0.13867668    11216.614     1000 
  196000   0.49486869   -2.3267495   0.74156073   -1.5851888   0.13637201    11170.375     1000 
  198000   0.45983335   -2.3678439   0.68906027   -1.6787836   0.12802783    11109.249     1000 
  200000   0.44875267   -2.3541327   0.67245588   -1.6816768   0.12039355    11162.964     1000 
  202000    0.4624734   -2.3607655   0.69301639   -1.6677491   0.13211377    11227.146     1000 
  204000   0.46598057   -2.3443633   0.69827188   -1.6460915    0.1299045    11315.889     1000 
  206000   0.48598995   -2.3483343   0.72825594   -1.6200784   0.14607212    11076.699     1000 
  208000   0.47142829   -2.3320571   0.70643529   -1.6256218   0.15262421    11132.833     1000 
  210000   0.47347435   -2.3634505   0.70950131   -1.6539492   0.12462992    11367.123     1000 
  212000   0.47771151   -2.3453933    0.7158507   -1.6295426   0.13172174    11133.517     1000 
  214000   0.45903066   -2.3574336   0.68785745   -1.6695762   0.13076847    11237.578     1000 
  216000   0.49262127   -2.3347074   0.73819297   -1.5965144   0.14098998    11238.895     1000 
  218000   0.48475459   -2.2938622   0.72640475   -1.5674575   0.12724915     11172.62     1000 
  220000   0.47415065   -2.3510519   0.71051474   -1.6405371   0.12088703    11254.898     1000 
  222000   0.45267333   -2.3370219   0.67833098   -1.6586909   0.13595594    11128.314     1000 
  224000    0.4562628   -2.3264759    0.6837098   -1.6427661   0.13741201    11117.207     1000 
  226000   0.46766228     -2.35189   0.70079193   -1.6510981   0.11913784    11320.428     1000 
  228000   0.48865289   -2.4014076   0.73224636   -1.6691612   0.12599007    11256.482     1000 
  230000   0.45732499   -2.3260234   0.68530149   -1.6407219   0.12825303    11204.599     1000 
  232000   0.47878618   -2.3610271    0.7174611    -1.643566   0.13195968    11243.872     1000 
  234000   0.46434813   -2.3326113   0.69582568   -1.6367857   0.13919814    11055.035     1000 
  236000   0.46747968   -2.3461563   0.70051831    -1.645638   0.12964092    11208.361     1000 
  238000   0.48093184   -2.3250295   0.72067637   -1.6043532   0.12685977    11133.159     1000 
  240000   0.46819375   -2.3525165   0.70158834   -1.6509282   0.13077608    11210.193     1000 
  242000   0.44413405   -2.3811065   0.66553488   -1.7155716   0.12303444    11300.838     1000 
  244000   0.46961633   -2.3301388   0.70372007   -1.6264188   0.12185535     11130.45     1000 
  246000   0.46225422   -2.3659966   0.69268795   -1.6733086   0.13211604    11062.222     1000 
  248000   0.46273201   -2.3822291   0.69340391   -1.6888252   0.12838197    11184.741     1000 
  250000   0.46700385   -2.3490292   0.69980527   -1.6492239   0.12727003     11243.19     1000 
  252000   0.46450145   -2.3735266   0.69605542   -1.6774712    0.1342632    11104.452     1000 
  254000   0.46905999   -2.3060074    0.7028864    -1.603121   0.13666964    10950.419     1000 
  256000   0.46593937   -2.3160125   0.69821015   -1.6178023   0.12195735    11180.181     1000 
  258000   0.45659842   -2.3579639   0.68421273   -1.6737512   0.12570392    11183.721     1000 
  260000   0.47950328   -2.3070446   0.71853567   -1.5885089   0.13287209    11145.319     1000 
  262000   0.43903247   -2.3585149   0.65789016   -1.7006248   0.12489163    11291.896     1000 
  264000   0.46111935   -2.3441469   0.69098734   -1.6531595   0.13901982    11188.827     1000 
  266000   0.47233871   -2.3221477   0.70779955   -1.6143482   0.11526175    11309.604     1000 
  268000   0.49769759   -2.3567434   0.74579985   -1.6109435    0.1300813    11280.538     1000 
  270000   0.46089005   -2.3479496   0.69064374   -1.6573058   0.13607993    11151.014     1000 
  272000   0.46454457   -2.3603349   0.69612004   -1.6642149   0.14671081    11010.008     1000 
  274000   0.46986404   -2.2963817   0.70409127   -1.5922904   0.12158229    11172.298     1000 
  276000   0.45621525   -2.3777199   0.68363855   -1.6940813   0.11963674    11262.458     1000 
  278000   0.47414036    -2.355672   0.71049934   -1.6451727   0.13300342     11186.27     1000 
  280000   0.48105946   -2.3243507    0.7208676   -1.6034831   0.14280504    11106.922     1000 
  282000   0.45228311   -2.3315305   0.67774625   -1.6537843   0.13205046    11059.044     1000 
  284000   0.45866726   -2.3251665   0.68731289   -1.6378536   0.13125426    11179.321     1000 
  286000   0.45422468   -2.3724827   0.68065568    -1.691827   0.10973616    11274.461     1000 
  288000   0.48196451   -2.3016157   0.72222382   -1.5793919    0.1357841    11073.213     1000 
  290000   0.46545553   -2.3083571   0.69748511    -1.610872   0.12246542    11228.693     1000 
  292000   0.44756099   -2.3490834   0.67067014   -1.6784133   0.13015675     11118.32     1000 
  294000   0.46039401   -2.3499583   0.68990042   -1.6600579   0.12901511    11297.303     1000 
  296000   0.47400326   -2.3883992   0.71029388   -1.6781053   0.13166136    11258.105     1000 
  298000   0.46906456   -2.3310352   0.70289325   -1.6281419   0.13453358    11083.003     1000 
  300000   0.46264673   -2.3339705   0.69327612   -1.6406944    0.1319116     11098.93     1000 
  302000   0.48053975   -2.3314008   0.72008882    -1.611312   0.13665142    11202.105     1000 
  304000   0.44967317   -2.3273373   0.67383525    -1.653502   0.13016116    11177.459     1000 
  306000   0.46817298   -2.3619563   0.70155721   -1.6603991   0.13161363    11221.491     1000 
  308000   0.45601836   -2.3759906   0.68334352   -1.6926471   0.11751235    11413.443     1000 
  310000   0.46769968   -2.3331308   0.70084797   -1.6322829   0.12995663    11161.755     1000 
  312000   0.45152241   -2.3222524   0.67660633   -1.6456461   0.13564673     11170.51     1000 
  314000   0.45569628   -2.3668091   0.68286088   -1.6839482   0.13524439    11106.869     1000 
  316000   0.46915293   -2.3272939   0.70302566   -1.6242683    0.1389142    11130.943     1000 
  318000   0.48014339   -2.3392297   0.71949488   -1.6197348   0.14073058    11141.157     1000 
  320000   0.46951087   -2.3520586   0.70356204   -1.6484965   0.12993741    11218.993     1000 
  322000   0.47633079   -2.3285591   0.71378169   -1.6147774   0.12039083    11366.781     1000 
  324000   0.45194701   -2.3646274    0.6772426   -1.6873848   0.13382426    11105.982     1000 
  326000   0.45972486   -2.2951994   0.68889771   -1.6063017   0.13380453    11095.167     1000 
  328000   0.45526623   -2.3784934   0.68221645    -1.696277   0.12360279    11337.797     1000 
  330000   0.47396564   -2.3504755   0.71023751    -1.640238   0.13659174    11185.257     1000 
  332000   0.46754582   -2.3245709    0.7006174   -1.6239535   0.12998897    11357.177     1000 
  334000   0.46750375   -2.3282482   0.70055437   -1.6276938   0.13294838    11110.848     1000 
  336000   0.45780072   -2.3725453   0.68601438   -1.6865309   0.13584973    11160.286     1000 
  338000   0.48907413   -2.3447358   0.73287758   -1.6118582   0.12411801    11256.216     1000 
  340000   0.48831225   -2.3355119    0.7317359    -1.603776   0.12111961    11082.649     1000 
  342000   0.44911009   -2.3402895   0.67299146   -1.6672981   0.13725231    11081.294     1000 
  344000   0.47865551    -2.309909   0.71726528   -1.5926437   0.14355832    11030.829     1000 
  346000   0.45745462    -2.369996   0.68549575   -1.6845003   0.12692864     11178.29     1000 
  348000    0.4637805   -2.3208498   0.69497508   -1.6258747   0.13137985    11095.685     1000 
  350000   0.45198401   -2.3745814   0.67729803   -1.6972834   0.12397804    11292.849     1000 
  352000    0.4820539   -2.3867332   0.72235777   -1.6643754   0.13288146    11199.791     1000 
  354000    0.4814979   -2.3230408    0.7215246   -1.6015162   0.12626436    11188.581     1000 
  356000   0.46837178   -2.3701055   0.70185511   -1.6682503   0.12945708    11230.341     1000 
  358000    0.4726682   -2.4013212    0.7082933   -1.6930279   0.11044291    11391.464     1000 
  360000   0.49164913   -2.4025527   0.73673622   -1.6658165   0.13174806    11331.986     1000 
  362000   0.45863321    -2.307125   0.68726187   -1.6198631   0.13054364    11310.583     1000 
  364000   0.47202933   -2.2799686   0.70733595   -1.5726326   0.14017489    11077.188     1000 
  366000    0.4733485   -2.3706498   0.70931272   -1.6613371   0.12425055    11226.758     1000 
  368000   0.46216729   -2.3447945   0.69255769   -1.6522368   0.13946792     11137.07     1000 
  370000   0.48246599   -2.2957694   0.72297529   -1.5727941   0.13779883    11034.168     1000 
  372000   0.47117952   -2.2933835    0.7060625    -1.587321   0.13119794    11242.583     1000 
  374000   0.49151071   -2.3896397    0.7365288   -1.6531109    0.1285874    11402.615     1000 
  376000   0.46448842   -2.3568951    0.6960359   -1.6608592   0.13005407    11280.336     1000 
  378000     0.475162   -2.3740054   0.71203026   -1.6619751   0.12025651    11419.846     1000 
  380000   0.46199508    -2.352631   0.69229963   -1.6603314   0.12450082    11292.978     1000 
  382000   0.47834031   -2.3558908   0.71679295   -1.6390978   0.12900256    11178.781     1000 
  384000   0.46501021   -2.3261895    0.6968178   -1.6293717   0.12192788    11188.796     1000 
  386000   0.48036305   -2.3551996   0.71982403   -1.6353755   0.11910532    11259.617     1000 
  388000   0.48608959   -2.3795609   0.72840525   -1.6511557   0.11758938    11200.507     1000 
  390000    0.4589562   -2.3795304   0.68774586   -1.6917846   0.13398237    11185.412     1000 
  392000   0.47593423   -2.3625667   0.71318745   -1.6493792   0.12086692    11386.172     1000 
  394000   0.46048522   -2.3576021   0.69003711    -1.667565   0.13764485    11205.279     1000 
  396000   0.46608117   -2.3092219   0.69842263   -1.6107993   0.14853333    10953.646     1000 
  398000   0.48414277   -2.3353542   0.72548794   -1.6098663   0.12591498    11046.572     1000 
  400000   0.45908896    -2.350535   0.68794481   -1.6625901   0.12618909    11239.683     1000 
  402000   0.45210748   -2.3630845   0.67748305   -1.6856015    0.1261273    11160.116     1000 
  404000   0.47929301    -2.340591   0.71822057   -1.6223704   0.12086041    11256.439     1000 
  406000   0.45674513   -2.3238011   0.68443258   -1.6393685   0.12406914    11120.225     1000 
  408000   0.47905553   -2.3283434   0.71786471   -1.6104787   0.13397139    11070.673     1000 
  410000   0.46343061   -2.3512664   0.69445078   -1.6568157   0.14091697    11238.236     1000 
  412000   0.45722831   -2.3713908   0.68515662   -1.6862342   0.11840192    11213.424     1000 
  414000    0.4770063   -2.3568927   0.71479393   -1.6420987    0.1241705    11234.526     1000 
  416000   0.46246293   -2.3208899    0.6930007   -1.6278892   0.11897792    11102.968     1000 
  418000   0.45557046   -2.3079149   0.68267234   -1.6252426   0.13341926    11112.666     1000 
  420000   0.46643496   -2.3900134   0.69895279   -1.6910606   0.12534017    11274.936     1000 
  422000   0.46198788   -2.3454902   0.69228883   -1.6532013   0.12105557    11266.526     1000 
  424000   0.46421388   -2.3490361   0.69562451   -1.6534116   0.12683946    11167.526     1000 
  426000   0.48089816   -2.3381787    0.7206259   -1.6175528   0.14171813    11117.965     1000 
  428000   0.48195988   -2.2967578   0.72221688   -1.5745409   0.13726208    11021.863     1000 
  430000   0.46444179   -2.3395689   0.69596602   -1.6436028   0.14090013    11112.502     1000 
  432000    0.4781099   -2.3760307   0.71644769    -1.659583   0.11808675    11359.506     1000 
  434000   0.47582364   -2.2906662   0.71302172   -1.5776445   0.13453806    11182.494     1000 
  436000   0.47374485   -2.3867083   0.70990666   -1.6768016   0.14943651    11157.217     1000 
  438000    0.4597499   -2.3361478   0.68893523   -1.6472126   0.13137759    11156.565     1000 
  440000   0.47564221   -2.3877225   0.71274985   -1.6749727   0.13698954    11151.932     1000 
  442000   0.46799348   -2.3471763   0.70128822   -1.6458881   0.12146814    11290.167     1000 
  444000   0.46343265   -2.3912169   0.69445383    -1.696763   0.13851516    11125.198     1000 
  446000   0.48422377   -2.3122565   0.72560932   -1.5866472   0.12687069    11182.841     1000 
  448000   0.47196038   -2.3889814   0.70723262   -1.6817488    0.1366037     11206.56     1000 
  450000   0.48832783   -2.3535029   0.73175925   -1.6217437   0.13052644    11045.288     1000 
  452000   0.48436343    -2.394343   0.72581859   -1.6685244    0.1244275    11321.029     1000 
  454000   0.48620217   -2.3385639   0.72857395     -1.60999   0.13807253    11132.253     1000 
  456000   0.45957568   -2.3430452   0.68867415    -1.654371   0.12943775    11277.236     1000 
  458000   0.45686078   -2.2968754   0.68460588   -1.6122695    0.1368719    11265.723     1000 
  460000   0.46340297   -2.3537499   0.69440935   -1.6593405   0.13534479    11224.999     1000 
  462000   0.47034455   -2.3209243   0.70481131   -1.6161129   0.12586042    11155.389     1000 
  464000   0.47197171   -2.3468476    0.7072496    -1.639598   0.13061734     11282.73     1000 
  466000    0.4692069   -2.3384697   0.70310654   -1.6353631   0.12133304    11262.802     1000 
  468000   0.47477074   -2.3523693   0.71144395   -1.6409254   0.11956347     11353.01     1000 
  470000   0.46667125   -2.4003188   0.69930687   -1.7010119   0.11355751    11385.394     1000 
  472000   0.46947881   -2.3621115     0.703514   -1.6585975   0.12430949    11230.544     1000 
  474000   0.47352366   -2.3670853   0.70957521   -1.6575101   0.14645065    11199.904     1000 
  476000    0.4753306   -2.3923576   0.71228291   -1.6800746   0.13926467    11201.596     1000 
  478000   0.46746891    -2.358158   0.70050217   -1.6576558   0.13154846    11214.721     1000 
  480000    0.4641272   -2.3717765   0.69549461   -1.6762819   0.12464952    11210.929     1000 
  482000   0.47169672   -2.2700541   0.70683754   -1.5632165   0.11912364     11298.39     1000 
  484000    0.4658432   -2.3397404   0.69806603   -1.6416744   0.14340689    11105.676     1000 
  486000   0.46108783   -2.3275279   0.69094011   -1.6365878   0.13819949    11172.289     1000 
  488000   0.48728403   -2.2950162   0.73019512   -1.5648211    0.1395233    11078.819     1000 
  490000   0.46293659   -2.2959778   0.69371049   -1.6022673    0.1226936    11208.463     1000 
  492000   0.47186707   -2.3643676    0.7070928   -1.6572748   0.12688476    11304.945     1000 
  494000   0.46932101   -2.3038164   0.70327754   -1.6005389    0.1413617     11070.31     1000 
  496000   0.49142368   -2.3853456   0.73639839   -1.6489472   0.13282592    11147.878     1000 
  498000   0.45754337   -2.3923991   0.68562874   -1.7067704   0.13492827    11194.943     1000 
  500000   0.47647955     -2.33731   0.71400461   -1.6233054   0.13452274    11165.026     1000 
  502000   0.46490643   -2.3541081   0.69666228   -1.6574458   0.12761508    11307.001     1000 
  504000   0.46415636   -2.3466369    0.6955383   -1.6510985   0.11572363    11273.592     1000 
  506000   0.47436116   -2.3575941   0.71083019    -1.646764   0.13906124     11148.12     1000 
  508000   0.45172849   -2.3746093   0.67691515   -1.6976942   0.12769914    11194.279     1000 
  510000   0.47057977   -2.3070388   0.70516379    -1.601875   0.13670392     11050.32     1000 
  512000   0.47812848   -2.3464538   0.71647553   -1.6299783   0.13252291    11243.759     1000 
  514000   0.47336955   -2.3451132   0.70934427   -1.6357689   0.13313748    11052.459     1000 
  516000   0.47556649   -2.3419184   0.71263639    -1.629282    0.1232199    11246.223     1000 
  518000    0.4704865   -2.3635298   0.70502402   -1.6585058   0.13458309    11187.476     1000 
  520000    0.4762818   -2.3460957   0.71370828   -1.6323874   0.13132263    11116.336     1000 
  522000   0.47033885    -2.335813   0.70480277   -1.6310102   0.13134669    11217.591     1000 
  524000   0.46991389   -2.3426924   0.70416596   -1.6385265   0.11791563    11266.193     1000 
  526000   0.47178541   -2.3360144   0.70697044    -1.629044   0.12563755    11084.319     1000 
  528000   0.45810659   -2.3186795   0.68647273   -1.6322067   0.13360613    11070.391     1000 
  530000   0.47186479   -2.3567811   0.70708939   -1.6496917   0.13590647    11189.035     1000 
  532000   0.48030848   -2.3401492   0.71974226   -1.6204069   0.12686873    11294.484     1000 
  534000   0.46184087   -2.3391561   0.69206854   -1.6470875   0.14688847    11156.418     1000 
  536000   0.44461282   -2.4288373   0.66625232    -1.762585   0.10596042     11507.58     1000 
  538000   0.46463475   -2.3510472   0.69625517    -1.654792   0.12808018    11292.022     1000 
  540000   0.47894461   -2.3371937   0.71769849   -1.6194952    0.1291378    11204.689     1000 
  542000   0.47864648    -2.367919   0.71725175   -1.6506672   0.13172034    11220.421     1000 
  544000   0.47231199     -2.32512   0.70775952   -1.6173604   0.12660487    11205.326     1000 
  546000   0.48103038   -2.2731799   0.72082403   -1.5523558    0.1275295    11096.963     1000 
  548000   0.46924096   -2.3076389   0.70315757   -1.6044813   0.12879615    11101.314     1000 
  550000   0.47860387   -2.3490009   0.71718789    -1.631813   0.14522432    11003.289     1000 
  552000   0.46515579   -2.3395971   0.69703595   -1.6425611   0.14305756    11095.488     1000 
  554000   0.46202776   -2.3582755    0.6923486   -1.6659269   0.13297805    11157.387     1000 
  556000   0.46576121   -2.3628918   0.69794317   -1.6649486   0.12899204    11210.429     1000 
  558000   0.47819597   -2.3108028   0.71657667   -1.5942261   0.12191189     11095.93     1000 
  560000   0.47205926   -2.3583973    0.7073808   -1.6510165   0.12119853    11293.886     1000 
  562000    0.4655654   -2.3744354   0.69764975   -1.6767857   0.12656601    11222.147     1000 
  564000   0.48607866   -2.3370257   0.72838888   -1.6086369   0.13446073    11051.141     1000 
  566000   0.45636637   -2.3000678     0.683865   -1.6162028   0.12043819    11176.647     1000 
  568000   0.46985428   -2.3247645   0.70407664   -1.6206878   0.12768204    11283.483     1000 
  570000   0.47409196   -2.3262461    0.7104268   -1.6158193   0.13385759    11081.585     1000 
  572000   0.48384957   -2.2820076   0.72504858    -1.556959   0.12720039    11073.476     1000 
  574000   0.47369728   -2.3265808   0.70983538   -1.6167454   0.12753833     11143.86     1000 
  576000   0.45356902   -2.3453446   0.67967317   -1.6656714   0.13272336    11198.728     1000 
  578000   0.45710643   -2.3496949   0.68497398   -1.6647209   0.12789228    11326.217     1000 
  580000   0.47033042   -2.2838073   0.70479013   -1.5790171    0.1342945    10961.707     1000 
  582000   0.45765376   -2.3321874   0.68579416   -1.6463932   0.12339118    11195.188     1000 
  584000   0.45277595   -2.3965164   0.67848476   -1.7180316   0.11766237    11297.794     1000 
  586000   0.47318223   -2.3263147   0.70906357   -1.6172512   0.12928623    11207.235     1000 
  588000   0.48165729   -2.3368303   0.72176345   -1.6150669   0.12943444    11288.942     1000 
  590000   0.46326776   -2.3500838   0.69420674    -1.655877   0.12127629    11152.516     1000 
  592000    0.4572319   -2.3262949     0.685162   -1.6411329   0.13939328    11016.339     1000 
  594000   0.47069448    -2.349929   0.70533567   -1.6445933    0.1278207    11138.569     1000 
  596000   0.49292033   -2.3657912   0.73864111   -1.6271501   0.11779785    11243.593     1000 
  598000   0.46155245   -2.3394195   0.69163635   -1.6477832   0.13536002    11091.065     1000 
  600000    0.4798437   -2.3152111   0.71904579   -1.5961653   0.15363198    11038.814     1000 
  602000   0.47047089    -2.343607   0.70500062   -1.6386063   0.13291288    11193.198     1000 
  604000   0.46382824   -2.3727611   0.69504661   -1.6777145   0.12513897    11279.856     1000 
  606000   0.47543879   -2.3252613   0.71244503   -1.6128162   0.13019749    11108.436     1000 
  608000   0.49090442   -2.3126597   0.73562027   -1.5770394   0.13309649    11054.815     1000 
  610000   0.50020404   -2.3416114   0.74955575   -1.5920556   0.13435744    11177.744     1000 
  612000   0.48778256    -2.364297   0.73094216   -1.6333549   0.13936586    10946.072     1000 
  614000    0.4717897   -2.3111085   0.70697687   -1.6041317   0.14519257     11026.92     1000 
  616000   0.45477969   -2.3251913   0.68148736   -1.6437039   0.13012724    11124.256     1000 
  618000   0.44893802   -2.3170865   0.67273362   -1.6443528   0.12467363    11245.198     1000 
  620000   0.49185442   -2.3358618   0.73704385    -1.598818   0.12965295    11366.391     1000 
  622000   0.46901873   -2.3795799   0.70282457   -1.6767553   0.12466722    11265.656     1000 
  624000   0.46547177   -2.3558566   0.69750944   -1.6583472   0.12324245     11162.65     1000 
  626000   0.48460092   -2.3508915   0.72617449   -1.6247171   0.13489076    11149.513     1000 
  628000   0.46929571   -2.3510889   0.70323963   -1.6478492    0.1270478    11266.422     1000 
  630000   0.48471637    -2.343745   0.72634748   -1.6173976   0.12763655    11274.188     1000 
  632000   0.48062264    -2.331039   0.72021302    -1.610826   0.14244088    11096.331     1000 
  634000   0.46592261   -2.3403813   0.69818503   -1.6421963   0.12319799    11181.967     1000 
  636000   0.48213546    -2.381885   0.72247999   -1.6594051   0.12586985    11211.417     1000 
  638000   0.45971997    -2.350991   0.68889038   -1.6621006   0.12183402    11166.721     1000 
  640000   0.46828902   -2.3573678   0.70173109   -1.6556367    0.1299345    11096.259     1000 
  642000   0.44556795   -2.2814119   0.66768357   -1.6137284   0.13325879    11210.765     1000 
  644000   0.44673342   -2.3071271   0.66943002   -1.6376971    0.1212742    11208.451     1000 
  646000   0.47300539   -2.3468402   0.70879858   -1.6380416   0.13471594     11170.23     1000 
  648000   0.48868811   -2.2791889   0.73229913   -1.5468897    0.1389016    11139.056     1000 
  650000   0.46098489   -2.3401112   0.69078586   -1.6493253   0.12146519    11205.169     1000 
  652000   0.47621299    -2.351513   0.71360517   -1.6379078   0.11331266    11264.281     1000 
  654000   0.46478131   -2.3530578   0.69647479    -1.656583   0.13228527    11322.783     1000 
  656000   0.47606996   -2.3519682   0.71339084   -1.6385774   0.14545904    10946.572     1000 
  658000   0.48303561   -2.3824687   0.72382887   -1.6586398   0.13639186     11211.03     1000 
  660000   0.45193435   -2.3023491   0.67722363   -1.6251255   0.12878832    11279.183     1000 
  662000   0.45224704   -2.3642232   0.67769218    -1.686531   0.12935504    11209.846     1000 
  664000   0.45392647    -2.334683   0.68020882   -1.6544741    0.1407021    11103.118     1000 
  666000   0.47111888   -2.3603823   0.70597164   -1.6544107   0.12822093    11236.963     1000 
  668000   0.46154053   -2.3591454   0.69161849   -1.6675269   0.14206562      11088.8     1000 
  670000    0.4704269   -2.3136838   0.70493471   -1.6087491   0.12725769     11202.13     1000 
  672000   0.48771631   -2.3352071   0.73084289   -1.6043642   0.12595775    11284.869     1000 
  674000   0.46292583   -2.3911897   0.69369435   -1.6974953   0.12685656    11236.103     1000 
  676000   0.45871666   -2.3482075   0.68738692   -1.6608205   0.13650797    11157.215     1000 
  678000   0.48285238    -2.359312   0.72355429   -1.6357577    0.1241128    11315.494     1000 
  680000   0.47127786   -2.4070297   0.70620987   -1.7008198   0.11900315    11339.629     1000 
  682000   0.47335626   -2.3126539   0.70932436   -1.6033296   0.12116942    11232.254     1000 
  684000   0.45451264   -2.3161895   0.68108719   -1.6351024   0.10672544    11395.135     1000 
  686000   0.47325964   -2.3457146   0.70917957    -1.636535   0.13080297    11123.066     1000 
  688000   0.46935838   -2.3256854   0.70333353   -1.6223519   0.12352804    11324.276     1000 
  690000   0.49487826    -2.336486   0.74157507   -1.5949109   0.12931402    11152.953     1000 
  692000   0.46038081   -2.2947809   0.68988065   -1.6049002   0.11900553    11213.757     1000 
  694000    0.4828487   -2.3604661   0.72354877   -1.6369173   0.12618041    11286.135     1000 
  696000   0.46580978   -2.3788975   0.69801596   -1.6808815   0.12677281    11154.493     1000 
  698000   0.47979737   -2.3845163   0.71897636     -1.66554   0.14794553    11037.901     1000 
  700000   0.46859172   -2.3860957    0.7021847    -1.683911   0.11773924    11275.535     1000 
  702000   0.47705274   -2.3108198   0.71486353   -1.5959563   0.14018178    11096.933     1000 
  704000   0.48313678   -2.3563944   0.72398047    -1.632414   0.14305287      11145.6     1000 
  706000   0.47618792   -2.2956521    0.7135676   -1.5820845   0.13687318    11145.021     1000 
  708000   0.47122786   -2.3585094   0.70613495   -1.6523744   0.13185025    11200.038     1000 
  710000   0.45411626   -2.3182817   0.68049321   -1.6377885   0.14161571     11014.46     1000 
  712000   0.46964495   -2.3195668   0.70376296   -1.6158038   0.13880354    11119.002     1000 
  714000    0.4793256   -2.3759368   0.71826941   -1.6576674   0.12975327    11223.446     1000 
  716000   0.45987591   -2.3482102   0.68912404   -1.6590862   0.12517668    11236.291     1000 
  718000   0.48834858   -2.3641004   0.73179034   -1.6323101   0.12528545    11145.897     1000 
  720000   0.47996823   -2.3386192   0.71923239   -1.6193868   0.12269886    11219.069     1000 
  722000   0.47919673   -2.3323956    0.7180763   -1.6143193   0.13080834    11215.037     1000 
  724000   0.47852918   -2.3733717   0.71707598   -1.6562957   0.13432736    11265.619     1000 
  726000   0.46777138   -2.3325067   0.70095541   -1.6315513   0.13669031    11179.176     1000 
  728000   0.46537813   -2.3565939   0.69736913   -1.6592247   0.13384127    11090.211     1000 
  730000   0.46936053   -2.2993287   0.70333676   -1.5959919   0.11782201    11190.463     1000 
  732000   0.45177432    -2.328596   0.67698382   -1.6516122   0.12600971    11123.862     1000 
  734000   0.46910271   -2.3496817   0.70295041   -1.6467313   0.12638087    11196.529     1000 
  736000    0.5032832   -2.3828174   0.75416987   -1.6286475   0.10813965    11320.259     1000 
  738000   0.47139807   -2.3399748   0.70639001   -1.6335848   0.12921985    11147.893     1000 
  740000   0.46650134    -2.356037   0.69905225   -1.6569847   0.14092986    11087.903     1000 
  742000   0.46576449   -2.3568677   0.69794809   -1.6589196   0.11503014    11365.857     1000 
  744000   0.45290911   -2.3110817    0.6786843   -1.6323974   0.12683693     11142.39     1000 
  746000   0.47692999   -2.2859106   0.71467959    -1.571231   0.12758855    11091.262     1000 
  748000   0.47853701   -2.3558745   0.71708771   -1.6387868   0.13328686    11228.964     1000 
  750000   0.47501622   -2.3276597   0.71181181   -1.6158479   0.13360369    11071.682     1000 
  752000    0.4830055   -2.2959888   0.72378375    -1.572205   0.12158448    11081.589     1000 
  754000   0.45315248   -2.3274749   0.67904899    -1.648426    0.1362848    11076.151     1000 
  756000   0.47229416   -2.3065514   0.70773279   -1.5988186    0.1186617     11230.01     1000 
  758000    0.4660207   -2.3715642   0.69833202   -1.6732322   0.11523137    11309.764     1000 
  760000   0.49771988   -2.3189538   0.74583324   -1.5731205   0.12170342    11252.292     1000 
  762000    0.4525665   -2.3268923   0.67817091   -1.6487214   0.13666661    11163.141     1000 
  764000   0.47150809   -2.3231967   0.70655487   -1.6166418    0.1309551    11175.642     1000 
  766000   0.47209033   -2.3563435   0.70742737   -1.6489161    0.1091894    11208.371     1000 
  768000   0.47378606   -2.3896799   0.70996842   -1.6797115   0.11948802    11299.542     1000 
  770000   0.47981709   -2.3420779   0.71900591    -1.623072   0.13075419    11172.263     1000 
  772000   0.46115763   -2.3268585    0.6910447   -1.6358138   0.12196137    11176.057     1000 
  774000   0.46140024   -2.3980822   0.69140826   -1.7066739   0.12183993    11202.802     1000 
  776000   0.46907088   -2.3561915   0.70290272   -1.6532888   0.13041826    11270.597     1000 
  778000   0.47975074   -2.3391194   0.71890649   -1.6202129   0.13846005    11112.587     1000 
  780000   0.47621796   -2.3352532   0.71361262   -1.6216406   0.14027897    11126.067     1000 
  782000   0.46781522    -2.312716   0.70102111   -1.6116949   0.12336795      11238.7     1000 
  784000    0.4804606   -2.3487071   0.71997021   -1.6287369   0.12605814      11245.8     1000 
  786000   0.44057161   -2.4052466   0.66019656     -1.74505   0.12913641    11278.576     1000 
  788000    0.4668002   -2.3407539   0.69950011   -1.6412538   0.12108722    11285.905     1000 
  790000   0.46332104   -2.3615391   0.69428658   -1.6672525   0.13130665    11120.643     1000 
  792000    0.4547598   -2.3509617   0.68145755   -1.6695042   0.13318861    11128.659     1000 
  794000   0.47111191   -2.3718698   0.70596119   -1.6659086   0.13817214    11219.518     1000 
  796000   0.46437237   -2.2811198     0.695862   -1.5852578   0.12097907    11191.653     1000 
  798000    0.4568725   -2.3493333   0.68462344   -1.6647098   0.13382708    11124.798     1000 
  800000   0.47411885   -2.3154109    0.7104671   -1.6049438   0.12564459    11163.374     1000 
  802000    0.4777161   -2.3271298   0.71585758   -1.6112723   0.13811473    11278.872     1000 
  804000   0.46696529   -2.3354243   0.69974749   -1.6356769   0.13078917    11228.448     1000 
  806000   0.45496787   -2.2904661   0.68176936   -1.6086968   0.14333354    11116.762     1000 
  808000   0.46632562    -2.321164   0.69878894   -1.6223751   0.13174935    11193.689     1000 
  810000   0.47628269   -2.3327712   0.71370961   -1.6190616     0.130894    11228.713     1000 
  812000   0.47476108   -2.2823498   0.71142948   -1.5709203    0.1316982    11132.765     1000 
  814000   0.47203285    -2.314976   0.70734123   -1.6076348   0.13643549    11069.777     1000 
  816000   0.47194044   -2.3920164   0.70720275   -1.6848136   0.12052241    11271.084     1000 
  818000   0.47738412   -2.3236001   0.71536011     -1.60824   0.14029424    11186.578     1000 
  820000   0.47220415   -2.3428471   0.70759792   -1.6352492    0.1295649    11260.061     1000 
  822000   0.46629276   -2.3268661    0.6987397   -1.6281264    0.1289585    11130.783     1000 
  824000   0.47839094    -2.335498   0.71686883   -1.6186292   0.13609293    11152.249     1000 
  826000   0.46876848   -2.3158825   0.70244957   -1.6134329   0.14115427    11068.025     1000 
  828000   0.47951507   -2.3634289   0.71855333   -1.6448755    0.1299676    11200.337     1000 
  830000   0.46900489   -2.3753133   0.70280382   -1.6725095   0.12071523    11269.269     1000 
  832000   0.48093798   -2.3290265   0.72068557   -1.6083409   0.12620579    11139.095     1000 
  834000   0.47191992   -2.3472313   0.70717201   -1.6400593   0.12786241    11136.002     1000 
  836000   0.46679767   -2.3165784   0.69949631   -1.6170821   0.12924867    11270.208     1000 
  838000   0.47748504   -2.3075187   0.71551134   -1.5920074   0.14391656    11081.937     1000 
  840000   0.46656812   -2.3629006   0.69915232   -1.6637483   0.12951839     11208.34     1000 
  842000    0.4970042   -2.3553781   0.74476079   -1.6106173   0.12901457    11204.412     1000 
  844000   0.46676158   -2.3513197   0.69944223   -1.6518775   0.10828435    11416.828     1000 
  846000   0.47214244   -2.3307695   0.70750545   -1.6232641   0.14000093      11136.2     1000 
  848000   0.46027852   -2.3167887   0.68972736   -1.6270613   0.13703621    11130.938     1000 
  850000   0.46145768   -2.3610993   0.69149433    -1.669605    0.1277074     11169.43     1000 
  852000   0.47464306   -2.3783232   0.71125263   -1.6670705   0.13670738    11178.775     1000 
  854000   0.47267797   -2.3330963   0.70830794   -1.6247884   0.12596673    11118.376     1000 
  856000   0.47337159    -2.347566   0.70934733   -1.6382187   0.12791242    11165.411     1000 
  858000    0.4723412   -2.3104354   0.70780329   -1.6026321    0.1352181    11219.815     1000 
  860000   0.47123631   -2.3762521   0.70614761   -1.6701045   0.14547774    11159.768     1000 
  862000   0.47889125   -2.3692254   0.71761854   -1.6516069   0.14398422    11150.658     1000 
  864000   0.47655489    -2.316758    0.7141175   -1.6026405   0.13987364    11052.408     1000 
  866000   0.48035252   -2.3241726   0.71980825   -1.6043643   0.13715246    11204.049     1000 
  868000   0.47680128   -2.3199897   0.71448671   -1.6055029    0.1403446     11068.12     1000 
  870000   0.46642328    -2.309678   0.69893528   -1.6107427   0.13480405    11144.907     1000 
  872000   0.46643373    -2.357721   0.69895095     -1.65877   0.12265774    11124.986     1000 
  874000   0.45662144   -2.3417129   0.68424723   -1.6574657    0.1236839    11150.929     1000 
  876000   0.46285091   -2.3615937   0.69358209   -1.6680116     0.113579    11230.393     1000 
  878000   0.47488379   -2.3665799   0.71161337   -1.6549665   0.12158728    11212.146     1000 
  880000   0.48280867    -2.381148    0.7234888   -1.6576592   0.12927706    11265.037     1000 
  882000   0.46700317   -2.3829937   0.69980425   -1.6831894   0.11741125    11320.502     1000 
  884000   0.46023212   -2.3106929   0.68965783   -1.6210351   0.12382929    11173.403     1000 
  886000   0.47542647   -2.3331037   0.71242656   -1.6206771   0.13021634     11237.18     1000 
  888000   0.47352344   -2.3291525   0.70957487   -1.6195777    0.1338381    11121.004     1000 
  890000   0.47754769   -2.3275623   0.71560521   -1.6119571   0.13132196    11078.816     1000 
  892000   0.46764404   -2.3590867   0.70076459   -1.6583221   0.12940342     11180.55     1000 
  894000   0.45361255   -2.3241197   0.67973841   -1.6443813   0.13439732    11124.316     1000 
  896000   0.46915559   -2.2854444   0.70302965   -1.5824147    0.1246968    11190.529     1000 
  898000   0.45593298   -2.3692585   0.68321557    -1.686043   0.11113859    11322.068     1000 
  900000   0.46100812   -2.3129753   0.69082067   -1.6221546   0.13018019    11205.698     1000 
  902000   0.48049583   -2.3584625   0.72002301   -1.6384395   0.12146258    11303.593     1000 
  904000   0.48300078   -2.3468815   0.72377667   -1.6231048   0.13750959    11104.741     1000 
  906000   0.47070784   -2.3681123   0.70535569   -1.6627566   0.13247829    11214.424     1000 
  908000   0.46449568   -2.3409391   0.69604677   -1.6448923   0.11593901    11131.148     1000 
  910000   0.46837102   -2.3589773   0.70185397   -1.6571234   0.13515675    11117.283     1000 
  912000    0.4676406   -2.3680142   0.70075944   -1.6672548   0.13969474    11069.761     1000 
  914000   0.47297863   -2.3289414   0.70875848    -1.620183    0.1520676    11014.144     1000 
  916000   0.44665618   -2.3151792   0.66931429   -1.6458649   0.12321151    11202.065     1000 
  918000   0.45673843   -2.3284538   0.68442254   -1.6440312   0.11682944    11388.024     1000 
  920000   0.47315139   -2.3341923   0.70901736    -1.625175   0.11992507    11226.486     1000 
  922000   0.46216512   -2.3219379   0.69255443   -1.6293835   0.12077072    11326.709     1000 
  924000   0.49927077   -2.3390602   0.74815724    -1.590903    0.1270433    11186.792     1000 
  926000   0.48612608   -2.3680285   0.72845993   -1.6395686   0.12036318    11280.108     1000 
  928000   0.48326627   -2.3093541   0.72417451   -1.5851796   0.12926805    11216.858     1000 
  930000   0.47212245   -2.3363516    0.7074755   -1.6288761   0.12878467    11172.507     1000 
  932000   0.47350689   -2.2771467   0.70955008   -1.5675966   0.13621299    11061.425     1000 
  934000   0.46179302   -2.3218502   0.69199684   -1.6298534   0.13266131    11165.837     1000 
  936000   0.48150165   -2.3448925   0.72153023   -1.6233623   0.12551502    11197.367     1000 
  938000   0.49138048   -2.3544103   0.73633365   -1.6180766   0.12879878    11304.081     1000 
  940000   0.45305224   -2.3446797   0.67889879   -1.6657809   0.12734757    11195.303     1000 
  942000    0.4493427   -2.3430958   0.67334004   -1.6697558   0.13077205    11302.812     1000 
  944000   0.49758543   -2.2993132   0.74563176   -1.5536814   0.12698109    11294.573     1000 
  946000    0.4560448   -2.3469814   0.68338313   -1.6635982   0.13062884    11108.919     1000 
  948000   0.46722014   -2.3797678   0.70012938   -1.6796384   0.12321647        11227     1000 
  950000   0.46470643   -2.3552557   0.69636258   -1.6588931   0.13415535    11258.187     1000 
  952000   0.47078951   -2.3425337   0.70547808   -1.6370556   0.14473416    11093.111     1000 
  954000   0.46675131   -2.3732294   0.69942684   -1.6738026   0.14526274    10997.504     1000 
  956000   0.47011388   -2.3873357   0.70446565   -1.6828701   0.11272904    11286.448     1000 
  958000   0.48456199   -2.3441138   0.72611614   -1.6179977    0.1275653    11102.522     1000 
  960000   0.46675849   -2.3940678    0.6994376   -1.6946302   0.13570751    11214.867     1000 
  962000   0.47453562   -2.3154871   0.71109162   -1.6043955   0.12323281    11254.499     1000 
  964000   0.49865209   -2.3606278   0.74723015   -1.6133977   0.11533734    11309.244     1000 
  966000   0.46269254    -2.337226   0.69334477   -1.6438812   0.14721987    11048.177     1000 
  968000     0.456872   -2.3618424   0.68462269   -1.6772197   0.12426538    11253.216     1000 
  970000   0.47408281   -2.3627292   0.71041309   -1.6523161    0.1370117    11089.146     1000 
  972000    0.4689074   -2.3465088   0.70265774    -1.643851   0.11452777    11369.236     1000 
  974000   0.45331481   -2.3632676   0.67929224   -1.6839753   0.13261347    11240.413     1000 
  976000   0.47830897   -2.3364519   0.71674599   -1.6197059   0.12973452     11125.99     1000 
  978000   0.48159713   -2.3470909   0.72167329   -1.6254176   0.11583364     11195.23     1000 
  980000    0.4661515   -2.3338303   0.69852802   -1.6353023   0.11546472    11286.365     1000 
  982000   0.47603894   -2.3411883   0.71334436    -1.627844    0.1296118    11145.113     1000 
  984000   0.48216728   -2.2979738   0.72252766   -1.5754462   0.13413471    10990.255     1000 
  986000    0.4636121   -2.3252493   0.69472274   -1.6305265   0.13359858    11055.906     1000 
  988000   0.48681767     -2.33874   0.72949627   -1.6092437   0.12818653    11292.949     1000 
  990000   0.45052412   -2.3592026    0.6751104   -1.6840922   0.12911334    11242.618     1000 
  992000   0.48625711    -2.327356   0.72865629   -1.5986997   0.13968172    11127.075     1000 
  994000   0.47907899    -2.358502   0.71789986   -1.6406021   0.12762504    11249.329     1000 
  996000   0.47041211   -2.3331486   0.70491255    -1.628236   0.14245962    11058.941     1000 
  998000   0.48201225   -2.3975089   0.72229536   -1.6752136   0.12690562    11330.463     1000 
 1000000    0.4757908   -2.3237962   0.71297251   -1.6108237   0.12492513    11329.604     1000 
 1002000   0.47881877   -2.3089335   0.71750993   -1.5914236   0.13275408    11250.634     1000 
 1004000   0.47063275   -2.3420191   0.70524318    -1.636776   0.13768592    11216.476     1000 
 1006000    0.4697929   -2.3203491   0.70398466   -1.6163644   0.13502295    11128.311     1000 
 1008000   0.48015318     -2.30674   0.71950955   -1.5872305   0.13065041    11112.475     1000 
 1010000   0.47558035   -2.3769723   0.71265716   -1.6643152   0.12929615     11270.83     1000 
 1012000   0.46686374   -2.3616651   0.69959532   -1.6620698   0.12204672     11122.44     1000 
 1014000   0.46299043   -2.3592239   0.69379116   -1.6654328     0.140661    11099.715     1000 
 1016000   0.46676616   -2.3334871   0.69944909    -1.634038   0.13542816    11161.999     1000 
 1018000   0.45891998   -2.3511091   0.68769158   -1.6634176   0.12003114    11215.737     1000 
 1020000   0.49854495   -2.2942207   0.74706961   -1.5471511   0.12733058    11241.794     1000 
 1022000   0.48403661   -2.3593346   0.72532886   -1.6340058   0.13042466    11244.991     1000 
 1024000    0.4571068   -2.3370105   0.68497454    -1.652036   0.13711653    11206.199     1000 
 1026000   0.45371488   -2.2693977   0.67989175    -1.589506   0.13826961     10955.42     1000 
 1028000   0.48943186   -2.3356576   0.73341365    -1.602244   0.13024498    11194.197     1000 
 1030000   0.47265212   -2.3589906   0.70826919   -1.6507214   0.12256208    11222.776     1000 
 1032000   0.46143798   -2.3522645   0.69146481   -1.6607997   0.12504895    11193.038     1000 
 1034000   0.45388495    -2.336291    0.6801466   -1.6561444   0.12697988    11158.781     1000 
 1036000   0.46585274   -2.3432349   0.69808032   -1.6451546   0.11925443    11129.946     1000 
 1038000   0.46887002   -2.3027933   0.70260173   -1.6001916   0.11660855    11196.333     1000 
 1040000    0.4914774   -2.3835356   0.73647888   -1.6470567   0.13002305    11130.911     1000 
 1042000   0.47325644   -2.3799159   0.70917477   -1.6707411   0.13192977    11224.056     1000 
 1044000   0.48611773   -2.3258949   0.72844742   -1.5974475   0.12182049    11339.204     1000 
 1046000   0.44580435    -2.314596   0.66803782   -1.6465582   0.11017475    11228.644     1000 
 1048000   0.47182362   -2.3406671   0.70702769   -1.6336394   0.13225011    11139.449     1000 
 1050000   0.45386292   -2.3211435   0.68011358   -1.6410299   0.13550431    11177.384     1000 
 1052000   0.47728945   -2.3720587   0.71521824   -1.6568404   0.12866159    11199.615     1000 
 1054000   0.46108832    -2.339692   0.69094085   -1.6487512   0.13373057    11153.817     1000 
 1056000   0.47567222   -2.3173718   0.71279482    -1.604577   0.13686275    11152.796     1000 
 1058000   0.46869787   -2.3218904   0.70234375   -1.6195466   0.13108922    11157.042     1000 
 1060000   0.49101666    -2.343764   0.73578847   -1.6079756   0.12045517    11322.864     1000 
 1062000   0.45439037   -2.3134292   0.68090397   -1.6325252   0.12421745    11144.206     1000 
 1064000    0.4708826   -2.4035776   0.70561757     -1.69796   0.14466214    11234.652     1000 
 1066000   0.46426807   -2.3217022    0.6957057   -1.6259965   0.13384051    11238.394     1000 
 1068000   0.47077749   -2.3077226   0.70546006   -1.6022625   0.13546487    11053.271     1000 
 1070000   0.47734659   -2.4144358   0.71530387   -1.6991319   0.12595006    11297.399     1000 
 1072000   0.47557561   -2.3280815   0.71265005   -1.6154314   0.13988748    11077.976     1000 
 1074000   0.47395327   -2.3034477   0.71021898   -1.5932287   0.13091284    11292.315     1000 
 1076000   0.48594829   -2.3753701   0.72819351   -1.6471766   0.12610145    11222.442     1000 
 1078000   0.46590796    -2.351083   0.69816307   -1.6529199   0.13977247    11144.381     1000 
 1080000   0.47042368   -2.3447937   0.70492988   -1.6398638   0.13549089    11112.267     1000 
 1082000   0.47886402    -2.343958   0.71757774   -1.6263802   0.12759125    11184.185     1000 
 1084000   0.46123305   -2.3466537   0.69115773    -1.655496   0.13070419    11151.427     1000 
 1086000   0.46570181   -2.3629989   0.69785416   -1.6651447   0.12516995    11399.389     1000 
 1088000   0.46600887   -2.3421634   0.69831429   -1.6438491   0.13981858    11074.601     1000 
 1090000   0.46754173   -2.3458153   0.70061128    -1.645204   0.12789565    11211.675     1000 
 1092000   0.47948946   -2.3790516   0.71851495   -1.6605366    0.1376042     11199.55     1000 
 1094000   0.46891772   -2.3383574    0.7026732   -1.6356842   0.13496299    11243.486     1000 
 1096000   0.45960396   -2.3703062   0.68871654   -1.6815897     0.117115    11274.001     1000 
 1098000   0.47570496   -2.3623896   0.71284388   -1.6495457   0.12493625    11259.745     1000 
 1100000   0.46063107   -2.3934755   0.69025566   -1.7032198   0.12171255    11246.804     1000 
 1102000   0.45380502   -2.3273541   0.68002682   -1.6473273   0.13671482    11127.552     1000 
 1104000   0.46903835   -2.3498475   0.70285397   -1.6469936    0.1347594     11222.64     1000 
 1106000   0.48415077   -2.3700742   0.72549993   -1.6445742   0.12162826    11271.277     1000 
 1108000   0.45713509   -2.3336374   0.68501693   -1.6486205   0.14639692    11063.188     1000 
 1110000   0.46735782   -2.3316262   0.70033569   -1.6312905   0.12568443    11063.761     1000 
 1112000   0.47260058   -2.3712033   0.70819196   -1.6630113    0.1267983    11111.958     1000 
 1114000   0.47812696    -2.318018   0.71647324   -1.6015447   0.13200919    11071.371     1000 
 1116000   0.50216969   -2.3109316   0.75250128   -1.5584303   0.14017601    11230.761     1000 
 1118000   0.46146602   -2.3475289   0.69150683    -1.656022   0.13180903    11151.858     1000 
 1120000     0.444505   -2.3605971   0.66609075   -1.6945063   0.12500853    11158.157     1000 
 1122000   0.47076055   -2.3901375   0.70543468   -1.6847028   0.11645548    11270.398     1000 
 1124000   0.47118566   -2.3970554   0.70607171   -1.6909837    0.1273763    11212.831     1000 
 1126000   0.49492439   -2.3182006    0.7416442   -1.5765564   0.13441797      11161.4     1000 
 1128000    0.4573167   -2.3276784   0.68528907   -1.6423893   0.13296757    11248.777     1000 
 1130000   0.48385938   -2.3345241   0.72506328   -1.6094608   0.14214336    11026.883     1000 
 1132000   0.46431122      -2.3764   0.69577036   -1.6806297   0.12098342    11285.665     1000 
 1134000   0.47523458   -2.3577888   0.71213902   -1.6456498   0.13048792    11136.301     1000 
 1136000    0.4877591    -2.332335     0.730907    -1.601428   0.14094033    11110.034     1000 
 1138000   0.48131078   -2.3036762    0.7212442    -1.582432   0.12524148    11119.967     1000 
 1140000   0.45771829   -2.3216387   0.68589085   -1.6357478   0.14169572    11001.532     1000 
 1142000   0.48040224     -2.34903   0.71988275   -1.6291472   0.12513664    11298.061     1000 
 1144000   0.46842906   -2.3433961   0.70194095   -1.6414551    0.1342029    11282.827     1000 
 1146000   0.45097821   -2.2913075   0.67579084   -1.6155167   0.13308437    11166.243     1000 
 1148000   0.46278132   -2.3526217   0.69347781   -1.6591438    0.1168142     11226.81     1000 
 1150000   0.45403402   -2.3297981   0.68036998   -1.6494281   0.12291573    11290.272     1000 
 1152000    0.4665619   -2.3193338   0.69914301   -1.6201908   0.12108473    11199.281     1000 
 1154000   0.45869504   -2.3597189   0.68735451   -1.6723644   0.12967347    11221.783     1000 
 1156000   0.44982524   -2.3340824   0.67406313   -1.6600192   0.12773925    11134.812     1000 
 1158000     0.470775   -2.3372145   0.70545633   -1.6317581   0.12639155    11201.318     1000 
 1160000   0.46663048   -2.3141658   0.69924578     -1.61492   0.12352846    11192.184     1000 
 1162000   0.43728058   -2.2880116   0.65526495   -1.6327467    0.1303717    11170.161     1000 
 1164000   0.43372071   -2.4061539   0.64993048   -1.7562235   0.12307568    11272.816     1000 
 1166000   0.46162086   -2.3218188   0.69173886   -1.6300799   0.13098221    11258.165     1000 
 1168000   0.46243486   -2.3243723   0.69295863   -1.6314136   0.12988019      11136.2     1000 
 1170000   0.47342852    -2.308741   0.70943263   -1.5993084   0.14455013    11002.033     1000 
 1172000   0.46886924   -2.3181454   0.70260055   -1.6155448   0.12868917    11369.257     1000 
 1174000   0.45699294   -2.3457232   0.68480392   -1.6609193   0.11710633    11311.639     1000 
 1176000   0.48472073    -2.389137   0.72635402    -1.662783   0.13060695    11206.701     1000 
 1178000   0.47416933   -2.3159163   0.71054274   -1.6053736   0.12666366    11215.231     1000 
 1180000   0.48111393   -2.3576473   0.72094923    -1.636698   0.12404736    11191.815     1000 
 1182000   0.45957139   -2.3595574   0.68866772   -1.6708897   0.11882387    11150.985     1000 
 1184000   0.46564857   -2.3329641   0.69777438   -1.6351898   0.13365975    11189.402     1000 
 1186000   0.49357223   -2.3346666   0.73961799   -1.5950486    0.1303453    11141.356     1000 
 1188000   0.48112236   -2.3807243   0.72096186   -1.6597625   0.12968395    11197.959     1000 
 1190000   0.47742996   -2.3515541    0.7154288   -1.6361253   0.12948211    11184.404     1000 
 1192000   0.43356019   -2.3581469   0.64968994    -1.708457   0.13041633    11230.664     1000 
 1194000     0.467588   -2.2879743   0.70068062   -1.5872937   0.11781692    11250.049     1000 
 1196000   0.45545774    -2.295585   0.68250342   -1.6130816   0.13662588    10984.834     1000 
 1198000    0.4679291   -2.3741753   0.70119175   -1.6729836   0.14163213    11097.112     1000 
 1200000   0.47493001   -2.3747242   0.71168262   -1.6630415   0.12729897    11368.796     1000 
 1202000   0.47688881   -2.3060885   0.71461788   -1.5914707   0.13169475    11150.661     1000 
 1204000   0.48372642   -2.3691717   0.72486403   -1.6443076   0.12380842    11331.923     1000 
 1206000   0.46484888   -2.3352911   0.69657604    -1.638715   0.13027205     11129.53     1000 
 1208000   0.44454803   -2.3416254   0.66615523   -1.6754702   0.13849022    11106.026     1000 
 1210000   0.45849639   -2.3773274   0.68705685   -1.6902706   0.13088267    11227.607     1000 
 1212000   0.47844268   -2.3070388   0.71694636   -1.5900925   0.12159047    11334.165     1000 
 1214000    0.4713895   -2.3885941   0.70637717   -1.6822169   0.13504965     11322.95     1000 
 1216000   0.47564386   -2.3445564   0.71275232    -1.631804   0.12833764    11187.449     1000 
 1218000   0.47652242   -2.3745726   0.71406885   -1.6605037   0.12559765    11266.563     1000 
 1220000   0.47281309   -2.2773808   0.70851042   -1.5688704    0.1187826    11177.122     1000 
 1222000   0.47691865   -2.3343492    0.7146626   -1.6196866   0.14344082     11173.92     1000 
 1224000   0.48853206   -2.3343172   0.73206529   -1.6022519    0.1465268    11211.715     1000 
 1226000   0.48405571   -2.3099123   0.72535748   -1.5845548   0.12509309    11267.773     1000 
 1228000   0.45777066   -2.3310691   0.68596933   -1.6450998   0.13164119    11173.938     1000 
 1230000   0.46466503    -2.344317   0.69630055   -1.6480164   0.13388674    11212.999     1000 
 1232000   0.47600151   -2.3768358   0.71328826   -1.6635475   0.12605622    11301.741     1000 
 1234000   0.47723908   -2.3430859   0.71514276   -1.6279431    0.1221271     11232.23     1000 
 1236000   0.43984052     -2.29047   0.65910101    -1.631369   0.13444285    11010.928     1000 
 1238000   0.46309344   -2.3153286   0.69394551   -1.6213831   0.13981568    11082.234     1000 
 1240000   0.47488138   -2.3785776   0.71160974   -1.6669678   0.13269187    11296.677     1000 
 1242000   0.46279069   -2.3211957   0.69349186   -1.6277038   0.12877485    11276.112     1000 
 1244000   0.45092663   -2.3483207   0.67571356   -1.6726071   0.14966491    10994.045     1000 
 1246000    0.4751773   -2.3280561   0.71205319   -1.6160029   0.13285679    11151.371     1000 
 1248000   0.48337613   -2.3153539   0.72433913   -1.5910147   0.13183397    11121.637     1000 
 1250000   0.47155788   -2.3387912   0.70662948   -1.6321617   0.12505402    11229.393     1000 
 1252000   0.47284788   -2.3043993   0.70856255   -1.5958368   0.12376232    11140.942     1000 
 1254000   0.46618452    -2.354438    0.6985775   -1.6558605   0.13319938    11256.648     1000 
 1256000   0.48855772   -2.3692495   0.73210374   -1.6371458    0.1200526    11185.347     1000 
 1258000   0.46656941   -2.3734897   0.69915426   -1.6743354   0.14239516    11067.606     1000 
 1260000   0.48646311   -2.3717577   0.72896496   -1.6427928   0.12982158     11290.51     1000 
 1262000   0.45976523   -2.3732186    0.6889582   -1.6842604   0.13277043    11165.731     1000 
 1264000   0.46127572   -2.3249928   0.69122166   -1.6337711   0.14541785    11047.725     1000 
 1266000   0.48002633   -2.3072592   0.71931945   -1.5879397   0.13446079    11147.323     1000 
 1268000   0.46435655   -2.3646634    0.6958383   -1.6688252   0.12828668     11166.18     1000 
 1270000   0.46721459    -2.375124   0.70012107   -1.6750029   0.14259376    11192.533     1000 
 1272000    0.4501193   -2.3584563   0.67450377   -1.6839525   0.12185182     11181.24     1000 
 1274000   0.46392962   -2.3552356   0.69519854   -1.6600371   0.12960552    11263.302     1000 
 1276000   0.47167651   -2.3318687   0.70680726   -1.6250615    0.1336451    11123.441     1000 
 1278000   0.47872466   -2.3662718    0.7173689   -1.6489029   0.13264695     11248.88     1000 
 1280000    0.4574466   -2.3089375   0.68548372   -1.6234538   0.12531925    11215.516     1000 
 1282000   0.45751313   -2.3608814   0.68558342   -1.6752979   0.14418817    11092.984     1000 
 1284000   0.46110523   -2.3375759   0.69096618   -1.6466097   0.14219444    11089.686     1000 
 1286000   0.47401928   -2.3384988   0.71031789   -1.6281809   0.14014186    11020.781     1000 
 1288000   0.44613356   -2.3217842   0.66853115   -1.6532531   0.13760255    11124.846     1000 
 1290000   0.48411215   -2.3554862   0.72544206   -1.6300441   0.12951426    11225.136     1000 
 1292000   0.47719643   -2.3185574   0.71507886   -1.6034786   0.13075914    11198.357     1000 
 1294000   0.46122948   -2.3774691   0.69115238   -1.6863167   0.13350155    11190.464     1000 
 1296000   0.47394629   -2.3585475   0.71020851   -1.6483389   0.13525296    11095.902     1000 
 1298000   0.48218981    -2.361773   0.72256143   -1.6392116   0.13207328    11210.822     1000 
 1300000   0.47108717   -2.3543386   0.70592412   -1.6484145   0.12673454     11248.92     1000 
 1302000    0.4650879   -2.3388449   0.69693422   -1.6419107    0.1369943    11198.571     1000 
 1304000   0.45546528   -2.3117372   0.68251472   -1.6292225   0.14526714     11132.02     1000 
 1306000   0.46590178   -2.3471214   0.69815382   -1.6489676   0.12014165    11182.881     1000 
 1308000   0.45181725   -2.3163411   0.67704816   -1.6392929    0.1160988    11271.409     1000 
 1310000   0.45733571   -2.3922329   0.68531756   -1.7069153   0.11972096    11263.868     1000 
 1312000   0.46272836   -2.3574236   0.69339845   -1.6640251   0.12531787    11309.351     1000 
 1314000   0.46296806   -2.3848261   0.69375765   -1.6910685   0.11565369    11309.225     1000 
 1316000   0.46273617   -2.3528672   0.69341015   -1.6594571   0.12989617    11266.715     1000 
 1318000   0.46833469   -2.3450153   0.70179954   -1.6432157   0.14189289    11151.795     1000 
 1320000   0.48772581     -2.31406   0.73085713   -1.5832028    0.1291929    11216.098     1000 
 1322000   0.46141953   -2.3199795   0.69143717   -1.6285423   0.12033832    11369.506     1000 
 1324000   0.47247617   -2.3279261   0.70800554   -1.6199206   0.13411208    10963.288     1000 
 1326000    0.4585978   -2.2853161   0.68720881   -1.5981073   0.13414873    10946.254     1000 
 1328000    0.4733542   -2.3801656   0.70932127   -1.6708444   0.13023651     11273.81     1000 
 1330000   0.47582844   -2.3969091   0.71302891   -1.6838802   0.12855128    11170.113     1000 
 1332000   0.46423336   -2.3712953   0.69565369   -1.6756416   0.13262779     11136.06     1000 
 1334000   0.47702903    -2.336082     0.714828    -1.621254   0.14304302    11209.879     1000 
 1336000   0.46032111   -2.3332848   0.68979119   -1.6434936    0.1301186     11195.13     1000 
 1338000   0.47121004   -2.3613014   0.70610824   -1.6551932   0.14982738    11217.262     1000 
 1340000   0.47827379   -2.3381599   0.71669328   -1.6214666   0.12772165    11207.142     1000 
 1342000   0.46215126   -2.3563824   0.69253366   -1.6638487   0.12961019    11354.577     1000 
 1344000   0.46421437   -2.2935307   0.69562524   -1.5979054    0.1371002     11088.42     1000 
 1346000   0.47819968   -2.3449125   0.71658223   -1.6283303   0.13209806    11041.689     1000 
 1348000   0.46627915   -2.2989622   0.69871931   -1.6002429     0.132935    11001.961     1000 
 1350000   0.48458125     -2.28082     0.726145    -1.554675   0.14351633    11082.506     1000 
 1352000   0.48301166   -2.3127328   0.72379298   -1.5889398   0.13154828    11211.698     1000 
 1354000   0.47473722   -2.3437266   0.71139373   -1.6323329    0.1398184    11158.773     1000 
 1356000   0.47088547   -2.3626844   0.70562187   -1.6570625   0.11750181    11252.733     1000 
 1358000   0.48731662   -2.3455022   0.73024396   -1.6152582   0.13095519    11206.999     1000 
 1360000   0.47436177   -2.3989194   0.71083111   -1.6880883   0.13395048    11279.428     1000 
 1362000   0.47048586   -2.3003411   0.70502306   -1.5953181   0.13419641    11000.047     1000 
 1364000   0.51303374   -2.2949632   0.76878105   -1.5261821   0.12470865    11131.892     1000 
 1366000   0.48961553   -2.3811077   0.73368887   -1.6474188   0.12527556    11198.697     1000 
 1368000   0.45159063   -2.3567611   0.67670857   -1.6800525   0.12332087    11261.473     1000 
 1370000   0.46450045   -2.3220437   0.69605393   -1.6259897   0.12063473    11181.552     1000 
 1372000    0.4777249   -2.3206356   0.71587076   -1.6047648   0.12162315    11185.512     1000 
 1374000   0.45239151   -2.3404588   0.67790868   -1.6625501   0.12353299    11140.873     1000 
 1376000   0.46347107   -2.3865089   0.69451139   -1.6919975   0.12629456    11263.699     1000 
 1378000   0.46897504    -2.325512    0.7027591   -1.6227529   0.13278107    11177.858     1000 
 1380000   0.46155059   -2.3591705   0.69163356    -1.667537   0.12074414    11267.681     1000 
 1382000    0.4694498   -2.3798932   0.70347053   -1.6764227   0.12620178    11336.907     1000 
 1384000   0.47888829   -2.3673266    0.7176141   -1.6497125   0.14356104    11274.968     1000 
 1386000   0.48449911   -2.3362268   0.72602192   -1.6102049   0.13496376    11088.041     1000 
 1388000   0.46336834   -2.3098741   0.69435745   -1.6155166   0.14465661    11015.899     1000 
 1390000   0.47105742   -2.3170277   0.70587954   -1.6111481   0.13364658    11102.874     1000 
 1392000   0.46387403   -2.3898937   0.69511524   -1.6947784   0.13057137    11334.907     1000 
 1394000   0.48979525   -2.3426698   0.73395818   -1.6087116   0.11304931    11397.323     1000 
 1396000   0.44347853   -2.3178411   0.66455258   -1.6532885   0.13509893    11092.814     1000 
 1398000   0.47121758   -2.3671861   0.70611955   -1.6610666   0.12131692    11304.469     1000 
 1400000   0.45820671    -2.360731   0.68662275   -1.6741082   0.13313268    11108.654     1000 
 1402000   0.47559811   -2.3516544   0.71268377   -1.6389707    0.1200439    11187.643     1000 
 1404000   0.47246284   -2.3091714   0.70798557   -1.6011859   0.13536621    11056.787     1000 
 1406000   0.47175214   -2.3477235   0.70692058   -1.6408029   0.11659851    11240.662     1000 
 1408000   0.46219737   -2.3347615   0.69260276   -1.6421587   0.13316363    11200.052     1000 
 1410000   0.47554321   -2.3634408    0.7126015   -1.6508393   0.11778639    11360.025     1000 
 1412000   0.46049597   -2.3270052   0.69005322   -1.6369519   0.12931003    11200.221     1000 
 1414000   0.46816234    -2.318647   0.70154127   -1.6171057   0.12960197    11183.179     1000 
 1416000   0.46972667   -2.3734262   0.70388542   -1.6695408   0.12668761    11264.715     1000 
 1418000   0.46242019   -2.3481931   0.69293666   -1.6552565   0.12093118    11173.301     1000 
 1420000   0.48118755   -2.3744842   0.72105954   -1.6534246   0.11442012    11244.777     1000 
 1422000   0.46421923   -2.3255954   0.69563251   -1.6299629   0.14087114    11074.612     1000 
 1424000   0.46440288   -2.3583104   0.69590772   -1.6624027   0.12410955     11129.32     1000 
 1426000   0.48007025   -2.3162059   0.71938528   -1.5968207   0.13229418    11188.348     1000 
 1428000   0.48544832   -2.3580477   0.72744431   -1.6306034   0.12371716    11223.236     1000 
 1430000    0.4784178   -2.3267511   0.71690908   -1.6098421   0.13805272    11300.113     1000 
 1432000   0.47157098   -2.3113126   0.70664912   -1.6046635   0.12823098    11192.139     1000 
 1434000   0.47098223    -2.333178   0.70576687   -1.6274111   0.13144763    11112.349     1000 
 1436000   0.46863439   -2.3714917   0.70224864   -1.6692431    0.1234155     11308.45     1000 
 1438000    0.4596012   -2.3569703   0.68871241   -1.6682579   0.13388553    11119.548     1000 
 1440000   0.48257922   -2.3560147   0.72314495   -1.6328698   0.13279912    11102.114     1000 
 1442000   0.46315449   -2.3659741   0.69403701   -1.6719371   0.12670128    11262.431     1000 
 1444000   0.45353109   -2.3513849   0.67961634   -1.6717685   0.12207686    11310.362     1000 
 1446000   0.50462616   -2.2860895   0.75618231   -1.5299072   0.12666767    11119.947     1000 
 1448000   0.47459625   -2.3783079   0.71118249   -1.6671254   0.13145458    11139.757     1000 
 1450000   0.47812547   -2.2993217   0.71647101   -1.5828506   0.13343857    11147.273     1000 
 1452000   0.48953372   -2.3760535   0.73356629   -1.6424872    0.1464744    11097.576     1000 
 1454000   0.47205948   -2.3012609   0.70738113   -1.5938798   0.13881749    11087.064     1000 
 1456000   0.46728509     -2.36311    0.7002267   -1.6628833   0.14290308    11157.796     1000 
 1458000   0.47955116   -2.3446937   0.71860742   -1.6260863   0.13748026    11236.952     1000 
 1460000    0.4617111   -2.3290554   0.69187409   -1.6371813   0.12795143    11173.246     1000 
 1462000   0.47110992   -2.3298165   0.70595822   -1.6238583      0.13064    11156.702     1000 
 1464000   0.44161786   -2.3249699   0.66176436   -1.6632055   0.13348639    11115.107     1000 
 1466000   0.47053434   -2.2927215   0.70509572   -1.5876258   0.11919736    11248.918     1000 
 1468000   0.44635422   -2.3360498    0.6688618    -1.667188   0.13079628    11199.003     1000 
 1470000   0.45733619   -2.3406309   0.68531829   -1.6553126   0.13037171    11227.735     1000 
 1472000   0.47514667   -2.3522082   0.71200729   -1.6402009    0.1271596    11103.453     1000 
 1474000   0.47095091   -2.3125492   0.70571993   -1.6068293   0.12034946    11279.065     1000 
 1476000   0.46591501   -2.3106985   0.69817364   -1.6125249   0.12783299    11256.203     1000 
 1478000   0.48456183   -2.3301251   0.72611591   -1.6040092   0.12949845    11187.132     1000 
 1480000   0.48842406   -2.3525706   0.73190345   -1.6206672   0.11918556    11371.779     1000 
 1482000   0.48580518   -2.3705932   0.72797906   -1.6426142   0.13185858    11411.863     1000 
 1484000   0.45892359   -2.3206412     0.687697   -1.6329442   0.12539835    11218.416     1000 
 1486000   0.45592401   -2.3098062   0.68320213   -1.6266041    0.1416288    11031.062     1000 
 1488000   0.47256539   -2.3768298   0.70813924   -1.6686905   0.11710897     11308.68     1000 
 1490000   0.46056276   -2.3700276    0.6901533   -1.6798743    0.1207334    11249.704     1000 
 1492000    0.4584985    -2.340162   0.68706001    -1.653102   0.13954047    11009.241     1000 
 1494000   0.47675869    -2.357944    0.7144229   -1.6435211   0.12849027    11140.945     1000 
 1496000   0.46620794   -2.3007698   0.69861259   -1.6021572   0.13143214    11148.864     1000 
 1498000    0.4971683   -2.3096165   0.74500669   -1.5646098   0.14342409    10947.031     1000 
 1500000   0.47587584   -2.4019135   0.71309994   -1.6888136   0.12535459    11201.067     1000 
 1502000      0.45797   -2.3314009   0.68626805   -1.6451328   0.12969004    11180.718     1000 
 1504000   0.46991546   -2.3529373   0.70416832    -1.648769   0.12215155    11258.924     1000 
 1506000   0.47681745   -2.3133431   0.71451094   -1.5988322   0.12321163    11228.395     1000 
 1508000   0.48497221   -2.3285087   0.72673086   -1.6017778    0.1364212        11109     1000 
 1510000   0.45993754   -2.3693719   0.68921641   -1.6801555   0.14411576     11236.45     1000 
 1512000    0.4756431    -2.311818   0.71275119   -1.5990668   0.13039581    11164.088     1000 
 1514000   0.48186458   -2.3451167   0.72207407   -1.6230426   0.14128133    11136.134     1000 
 1516000   0.46443728   -2.3138268   0.69595926   -1.6178675   0.13475606    11153.656     1000 
 1518000   0.46816957   -2.4061022    0.7015521   -1.7045501   0.12276311    11260.588     1000 
 1520000   0.48450302   -2.3351862   0.72602778   -1.6091584   0.12797626    11199.753     1000 
 1522000   0.45077946   -2.3202841   0.67549303   -1.6447911   0.11827312    11359.369     1000 
 1524000   0.47367562    -2.403953   0.70980291   -1.6941501   0.12448855    11241.072     1000 
 1526000   0.46430443   -2.3578075   0.69576019   -1.6620473   0.12331433     11225.94     1000 
 1528000    0.4857154   -2.3151148   0.72784453   -1.5872702   0.13227386    11212.988     1000 
 1530000   0.45463092   -2.3462317   0.68126443   -1.6649673   0.13011041     11153.23     1000 
 1532000   0.46693194   -2.3919935   0.69969751    -1.692296   0.13145697    11212.178     1000 
 1534000   0.46529142    -2.326055   0.69723919   -1.6288158   0.14657983    11031.307     1000 
 1536000   0.45748404   -2.3224163   0.68553983   -1.6368765    0.1409736    11075.014     1000 
 1538000   0.46074834   -2.3444281   0.69043138   -1.6539967   0.13316306    11106.954     1000 
 1540000   0.48532204   -2.3636333   0.72725508   -1.6363782   0.12899472    11211.849     1000 
 1542000   0.45466337   -2.3257613   0.68131306   -1.6444482   0.14227102     11081.67     1000 
 1544000   0.46915515     -2.33772   0.70302899    -1.634691   0.13619389     11116.69     1000 
 1546000    0.4691139   -2.3277698   0.70296718   -1.6248026   0.13060482    11287.785     1000 
 1548000    0.4804194    -2.366764   0.71990847   -1.6468555   0.12677089    11204.836     1000 
 1550000   0.44837311    -2.342525   0.67188711   -1.6706379   0.12709262    11169.681     1000 
 1552000   0.45216659   -2.3313853   0.67757164   -1.6538137   0.13135063    11083.344     1000 
 1554000   0.48464244   -2.3294479   0.72623669   -1.6032113    0.1415637    11203.282     1000 
 1556000   0.47228814   -2.3045571   0.70772378   -1.5968334   0.13384922    11157.633     1000 
 1558000   0.46330896   -2.2804962   0.69426848   -1.5862277   0.13655147    10969.785     1000 
 1560000   0.47557151   -2.3249142    0.7126439   -1.6122703   0.12600426    11110.052     1000 
 1562000   0.48405735   -2.3467485   0.72535993   -1.6213885   0.13527002    11253.617     1000 
 1564000   0.46953688   -2.3522968   0.70360101   -1.6486958   0.12975855    11086.276     1000 
 1566000   0.45852551   -2.3364417   0.68710048   -1.6493413   0.13261751    11288.887     1000 
 1568000   0.46939829     -2.31136   0.70339334   -1.6079666   0.13781099    11159.175     1000 
 1570000   0.45636597    -2.290231   0.68386441   -1.6063666   0.12257691    11149.236     1000 
 1572000   0.46709768   -2.3296164   0.69994587   -1.6296705   0.13397266    11079.736     1000 
 1574000   0.45728441   -2.3606054   0.68524069   -1.6753647   0.12662464    11233.431     1000 
 1576000   0.47779855   -2.4157649   0.71598112   -1.6997838   0.13442026    11193.837     1000 
 1578000   0.46000062   -2.2845617   0.68931093   -1.5952508   0.13271384    11122.974     1000 
 1580000   0.46869827   -2.3980016   0.70234436   -1.6956572   0.13426828    11216.066     1000 
 1582000    0.4778312   -2.2524859   0.71603005   -1.5364559   0.13287964    10999.464     1000 
 1584000   0.45010584   -2.3564727    0.6744836   -1.6819892    0.1372446    11100.585     1000 
 1586000   0.46899435   -2.3022842   0.70278804   -1.5994962   0.13302423    11060.273     1000 
 1588000   0.46813397   -2.3465746   0.70149875   -1.6450759   0.14119628    11052.566     1000 
 1590000   0.45726389   -2.3305601   0.68520994   -1.6453501   0.13511606    11081.925     1000 
 1592000   0.46946742   -2.3221825   0.70349694   -1.6186855   0.14145534    11230.149     1000 
 1594000   0.47847783   -2.3374978   0.71699903   -1.6204988   0.11812946     11217.43     1000 
 1596000   0.44892602   -2.3543294   0.67271565   -1.6816138   0.13333306    11242.962     1000 
[...]
 2612000   0.47643445   -2.2955488   0.71393703   -1.5816118   0.13540715    11015.728     1000 
 2614000   0.47868731   -2.3278174   0.71731293   -1.6105045   0.12840972    11267.061     1000 
 2616000    0.4796317   -2.2877999    0.7187281   -1.5690718   0.13683921    11119.989     1000 
 2618000    0.4817917   -2.3085274   0.72196487   -1.5865625   0.13479245    11123.821     1000 
 2620000   0.46597611   -2.3891543    0.6982652   -1.6908891   0.12108273     11233.41     1000 
 2622000   0.44155625   -2.3154123   0.66167204   -1.6537403    0.1383988    11063.117     1000 
 2624000   0.47642424   -2.3740386   0.71392173   -1.6601169    0.1379881    11081.726     1000 
 2626000   0.47106795   -2.4218575   0.70589533   -1.7159622   0.12295984    11211.726     1000 
 2628000   0.45918501    -2.357968   0.68808874   -1.6698792   0.12989946    11205.435     1000 
 2630000   0.46987397   -2.3259731   0.70410614   -1.6218669   0.13827828    11010.932     1000 
 2632000   0.46933619     -2.35996   0.70330027   -1.6566598   0.12842663    11163.744     1000 
 2634000    0.4605556   -2.3974936   0.69014257    -1.707351   0.12135897    11303.738     1000 
 2636000   0.46306579   -2.3456274   0.69390409   -1.6517233    0.1159719    11294.729     1000 
 2638000   0.47638067   -2.3361756   0.71385643   -1.6223192   0.13295625    11311.305     1000 
 2640000   0.47230305   -2.3554963   0.70774613   -1.6477502   0.12795468    11165.395     1000 
 2642000   0.48616194   -2.3734028   0.72851367   -1.6448891   0.13759801    11200.782     1000 
 2644000   0.47227521   -2.3547502    0.7077044   -1.6470458   0.13796738    11234.986     1000 
 2646000   0.49325162   -2.3486755   0.73913755    -1.609538   0.13335691    11217.601     1000 
 2648000   0.44804959   -2.3408685   0.67140231   -1.6694662   0.13315284    11232.166     1000 
 2650000   0.47871549   -2.3792735   0.71735516   -1.6619184   0.11905335    11389.944     1000 
 2652000   0.44645061   -2.2911866   0.66900624   -1.6221804   0.13433078      11126.7     1000 
 2654000   0.46942742   -2.3740331   0.70343699   -1.6705961   0.13303945    11209.354     1000 
 2656000   0.48618778   -2.4049445    0.7285524   -1.6763921   0.10794549    11351.755     1000 
 2658000   0.45133322   -2.3870154   0.67632283   -1.7106925   0.12236048     11200.89     1000 
 2660000   0.46776696   -2.3183242    0.7009488   -1.6173754   0.13549829    11118.325     1000 
 2662000   0.47404956   -2.3688194   0.71036327   -1.6584562   0.12334724    11326.046     1000 
 2664000   0.46813698    -2.311663   0.70150327   -1.6101598   0.12852457    11147.058     1000 
 2666000   0.45584351   -2.3316635    0.6830815    -1.648582   0.13197986    11198.879     1000 
 2668000   0.48225816    -2.401259   0.72266385   -1.6785952   0.13681837    11248.703     1000 
 2670000     0.479399    -2.326053    0.7183794   -1.6076736   0.13579606    11266.596     1000 
 2672000   0.47874583   -2.3318336   0.71740062    -1.614433   0.13432801    11140.418     1000 
 2674000    0.4670245   -2.3467827   0.69983621   -1.6469465   0.13205642    11205.213     1000 
 2676000   0.47545744    -2.369841   0.71247298    -1.657368   0.12188936    11368.725     1000 
 2678000   0.46673966   -2.3177933   0.69940938    -1.618384   0.13719712    11065.145     1000 
 2680000    0.4711751   -2.4090175   0.70605589   -1.7029616   0.12262162    11364.479     1000 
 2682000   0.48479497   -2.3012392   0.72646527   -1.5747739   0.13854678    11073.524     1000 
 2684000   0.47476121   -2.3492461   0.71142967   -1.6378165    0.1380061    10992.667     1000 
 2686000   0.46999991   -2.3893687   0.70429486   -1.6850739   0.12435611    11254.648     1000 
 2688000   0.47274416   -2.3484661   0.70840713    -1.640059   0.12705717    11206.466     1000 
 2690000   0.45876434   -2.4043236   0.68745837   -1.7168652   0.12091007    11256.671     1000 
 2692000    0.4542639   -2.3127625   0.68071446   -1.6320481   0.12243066    11135.112     1000 
 2694000   0.46386661   -2.3531538   0.69510412   -1.6580497   0.11637059    11376.483     1000 
 2696000   0.49058692   -2.3099882    0.7351445   -1.5748437   0.14351975    11129.936     1000 
 2698000   0.47260693   -2.3362335   0.70820148    -1.628032   0.12755004     11258.92     1000 
 2700000   0.46076128   -2.3309471   0.69045078   -1.6404963   0.12228626    11170.272     1000 
 2702000   0.48074169   -2.3557141   0.72039142   -1.6353227   0.12721299    11179.239     1000 
 2704000   0.45588788   -2.3567011   0.68314799   -1.6735531   0.11792504    11313.585     1000 
 2706000   0.47354883   -2.3580801   0.70961292   -1.6484672   0.12194027    11286.194     1000 
 2708000   0.49380366   -2.3467441   0.73996479   -1.6067793   0.13075158    11131.575     1000 
 2710000    0.4636955    -2.347109   0.69484771   -1.6522613   0.13131618    11240.567     1000 
 2712000   0.46772374   -2.3498953   0.70088403   -1.6490113   0.13139282    11181.931     1000 
 2714000    0.4796102    -2.342289   0.71869589   -1.6235931   0.12615681    11195.592     1000 
 2716000   0.46694185   -2.3336302   0.69971236   -1.6339178   0.12259462    11180.947     1000 
 2718000   0.46639545   -2.3468714   0.69889358   -1.6479778   0.12375243    11177.868     1000 
 2720000   0.47655382   -2.3263944   0.71411591   -1.6122785   0.13687275     11114.97     1000 
 2722000   0.46663014   -2.3505759   0.69924527   -1.6513306   0.12352338    11231.694     1000 
 2724000   0.47166347   -2.3346494   0.70678772   -1.6278617    0.1318771    11176.382     1000 
 2726000    0.4530565   -2.4262313   0.67890516   -1.7473261   0.12231087    11319.535     1000 
 2728000   0.46475902   -2.3344468   0.69644139   -1.6380054   0.13917915    11112.649     1000 
 2730000   0.45957235   -2.3944447   0.68866917   -1.7057755   0.12660397    11326.434     1000 
 2732000   0.49698101   -2.3477451   0.74472605    -1.603019    0.1239977    11273.642     1000 
 2734000   0.47622742   -2.3523677   0.71362679   -1.6387409    0.1343898    11065.144     1000 
 2736000    0.4580692   -2.2791775   0.68641669   -1.5927608    0.1368275    11095.594     1000 
 2738000   0.46727326   -2.3181344   0.70020898   -1.6179254   0.13897258    11032.877     1000 
 2740000   0.47613674   -2.2899549    0.7134909    -1.576464   0.12524024    11146.674     1000 
 2742000     0.465792   -2.3517531   0.69798931   -1.6537638   0.12707143    11400.384     1000 
 2744000   0.46205833   -2.3649032   0.69239441   -1.6725088   0.12237386    11320.789     1000 
 2746000   0.46217887    -2.328028   0.69257504    -1.635453   0.11560787     11254.78     1000 
 2748000   0.47862911   -2.3654818   0.71722572   -1.6482561   0.14543572    11083.993     1000 
 2750000   0.47099067   -2.3681995   0.70577952     -1.66242   0.12672828    11263.913     1000 
 2752000   0.48385384   -2.3220451   0.72505499   -1.5969901   0.13243577    11309.043     1000 
 2754000   0.49190202   -2.3541261   0.73711518   -1.6170109   0.13707729    11134.017     1000 
 2756000   0.47889651   -2.3932499   0.71762641   -1.6756235   0.13592039    11264.199     1000 
 2758000   0.47124423   -2.3602342   0.70615948   -1.6540747    0.1334565    11102.549     1000 
 2760000   0.45629133   -2.3460835   0.68375255   -1.6623309   0.12914504    11297.599     1000 
 2762000   0.45587161   -2.3625503   0.68312361   -1.6794267   0.12174153    11334.903     1000 
 2764000   0.46734344   -2.3102627   0.70031415   -1.6099486   0.14582794    11117.098     1000 
 2766000   0.46357964   -2.3098049    0.6946741   -1.6151308   0.13476932    11159.265     1000 
 2768000    0.4729356   -2.3220641   0.70869399   -1.6133701   0.12538157    11157.616     1000 
 2770000   0.48054097   -2.3498134   0.72009065   -1.6297228   0.13701862    11058.843     1000 
 2772000   0.45204991    -2.299629   0.67739679   -1.6222322    0.1257219    11152.288     1000 
 2774000   0.43735756   -2.3459093    0.6553803    -1.690529   0.12955152    11160.952     1000 
 2776000   0.47281124   -2.3096013   0.70850765   -1.6010937   0.13122508     11176.11     1000 
 2778000   0.46833889   -2.3565291   0.70180583   -1.6547232   0.12630342    11151.198     1000 
 2780000    0.4901835   -2.2390061   0.73453998   -1.5044661   0.13457738    11126.697     1000 
 2782000   0.49451223   -2.3326774   0.74102658   -1.5916508   0.14499154    11098.424     1000 
 2784000   0.46728445   -2.3265577   0.70022575    -1.626332   0.13809397    11137.141     1000 
 2786000   0.46833317   -2.3326297   0.70179726   -1.6308325   0.14325934    11076.162     1000 
 2788000   0.49186448   -2.3411495   0.73705892   -1.6040906   0.13131799    11111.665     1000 
 2790000   0.45913799   -2.3386605   0.68801828   -1.6506422   0.13255016    11201.584     1000 
 2792000   0.47144022   -2.3327592   0.70645317    -1.626306   0.11757332    11213.773     1000 
 2794000    0.4685436    -2.347293   0.70211259   -1.6451804   0.13416901    11249.927     1000 
 2796000   0.49500408    -2.336242   0.74176362   -1.5944783    0.1310072    11228.217     1000 
 2798000   0.48940115   -2.3431508   0.73336762   -1.6097832   0.12706406    11279.183     1000 
 2800000   0.46295127   -2.3517471   0.69373247   -1.6580146   0.14027356     11161.96     1000 
 2802000   0.48161832   -2.3373033   0.72170505   -1.6155983   0.13094227    11092.768     1000 
 2804000   0.48365493   -2.3346341   0.72475691   -1.6098772   0.12388601    11317.279     1000 
 2806000   0.45882222   -2.3790018    0.6875451   -1.6914567     0.123817    11301.281     1000 
 2808000    0.4582238   -2.3668179   0.68664837   -1.6801695   0.13753345    11180.252     1000 
 2810000   0.47211618   -2.3609548    0.7074661   -1.6534887   0.13405026    11153.047     1000 
 2812000    0.4612947    -2.395768   0.69125011   -1.7045179   0.10802985    11314.141     1000 
 2814000   0.45571109   -2.3212583   0.68288307   -1.6383753   0.12918355    11136.592     1000 
 2816000   0.48015249   -2.2973704    0.7195085   -1.5778619   0.15076717    11101.015     1000 
 2818000   0.47920275   -2.3428493   0.71808531    -1.624764   0.12873578    11271.715     1000 
 2820000   0.46786357   -2.2458907   0.70109355   -1.5447972   0.12817647    11159.586     1000 
 2822000   0.48637403   -2.3303796   0.72883149   -1.6015481   0.12008347    11191.854     1000 
 2824000   0.46965009   -2.3478349   0.70377066   -1.6440643   0.12827039     11212.73     1000 
 2826000   0.45777461   -2.3386097   0.68597526   -1.6526344   0.12943046    11183.699     1000 
 2828000   0.48562751   -2.3502134   0.72771282   -1.6225006   0.13750124     11116.24     1000 
 2830000   0.48749367   -2.3023201   0.73050926   -1.5718108    0.1199638    11198.103     1000 
 2832000   0.46861149   -2.3676395   0.70221432   -1.6654252   0.11597782     11325.85     1000 
 2834000   0.44823937   -2.3391053    0.6716867   -1.6674186   0.11928298    11310.951     1000 
 2836000   0.47656919    -2.326367   0.71413893   -1.6122281   0.13661947     11039.02     1000 
 2838000   0.47023213   -2.3503431   0.70464284   -1.6457002   0.11444445    11346.858     1000 
 2840000   0.45914976   -2.3085809   0.68803591   -1.6205449   0.12227674    11213.166     1000 
 2842000   0.47034964   -2.3650997   0.70481893   -1.6602808   0.13067921    11047.345     1000 
 2844000   0.46155588   -2.3236364   0.69164149   -1.6319949   0.11472152    11146.379     1000 
 2846000   0.45642497   -2.3825494   0.68395282   -1.6985966   0.13730919    11161.695     1000 
 2848000   0.47357632   -2.3043719   0.70965412   -1.5947178   0.13399846    11132.028     1000 
 2850000    0.4816759   -2.3290811   0.72179133   -1.6072898   0.13454995    11163.297     1000 
 2852000   0.46825662   -2.2963089   0.70168254   -1.5946264   0.14617963    11132.192     1000 
 2854000   0.46854462   -2.3725467   0.70211411   -1.6704326   0.12474306    11271.193     1000 
 2856000   0.49003802   -2.3627042   0.73432198   -1.6283822   0.13277426    11216.079     1000 
 2858000   0.45982864   -2.3154345   0.68905321   -1.6263813   0.11902185    11295.109     1000 
 2860000   0.47603787   -2.3491765   0.71334274   -1.6358337   0.11566332    11345.086     1000 
 2862000   0.44460531   -2.2976087   0.66624106   -1.6313676   0.11531016    11253.975     1000 
 2864000   0.46071427   -2.3289999   0.69038034   -1.6386196   0.12174032    11261.188     1000 
 2866000   0.46721485   -2.3493987   0.70012145   -1.6492773   0.12529759    11002.293     1000 
 2868000   0.47231763   -2.2912272   0.70776797   -1.5834593   0.12082156    11177.955     1000 
 2870000   0.46600955   -2.3411896   0.69831531   -1.6428743    0.1246296    11233.099     1000 
 2872000   0.46560285   -2.3407206   0.69770587   -1.6430148   0.12856873    11163.873     1000 
 2874000   0.47346216   -2.3258507   0.70948305   -1.6163677   0.13717512    11159.968     1000 
 2876000   0.46503356   -2.3337186   0.69685279   -1.6368658   0.11694972    11061.077     1000 
 2878000   0.46022998   -2.3462739   0.68965462   -1.6566192   0.12896248    11186.343     1000 
 2880000   0.48603921    -2.311819   0.72832975   -1.5834893   0.13799298     11215.68     1000 
 2882000   0.47169495    -2.373273   0.70683488   -1.6664381   0.11962399    11236.021     1000 
 2884000   0.46283399   -2.3550692   0.69355673   -1.6615125   0.12623127    11218.433     1000 
 2886000    0.4677158   -2.3272911   0.70087212   -1.6264189   0.11769058    11361.692     1000 
 2888000   0.44893265   -2.2964509   0.67272557   -1.6237254   0.13049947    11155.156     1000 
 2890000   0.48675717   -2.3394985   0.72940563   -1.6100929   0.13397432    11246.085     1000 
 2892000   0.46320445   -2.3251692   0.69411187   -1.6310573   0.14046069    11094.003     1000 
 2894000   0.47897097   -2.4016824     0.717738   -1.6839444   0.13164008    11195.901     1000 
 2896000    0.4769549   -2.3528967   0.71471692   -1.6381798   0.11948494     11119.38     1000 
 2898000   0.48202941   -2.3428745   0.72232107   -1.6205534   0.12164696    11358.706     1000 
 2900000   0.48395107   -2.3180971   0.72520068   -1.5928964   0.12422198    11226.692     1000 
 2902000   0.44869467   -2.2883482   0.67236897   -1.6159792   0.13502968    11144.955     1000 
 2904000   0.46684888    -2.308907   0.69957305   -1.6093339   0.13970669    11044.687     1000 
 2906000   0.46864301   -2.3337166   0.70226155   -1.6314551   0.12892242    11233.606     1000 
 2908000    0.4597081   -2.3939763   0.68887259   -1.7051037   0.13290998    11149.084     1000 
 2910000   0.48484069   -2.3126333   0.72653377   -1.5860995   0.14006492    11040.732     1000 
 2912000   0.45621269   -2.3157918   0.68363471   -1.6321571   0.12852872    11153.853     1000 
 2914000   0.51164947   -2.4030569   0.76670674   -1.6363501   0.13045293    11131.776     1000 
 2916000   0.50069048   -2.3343162   0.75028468   -1.5840315   0.13155182    11225.085     1000 
 2918000   0.47557036   -2.3254823   0.71264219   -1.6128401   0.14243685    11065.912     1000 
 2920000   0.46242082   -2.3516642    0.6929376   -1.6587266   0.13021803      11102.2     1000 
 2922000   0.47526515   -2.3592574   0.71218482   -1.6470726   0.11532605    11332.991     1000 
 2924000    0.4776916   -2.3219595   0.71582086   -1.6061387   0.12905339    11193.918     1000 
 2926000   0.47034808   -2.3218378    0.7048166   -1.6170212   0.14476314    11040.374     1000 
 2928000   0.46661604   -2.3367325   0.69922414   -1.6375083   0.14031563    11054.136     1000 
 2930000   0.48348519   -2.3609998   0.72450255   -1.6364972   0.12420205    11274.525     1000 
 2932000   0.47346235   -2.3195124   0.70948333   -1.6100291   0.13102162    11096.255     1000 
 2934000   0.47009079   -2.3200297   0.70443105   -1.6155987    0.1358661    11200.342     1000 
 2936000   0.47158843   -2.3230359   0.70667527   -1.6163606   0.13671133    11171.812     1000 
 2938000   0.46859929   -2.3307167   0.70219604   -1.6285206      0.13298    11108.012     1000 
 2940000   0.46101579   -2.3767512   0.69083216    -1.685919    0.1370021     11223.99     1000 
 2942000   0.46233286   -2.3146291   0.69280579   -1.6218233   0.13513812    11129.158     1000 
 2944000   0.48178641   -2.2855488   0.72195694   -1.5635918   0.12552504     11149.63     1000 
 2946000   0.48201292   -2.3523501   0.72229636   -1.6300537   0.13082036     11111.22     1000 
 2948000   0.46317764   -2.2933613   0.69407169   -1.5992896    0.1424164    10937.382     1000 
 2950000   0.49636474   -2.3376049   0.74380256   -1.5938024   0.12223032    11324.933     1000 
 2952000   0.44632729   -2.3281189   0.66882145   -1.6592974   0.12084525    11149.825     1000 
 2954000   0.45922325   -2.2997681   0.68814603   -1.6116221   0.12924463     11162.07     1000 
 2956000   0.45718431   -2.3162586   0.68509069   -1.6311679   0.13411269    11189.805     1000 
 2958000   0.46029713   -2.3456815   0.68975525   -1.6559263   0.14240773    11088.747     1000 
 2960000   0.47900252   -2.3643903   0.71778528   -1.6466051   0.12414635    11351.486     1000 
 2962000   0.45401449   -2.3475888   0.68034072   -1.6672481   0.13135188    11115.409     1000 
 2964000   0.46688571   -2.3725236   0.69962824   -1.6728954   0.14296709    11138.966     1000 
 2966000   0.46801216    -2.340944   0.70131622   -1.6396278   0.13904791    11147.013     1000 
 2968000   0.48411571   -2.3478475   0.72544739   -1.6224002   0.12771105    11306.575     1000 
 2970000   0.49094136    -2.316499   0.73567563   -1.5808233   0.14079105    11121.595     1000 
 2972000   0.47304212   -2.3519122   0.70885362   -1.6430586   0.13351476    11111.436     1000 
 2974000   0.46034177   -2.3202466   0.68982215   -1.6304244   0.13159958    11160.035     1000 
 2976000   0.47375271   -2.3189944   0.70991844   -1.6090759   0.14082263    11142.673     1000 
 2978000   0.47005069   -2.2992275   0.70437095   -1.5948566   0.12717739    11145.723     1000 
 2980000   0.46510749   -2.3728567   0.69696357   -1.6758931   0.11736073    11380.654     1000 
 2982000   0.46028807   -2.3312212   0.68974167   -1.6414796   0.12593191    11148.362     1000 
 2984000   0.46680727   -2.3271918   0.69951069   -1.6276811   0.13807314    11161.584     1000 
 2986000     0.459875   -2.3006903   0.68912269   -1.6115676   0.12918815      11097.3     1000 
 2988000   0.47509586   -2.3653201   0.71193115   -1.6533889   0.12153138    11257.966     1000 
 2990000   0.45178352   -2.3578655   0.67699761   -1.6808679   0.14065131    11186.087     1000 
 2992000    0.4600426   -2.3317687   0.68937384   -1.6423948   0.11749598    11238.367     1000 
 2994000   0.47522342   -2.3866292   0.71212229   -1.6745069   0.12563614    11291.117     1000 
 2996000   0.49768025   -2.4056247   0.74577386   -1.6598509   0.13452394    11183.649     1000 
 2998000   0.48918191   -2.3138772   0.73303909   -1.5808381   0.12299157    11235.257     1000 
 3000000    0.4718319    -2.342572    0.7070401   -1.6355319   0.12525001    11117.467     1000 
Loop time of 1926.94 on 4 procs for 3000000 steps with 1000 atoms

Performance: 672569.395 tau/day, 1556.874 timesteps/s
96.7% CPU use with 4 MPI tasks x no OpenMP threads

MPI task timing breakdown:
Section |  min time  |  avg time  |  max time  |%varavg| %total
---------------------------------------------------------------
Pair    | 1459.5     | 1522.5     | 1589.2     | 128.6 | 79.01
Neigh   | 112.9      | 114.71     | 116.16     |  11.3 |  5.95
Comm    | 166.97     | 235.5      | 300.4      | 335.3 | 12.22
Output  | 0.027417   | 0.030515   | 0.039768   |   3.1 |  0.00
Modify  | 45.007     | 45.247     | 45.549     |   2.9 |  2.35
Other   |            | 8.98       |            |       |  0.47

Nlocal:    250 ave 253 max 246 min
Histogram: 1 0 0 0 0 1 0 1 0 1
Nghost:    2439.25 ave 2460 max 2417 min
Histogram: 1 0 0 1 0 0 1 0 0 1
Neighs:    26693.2 ave 28543 max 24611 min
Histogram: 1 0 0 0 1 0 0 1 0 1

Total # of neighbors = 106773
Ave neighs/atom = 106.773
Neighbor list builds = 150000
Dangerous builds not checked

Total wall time: 0:32:06
