LAMMPS (3 Mar 2020)
# ----------------------- Inicialização -----------------------

units			lj
atom_style 		atomic
dimension 		3
boundary 		p p p

# -------------------- Criação dos Átomos ---------------------

read_data 		topologia.txt
  orthogonal box = (0 0 0) to (21.54 21.54 21.54)
  1 by 2 by 2 MPI processor grid
  reading atoms ...
  1000 atoms
  read_data CPU = 0.00223378 secs

velocity 		all create ${temp} 87287 rot yes dist gaussian
velocity 		all create 0.49 87287 rot yes dist gaussian

# ------------------ Interação Interatômica -------------------

pair_style		table linear 1600
pair_coeff		1 1 force.table AA 8.0
WARNING: 3 of 1600 force values in table are inconsistent with -dE/dr.
  Should only be flagged at inflection points (src/pair_table.cpp:483)
pair_coeff		1 2 force.table AB 8.0
WARNING: 1 of 1600 force values in table are inconsistent with -dE/dr.
  Should only be flagged at inflection points (src/pair_table.cpp:483)
pair_coeff		2 2 force.table BB 8.0
pair_write		1 1 1600 r 0.008 8.0 table.check AA
Neighbor list info ...
  update every 1 steps, delay 10 steps, check yes
  max neighbors/atom: 2000, page size: 100000
  master list distance cutoff = 8.3
  ghost atom cutoff = 8.3
  binsize = 4.15, bins = 6 6 6
  1 neighbor lists, perpetual/occasional/extra = 1 0 0
  (1) pair table, perpetual
      attributes: half, newton on
      pair build: half/bin/atomonly/newton
      stencil: half/bin/3d/newton
      bin: standard
pair_write		1 2 1600 r 0.008 8.0 table.check AB
pair_write		2 2 1600 r 0.008 8.0 table.check BB

neighbor 		0.3 bin
neigh_modify		every 20 delay 0 check no

# ------------------------- Ensemble --------------------------------------

fix 1			all npt temp ${temp} ${temp} 0.5 iso ${press} ${press} 5
fix 1			all npt temp 0.49 ${temp} 0.5 iso ${press} ${press} 5
fix 1			all npt temp 0.49 0.49 0.5 iso ${press} ${press} 5
fix 1			all npt temp 0.49 0.49 0.5 iso 0.13 ${press} 5
fix 1			all npt temp 0.49 0.49 0.5 iso 0.13 0.13 5

# ---------------------- Função de Distribuição Radial -----------------------

#compute RDF 		all rdf 2000 1 1 1 2 2 2
#fix 2 			all ave/time 1 2000 2000 c_RDF[*] file rdf.data mode vector

# ------------------------- Execução ---------------------------

timestep 		0.005
thermo_style		custom step temp pe ke etotal press vol atoms
thermo			2000
run			3000000
Per MPI rank memory allocation (min/avg/max) = 2.675 | 2.675 | 2.675 Mbytes
Step Temp PotEng KinEng TotEng Press Volume Atoms 
       0         0.49   0.29699107     0.734265    1.0312561   0.93284777    9993.9483     1000 
    2000   0.49291761   -2.2458043   0.73863704   -1.5071672   0.13258845    11206.755     1000 
    4000   0.49656999   -2.2707884   0.74411013   -1.5266783   0.13453259    11182.544     1000 
    6000   0.50026965   -2.3198262   0.74965407   -1.5701722   0.13054283     11160.77     1000 
    8000   0.47087148   -2.3043938   0.70560091   -1.5987929   0.13530779    11249.581     1000 
   10000   0.48965672   -2.2759948    0.7337506   -1.5422442   0.12803249    11126.848     1000 
   12000   0.50098529   -2.2636519   0.75072645   -1.5129254   0.13450696    11112.666     1000 
   14000   0.48430526   -2.2987852   0.72573143   -1.5730538   0.13761423    11144.543     1000 
   16000   0.48582713   -2.3227258   0.72801196   -1.5947139   0.11677535    11222.055     1000 
   18000    0.4805668   -2.2421343   0.72012935   -1.5220049   0.14028361    11121.462     1000 
   20000   0.48711253   -2.2640031   0.72993813   -1.5340649   0.13854621    11189.807     1000 
   22000   0.47563423   -2.2949053   0.71273789   -1.5821674   0.15418741    11024.171     1000 
   24000   0.49463302     -2.36744   0.74120758   -1.6262324   0.12868093    11281.713     1000 
   26000   0.50081504   -2.2560403   0.75047133    -1.505569   0.12925151      11116.5     1000 
   28000   0.48123354   -2.3209013   0.72112845   -1.5997729   0.13359434    11257.255     1000 
   30000   0.46942027   -2.3315154   0.70342627   -1.6280891   0.12107996    11395.244     1000 
   32000   0.48736829   -2.2911834   0.73032138    -1.560862   0.12893677    11177.459     1000 
   34000    0.4775024   -2.3204474   0.71553735     -1.60491   0.12890491    11176.089     1000 
   36000    0.4953251    -2.234793   0.74224467   -1.4925483   0.11563513    11132.802     1000 
   38000   0.48416291   -2.2768907   0.72551812   -1.5513725   0.12483157    11180.431     1000 
   40000   0.50786005   -2.2610036   0.76102829   -1.4999753   0.13041041    11076.409     1000 
   42000     0.485512   -2.3126389   0.72753972   -1.5850992   0.12572281    11227.811     1000 
   44000   0.49093735   -2.2585571   0.73566961   -1.5228875   0.13222712    11164.283     1000 
   46000   0.49854608   -2.2624466   0.74707131   -1.5153753   0.12844237    11276.402     1000 
   48000    0.4802202   -2.2756783   0.71960998   -1.5560683   0.12759917    11274.476     1000 
   50000    0.4674783   -2.2665194   0.70051623   -1.5660032   0.13102111    11224.258     1000 
   52000   0.50249764   -2.2568975   0.75299271   -1.5039048   0.14218882    11043.009     1000 
   54000   0.49382245   -2.2580755   0.73999295   -1.5180826   0.13476028    11148.218     1000 
   56000   0.47877615   -2.3367848   0.71744606   -1.6193387    0.1410614    11184.122     1000 
   58000   0.49238984   -2.2425252   0.73784617    -1.504679    0.1229083    11160.269     1000 
   60000   0.49627348   -2.3320567    0.7436658   -1.5883909   0.11523912    11213.719     1000 
   62000   0.48093336   -2.2895447   0.72067863   -1.5688661   0.12494027    11246.756     1000 
   64000   0.46589893   -2.2576175   0.69814954    -1.559468   0.14043319    11119.821     1000 
   66000   0.49438282   -2.2835869   0.74083265   -1.5427543   0.13620983    11041.244     1000 
   68000   0.47424284   -2.2633384   0.71065289   -1.5526855   0.12545234    11233.566     1000 
   70000   0.50277322   -2.3158633   0.75340567   -1.5624576   0.12809943    11178.862     1000 
   72000   0.47991959   -2.3094353    0.7191595   -1.5902758   0.13280039    11221.006     1000 
   74000   0.47524677   -2.2816485   0.71215728   -1.5694913   0.13377133     11106.61     1000 
   76000   0.49378905   -2.2880038   0.73994289   -1.5480609   0.13304321    11215.478     1000 
   78000   0.50648057    -2.296241   0.75896114   -1.5372798   0.13754462    11098.579     1000 
   80000   0.48888428   -2.3104898   0.73259309   -1.5778967   0.13181654    11162.091     1000 
   82000   0.51912478     -2.26398   0.77790849   -1.4860715   0.12498515    11355.553     1000 
   84000   0.48250688   -2.3105844   0.72303656   -1.5875479    0.1296574    11250.274     1000 
   86000   0.47269444   -2.2411017   0.70833262   -1.5327691   0.14225253    10990.528     1000 
   88000   0.49317841   -2.2883952   0.73902785   -1.5493674   0.13901183    11095.938     1000 
   90000   0.49779509   -2.3318288   0.74594595   -1.5858829   0.12315455    11307.816     1000 
   92000   0.50558609   -2.2471277   0.75762076    -1.489507   0.12957602     11259.99     1000 
   94000    0.4899482   -2.3334274   0.73418737     -1.59924   0.12555548    11305.135     1000 
   96000   0.49989503   -2.3057319   0.74909271   -1.5566392   0.12976258    11148.883     1000 
   98000   0.51061814   -2.2496426   0.76516128   -1.4844814   0.12589905    11189.891     1000 
  100000   0.46390458   -2.2808147   0.69516101   -1.5856537   0.13391352    11272.197     1000 
  102000    0.4948108   -2.2660925   0.74147399   -1.5246185   0.12043157    11288.719     1000 
  104000   0.50253164   -2.2712725   0.75304366   -1.5182288   0.12534341    11200.213     1000 
  106000   0.47887681   -2.3067438    0.7175969   -1.5891469   0.13948098    11210.162     1000 
  108000   0.49760311   -2.2753572   0.74565826   -1.5296989   0.12007783     11381.63     1000 
  110000   0.48047434   -2.2631934    0.7199908   -1.5432026   0.12651214     11110.02     1000 
  112000   0.48218377   -2.2748342   0.72255238   -1.5522818   0.13172713    11172.837     1000 
  114000   0.48113232   -2.2953377   0.72097678   -1.5743609   0.12965359    11215.321     1000 
  116000   0.49330822   -2.2599092   0.73922236   -1.5206869   0.13283229    11143.296     1000 
  118000   0.48830301   -2.3166357   0.73172206   -1.5849136   0.12871666    11244.551     1000 
  120000   0.49727897   -2.2570449   0.74517253   -1.5118724   0.11966979    11209.083     1000 
  122000   0.47589634   -2.2485717   0.71313066   -1.5354411   0.12699047    11156.739     1000 
  124000   0.48151411   -2.2751418   0.72154889   -1.5535929   0.13122317     11222.19     1000 
  126000   0.50184186   -2.2802518   0.75201003   -1.5282417   0.13978427    11027.832     1000 
  128000   0.49899028    -2.326894   0.74773694   -1.5791571   0.12256504    11309.657     1000 
  130000    0.4883352   -2.2899664    0.7317703   -1.5581961   0.12071154    11108.208     1000 
  132000   0.48453113   -2.2557113    0.7260699   -1.5296414   0.13152953    11277.791     1000 
  134000   0.50527068    -2.285385   0.75714811   -1.5282369   0.12952514    11159.696     1000 
  136000   0.49605443   -2.3358294   0.74333757   -1.5924918    0.1301073    11208.557     1000 
  138000   0.49526938   -2.2946491   0.74216117   -1.5524879   0.12727383    11201.073     1000 
  140000   0.48611348   -2.2503424   0.72844105   -1.5219013   0.13224034    11185.423     1000 
  142000    0.4706242   -2.2997226   0.70523037   -1.5944922   0.11416651    11251.945     1000 
  144000   0.49111257   -2.3104505   0.73593219   -1.5745184   0.12192908    11239.873     1000 
  146000    0.5018317   -2.2990212   0.75199481   -1.5470264    0.1131725    11241.369     1000 
  148000   0.48351005    -2.309843   0.72453981   -1.5853032   0.12950119    11215.346     1000 
  150000   0.50547149    -2.293777   0.75744903    -1.536328   0.14389362    11008.253     1000 
  152000   0.47285463   -2.2665068   0.70857267   -1.5579341    0.1219624    11301.466     1000 
  154000   0.50468315   -2.2665226   0.75626769   -1.5102549   0.14363741    11087.133     1000 
  156000   0.48267473   -2.2714216   0.72328808   -1.5481335   0.12322628    11258.994     1000 
  158000   0.49983017    -2.290823   0.74899551   -1.5418275   0.12097228    11194.621     1000 
  160000   0.46886613   -2.3019146    0.7025959   -1.5993187   0.12293636    11258.492     1000 
  162000    0.5036716   -2.2892512   0.75475189   -1.5344993   0.11801655    11261.242     1000 
  164000   0.48373737   -2.2793748   0.72488044   -1.5544943   0.13305074      11252.6     1000 
  166000   0.47498614    -2.224104   0.71176673   -1.5123373   0.12434337    11153.629     1000 
  168000   0.47792202   -2.3090284   0.71616615   -1.5928623   0.12382828    11121.862     1000 
  170000   0.49443913   -2.3076405   0.74091704   -1.5667235   0.12859621    11279.538     1000 
  172000   0.51168246   -2.2721961   0.76675617   -1.5054399   0.13432367    11111.908     1000 
  174000   0.48239382   -2.2791627   0.72286715   -1.5562955   0.13973942    11180.952     1000 
  176000   0.50217726   -2.3176979   0.75251263   -1.5651853   0.12782399    11241.662     1000 
  178000   0.47765333   -2.2607041   0.71576351   -1.5449406   0.12918881    11189.833     1000 
  180000   0.48042007   -2.2966065   0.71990948    -1.576697   0.12588119    11148.115     1000 
  182000   0.49447369   -2.3042381   0.74096883   -1.5632692   0.12550394      11353.4     1000 
  184000   0.48653507   -2.2894059    0.7290728   -1.5603331   0.12818457    11113.947     1000 
  186000   0.49541968   -2.2412162   0.74238639   -1.4988298   0.13706178    11135.981     1000 
  188000   0.49532135    -2.290179   0.74223904     -1.54794   0.13441792     11234.52     1000 
  190000   0.51606118   -2.2853201   0.77331768   -1.5120025   0.11894115     11422.43     1000 
  192000   0.47233314   -2.2937177   0.70779121   -1.5859265   0.12464432     11158.64     1000 
  194000   0.48855793    -2.294378   0.73210406   -1.5622739    0.1221228    11370.563     1000 
  196000   0.49392792   -2.2272275   0.74015099   -1.4870765   0.13383896     11149.37     1000 
  198000     0.476321    -2.363201   0.71376702    -1.649434   0.10596934    11444.021     1000 
  200000   0.49751126   -2.3000913   0.74552062   -1.5545707   0.12951865    11069.769     1000 
  202000   0.50436756   -2.3036988   0.75579479    -1.547904   0.13927193    11090.022     1000 
  204000   0.49621166    -2.242655   0.74357317   -1.4990819   0.12899705    11176.166     1000 
  206000   0.51268859   -2.2729053   0.76826385   -1.5046415   0.11865411    11257.286     1000 
  208000   0.48827764   -2.2830216   0.73168404   -1.5513376    0.1290021    11170.194     1000 
  210000   0.48401937   -2.3039404   0.72530303   -1.5786374   0.12910863    11155.417     1000 
  212000   0.51101535   -2.2690053    0.7657565   -1.5032488   0.13436804    11187.581     1000 
  214000   0.48945178   -2.2596971   0.73344349   -1.5262536   0.13689726    11104.826     1000 
  216000    0.4967223   -2.3379318   0.74433837   -1.5935934   0.13171822    11213.278     1000 
  218000   0.50195764   -2.3105726   0.75218352    -1.558389   0.11627171    11328.536     1000 
  220000   0.48783508   -2.2935925   0.73102086   -1.5625716   0.12600543    11175.917     1000 
  222000   0.44640307   -2.3154394     0.668935   -1.6465044   0.10698765    11422.799     1000 
  224000   0.50257963   -2.2651582   0.75311557   -1.5120426    0.1248222    11190.387     1000 
  226000   0.49452942    -2.317087   0.74105233   -1.5760346   0.12170213    11331.547     1000 
  228000   0.47215092   -2.3103138   0.70751815   -1.6027957   0.13744086     11273.54     1000 
  230000   0.50053629   -2.3247575   0.75005363   -1.5747039   0.11877105    11325.437     1000 
  232000   0.49061285   -2.3159591   0.73518336   -1.5807757    0.1237311    11191.918     1000 
  234000   0.47415546   -2.2380717   0.71052196   -1.5275497   0.12868982    10972.515     1000 
  236000     0.467031   -2.2876298   0.69984595   -1.5877838   0.13363965    11197.546     1000 
  238000   0.51066169   -2.2907162   0.76522655   -1.5254897   0.13720971    11256.741     1000 
  240000   0.48243609   -2.2690046   0.72293048   -1.5460742   0.13006128    11088.231     1000 
  242000   0.49696962   -2.3105813   0.74470898   -1.5658723   0.13228321    11175.428     1000 
  244000   0.47446442   -2.2998176   0.71098493   -1.5888327    0.1417317    11022.196     1000 
  246000   0.49441659   -2.2463759   0.74088327   -1.5054926   0.13857205    11107.916     1000 
  248000   0.50770378   -2.2991536   0.76079411   -1.5383595   0.14061635    11183.167     1000 
  250000   0.46691232    -2.299314   0.69966812   -1.5996459   0.13074544     11269.23     1000 
  252000   0.48946752   -2.3177794   0.73346707   -1.5843123   0.12419171    11317.387     1000 
  254000   0.50411281    -2.290891   0.75541304   -1.5354779    0.1230971    11249.499     1000 
  256000   0.47705928   -2.2564139   0.71487333   -1.5415406   0.12855498    11111.531     1000 
  258000   0.49981471   -2.3429299   0.74897235   -1.5939576     0.128351    11373.363     1000 
  260000   0.48488335   -2.3015222   0.72659771   -1.5749245   0.13452083    11114.104     1000 
  262000   0.49992068   -2.2992831   0.74913115    -1.550152   0.12582585    11128.663     1000 
  264000   0.48051472   -2.3247531   0.72005131   -1.6047018   0.12670023    11226.885     1000 
  266000   0.48110014    -2.289925   0.72092857   -1.5689965   0.12909453    11114.978     1000 
  268000     0.504292   -2.3252094   0.75568156   -1.5695279   0.11966899     11424.23     1000 
  270000   0.47858385   -2.3019341   0.71715789   -1.5847762   0.12201036    11192.194     1000 
  272000   0.48725688   -2.2382754   0.73015443    -1.508121   0.13422264    11191.728     1000 
  274000   0.47618418   -2.3229756   0.71356199   -1.6094136    0.1275979     11170.52     1000 
  276000   0.48636566   -2.2690213   0.72881895   -1.5402024   0.12911032    11258.752     1000 
  278000   0.49874351    -2.312376   0.74736715   -1.5650088   0.11869862    11275.886     1000 
  280000    0.4999558   -2.2899376   0.74918377   -1.5407539   0.12170808    11245.433     1000 
  282000   0.48953277   -2.2915592   0.73356486   -1.5579944   0.11433936    11366.599     1000 
  284000   0.51098578    -2.249448    0.7657122   -1.4837358   0.12881593    11287.044     1000 
  286000   0.49792473   -2.3002501   0.74614021   -1.5541099   0.12317238    11150.526     1000 
  288000   0.46334344   -2.2894319   0.69432014   -1.5951118   0.11835086    11362.232     1000 
  290000   0.51745987   -2.2562197   0.77541362   -1.4808061   0.13659591    11207.847     1000 
  292000   0.50582685   -2.3159162   0.75798153   -1.5579346   0.13780777    11119.631     1000 
  294000   0.50064309   -2.3292319   0.75021367   -1.5790182   0.11363401    11429.633     1000 
  296000   0.50313343   -2.2989599   0.75394544   -1.5450144    0.1393705    11201.243     1000 
  298000   0.49722003   -2.2630818   0.74508421   -1.5179975   0.12186034    11076.976     1000 
  300000   0.46561851   -2.2647611   0.69772934   -1.5670317   0.11890131    11205.936     1000 
  302000   0.48777725   -2.2934729    0.7309342   -1.5625387   0.12107268    11244.006     1000 
  304000   0.48246464   -2.2888508   0.72297326   -1.5658775   0.12365801    11157.945     1000 
  306000    0.5012447   -2.3168169   0.75111518   -1.5657018   0.12429224    11290.858     1000 
  308000    0.5060711    -2.267829   0.75834755   -1.5094815   0.13082817    11178.968     1000 
  310000   0.48095668   -2.2962292   0.72071359   -1.5755156   0.12849898    11211.543     1000 
  312000   0.47853444     -2.30178   0.71708386   -1.5846961   0.12750434     11156.91     1000 
  314000    0.4941194   -2.2466523   0.74043791   -1.5062143   0.12950681    11124.945     1000 
  316000   0.49210254   -2.3043164   0.73741565   -1.5669008   0.12117293     11257.69     1000 
  318000   0.50475084   -2.2782644   0.75636913   -1.5218953   0.13925021    11099.601     1000 
  320000   0.49768447   -2.2630306   0.74578018   -1.5172504   0.13238334    11186.112     1000 
  322000   0.48786982   -2.2993355   0.73107293   -1.5682626    0.1230904    11296.351     1000 
  324000   0.48392516   -2.2774344   0.72516185   -1.5522726   0.12064484    11194.163     1000 
  326000   0.48709698   -2.3316536   0.72991482   -1.6017388   0.13618569    11166.419     1000 
  328000   0.48487604   -2.2864082   0.72658675   -1.5598215   0.12720488    11243.287     1000 
  330000    0.5147149   -2.2848847   0.77130028   -1.5135844   0.13494402    11141.579     1000 
  332000   0.50076827   -2.2436762   0.75040126    -1.493275   0.13560057    11158.983     1000 
  334000    0.4853284   -2.2526152   0.72726461   -1.5253506   0.12234559    11205.686     1000 
  336000   0.46667722   -2.3534039   0.69931582   -1.6540881   0.12276832    11361.086     1000 
  338000   0.47618095   -2.2941773   0.71355716   -1.5806201   0.13617216    11269.314     1000 
  340000   0.46733429    -2.340189   0.70030043   -1.6398886   0.11102863    11319.171     1000 
  342000   0.48974137   -2.3189372   0.73387745   -1.5850597    0.1196436    11290.328     1000 
  344000   0.46726369   -2.3007276   0.70019465    -1.600533   0.10638913    11313.314     1000 
  346000   0.48708298   -2.3489155   0.72989385   -1.6190216   0.12380431      11178.8     1000 
  348000   0.48845875   -2.2719123   0.73195544   -1.5399568   0.13156401    11154.599     1000 
  350000   0.49603803   -2.3286432   0.74331298   -1.5853302   0.11794821    11316.437     1000 
  352000    0.5016702   -2.3181728    0.7517528     -1.56642   0.14061109     11150.93     1000 
  354000   0.47060956   -2.3114961   0.70520843   -1.6062877   0.12844077    11302.469     1000 
  356000   0.49416705   -2.3360709   0.74050932   -1.5955616   0.12502157    11284.001     1000 
  358000   0.49097143   -2.2189956   0.73572069   -1.4832749   0.13013457    11082.057     1000 
  360000   0.50204491     -2.31639    0.7523143   -1.5640757    0.1367204    11176.105     1000 
  362000   0.47881964   -2.2672381   0.71751123   -1.5497268   0.11088905    11353.459     1000 
  364000   0.48261126   -2.2894549   0.72319297   -1.5662619   0.12227813    11243.726     1000 
  366000   0.48732935   -2.3356712   0.73026302   -1.6054082   0.11281541    11285.696     1000 
  368000   0.48710892   -2.2329703   0.72993272   -1.5030376   0.12237561    11048.104     1000 
  370000   0.48712761   -2.2480876   0.72996072   -1.5181269   0.13660133    11133.862     1000 
  372000   0.48201839    -2.334015   0.72230456   -1.6117105    0.1264196    11180.117     1000 
  374000   0.45322021   -2.2502047   0.67915049   -1.5710542   0.13076418    10939.758     1000 
  376000   0.49757928   -2.3147329   0.74562256   -1.5691104   0.11896639     11332.37     1000 
  378000   0.48874807   -2.2523057   0.73238899   -1.5199167    0.1376617    10999.726     1000 
  380000   0.49077431    -2.328359    0.7354253   -1.5929337   0.13472294    11278.443     1000 
  382000   0.48462285   -2.2458572   0.72620734   -1.5196498   0.13007692     11149.86     1000 
  384000   0.49867173   -2.3189377   0.74725959   -1.5716781   0.13954444    11112.737     1000 
  386000    0.4733908   -2.2857682   0.70937612   -1.5763921   0.12805631    11121.112     1000 
  388000   0.50987429   -2.2915077   0.76404663   -1.5274611   0.13391077    11304.974     1000 
  390000   0.51697049   -2.3197393   0.77468028    -1.545059   0.13395168    11192.975     1000 
  392000   0.50158955   -2.3172583   0.75163195   -1.5656264   0.12868725    11362.154     1000 
  394000   0.48326392   -2.2787765   0.72417099   -1.5546055   0.11580754     11314.28     1000 
  396000    0.4865724   -2.2646336   0.72912874   -1.5355049   0.13454451    11049.135     1000 
  398000   0.49686728   -2.2859321   0.74455561   -1.5413765   0.13111637    11208.646     1000 
  400000   0.46580765   -2.2720465   0.69801276   -1.5740338   0.12499919    11215.901     1000 
  402000   0.49022948   -2.2712359   0.73460888    -1.536627   0.13405019     11058.49     1000 
  404000   0.48827587    -2.323319   0.73168139   -1.5916376   0.12458931    11307.948     1000 
  406000   0.49051613   -2.2981796   0.73503842   -1.5631412   0.13117034    11202.154     1000 
  408000   0.49142169   -2.2166507   0.73639541   -1.4802553   0.12759648     11217.34     1000 
  410000   0.48615387   -2.2495383   0.72850158   -1.5210367   0.14389202     11052.07     1000 
  412000   0.48297201   -2.2969383   0.72373356   -1.5732048   0.11630642    11412.888     1000 
  414000   0.49679527   -2.2895191   0.74444771   -1.5450713   0.12390857     11150.72     1000 
  416000   0.48884689   -2.2982778   0.73253706   -1.5657407   0.13430155     11147.13     1000 
  418000   0.48973134   -2.2912236   0.73386242   -1.5573612   0.14110102    11135.862     1000 
  420000   0.48162453    -2.285323   0.72171436   -1.5636086   0.12420316    11303.222     1000 
  422000   0.49109202   -2.3082033   0.73590138   -1.5723019   0.12057554    11219.301     1000 
  424000   0.48023829    -2.260874   0.71963707   -1.5412369   0.13068719     11134.85     1000 
  426000   0.48854102   -2.2915311   0.73207872   -1.5594524   0.13285896    11131.341     1000 
  428000   0.49644124    -2.300261    0.7439172   -1.5563438   0.13842867    11167.615     1000 
  430000   0.48115425   -2.2975374   0.72100965   -1.5765277   0.13782571    11139.322     1000 
  432000   0.49088177   -2.2922075   0.73558633   -1.5566212   0.12937226    11164.496     1000 
  434000   0.47209742   -2.3141309   0.70743799   -1.6066929   0.12292956    11285.142     1000 
  436000   0.47142592   -2.2828915   0.70643174   -1.5764598   0.12307599    11197.361     1000 
  438000   0.44806511   -2.2617723   0.67142556   -1.5903468   0.12647615    11076.449     1000 
  440000   0.49224143   -2.2420536   0.73762379   -1.5044298    0.1361448    11184.266     1000 
  442000   0.49168176   -2.2943591   0.73678512    -1.557574   0.13207388    11103.629     1000 
  444000   0.49717537   -2.2992659    0.7450173   -1.5542486   0.12779253    11228.942     1000 
  446000   0.48169569   -2.3126884     0.721821   -1.5908674    0.1238523    11340.763     1000 
  448000   0.47662341    -2.281348   0.71422018   -1.5671278   0.11955797    11251.288     1000 
  450000   0.48973218   -2.2881885   0.73386367   -1.5543249   0.13563261    11108.472     1000 
  452000   0.51708256   -2.2914509   0.77484822   -1.5166027   0.12195668    11298.977     1000 
  454000   0.47444984   -2.2839704   0.71096308   -1.5730073   0.13870927     11162.65     1000 
  456000   0.50462274   -2.3101538   0.75617717   -1.5539766   0.12950739    11316.092     1000 
  458000   0.46961894   -2.3053231   0.70372398   -1.6015991   0.13970372    11072.782     1000 
  460000   0.47343164   -2.2904204   0.70943731   -1.5809831   0.11894296    11344.472     1000 
  462000   0.48133658   -2.2396413   0.72128287   -1.5183585   0.13613339    11067.877     1000 
  464000   0.50208763   -2.2786198   0.75237831   -1.5262415   0.12378428    11225.458     1000 
  466000   0.49713512   -2.3101295   0.74495697   -1.5651725   0.12806704    11205.931     1000 
  468000   0.46338815    -2.262634   0.69438714   -1.5682469   0.11346512    11356.759     1000 
  470000    0.5092099   -2.2661306   0.76305103   -1.5030795    0.1377295    11166.027     1000 
  472000   0.48552578   -2.3039629   0.72756038   -1.5764025    0.1428466    11061.838     1000 
  474000   0.49018589   -2.2903288   0.73454356   -1.5557853   0.13394197    11127.041     1000 
  476000   0.51124439   -2.3192065   0.76609972   -1.5531068   0.12913427    11161.122     1000 
  478000   0.50426351    -2.260367   0.75563888   -1.5047281     0.134616     11069.31     1000 
  480000   0.48069246   -2.2646808   0.72031766   -1.5443631   0.12179765    11240.998     1000 
  482000   0.51595187   -2.2746325   0.77315388   -1.5014786   0.13461172    11277.271     1000 
  484000   0.50041097   -2.2821512   0.74986584   -1.5322854   0.13267876    11156.209     1000 
  486000   0.48841652   -2.2949565   0.73189215   -1.5630644   0.12423655    11194.402     1000 
  488000   0.48581418   -2.2856616   0.72799255   -1.5576691   0.13390431    11167.792     1000 
  490000   0.49356559   -2.3349248   0.73960804   -1.5953168   0.13408701     11140.16     1000 
  492000   0.49850035    -2.310718   0.74700277   -1.5637152   0.12161213    11246.963     1000 
  494000   0.46889836   -2.3084538   0.70264419   -1.6058096   0.12753213    11183.491     1000 
  496000   0.50024362   -2.2489268   0.74961506   -1.4993118   0.13090321     11076.68     1000 
  498000   0.47124897   -2.2873482   0.70616659   -1.5811816   0.13462298    11090.543     1000 
  500000   0.51047738   -2.2924888   0.76495036   -1.5275384   0.14525763    10978.063     1000 
  502000    0.4887183   -2.2945802   0.73234437   -1.5622359    0.1305505    11125.991     1000 
  504000   0.46961657   -2.2849475   0.70372043    -1.581227   0.12391352    11315.348     1000 
  506000   0.47170877   -2.3382098   0.70685559   -1.6313542   0.13057136    11198.084     1000 
  508000   0.49057901   -2.3232946   0.73513265    -1.588162   0.13459893    11151.861     1000 
  510000   0.49193093    -2.309737   0.73715849   -1.5725785   0.11957838    11322.269     1000 
  512000    0.4695204   -2.2939596   0.70357632   -1.5903833   0.12941134    11124.459     1000 
  514000   0.50186968   -2.2601065   0.75205172   -1.5080548   0.13883306    11170.372     1000 
  516000   0.48229087   -2.2720242   0.72271287   -1.5493113   0.12841996    11250.416     1000 
  518000   0.50465399   -2.2818057   0.75622401   -1.5255817   0.12926034    11345.268     1000 
  520000   0.48699142   -2.2747591   0.72975665   -1.5450024   0.13144593    11215.821     1000 
  522000   0.50271245   -2.3197395    0.7533146   -1.5664249   0.12551204    11176.809     1000 
  524000   0.47630447   -2.2832606   0.71374225   -1.5695184   0.13895733    11103.516     1000 
  526000   0.50266065   -2.2887916   0.75323699   -1.5355547   0.12382413    11224.352     1000 
  528000   0.48403809   -2.2760691   0.72533108    -1.550738   0.12815759    11303.075     1000 
  530000   0.49752247   -2.2786893   0.74553743   -1.5331519   0.13124414    11158.089     1000 
  532000   0.51008754   -2.2480087   0.76436619   -1.4836425   0.13354913    11241.521     1000 
  534000   0.49776502   -2.3072404   0.74590088   -1.5613395    0.1431699    11220.464     1000 
  536000   0.48928109   -2.3015918   0.73318771   -1.5684041   0.14223632    11104.346     1000 
  538000   0.50252311   -2.2747082   0.75303088   -1.5216773   0.12789925     11169.01     1000 
  540000   0.48349482   -2.2558183   0.72451699   -1.5313013   0.12139341      11176.2     1000 
  542000   0.48940155   -2.2613034   0.73336822   -1.5279352    0.1359774    11288.574     1000 
  544000    0.5096041   -2.3009544   0.76364174   -1.5373127   0.13716528     11255.25     1000 
  546000   0.48019174   -2.2382513   0.71956733    -1.518684   0.12805908    11139.661     1000 
  548000   0.48891291   -2.2830104     0.732636   -1.5503744   0.12062379    11352.238     1000 
  550000   0.51524842   -2.2648167   0.77209976   -1.4927169   0.13062685    11192.287     1000 
  552000   0.49978518   -2.2594117   0.74892809   -1.5104836    0.1308628    11220.944     1000 
  554000   0.50815797   -2.3102874   0.76147472   -1.5488127   0.13007117    11259.257     1000 
  556000   0.49245961   -2.2895921   0.73795072   -1.5516414   0.12085935     11198.81     1000 
  558000   0.48537877   -2.3123098   0.72734009   -1.5849697    0.1413166    11293.026     1000 
  560000   0.48855497   -2.3365131   0.73209962   -1.6044135    0.1411596     11066.04     1000 
  562000   0.48406863   -2.2481232   0.72537684   -1.5227464   0.13293781    11165.891     1000 
  564000    0.4859978   -2.2903633   0.72826771   -1.5620956   0.14668922    11058.411     1000 
  566000    0.4990828   -2.2600813   0.74787557   -1.5122058   0.11773066    11285.922     1000 
  568000   0.49785351   -2.2675504   0.74603349   -1.5215169   0.13573352    11219.596     1000 
  570000   0.50961653   -2.2591739   0.76366037   -1.4955135   0.11743068    11216.665     1000 
  572000   0.49174541   -2.2442937   0.73688049   -1.5074132   0.13290407    11146.958     1000 
  574000   0.48612627   -2.3199953   0.72846021   -1.5915351   0.11585071     11240.12     1000 
  576000   0.47649326   -2.2591478   0.71402514   -1.5451226   0.13583556    11092.412     1000 
  578000   0.49198939   -2.2761137    0.7372461   -1.5388676    0.1267742    11172.048     1000 
  580000   0.49353292   -2.2720659   0.73955907   -1.5325068   0.12436659    11272.683     1000 
  582000   0.48231933   -2.2671742   0.72275552   -1.5444187    0.1263225    11241.731     1000 
  584000   0.49755684   -2.2848019   0.74558892   -1.5392129   0.12771002    11324.003     1000 
  586000   0.48425272   -2.2990775   0.72565269   -1.5734248   0.12588839    11408.233     1000 
  588000   0.48982372   -2.2532478   0.73400084   -1.5192469   0.12912744    11130.151     1000 
  590000   0.50333324   -2.2583066   0.75424486   -1.5040617   0.13238627    11143.343     1000 
  592000   0.48579848   -2.2920622   0.72796902   -1.5640931   0.12753777    11173.396     1000 
  594000   0.48438019   -2.3096323   0.72584371   -1.5837886   0.12561694    11188.957     1000 
  596000   0.50220013   -2.3358448    0.7525469   -1.5832979   0.12532308     11196.62     1000 
  598000   0.49044516   -2.2628362   0.73493208   -1.5279041   0.13504983    11312.694     1000 
  600000    0.4753061   -2.2884497    0.7122462   -1.5762035    0.1236594    11257.899     1000 
  602000   0.47647308   -2.3439169   0.71399491    -1.629922   0.13508069    11268.224     1000 
  604000   0.48721877   -2.2216601   0.73009732   -1.4915628   0.14341026    11000.949     1000 
  606000   0.48614556   -2.2633808   0.72848912   -1.5348917   0.12235696    11169.558     1000 
  608000    0.4926081   -2.2586014   0.73817324   -1.5204282   0.12054653    11180.289     1000 
  610000   0.50040205   -2.3255791   0.74985247   -1.5757266   0.11753294    11272.074     1000 
  612000    0.5085508   -2.2551711   0.76206338   -1.4931077    0.1233084    11271.282     1000 
  614000   0.49475896   -2.2751181    0.7413963   -1.5337218   0.12893215    11116.759     1000 
  616000   0.48305239    -2.258131   0.72385401    -1.534277    0.1318508    11220.543     1000 
  618000   0.47132109   -2.2941994   0.70627465   -1.5879248   0.13440578    11167.626     1000 
  620000   0.50061225   -2.3336035   0.75016746    -1.583436   0.13931903    11111.614     1000 
  622000   0.45890394   -2.2588298   0.68766755   -1.5711622    0.1254868    11297.553     1000 
  624000   0.47251675    -2.276111   0.70806636   -1.5680447   0.12674564    11133.917     1000 
  626000    0.5016124   -2.2726634   0.75166618   -1.5209972   0.13181099    11099.573     1000 
  628000   0.48766156   -2.2881946   0.73076084   -1.5574337   0.13675948    11145.159     1000 
  630000   0.48855594   -2.2835287   0.73210108   -1.5514276   0.13093333    11100.392     1000 
  632000   0.48267281    -2.319674    0.7232852   -1.5963888   0.12829743    11333.724     1000 
  634000   0.48614683   -2.2801333   0.72849102   -1.5516423   0.13315157    11015.564     1000 
  636000   0.50513626   -2.2815278   0.75694669   -1.5245811   0.14037751    11121.915     1000 
  638000   0.48403901   -2.2808123   0.72533245   -1.5554799   0.13571014    11276.431     1000 
  640000   0.49660855   -2.2512262   0.74416791   -1.5070583   0.13723315    10960.931     1000 
  642000   0.50158538   -2.2819178   0.75162569   -1.5302921   0.13426882    11112.198     1000 
  644000   0.48524699     -2.31466   0.72714262   -1.5875174   0.14214613    11164.762     1000 
  646000   0.49127563   -2.2819722   0.73617653   -1.5457957    0.1360027    11101.169     1000 
  648000   0.51410031   -2.2959635   0.77037932   -1.5255842   0.13901477    11138.944     1000 
  650000   0.48365864   -2.2720009   0.72476247   -1.5472384   0.11968934    11212.861     1000 
  652000   0.45511908    -2.307465   0.68199594    -1.625469   0.11715125    11415.173     1000 
  654000   0.48852203   -2.2516429   0.73205026   -1.5195926   0.15178265    10971.175     1000 
  656000   0.49468243   -2.3293028   0.74128163   -1.5880211   0.12834849     11099.86     1000 
  658000   0.49072484   -2.2505465   0.73535118   -1.5151953   0.13512981    11189.326     1000 
  660000   0.48796329   -2.2619092     0.731213   -1.5306962   0.12961021    11204.603     1000 
  662000   0.49766101   -2.2781979   0.74574503   -1.5324528   0.12671113    11290.187     1000 
  664000   0.51625924   -2.2525398   0.77361447   -1.4789253   0.13635497    11179.723     1000 
  666000   0.48578097   -2.3102092   0.72794278   -1.5822664   0.11209967    11287.235     1000 
  668000   0.48862508   -2.2738344   0.73220468   -1.5416297   0.12921192    11147.217     1000 
  670000   0.48797059    -2.259858   0.73122393    -1.528634   0.13670779    11056.885     1000 
  672000   0.49669036   -2.3046311    0.7442905   -1.5603406   0.13439657    11090.404     1000 
  674000   0.47698032   -2.2590907   0.71475501   -1.5443357   0.14397257    11101.104     1000 
  676000    0.5026678   -2.2833066   0.75324769   -1.5300589   0.13676328    11136.117     1000 
  678000   0.49640811   -2.2688397   0.74386756   -1.5249721   0.13212748    11134.137     1000 
  680000   0.50448417    -2.223623   0.75596953   -1.4676534   0.14298737    11124.503     1000 
  682000   0.49297137   -2.3181679   0.73871759   -1.5794503   0.13064397    11233.336     1000 
  684000   0.49846995   -2.2655397   0.74695722   -1.5185825   0.13402162     11144.38     1000 
  686000     0.508443   -2.3007277   0.76190183   -1.5388259   0.14535317    11103.518     1000 
  688000   0.50714685    -2.281225   0.75995955   -1.5212655    0.1300478    11170.922     1000 
  690000   0.49702209   -2.3444457    0.7447876   -1.5996581   0.12091593    11441.503     1000 
  692000   0.47984449   -2.2862425   0.71904697   -1.5671955   0.14121885    11001.711     1000 
  694000   0.46637247   -2.3096927   0.69885915   -1.6108336   0.13716903     11114.12     1000 
  696000   0.48872146   -2.2804741   0.73234911   -1.5481249   0.13567578    11132.614     1000 
  698000   0.46650072   -2.3145552   0.69905133   -1.6155039   0.14146673    11229.497     1000 
  700000   0.49740444    -2.266851   0.74536056   -1.5214905   0.13338326    11141.172     1000 
  702000   0.50204842   -2.2641939   0.75231956   -1.5118743   0.13105527    11175.541     1000 
  704000   0.51030564   -2.3208473   0.76469301   -1.5561543   0.12220159    11377.229     1000 
  706000   0.48684414   -2.3101949   0.72953594   -1.5806589   0.13863746    11157.455     1000 
  708000   0.49602905   -2.2939245   0.74329953    -1.550625   0.13508749    11141.545     1000 
  710000   0.48609361   -2.2750659   0.72841127   -1.5466546    0.1271857    11173.166     1000 
  712000   0.49861579    -2.261611   0.74717576   -1.5144353   0.12047728    11042.192     1000 
  714000    0.4786338   -2.3241389   0.71723274   -1.6069062   0.11646988    11390.503     1000 
  716000   0.50389839   -2.2654703   0.75509173   -1.5103786   0.14128747    11068.375     1000 
  718000   0.47534875     -2.31985    0.7123101   -1.6075399   0.13721062    11185.591     1000 
  720000   0.47205279   -2.2958789   0.70737111   -1.5885078   0.12661122    11229.393     1000 
  722000   0.48800753   -2.2982297   0.73127928   -1.5669504   0.12103774    11317.485     1000 
  724000   0.46472404   -2.2387905   0.69638898   -1.5424016    0.1467833    11116.603     1000 
  726000   0.50562182   -2.2462915   0.75767429   -1.4886172   0.12513761    11280.188     1000 
  728000   0.50095769   -2.2663408    0.7506851   -1.5156557   0.12749784    11337.056     1000 
  730000   0.50157949   -2.2200841   0.75161686   -1.4684673   0.12865358    11267.089     1000 
  732000   0.47792799   -2.2705847   0.71617509   -1.5544096   0.14216904    11136.544     1000 
  734000   0.50215961   -2.3019791   0.75248618   -1.5494929   0.13596139    11190.843     1000 
  736000    0.4864869   -2.2647911   0.72900061   -1.5357905   0.11748854     11414.85     1000 
  738000   0.49642222   -2.2522403   0.74388869   -1.5083516   0.12754658    11220.894     1000 
  740000    0.4823385   -2.2813999   0.72278425   -1.5586156   0.12821029    11259.679     1000 
  742000   0.48932428   -2.3227117   0.73325243   -1.5894592   0.12607593    11277.677     1000 
  744000   0.46371307   -2.2755654   0.69487404   -1.5806913   0.13453909    11017.684     1000 
  746000   0.50554801   -2.3201277   0.75756369    -1.562564   0.13134945    11204.045     1000 
  748000   0.49203529   -2.2340018   0.73731488   -1.4966869   0.12827886    11120.111     1000 
  750000    0.5103621   -2.2633455    0.7647776   -1.4985679   0.13719296    10984.939     1000 
  752000   0.50694396   -2.2558106   0.75965552    -1.496155   0.12966048    11033.795     1000 
  754000   0.49212528   -2.3143835   0.73744973   -1.5769338   0.13764581    11191.569     1000 
  756000   0.47136437   -2.2726983   0.70633951   -1.5663588   0.13188124    11354.969     1000 
  758000    0.5201255   -2.2684377   0.77940806   -1.4890296     0.125703    11241.176     1000 
  760000   0.49648182    -2.314713   0.74397801    -1.570735   0.12918132    11203.977     1000 
  762000   0.48167614   -2.2745848   0.72179169   -1.5527931   0.13829973    11178.616     1000 
  764000    0.4961768   -2.2781974   0.74352093   -1.5346765   0.13859552    11202.197     1000 
  766000   0.49962569   -2.3018547    0.7486891   -1.5531656   0.11334439    11257.888     1000 
  768000    0.4989084   -2.3011206   0.74761424   -1.5535064   0.14045199    11298.629     1000 
  770000   0.48328082   -2.3015417   0.72419631   -1.5773454   0.13899558    11106.091     1000 
  772000   0.48539833   -2.2934737   0.72736939   -1.5661043   0.12959088    11208.925     1000 
  774000   0.49663304   -2.2806667   0.74420461   -1.5364621   0.12136966    11199.847     1000 
  776000    0.4801266    -2.283795   0.71946972   -1.5643253    0.1287915    11117.579     1000 
  778000   0.48900873   -2.2977656   0.73277958    -1.564986   0.12943042    11221.311     1000 
  780000   0.48088607   -2.2575422   0.72060778   -1.5369344   0.13337532    11201.544     1000 
  782000   0.48540632   -2.3429692   0.72738136   -1.6155878   0.11016758    11445.135     1000 
  784000   0.50736151   -2.2761389   0.76028123   -1.5158577   0.12983385    11342.875     1000 
  786000   0.50022237   -2.3201525   0.74958321   -1.5705693   0.11203798     11372.04     1000 
  788000   0.49534683   -2.2874455   0.74227722   -1.5451682   0.13385255    11164.962     1000 
  790000   0.47592061   -2.2936796   0.71316703   -1.5805125   0.13004482    11243.773     1000 
  792000   0.49679993    -2.296407   0.74445469   -1.5519523   0.11841783    11314.769     1000 
  794000   0.47695245   -2.3477784   0.71471325   -1.6330652   0.12206416    11308.443     1000 
  796000   0.49268296   -2.3771206   0.73828542   -1.6388352   0.11842557    11470.598     1000 
  798000   0.48396605   -2.2864741   0.72522313   -1.5612509   0.12124204    11281.373     1000 
  800000   0.49130142   -2.2429302   0.73621518    -1.506715   0.11971658    11115.846     1000 
  802000   0.50114984   -2.2946693   0.75097303   -1.5436963   0.13687103    11022.066     1000 
  804000   0.45543568   -2.3175883   0.68247037    -1.635118   0.12298567    11221.037     1000 
  806000   0.48509993   -2.3146046   0.72692225   -1.5876823   0.13801219    11307.786     1000 
  808000   0.48576918   -2.3152554   0.72792511   -1.5873303   0.13414406    11307.418     1000 
  810000   0.48977923   -2.2535625   0.73393418   -1.5196283   0.12438973    11212.838     1000 
  812000    0.5100106   -2.2489231   0.76425089   -1.4846722   0.13996871    11130.577     1000 
  814000   0.48321054   -2.3172298   0.72409099   -1.5931388   0.12097731    11220.547     1000 
  816000   0.49607223   -2.2824814   0.74336423   -1.5391172   0.13561812     11159.38     1000 
  818000   0.47983237   -2.2455236   0.71902881   -1.5264948   0.12698283    11194.287     1000 
  820000   0.47224658   -2.2987201   0.70766149   -1.5910586   0.13980409    11100.311     1000 
  822000   0.47332707   -2.2627728   0.70928061   -1.5534922   0.12539251    11068.424     1000 
  824000   0.49536676    -2.264983   0.74230709   -1.5226759   0.12726354    11330.283     1000 
  826000   0.49753583   -2.2685041   0.74555745   -1.5229467   0.12729188     11218.37     1000 
  828000   0.49315392   -2.2329793   0.73899116   -1.4939882   0.13163138    11201.129     1000 
  830000   0.49248657   -2.2988212   0.73799113   -1.5608301   0.13658387    11199.439     1000 
  832000   0.51786034   -2.2612573   0.77601372   -1.4852435    0.1164226     11347.85     1000 
  834000   0.51344026   -2.3024328   0.76939023   -1.5330425   0.13942707     11216.27     1000 
  836000   0.46938412    -2.277383   0.70337211   -1.5740109   0.12769136    11286.954     1000 
  838000   0.47857622   -2.2530278   0.71714647   -1.5358814   0.13851168    11153.899     1000 
  840000   0.51204614   -2.2725322   0.76730114   -1.5052311   0.13870329    11175.106     1000 
  842000     0.474092   -2.3256516   0.71042686   -1.6152247   0.12015771    11322.836     1000 
  844000   0.51133441   -2.2563854   0.76623461   -1.4901508   0.13786031    11109.336     1000 
  846000   0.48524897   -2.3355916   0.72714558    -1.608446   0.12656549    11333.097     1000 
  848000    0.4902748   -2.3107281   0.73467678   -1.5760513   0.12604451    11243.053     1000 
  850000   0.49595059   -2.2850302   0.74318197   -1.5418482    0.1256534    11218.909     1000 
  852000   0.49276257   -2.2954023    0.7384047   -1.5569976   0.13100392    11214.652     1000 
  854000   0.48050183   -2.2505888   0.72003199   -1.5305568   0.12051878    11152.203     1000 
  856000   0.50725149   -2.2615339   0.76011636   -1.5014176   0.13186217    11135.471     1000 
  858000   0.48483746   -2.2432318   0.72652893   -1.5167028   0.10917182    11281.599     1000 
  860000   0.48846975    -2.292652   0.73197193     -1.56068   0.12489037    11258.446     1000 
  862000   0.47850718      -2.2941   0.71704302    -1.577057   0.11371879    11306.277     1000 
  864000   0.46489946   -2.3119475   0.69665184   -1.6152956   0.11881508    11317.455     1000 
  866000   0.47436242   -2.2800662   0.71083209   -1.5692341    0.1392322     11093.94     1000 
  868000   0.50450382    -2.316972   0.75599897    -1.560973   0.11857955     11276.82     1000 
  870000   0.47093724   -2.2535918   0.70569946   -1.5478923   0.13867863    11168.585     1000 
  872000   0.50966806   -2.2666928   0.76373759   -1.5029552   0.13964111    11236.023     1000 
  874000   0.49046012   -2.2717124   0.73495449    -1.536758   0.13100722     11099.11     1000 
  876000   0.48604004   -2.2582679     0.728331   -1.5299369   0.13504081    11109.841     1000 
  878000   0.48711427   -2.3342735   0.72994073   -1.6043328    0.1244108    11224.915     1000 
  880000   0.50046538   -2.2587719   0.74994737   -1.5088246   0.12750208    11187.229     1000 
  882000   0.50096913   -2.2956841   0.75070224   -1.5449819   0.14479615    11061.186     1000 
  884000   0.48861658   -2.2547452   0.73219194   -1.5225532   0.13695686    11045.217     1000 
  886000   0.48570896   -2.3060331   0.72783488   -1.5781982   0.13557353    11189.074     1000 
  888000   0.49038291   -2.2654436   0.73483879   -1.5306048   0.14193505    11104.116     1000 
  890000   0.50416162   -2.3014195   0.75548619   -1.5459333   0.11794682    11258.476     1000 
  892000   0.49567151   -2.2624634   0.74276376   -1.5196996   0.13634301    11103.702     1000 
  894000   0.48843379   -2.2781403   0.73191803   -1.5462223   0.13277452    11198.915     1000 
  896000   0.49085096   -2.2936677   0.73554016   -1.5581275   0.14072385    11052.587     1000 
  898000   0.49448178   -2.2526328   0.74098094   -1.5116519   0.13698654    11161.094     1000 
  900000   0.47688034   -2.2830099    0.7146052   -1.5684047    0.1241206    11279.093     1000 
  902000   0.48738844   -2.2216583   0.73035157   -1.4913067   0.12827213    11056.691     1000 
  904000   0.48213866   -2.2558993   0.72248478   -1.5334145   0.13248818    11248.425     1000 
  906000   0.50870757   -2.2523047   0.76229829   -1.4900064   0.14150907    11061.471     1000 
  908000   0.49340152   -2.2460593   0.73936218   -1.5066971   0.14343625    10948.201     1000 
  910000   0.50387676   -2.3215927   0.75505933   -1.5665334   0.12170048    11164.619     1000 
  912000   0.47860813   -2.2724633   0.71719428    -1.555269   0.11608254    11278.304     1000 
  914000   0.48332645   -2.2812361   0.72426468   -1.5569714   0.13352142    11255.707     1000 
  916000   0.51163604   -2.2829062   0.76668661   -1.5162196   0.12669153     11247.85     1000 
  918000   0.48486239   -2.3181776   0.72656629   -1.5916113   0.12792614        11158     1000 
  920000     0.508358   -2.2613007   0.76177446   -1.4995263   0.13660326    11245.379     1000 
  922000   0.50079058   -2.2865625   0.75043468   -1.5361279   0.13330005    11276.849     1000 
  924000   0.48840492   -2.2648968   0.73187477   -1.5330221   0.13309464    11197.119     1000 
  926000   0.49830193   -2.3445963   0.74670543   -1.5978909   0.12300104    11315.896     1000 
  928000   0.46595704   -2.3523238   0.69823663   -1.6540872   0.12695748    11290.899     1000 
  930000   0.50253044    -2.286793   0.75304187   -1.5337512    0.1349287    11250.355     1000 
  932000   0.47861462   -2.2578868     0.717204   -1.5406828    0.1242836    11252.637     1000 
  934000   0.48622535   -2.2857334   0.72860869   -1.5571247   0.13485763    11122.335     1000 
  936000   0.49850693   -2.2841597   0.74701263   -1.5371471   0.12965453     11275.25     1000 
  938000    0.4904368   -2.2479057   0.73491954   -1.5129861   0.12668853    11138.093     1000 
  940000   0.47546316   -2.2801702   0.71248154   -1.5676887   0.12753449    11221.513     1000 
  942000   0.50242223    -2.287075   0.75287971   -1.5341953   0.14634795    11159.857     1000 
  944000   0.49079085   -2.2908455   0.73545008   -1.5553954   0.12447239    11297.755     1000 
  946000   0.50538294   -2.3002444   0.75731634    -1.542928   0.12598788    11179.669     1000 
  948000    0.4957247   -2.2062176   0.74284346   -1.4633742   0.13309651    11170.527     1000 
  950000   0.49701778   -2.2866622   0.74478114    -1.541881   0.13841614     11118.72     1000 
  952000   0.46768813   -2.2898673   0.70083066   -1.5890366   0.11975928    11255.946     1000 
  954000   0.49836425   -2.2974867   0.74679882   -1.5506879   0.13078833    11173.311     1000 
  956000   0.51267344   -2.2387095   0.76824116   -1.4704684    0.1598543    10912.466     1000 
  958000   0.48489831   -2.2857049   0.72662011   -1.5590848   0.13071506    11132.675     1000 
  960000   0.48343342   -2.2405378   0.72442498   -1.5161129   0.14162648    11052.188     1000 
  962000   0.48380283   -2.3247106   0.72497854    -1.599732   0.12141205    11264.874     1000 
  964000   0.47683972   -2.2734108   0.71454432   -1.5588665    0.1267918    11202.773     1000 
  966000   0.47765359    -2.299422    0.7157639   -1.5836581   0.12142198    11289.917     1000 
  968000   0.49308085   -2.2762956   0.73888165    -1.537414   0.13489969    11052.221     1000 
  970000    0.4855261   -2.2727435   0.72756086   -1.5451827   0.12570727     11337.54     1000 
  972000   0.49016074   -2.2782375   0.73450587   -1.5437316   0.12248399    11153.782     1000 
  974000   0.48571352   -2.2515033   0.72784172   -1.5236616   0.15254841    11031.039     1000 
  976000   0.49349325   -2.3017293   0.73949963   -1.5622297   0.13709982    11220.924     1000 
  978000   0.51884239   -2.2706957   0.77748533   -1.4932104   0.13960871    11121.526     1000 
  980000   0.48070894   -2.3079302   0.72034235   -1.5875878   0.12624398    11227.025     1000 
  982000   0.49088884   -2.2508282   0.73559693   -1.5152313   0.12680378    11138.938     1000 
  984000   0.49940894   -2.2460802    0.7483643   -1.4977159    0.1238328    11141.344     1000 
  986000   0.46232685    -2.309053   0.69279678   -1.6162563   0.12255223     11363.89     1000 
  988000   0.49356932   -2.2303037   0.73961363   -1.4906901   0.13606662    11155.886     1000 
  990000   0.49468748   -2.2770018   0.74128919   -1.5357127   0.12913569    11175.886     1000 
  992000    0.4876028   -2.2827769    0.7306728   -1.5521041   0.12427971     11244.61     1000 
  994000   0.50402778   -2.3051707   0.75528563    -1.549885   0.13065021     11211.98     1000 
  996000   0.48642925   -2.3219625   0.72891422   -1.5930483   0.12365385    11423.948     1000 
  998000   0.49120145   -2.2449325   0.73606537   -1.5088671   0.13104736    11180.034     1000 
 1000000   0.48054487   -2.2807602   0.72009648   -1.5606637   0.12890788    11132.521     1000 
 1002000   0.48955259    -2.292236   0.73359455   -1.5586415   0.12766109    11184.046     1000 
 1004000    0.4716216    -2.261494   0.70672497    -1.554769   0.13094228    11020.657     1000 
 1006000   0.50993903   -2.3056531   0.76414363   -1.5415095   0.12517986    11267.798     1000 
 1008000   0.49286545     -2.26357   0.73855888   -1.5250111   0.12490934      11187.1     1000 
 1010000   0.50260283   -2.3006017   0.75315034   -1.5474514   0.14854538    11148.947     1000 
 1012000   0.48251308   -2.2966856   0.72304586   -1.5736397   0.12472125    11161.541     1000 
 1014000   0.50991561   -2.3142568   0.76410855   -1.5501483   0.13547086    11159.879     1000 
 1016000   0.48646814   -2.2727705   0.72897251    -1.543798   0.13730457    11151.959     1000 
 1018000   0.50748762     -2.29859   0.76047019   -1.5381198   0.12056169    11381.157     1000 
 1020000   0.49577676   -2.2373016   0.74292147   -1.4943801   0.13213117     11082.35     1000 
 1022000   0.49124028    -2.323335   0.73612357   -1.5872114    0.1480863    11165.418     1000 
 1024000   0.48131263   -2.2821112   0.72124698   -1.5608642    0.1287147    11223.502     1000 
 1026000   0.51940187    -2.271084    0.7783237   -1.4927602   0.13952671    11107.457     1000 
 1028000   0.49201336   -2.2747914   0.73728201   -1.5375093   0.13952416    11107.825     1000 
 1030000   0.48281967   -2.2347171   0.72350528   -1.5112118   0.13018526    11083.363     1000 
 1032000   0.47527964   -2.3196757   0.71220654   -1.6074692   0.11810993    11390.817     1000 
 1034000   0.49717947   -2.2627751   0.74502344   -1.5177516   0.12696656     11327.96     1000 
 1036000   0.49523198   -2.2549497   0.74210513   -1.5128446   0.12726685      11239.3     1000 
 1038000   0.47175857   -2.3012718   0.70693021   -1.5943416   0.12931104    11251.978     1000 
 1040000   0.46846718   -2.2499663   0.70199807   -1.5479682   0.13041346     11119.97     1000 
 1042000   0.49471956   -2.2886909   0.74133726   -1.5473536    0.1435238    11199.115     1000 
 1044000   0.50381446   -2.2591702   0.75496597   -1.5042042   0.14132679    11066.418     1000 
 1046000   0.49894504   -2.3029792   0.74766914     -1.55531   0.13502086    11145.544     1000 
 1048000   0.45760374   -2.2238421   0.68571921   -1.5381229   0.12990433    11158.053     1000 
 1050000   0.49676434   -2.2680114   0.74440136     -1.52361    0.1295994    11282.376     1000 
 1052000    0.4733861   -2.2832665   0.70936907   -1.5738974   0.12674358    11232.087     1000 
 1054000   0.50937359   -2.2787116   0.76329632   -1.5154153   0.13119665    11089.815     1000 
 1056000   0.49232999   -2.2931508    0.7377565   -1.5553943   0.13247175    11076.853     1000 
 1058000   0.49434323   -2.2764848   0.74077332   -1.5357114   0.12941713    11096.658     1000 
 1060000   0.47987945   -2.2919424   0.71909935    -1.572843   0.13327097    11244.994     1000 
 1062000   0.47005981   -2.3299139   0.70438463   -1.6255292   0.12802653    11254.404     1000 
 1064000   0.47730263   -2.3184903     0.715238   -1.6032523   0.13085484    11297.728     1000 
 1066000    0.5048591   -2.2317568   0.75653136   -1.4752255    0.1331469    11233.889     1000 
 1068000   0.51576607   -2.2792863   0.77287545   -1.5064108   0.12467604    11114.694     1000 
 1070000   0.47582899   -2.3068836   0.71302974   -1.5938539   0.13811285    11224.973     1000 
 1072000   0.47740502   -2.2646221   0.71539142   -1.5492307   0.12834138    11226.742     1000 
 1074000   0.48011909   -2.2398325   0.71945846    -1.520374   0.13716726    11022.857     1000 
 1076000   0.47367298   -2.2909171   0.70979897   -1.5811182   0.12489157    11197.382     1000 
 1078000   0.46376087     -2.27101   0.69494566   -1.5760644   0.12577124    11200.504     1000 
 1080000   0.47198594   -2.2949157   0.70727093   -1.5876448   0.12891583    11219.817     1000 
 1082000   0.50671444    -2.281711   0.75931159   -1.5223995   0.13974963    11061.888     1000 
 1084000   0.47893974   -2.3139144    0.7176912   -1.5962232   0.11371783    11360.476     1000 
 1086000   0.50415469   -2.2809407   0.75547581   -1.5254649   0.15598161    10930.995     1000 
 1088000    0.4956909    -2.286344   0.74279282   -1.5435512    0.1039501    11361.031     1000 
 1090000    0.4659228   -2.2809617   0.69818531   -1.5827764   0.11792316    11170.683     1000 
 1092000   0.50683777   -2.3073297   0.75949639   -1.5478333   0.12359727    11409.786     1000 
 1094000   0.48717577   -2.2924462   0.73003289   -1.5624133   0.12704368    11238.738     1000 
 1096000   0.50734736   -2.2934897   0.76026002   -1.5332297   0.13177451    11121.236     1000 
 1098000   0.49115083   -2.2875816   0.73598951   -1.5515921   0.14290659    11070.614     1000 
 1100000   0.50211823   -2.3170828   0.75242417   -1.5646587   0.13562092     11143.24     1000 
 1102000   0.50627644   -2.2570283   0.75865524   -1.4983731   0.13610919    11233.332     1000 
 1104000   0.49649173   -2.2210153   0.74399285   -1.4770224   0.13832257     11240.79     1000 
 1106000   0.49292887   -2.2725649   0.73865392   -1.5339109   0.12316691    11279.481     1000 
 1108000   0.49758478   -2.2681813   0.74563079   -1.5225505   0.14307588    11009.332     1000 
 1110000   0.47857326   -2.2710892   0.71714204   -1.5539472   0.13113403     11260.66     1000 
 1112000   0.48002069   -2.2757315     0.719311   -1.5564205    0.1331275    11189.064     1000 
 1114000   0.47951367   -2.3120649   0.71855124   -1.5935137    0.1307372    11151.409     1000 
 1116000   0.49131484   -2.2758951   0.73623529   -1.5396599   0.12589292    11148.254     1000 
 1118000   0.50244985   -2.2662127    0.7529211   -1.5132916   0.13388124    11115.077     1000 
 1120000   0.46692498   -2.3110333   0.69968708   -1.6113462    0.1130482    11323.721     1000 
 1122000   0.48819487   -2.2503254   0.73156002   -1.5187654   0.14422621    11118.432     1000 
 1124000   0.50211345   -2.2689872   0.75241701   -1.5165702   0.13458678    11092.774     1000 
 1126000    0.5048819   -2.2596901   0.75656553   -1.5031245   0.12532517    11250.217     1000 
 1128000   0.49160151   -2.2774579   0.73666487   -1.5407931   0.13167476    11195.716     1000 
 1130000   0.48529401   -2.2804302   0.72721307   -1.5532171   0.13130629    11179.338     1000 
 1132000   0.47727986   -2.2376452   0.71520388   -1.5224413   0.12615283    11207.923     1000 
 1134000   0.48562238   -2.3086557   0.72770513   -1.5809506   0.12483898    11284.097     1000 
 1136000   0.49431232    -2.301751   0.74072701    -1.561024   0.12955758    11151.315     1000 
 1138000   0.50456914   -2.3356387   0.75609685   -1.5795418   0.12141392    11400.898     1000 
 1140000   0.47066929   -2.3014271   0.70529793   -1.5961291   0.12491864    11096.337     1000 
 1142000   0.49866027   -2.3225995   0.74724241   -1.5753571   0.12392625    11327.108     1000 
 1144000    0.4871938   -2.2271886    0.7300599   -1.4971287   0.12946529    11100.522     1000 
 1146000   0.50372672   -2.2645792   0.75483449   -1.5097447   0.13046946    11257.116     1000 
 1148000    0.4948284   -2.3038483   0.74150035    -1.562348   0.13199968    11335.835     1000 
 1150000   0.49901976   -2.3035719    0.7477811   -1.5557907    0.1226928    11292.224     1000 
 1152000   0.49958695   -2.2720232   0.74863105   -1.5233922    0.1345177    11146.344     1000 
 1154000   0.47852082   -2.2852037   0.71706344   -1.5681403   0.11614442    11263.718     1000 
 1156000   0.49045834   -2.3362151   0.73495182   -1.6012632   0.13038211    11254.369     1000 
 1158000   0.50427608   -2.3039413    0.7556577   -1.5482836   0.12758794    11149.063     1000 
 1160000   0.49944336   -2.2601109   0.74841587   -1.5116951   0.13462227    11172.932     1000 
 1162000   0.48221496   -2.3061829   0.72259912   -1.5835838   0.12650393    11209.162     1000 
 1164000    0.4758133   -2.2736019   0.71300623   -1.5605956   0.12868124    11105.927     1000 
 1166000   0.48463523   -2.2917609   0.72622589    -1.565535   0.12564203    11152.013     1000 
 1168000   0.47422252   -2.2575083   0.71062245   -1.5468859   0.13491685    11171.478     1000 
 1170000   0.49900948   -2.2625129   0.74776571   -1.5147472   0.12745694    11189.378     1000 
 1172000   0.47335312   -2.3248756   0.70931966    -1.615556   0.12584934    11236.258     1000 
 1174000   0.50535169   -2.3070323    0.7572695   -1.5497628   0.13547489    11175.065     1000 
 1176000   0.48124389   -2.2530929   0.72114397   -1.5319489   0.12751505    11216.632     1000 
 1178000   0.48837622   -2.2979725   0.73183176   -1.5661408   0.13930481    11127.071     1000 
 1180000   0.49373069   -2.2449179   0.73985544   -1.5050625   0.13100929    11253.003     1000 
 1182000   0.48466581   -2.2983925   0.72627172   -1.5721208   0.12409783    11266.816     1000 
 1184000   0.47105473   -2.3082653   0.70587552   -1.6023898   0.12687824    11200.163     1000 
 1186000   0.48472702    -2.264381   0.72636344   -1.5380176   0.13003435    11170.554     1000 
 1188000   0.47624496   -2.2869684   0.71365307   -1.5733154   0.12552514     11194.84     1000 
 1190000   0.48941366   -2.3143977   0.73338637   -1.5810113   0.10958119    11380.319     1000 
 1192000   0.48436161   -2.2744005   0.72581587   -1.5485846   0.13250291    11227.835     1000 
 1194000   0.49599765   -2.2807215   0.74325248    -1.537469   0.11307221    11347.075     1000 
 1196000   0.50599387   -2.2335899   0.75823182   -1.4753581   0.13876037    11108.942     1000 
 1198000   0.51033331   -2.2519285   0.76473446    -1.487194   0.12974376    11190.055     1000 
 1200000    0.4893379   -2.2809593   0.73327285   -1.5476864   0.12863857    11080.043     1000 
 1202000   0.47487403   -2.2940975   0.71159874   -1.5824988   0.13521623    11221.876     1000 
 1204000   0.49133593   -2.2805786   0.73626689   -1.5443117   0.12087775    11169.224     1000 
 1206000   0.47344633   -2.2921753   0.70945932   -1.5827159   0.14173688    11070.458     1000 
 1208000   0.49387449   -2.2811192   0.74007093   -1.5410483   0.13754788    11085.387     1000 
 1210000   0.48807539   -2.2767896   0.73138096   -1.5454086   0.12769607    11301.522     1000 
 1212000   0.48491452   -2.2850832    0.7266444   -1.5584388   0.12943885    11199.383     1000 
 1214000   0.48462675   -2.3215117   0.72621318   -1.5952985   0.12729796    11320.181     1000 
 1216000   0.49135567    -2.324532   0.73629647   -1.5882356   0.13570985    11195.042     1000 
 1218000   0.48388156   -2.2890432   0.72509651   -1.5639467   0.12814348    11113.962     1000 
 1220000    0.4948303   -2.2777197   0.74150321   -1.5362165   0.13250399    11086.707     1000 
 1222000   0.47718966   -2.2821396   0.71506871   -1.5670709   0.12272883    11138.901     1000 
 1224000   0.48637066   -2.2803898   0.72882644   -1.5515634   0.12582863    11069.414     1000 
 1226000   0.48277933   -2.2993887   0.72344483   -1.5759439   0.12832883    11225.089     1000 
 1228000   0.48924846   -2.2657411   0.73313881   -1.5326023   0.12968959    11008.726     1000 
 1230000   0.48138153   -2.3139667   0.72135022   -1.5926164   0.13749244    11143.555     1000 
 1232000   0.48720809   -2.3094805   0.73008132   -1.5793992   0.12326797    11266.126     1000 
 1234000   0.46908729   -2.2626462    0.7029273   -1.5597189   0.12680622    11246.316     1000 
 1236000   0.48854201   -2.2970411    0.7320802   -1.5649609   0.12289966    11232.945     1000 
 1238000   0.51281698   -2.2493325   0.76845624   -1.4808762   0.13360861    11152.138     1000 
 1240000   0.52294442   -2.2573028   0.78363221   -1.4736706   0.15398438    10925.533     1000 
 1242000   0.48599183    -2.275711   0.72825875   -1.5474522    0.1289171    11110.897     1000 
 1244000   0.49128395   -2.2658282     0.736189   -1.5296392   0.12435471    11106.684     1000 
 1246000   0.49089627   -2.2544222   0.73560806   -1.5188142   0.14012914    11016.685     1000 
 1248000   0.48612681   -2.3225099   0.72846103   -1.5940489   0.12829334    11113.614     1000 
 1250000   0.47762373   -2.2573764   0.71571915   -1.5416573     0.122168    11116.965     1000 
 1252000   0.50756755   -2.2535449   0.76058998   -1.4929549   0.13410348    11110.983     1000 
 1254000   0.49754801    -2.331893   0.74557569   -1.5863173   0.12654629    11283.997     1000 
 1256000   0.47108335   -2.2422695    0.7059184   -1.5363511   0.13413665    11094.485     1000 
 1258000   0.48671108   -2.2957951   0.72933655   -1.5664586   0.13943593    11016.746     1000 
 1260000   0.50661632   -2.2893378   0.75916455   -1.5301732   0.13183298    11285.211     1000 
 1262000   0.48200028   -2.3026704   0.72227741    -1.580393   0.12225677    11322.405     1000 
 1264000   0.49599206   -2.2388713    0.7432441   -1.4956272   0.11851404    11195.275     1000 
 1266000   0.51370153   -2.2433758   0.76978174   -1.4735941   0.12944948    11170.156     1000 
 1268000   0.48425083   -2.2826618   0.72564987   -1.5570119   0.13357341    11114.209     1000 
 1270000   0.49203199   -2.2619464   0.73730993   -1.5246365   0.13834946    11014.732     1000 
 1272000   0.50903817   -2.3039273    0.7627937   -1.5411336   0.13261056    11155.541     1000 
 1274000   0.49877712   -2.2324711   0.74741751   -1.4850536   0.12632927    11149.073     1000 
 1276000   0.48744506   -2.1950451   0.73043641   -1.4646086   0.13086009    11047.082     1000 
 1278000   0.49532228   -2.2765414   0.74224044    -1.534301    0.1274609    11210.446     1000 
 1280000    0.4889206   -2.2677034   0.73264752   -1.5350559   0.12659823    11238.748     1000 
 1282000   0.48120056   -2.2874597   0.72107904   -1.5663806   0.11086025    11339.216     1000 
 1284000   0.48291755   -2.2721781   0.72365194   -1.5485262   0.12564855    11207.308     1000 
 1286000   0.47490131   -2.2744959   0.71163961   -1.5628563   0.14185127    11009.385     1000 
 1288000   0.49293059   -2.2800871   0.73865649   -1.5414306   0.13031101    11386.289     1000 
 1290000    0.4968642   -2.2962422     0.744551   -1.5516912   0.14450281    11146.383     1000 
 1292000   0.47755006   -2.2386321   0.71560876   -1.5230234   0.14165103    10971.373     1000 
 1294000   0.49464566   -2.2530957   0.74122653   -1.5118692   0.11930179     11206.31     1000 
 1296000   0.49510464   -2.2604937    0.7419143   -1.5185794   0.13054211    11080.291     1000 
 1298000   0.49284493   -2.2737023   0.73852813   -1.5351742   0.11925212     11262.87     1000 
 1300000   0.49906276   -2.3244938   0.74784555   -1.5766482   0.13894419    11196.307     1000 
 1302000    0.4964788   -2.2927673   0.74397348   -1.5487938   0.13162537    11170.976     1000 
 1304000   0.49319467   -2.2666904   0.73905222   -1.5276382   0.13956551     11125.32     1000 
 1306000   0.48840343    -2.283892   0.73187254   -1.5520195   0.13130327    11163.341     1000 
 1308000   0.49557737   -2.2871612   0.74262269   -1.5445385   0.12333687    11321.355     1000 
 1310000    0.4859507   -2.3028848   0.72819712   -1.5746876   0.11234736    11349.448     1000 
 1312000   0.47770564   -2.2971973    0.7158419   -1.5813554   0.13892211    11145.385     1000 
 1314000   0.47525174   -2.2886098   0.71216474    -1.576445   0.11624948    11230.256     1000 
 1316000   0.50066662   -2.2731744   0.75024893   -1.5229255   0.11845088    11193.358     1000 
 1318000   0.48476097   -2.2587665   0.72641431   -1.5323522   0.13822302    10889.453     1000 
 1320000   0.49216943    -2.291245    0.7375159   -1.5537291   0.11990212    11172.406     1000 
 1322000   0.51409367   -2.2525313   0.77036937    -1.482162   0.14336677    11163.367     1000 
 1324000   0.50014332   -2.2974216   0.74946477   -1.5479568   0.12191606     11208.61     1000 
 1326000   0.49313344   -2.3008612   0.73896046   -1.5619008   0.13901689     11176.16     1000 
 1328000   0.47541324   -2.3154385   0.71240673   -1.6030317   0.12073562      11257.1     1000 
 1330000   0.48877662   -2.2981076   0.73243177   -1.5656759   0.12952578    11181.201     1000 
 1332000   0.47451479   -2.2949827   0.71106042   -1.5839223   0.13017879    11184.255     1000 
 1334000   0.48035417   -2.2636813   0.71981073   -1.5438705   0.12505818    11208.463     1000 
 1336000   0.49344692   -2.2555563   0.73943021   -1.5161261    0.1330058    11115.792     1000 
 1338000   0.49120441   -2.2612174   0.73606981   -1.5251476   0.13420662    11138.849     1000 
 1340000   0.48625837   -2.3271974   0.72865817   -1.5985392   0.12002878    11189.114     1000 
 1342000   0.47448205   -2.2995014   0.71101135   -1.5884901   0.13402755    11059.334     1000 
 1344000   0.48786469   -2.2587573   0.73106524    -1.527692   0.13586397    11094.932     1000 
 1346000   0.49413924   -2.2848083   0.74046765   -1.5443407   0.12274879    11302.614     1000 
 1348000   0.49441578   -2.2890575   0.74088205   -1.5481754   0.13629176     11210.54     1000 
 1350000   0.49746339   -2.2903858   0.74544888   -1.5449369   0.13167639    11206.022     1000 
 1352000   0.48881666   -2.2569215   0.73249176   -1.5244298   0.11950896    11153.929     1000 
 1354000   0.50647665   -2.3125026   0.75895527   -1.5535474   0.12667185    11389.052     1000 
 1356000   0.48979571   -2.2677976   0.73395886   -1.5338388   0.13757958    11082.654     1000 
 1358000   0.47545681   -2.3245222   0.71247203   -1.6120501   0.11637808     11358.04     1000 
 1360000   0.50393563   -2.3168872   0.75514754   -1.5617396   0.11473673     11465.49     1000 
 1362000   0.48500957   -2.2927688   0.72678685    -1.565982   0.12083979    11198.566     1000 
 1364000   0.47758289   -2.3013541   0.71565796   -1.5856962   0.13250588    11191.201     1000 
 1366000   0.49349936   -2.3027065   0.73950879   -1.5631977   0.14205055    11186.941     1000 
 1368000   0.46483808   -2.2880724   0.69655987   -1.5915125   0.12862216    11136.754     1000 
 1370000     0.502703   -2.2664703   0.75330045   -1.5131698   0.14224048     11138.76     1000 
 1372000   0.50631942   -2.2425378   0.75871965   -1.4838181   0.14137338    10999.519     1000 
 1374000   0.49300725   -2.3213305   0.73877136   -1.5825591   0.13399914    11182.872     1000 
 1376000   0.48153596   -2.2535522   0.72158163   -1.5319706   0.13779393    11142.937     1000 
 1378000   0.49242255   -2.2855286    0.7378952   -1.5476334   0.10926513    11300.241     1000 
 1380000   0.52357863   -2.2391455   0.78458257   -1.4545629   0.13158702    11126.574     1000 
 1382000    0.5016992   -2.2933057   0.75179625   -1.5415095   0.12967106    11161.841     1000 
 1384000    0.4857865   -2.2786807   0.72795107   -1.5507296   0.13507777    11149.959     1000 
 1386000   0.48645396   -2.2575051   0.72895126   -1.5285538   0.12482078    11268.457     1000 
 1388000   0.49717441     -2.27579   0.74501585   -1.5307742   0.12971218     11212.79     1000 
 1390000   0.48777222   -2.2822097   0.73092668    -1.551283   0.12032483    11331.691     1000 
 1392000   0.47931607   -2.2940076   0.71825513   -1.5757525   0.12465327    11239.812     1000 
 1394000   0.49032806   -2.2581992    0.7347566   -1.5234426   0.13424384    11119.769     1000 
 1396000   0.50149186   -2.2844679   0.75148555   -1.5329824   0.12906267    11192.607     1000 
 1398000   0.49466887   -2.2627827    0.7412613   -1.5215214   0.14149553    11084.245     1000 
 1400000    0.4921976   -2.3020769    0.7375581   -1.5645188   0.12160149    11207.558     1000 
 1402000   0.52782501   -2.2956611   0.79094578   -1.5047153   0.13886588    11154.192     1000 
 1404000   0.48975044   -2.3351938   0.73389103   -1.6013028   0.12854055    11252.728     1000 
 1406000   0.46998237   -2.2728547   0.70426858   -1.5685861   0.12678741    11145.798     1000 
 1408000   0.47555328   -2.3211236   0.71261659    -1.608507   0.12913959    11172.949     1000 
 1410000   0.49919082   -2.2866262   0.74803745   -1.5385887   0.14106439     11116.26     1000 
 1412000   0.47640116   -2.3283785   0.71388714   -1.6144913   0.12431631     11362.79     1000 
 1414000   0.48535538   -2.1973757   0.72730504   -1.4700707   0.14031957    10992.898     1000 
 1416000   0.52510066   -2.2825461   0.78686334   -1.4956827   0.13842225    11141.933     1000 
 1418000   0.49423802   -2.2542438   0.74061567   -1.5136282   0.11753073    11225.162     1000 
 1420000   0.47513584   -2.3194114   0.71199105   -1.6074204   0.13978385    11068.598     1000 
 1422000   0.50045353   -2.2950642   0.74992962   -1.5451346   0.13803465    11100.738     1000 
 1424000   0.47059801   -2.3118177   0.70519112   -1.6066266   0.13241475    11141.914     1000 
 1426000   0.49485761   -2.2467076   0.74154413   -1.5051634   0.14041454    11141.067     1000 
 1428000   0.47982574   -2.2879053   0.71901887   -1.5688864   0.14476104    11123.761     1000 
 1430000   0.48722192   -2.2698307   0.73010204   -1.5397287   0.12341582     11225.17     1000 
 1432000   0.52634485   -2.2660554   0.78872776   -1.4773276   0.14632855    11125.882     1000 
 1434000   0.48152057   -2.2859483   0.72155858   -1.5643897   0.12432716    11354.672     1000 
 1436000   0.48117674   -2.2708429   0.72104334   -1.5497995   0.12621065    11301.292     1000 
 1438000    0.5000317   -2.2971957   0.74929751   -1.5478982   0.13764225    11153.869     1000 
 1440000   0.49233283   -2.3044022   0.73776075   -1.5666415   0.14827845    11123.673     1000 
 1442000    0.4699735   -2.2737825   0.70425529   -1.5695272   0.12336775    11106.746     1000 
 1444000     0.476109   -2.2857313   0.71344933    -1.572282   0.11795222    11308.218     1000 
 1446000   0.46510797    -2.235402   0.69696429   -1.5384377   0.12724993    11251.018     1000 
 1448000   0.50717042   -2.2593478   0.75999488    -1.499353   0.14294469    11062.362     1000 
 1450000   0.47470881   -2.3035538   0.71135116   -1.5922026   0.13041617    11185.256     1000 
 1452000   0.50566858   -2.2561428   0.75774437   -1.4983985   0.13962197    11063.291     1000 
 1454000   0.49749031   -2.2520532   0.74548923   -1.5065639    0.1338938    11200.107     1000 
 1456000   0.48393653   -2.3312464   0.72517888   -1.6060675    0.1316546    11390.653     1000 
 1458000   0.50806898   -2.2733429   0.76134137   -1.5120016   0.14498616    11107.248     1000 
 1460000   0.52354939   -2.2655037   0.78453876   -1.4809649    0.1366145     11164.33     1000 
 1462000   0.48862736   -2.3361671    0.7322081    -1.603959    0.1164307     11217.79     1000 
 1464000   0.49297989   -2.2685692   0.73873037   -1.5298389   0.13041246    11121.428     1000 
 1466000   0.49582663   -2.3024002   0.74299621    -1.559404   0.12650649    11289.179     1000 
 1468000   0.49229177    -2.341241   0.73769922   -1.6035417   0.12721675    11347.724     1000 
 1470000   0.49427866   -2.2989821   0.74067657   -1.5583055   0.14658679    10908.975     1000 
 1472000   0.47106203   -2.2447641   0.70588645   -1.5388777   0.13342241    11232.684     1000 
 1474000   0.49164316   -2.3284792   0.73672727    -1.591752   0.12707463    11183.174     1000 
 1476000   0.50415982   -2.2669228   0.75548349   -1.5114393   0.11861215    11262.131     1000 
 1478000   0.47947468   -2.2714262   0.71849281   -1.5529334   0.13142223    11219.989     1000 
 1480000   0.48131776   -2.2965795   0.72125466   -1.5753248   0.12585012    11147.604     1000 
 1482000   0.49836341   -2.2949865   0.74679757   -1.5481889   0.13717717      11218.4     1000 
 1484000   0.47499731   -2.2697878   0.71178347   -1.5580043   0.14345173    11086.603     1000 
 1486000   0.49709618   -2.3199742   0.74489863   -1.5750756   0.12047991     11220.38     1000 
 1488000   0.51627875   -2.3152251   0.77364371   -1.5415814   0.12239317    11133.494     1000 
 1490000   0.47396198   -2.2726559   0.71023203   -1.5624239   0.12179773    11245.509     1000 
 1492000   0.49198061   -2.2272037   0.73723294   -1.4899708   0.12619799    11081.668     1000 
 1494000   0.48181091   -2.2668276   0.72199364    -1.544834   0.14808922    10965.097     1000 
 1496000   0.48259029   -2.3247211   0.72316155   -1.6015595   0.11499639    11298.892     1000 
 1498000   0.51264126    -2.350998   0.76819293   -1.5828051   0.12164145    11292.095     1000 
 1500000   0.49544318   -2.2619898   0.74242161   -1.5195682   0.12982629    11249.478     1000 
 1502000   0.48652979   -2.2736517   0.72906488   -1.5445868   0.13936854    11065.388     1000 
 1504000   0.49162586   -2.2755866   0.73670135   -1.5388853   0.14040536     11053.29     1000 
 1506000   0.52097206    -2.331145   0.78067664   -1.5504684   0.13187691    11340.463     1000 
 1508000   0.49916156   -2.3043971    0.7479936   -1.5564035   0.12739931    11089.175     1000 
 1510000   0.46975979   -2.2964758   0.70393504   -1.5925408    0.1399476    11121.091     1000 
 1512000   0.47843511   -2.2282196   0.71693501   -1.5112846   0.14008502    11131.042     1000 
 1514000    0.4660963   -2.2657196   0.69844531   -1.5672743     0.123949    11177.959     1000 
 1516000   0.48703556   -2.2834342   0.72982279   -1.5536114   0.12969122    11224.517     1000 
 1518000   0.48097864   -2.2553708    0.7207465   -1.5346243    0.1341486    11140.066     1000 
 1520000   0.46982448    -2.292683   0.70403198    -1.588651     0.117905    11291.784     1000 
 1522000   0.48798783   -2.2524479   0.73124976   -1.5211981   0.14545311    11074.066     1000 
 1524000   0.50091655   -2.3009753   0.75062345   -1.5503519   0.12441384    11255.207     1000 
 1526000   0.48999806   -2.2584195   0.73426209   -1.5241575   0.11902802    11233.787     1000 
 1528000   0.49309138   -2.2416986   0.73889744   -1.5028011   0.13265486    11111.821     1000 
 1530000   0.50668225   -2.2883111   0.75926336   -1.5290478   0.12139407     11204.95     1000 
 1532000   0.51671395   -2.3024225   0.77429585   -1.5281266   0.12259071    11340.677     1000 
 1534000   0.50726621   -2.2854023   0.76013842   -1.5252638   0.12856811    11206.517     1000 
 1536000   0.47786808   -2.2757948   0.71608531   -1.5597095   0.12271572    11196.964     1000 
 1538000   0.48454195   -2.2267197   0.72608611   -1.5006336   0.12910199    10993.038     1000 
 1540000   0.48834845   -2.2605705   0.73179015   -1.5287804   0.13345596    11034.615     1000 
 1542000   0.51617377   -2.2759562    0.7734864   -1.5024698   0.14390673     11092.63     1000 
 1544000   0.50574102   -2.2611988   0.75785291   -1.5033458   0.12377539    11141.835     1000 
 1546000   0.48704347   -2.2588484   0.72983464   -1.5290138    0.1330821    11177.668     1000 
 1548000   0.49558119    -2.314242   0.74262841   -1.5716136   0.12385955    11275.118     1000 
 1550000   0.47947809   -2.2814308   0.71849791   -1.5629329   0.12390181    11297.138     1000 
 1552000   0.48822545   -2.2723743   0.73160584   -1.5407685    0.1137849    11285.164     1000 
 1554000   0.50605923    -2.288302   0.75832975   -1.5299722   0.13389827    11144.675     1000 
 1556000   0.47884835   -2.2764531   0.71755426   -1.5588989   0.12196633    11322.649     1000 
 1558000   0.48444116   -2.2688324   0.72593508   -1.5428973   0.13282115    11100.772     1000 
 1560000   0.48527983   -2.2950233   0.72719183   -1.5678315   0.13461472    11054.573     1000 
 1562000   0.47799371   -2.3221949   0.71627358   -1.6059213   0.13056797    11180.783     1000 
 1564000   0.47835065   -2.2484054   0.71680844   -1.5315969    0.1261362    11072.416     1000 
 1566000   0.48974881   -2.3139472   0.73388859   -1.5800586   0.12477083    11451.008     1000 
 1568000   0.50469451   -2.3001724   0.75628473   -1.5438877   0.12454387    11228.917     1000 
 1570000   0.48691235   -2.2441219   0.72963816   -1.5144837   0.13670314    11065.164     1000 
 1572000   0.47011797   -2.2998097   0.70447178   -1.5953379   0.12616006    11255.858     1000 
 1574000   0.49644234   -2.2737647   0.74391885   -1.5298458   0.13161754    11114.632     1000 
 1576000   0.49908562   -2.2641082   0.74787981   -1.5162284   0.13531441    11314.708     1000 
 1578000   0.50127244   -2.3232402   0.75115675   -1.5720834   0.12943549    11225.957     1000 
 1580000   0.47561731   -2.3445242   0.71271255   -1.6318117   0.12395084    11276.044     1000 
 1582000    0.4951475   -2.2429262   0.74197853   -1.5009476   0.13807205    11050.047     1000 
 1584000   0.47761404   -2.2063313   0.71570464   -1.4906266   0.12697512    11186.059     1000 
 1586000   0.47714955   -2.2791689   0.71500861   -1.5641603   0.13517144    11148.582     1000 
 1588000   0.49984002   -2.2667649   0.74901027   -1.5177547   0.13495515    11197.497     1000 
 1590000   0.47688635   -2.2953284    0.7146142   -1.5807142   0.12881198    11212.916     1000 
 1592000   0.50228531   -2.2948291   0.75267454   -1.5421546   0.12563692    11203.051     1000 
 1594000   0.50205689    -2.271633   0.75233224   -1.5193008   0.14610849    11069.623     1000 
 1596000   0.49328603   -2.2671974   0.73918911   -1.5280083   0.13056432    11216.717     1000 
[...]
 2612000   0.49851479   -2.3276753   0.74702442   -1.5806509   0.14460641    11073.729     1000 
 2614000   0.47772644   -2.2858393   0.71587307   -1.5699662   0.12180173    11249.804     1000 
 2616000   0.51566543   -2.3171826   0.77272465    -1.544458    0.1448136    11202.562     1000 
 2618000    0.4747456   -2.2698366   0.71140628   -1.5584303   0.12912609    11256.496     1000 
 2620000   0.49716987   -2.2856541   0.74500905    -1.540645   0.12130254    11245.169     1000 
 2622000   0.50039893   -2.2832603    0.7498478   -1.5334125   0.13477164    11126.663     1000 
 2624000    0.4899487   -2.2646231   0.73418813    -1.530435   0.12173426    11186.591     1000 
 2626000   0.49038796    -2.301832   0.73484636   -1.5669856   0.12462828    11175.354     1000 
 2628000   0.50696261   -2.3081794   0.75968348   -1.5484959   0.13090529    11123.974     1000 
 2630000   0.47940605   -2.2519653   0.71838996   -1.5335754   0.13370739    11228.845     1000 
 2632000   0.46930835   -2.2961904   0.70325857   -1.5929318   0.12656461    11200.297     1000 
 2634000   0.49283575   -2.3042769   0.73851436   -1.5657626   0.11627597    11466.731     1000 
 2636000   0.50329171   -2.3154896   0.75418263    -1.561307     0.126511    11232.687     1000 
 2638000   0.48429634   -2.2909907   0.72571806   -1.5652727   0.11410512    11210.673     1000 
 2640000   0.47664046   -2.3065367   0.71424573    -1.592291    0.1317094    11208.284     1000 
 2642000   0.48043155   -2.2610376   0.71992668    -1.541111   0.12906709    11165.833     1000 
 2644000   0.49885813   -2.2197368   0.74753891   -1.4721979    0.1353111    11119.124     1000 
 2646000   0.51968871   -2.2959782   0.77875353   -1.5172247   0.12775927    11336.991     1000 
 2648000    0.5035059   -2.2547825    0.7545036   -1.5002789   0.10452095    11364.963     1000 
 2650000   0.48027399   -2.3312597   0.71969057   -1.6115692   0.14428647    11102.144     1000 
 2652000   0.49278967   -2.2595168   0.73844532   -1.5210715   0.14307257    11174.925     1000 
 2654000   0.50675225   -2.2945578   0.75936824   -1.5351895   0.11958555    11259.355     1000 
 2656000    0.5043845   -2.2806732   0.75582018    -1.524853   0.13312379    11220.254     1000 
 2658000   0.48910235   -2.2461321   0.73291988   -1.5132122   0.13204526    11222.852     1000 
 2660000   0.49313988   -2.2567823   0.73897012   -1.5178122   0.12832116    11063.966     1000 
 2662000    0.4810835   -2.2590103   0.72090363   -1.5381067   0.12713508    11052.453     1000 
 2664000   0.50001613   -2.2549325   0.74927416   -1.5056583   0.13706979    11062.997     1000 
 2666000   0.49466485   -2.2557359   0.74125528   -1.5144806   0.13375435    11221.138     1000 
 2668000    0.4951568   -2.3687662   0.74199247   -1.6267738   0.12583708    11372.514     1000 
 2670000    0.4891388   -2.2856278   0.73297449   -1.5526533    0.1347049    11209.439     1000 
 2672000   0.46437584   -2.3371502    0.6958672    -1.641283   0.13223782     11114.23     1000 
 2674000   0.50435154   -2.2684272   0.75577078   -1.5126564   0.13054021     11158.56     1000 
 2676000   0.50637331   -2.2659065   0.75880041   -1.5071061   0.13530035    11217.819     1000 
 2678000    0.5054672   -2.3208178    0.7574426   -1.5633752   0.12121629    11357.108     1000 
 2680000   0.48690311   -2.3116057   0.72962431   -1.5819814   0.13356239    11253.002     1000 
 2682000   0.50095306   -2.3117935   0.75067816   -1.5611154    0.1337007    11261.981     1000 
 2684000   0.49034984   -2.2483053   0.73478924   -1.5135161   0.13169135    11044.055     1000 
 2686000   0.48318221   -2.2136267   0.72404855   -1.4895782   0.13782022    11025.184     1000 
 2688000   0.50088442   -2.2383587    0.7505753   -1.4877834   0.12852625    11054.026     1000 
 2690000   0.47623669   -2.2455285   0.71364067   -1.5318878   0.13210008    11176.549     1000 
 2692000   0.47187775   -2.2805955   0.70710881   -1.5734867   0.13267476    11057.475     1000 
 2694000   0.50529055   -2.2447705   0.75717789   -1.4875926   0.13085983    11100.721     1000 
 2696000    0.4860995   -2.2808248    0.7284201   -1.5524047   0.13425675    11149.666     1000 
 2698000   0.47696813    -2.312948   0.71473674   -1.5982113   0.14187645    11084.179     1000 
 2700000   0.51128699    -2.244343   0.76616356   -1.4781794   0.13670956    11005.249     1000 
 2702000   0.50641627   -2.3258937   0.75886478   -1.5670289   0.12866547    11192.689     1000 
 2704000   0.46061746   -2.2817367   0.69023526   -1.5915015   0.13036716    11209.535     1000 
 2706000   0.49659034   -2.2764508   0.74414063   -1.5323102   0.12503694    11173.892     1000 
 2708000   0.48476258   -2.2718235   0.72641672   -1.5454068   0.11857624    11279.949     1000 
 2710000   0.48874915   -2.3139877   0.73239061   -1.5815971   0.11141277     11289.74     1000 
 2712000   0.49256926   -2.3371866   0.73811504   -1.5990715   0.12407209    11311.434     1000 
 2714000   0.49861121   -2.2616233    0.7471689   -1.5144544   0.12499855    11155.821     1000 
 2716000   0.48345783   -2.2998505   0.72446157   -1.5753889   0.12078942    11245.993     1000 
 2718000   0.50078924   -2.2815517   0.75043267    -1.531119   0.10361831    11224.472     1000 
 2720000   0.50265448   -2.3235621   0.75322774   -1.5703343   0.12388707    11281.873     1000 
 2722000   0.49970855   -2.3186644   0.74881326   -1.5698511   0.12505248    11289.098     1000 
 2724000   0.46803132   -2.2338926   0.70134493   -1.5325477   0.12535493    11121.142     1000 
 2726000   0.51132917   -2.3050896   0.76622675   -1.5388628   0.13574599    11068.708     1000 
 2728000   0.48468652   -2.2316892   0.72630275   -1.5053864   0.12754135    11105.989     1000 
 2730000   0.48194609   -2.3133459   0.72219622   -1.5911496   0.12438157    11253.251     1000 
 2732000   0.48233774   -2.2461038    0.7227831   -1.5233207   0.14846654    10988.418     1000 
 2734000   0.48369588   -2.3045298   0.72481827   -1.5797116   0.13758905    11205.108     1000 
 2736000   0.48115252   -2.3124133   0.72100705   -1.5914063     0.123211    11311.022     1000 
 2738000   0.46519662   -2.2490467   0.69709714   -1.5519495    0.1165894    11222.682     1000 
 2740000   0.48999677   -2.3175262   0.73426016    -1.583266   0.12368773    11296.217     1000 
 2742000   0.49539939    -2.302196   0.74235598     -1.55984   0.12260103    11177.552     1000 
 2744000   0.49761946   -2.3286148   0.74568276   -1.5829321   0.13001627    11179.009     1000 
 2746000    0.5293348   -2.2598526    0.7932082   -1.4666444   0.12589655    11302.226     1000 
 2748000   0.48131524    -2.271413   0.72125089   -1.5501621   0.12525679    11124.289     1000 
 2750000   0.49106663     -2.25588   0.73586334   -1.5200167   0.12376537    11119.359     1000 
 2752000   0.50578734   -2.3179298   0.75792234   -1.5600074   0.13667202    11134.542     1000 
 2754000   0.49174963   -2.3089002   0.73688682   -1.5720134   0.12656311    11274.502     1000 
 2756000   0.48467722   -2.2736644   0.72628881   -1.5473756   0.13183218    11150.854     1000 
 2758000   0.49014896    -2.322967   0.73448822   -1.5884787   0.11042617    11414.349     1000 
 2760000   0.49566095   -2.3165999   0.74274794   -1.5738519   0.12671629    11213.361     1000 
 2762000   0.49081738   -2.2494799   0.73548985   -1.5139901   0.13155146    11134.838     1000 
 2764000   0.48346133   -2.2934938    0.7244668    -1.569027   0.13089534    11193.694     1000 
 2766000    0.5083347   -2.2826983   0.76173956   -1.5209588   0.12878877    11376.881     1000 
 2768000   0.50484529    -2.338312   0.75651066   -1.5818014   0.12569635    11174.105     1000 
 2770000   0.50478899   -2.2535684   0.75642631   -1.4971421   0.13800349    11024.381     1000 
 2772000    0.4560524   -2.2453043   0.68339453   -1.5619097   0.14307516    11003.454     1000 
 2774000   0.50021608   -2.2562342   0.74957379   -1.5066604   0.12265324    11202.759     1000 
 2776000   0.49735378   -2.2942089   0.74528464   -1.5489243   0.12981544    11241.335     1000 
 2778000   0.49130112    -2.327747   0.73621473   -1.5915323   0.14819117    11190.521     1000 
 2780000   0.47256826   -2.3158386   0.70814353   -1.6076951   0.13202033     11069.06     1000 
 2782000   0.47327443   -2.2105388   0.70920173   -1.5013371   0.12105536    11102.909     1000 
 2784000   0.48949553   -2.2780327   0.73350906   -1.5445237   0.13494482    11129.203     1000 
 2786000   0.50205855   -2.3019518   0.75233473    -1.549617   0.12956267    11305.525     1000 
 2788000   0.50671385    -2.292121    0.7593107   -1.5328103   0.13503243    11108.469     1000 
 2790000   0.49471682    -2.268664   0.74133315   -1.5273308   0.12025763    11253.956     1000 
 2792000   0.49799307   -2.2407046   0.74624262    -1.494462    0.1334984     11232.36     1000 
 2794000    0.4881137   -2.2638459   0.73143838   -1.5324075   0.12295431    11275.838     1000 
 2796000   0.47000163   -2.2813281   0.70429745   -1.5770307   0.12530686    11175.327     1000 
 2798000   0.50702315   -2.2351016   0.75977419   -1.4753275   0.13432202    11026.391     1000 
 2800000   0.47224382    -2.263149   0.70765736   -1.5554916   0.12957955    11133.758     1000 
 2802000   0.48403564   -2.3007165    0.7253274   -1.5753891   0.13236815    11243.272     1000 
 2804000   0.49201143   -2.2441288   0.73727912   -1.5068496   0.14025928    11184.653     1000 
 2806000   0.49899269   -2.2610756   0.74774055    -1.513335   0.14608149    11030.353     1000 
 2808000   0.49411579   -2.3084791   0.74043251   -1.5680466   0.13577209    11097.178     1000 
 2810000   0.48699874   -2.2866377   0.72976761   -1.5568701   0.11913463    11315.365     1000 
 2812000   0.48843528   -2.2409646   0.73192026   -1.5090443   0.13927731    11007.923     1000 
 2814000   0.48426137   -2.3150774   0.72566566   -1.5894118   0.12924819     11165.14     1000 
 2816000   0.49063127   -2.2991708   0.73521096   -1.5639598   0.14234499    11068.236     1000 
 2818000   0.50250504   -2.3367311    0.7530038   -1.5837273   0.13071609    11205.878     1000 
 2820000    0.5038564   -2.2431039   0.75502882   -1.4880751   0.13993993    11217.036     1000 
 2822000   0.49153046   -2.2675087    0.7365584   -1.5309503   0.13209403     11113.47     1000 
 2824000   0.47921238   -2.2640766   0.71809975   -1.5459768   0.12229493    11085.835     1000 
 2826000   0.49115201   -2.2273427   0.73599129   -1.4913514   0.12241111    11261.321     1000 
 2828000   0.49220334   -2.2433349    0.7375667   -1.5057682   0.13290586    11119.842     1000 
 2830000   0.50471156   -2.3262019   0.75631027   -1.5698916   0.12763696     11345.32     1000 
 2832000   0.49901915    -2.319589    0.7477802   -1.5718088   0.13781379    11152.185     1000 
 2834000   0.50368748   -2.3001183   0.75477569   -1.5453426   0.13473743    11210.408     1000 
 2836000   0.48750788    -2.258648   0.73053055   -1.5281174   0.14476656     11024.23     1000 
 2838000   0.50861862    -2.261986     0.762165    -1.499821    0.1463772    10994.142     1000 
 2840000   0.49227124    -2.292797   0.73766846   -1.5551285    0.1329889    11104.109     1000 
 2842000   0.48803291    -2.305075   0.73131732   -1.5737577   0.13747091    11178.659     1000 
 2844000   0.47507227   -2.2755736   0.71189579   -1.5636778   0.12754215     11216.58     1000 
 2846000    0.4751396   -2.2838907    0.7119967    -1.571894   0.13935114    11041.344     1000 
 2848000   0.51724655   -2.3201679   0.77509396   -1.5450739   0.12449333    11332.899     1000 
 2850000   0.47570289   -2.2819092   0.71284078   -1.5690684   0.13085964    11429.323     1000 
 2852000   0.50487956   -2.2892283   0.75656202   -1.5326663   0.11986265    11333.251     1000 
 2854000   0.48824327   -2.2586953   0.73163253   -1.5270628   0.13003526    11156.696     1000 
 2856000   0.50893428   -2.2873501   0.76263802   -1.5247121   0.13512729    11121.755     1000 
 2858000   0.49521634   -2.3188621   0.74208168   -1.5767804   0.13338606    11225.525     1000 
 2860000   0.49462297   -2.2209082   0.74119252   -1.4797157   0.13636513    10995.139     1000 
 2862000   0.49309342   -2.2908656   0.73890049   -1.5519652   0.12250093    11265.953     1000 
 2864000   0.52875088   -2.2808844    0.7923332   -1.4885512   0.15424218    11037.962     1000 
 2866000   0.50681938   -2.2204318   0.75946884   -1.4609629   0.13516603    11145.659     1000 
 2868000   0.49290153   -2.3234377   0.73861294   -1.5848247   0.11746826    11407.779     1000 
 2870000   0.46646451   -2.2897636   0.69899707   -1.5907665   0.11634338    11364.312     1000 
 2872000    0.4869204   -2.2977842   0.72965022    -1.568134   0.12326173     11163.78     1000 
 2874000   0.49574975   -2.3025784     0.742881   -1.5596974    0.1350151    11096.012     1000 
 2876000   0.48344949   -2.2894763   0.72444905   -1.5650272   0.12635447    11167.773     1000 
 2878000   0.48686734   -2.2493516   0.72957071   -1.5197809   0.12702805    11223.877     1000 
 2880000   0.47600235   -2.3048859   0.71328952   -1.5915964   0.13385288    11316.136     1000 
 2882000   0.49687193   -2.2783847   0.74456259   -1.5338221   0.13426496    11170.745     1000 
 2884000   0.48419072   -2.3101979    0.7255598   -1.5846381   0.12778222    11153.273     1000 
 2886000   0.50038919   -2.2519036    0.7498332   -1.5020704   0.14559634    11010.364     1000 
 2888000   0.50873152   -2.3370631   0.76233418   -1.5747289   0.11964171    11282.286     1000 
 2890000   0.47297997   -2.3008922   0.70876048   -1.5921317   0.13162816    11141.841     1000 
 2892000   0.48004356    -2.275122   0.71934527   -1.5557768   0.11573701    11362.469     1000 
 2894000   0.50243499   -2.3093118   0.75289884    -1.556413   0.13186796    11197.827     1000 
 2896000   0.47783082   -2.2488467   0.71602949   -1.5328172   0.12701324    11239.312     1000 
 2898000   0.50612462   -2.3235259   0.75842774   -1.5650982   0.13134062    11142.007     1000 
 2900000   0.50383536   -2.2781786   0.75499729   -1.5231813   0.13129685    11202.296     1000 
 2902000   0.50150801   -2.2559671   0.75150975   -1.5044573   0.12565211     11372.61     1000 
 2904000   0.47553842   -2.2842937   0.71259432   -1.5716994   0.13278341    11203.014     1000 
 2906000   0.48900135    -2.279098   0.73276853   -1.5463294   0.13318607    11149.068     1000 
 2908000   0.46967005   -2.2472364   0.70380057   -1.5434358   0.12050987    11304.573     1000 
 2910000   0.48292378   -2.2885469   0.72366128   -1.5648856   0.12081407    11220.105     1000 
 2912000   0.49648171   -2.3121363   0.74397784   -1.5681585   0.12394665    11275.671     1000 
 2914000   0.48246744   -2.2521781   0.72297746   -1.5292006   0.13150488    11111.879     1000 
 2916000   0.49036633   -2.2757749   0.73481394   -1.5409609   0.12036441    11276.179     1000 
 2918000   0.47736224   -2.3162265   0.71532732   -1.6008992   0.12620142    11231.075     1000 
 2920000   0.50546977   -2.2808978   0.75744645   -1.5234514   0.12504783    11249.788     1000 
 2922000   0.50214151   -2.3101874   0.75245905   -1.5577284    0.1290653    11258.834     1000 
 2924000   0.49508222   -2.2683871    0.7418807   -1.5265064   0.12047296    11179.802     1000 
 2926000   0.47136896    -2.275294   0.70634639   -1.5689477   0.13786342    11167.258     1000 
 2928000   0.47236333    -2.313942   0.70783644   -1.6061056   0.12726526    11220.202     1000 
 2930000   0.48236409   -2.2661918   0.72282259   -1.5433692   0.13045358    11105.365     1000 
 2932000   0.47645088   -2.2964978   0.71396164   -1.5825362   0.13359752    11112.379     1000 
 2934000   0.49628782   -2.2771841   0.74368729   -1.5334968   0.13742562    11134.764     1000 
 2936000   0.49250994   -2.2903113   0.73802615   -1.5522851   0.13325323    11171.078     1000 
 2938000   0.48885318   -2.3018074   0.73254649   -1.5692609   0.14207831    11110.265     1000 
 2940000   0.48341253   -2.3100265   0.72439368   -1.5856329   0.12047284    11287.447     1000 
 2942000   0.47904942   -2.2680681   0.71785556   -1.5502125   0.13344319    11081.612     1000 
 2944000   0.48697474   -2.2697656   0.72973165    -1.540034   0.12553195    11231.562     1000 
 2946000   0.49483067   -2.2695498   0.74150375   -1.5280461   0.13647682    11109.769     1000 
 2948000   0.48908844   -2.3071424   0.73289903   -1.5742434   0.12172156    11344.001     1000 
 2950000   0.48788049   -2.3264089   0.73108892     -1.59532   0.12950275    11201.155     1000 
 2952000   0.48807357   -2.2881795   0.73137825   -1.5568013   0.12500148     11260.58     1000 
 2954000   0.46341158   -2.3160109   0.69442225   -1.6215887   0.12296342    11242.315     1000 
 2956000   0.51218296   -2.3368893   0.76750617   -1.5693832   0.12856335     11307.37     1000 
 2958000   0.49783952   -2.2872392   0.74601252   -1.5412267   0.14441345    11086.412     1000 
 2960000   0.48661325   -2.2755042   0.72918995   -1.5463142   0.13447458    11080.824     1000 
 2962000   0.48513568   -2.2935154   0.72697582   -1.5665396   0.13873814    11056.373     1000 
 2964000   0.49026449   -2.3004863   0.73466133   -1.5658249   0.11875299    11267.804     1000 
 2966000   0.46072391   -2.2732199   0.69039478   -1.5828252   0.10909852    11346.454     1000 
 2968000    0.4928538   -2.3218582   0.73854141   -1.5833168   0.12931214    11211.792     1000 
 2970000   0.49603115   -2.3132365   0.74330269   -1.5699338   0.12903121    11203.891     1000 
 2972000   0.49824116   -2.2359757   0.74661438   -1.4893613   0.14141525    11081.105     1000 
 2974000   0.49400383    -2.278917   0.74026473   -1.5386522   0.12519433     11177.99     1000 
 2976000   0.48028539   -2.2608497   0.71970766   -1.5411421   0.12900369    11091.239     1000 
 2978000    0.4758117   -2.3295576   0.71300384   -1.6165538    0.1185681    11297.867     1000 
 2980000   0.48728248   -2.2729759   0.73019279   -1.5427831   0.13059973    11239.741     1000 
 2982000   0.50915768   -2.2820115   0.76297279   -1.5190387   0.13323233    11101.529     1000 
 2984000   0.47603861   -2.2744245   0.71334385   -1.5610807   0.12003325    11209.986     1000 
 2986000   0.51487221   -2.3368898   0.77153601   -1.5653538   0.15113281    11208.898     1000 
 2988000   0.51260796   -2.3128793   0.76814302   -1.5447362   0.13474761    11192.716     1000 
 2990000   0.50666619   -2.3129713   0.75923929    -1.553732   0.13211513    11240.921     1000 
 2992000   0.49254919   -2.3086075   0.73808497   -1.5705225   0.13618369    11203.077     1000 
 2994000   0.45746086    -2.290213   0.68550509   -1.6047079   0.12928487    11255.301     1000 
 2996000   0.49981876   -2.2741103   0.74897841   -1.5251319   0.13029903    11176.678     1000 
 2998000   0.47419711   -2.3365067   0.71058436   -1.6259223   0.13784138    11125.356     1000 
 3000000   0.50064598   -2.2483552     0.750218   -1.4981372   0.13835653    11139.648     1000 
Loop time of 1930.01 on 4 procs for 3000000 steps with 1000 atoms

Performance: 671500.172 tau/day, 1554.399 timesteps/s
96.8% CPU use with 4 MPI tasks x no OpenMP threads

MPI task timing breakdown:
Section |  min time  |  avg time  |  max time  |%varavg| %total
---------------------------------------------------------------
Pair    | 1457.6     | 1526.1     | 1592.4     | 128.8 | 79.07
Neigh   | 112.96     | 114.81     | 116.67     |  12.9 |  5.95
Comm    | 167.25     | 235.69     | 306.04     | 337.4 | 12.21
Output  | 0.027259   | 0.030354   | 0.039392   |   3.0 |  0.00
Modify  | 44.276     | 44.435     | 44.697     |   2.4 |  2.30
Other   |            | 8.977      |            |       |  0.47

Nlocal:    250 ave 256 max 247 min
Histogram: 2 0 0 1 0 0 0 0 0 1
Nghost:    2464.25 ave 2473 max 2456 min
Histogram: 1 0 1 0 0 0 0 1 0 1
Neighs:    26657.2 ave 27761 max 25915 min
Histogram: 2 0 0 0 0 1 0 0 0 1

Total # of neighbors = 106629
Ave neighs/atom = 106.629
Neighbor list builds = 150000
Dangerous builds not checked

Total wall time: 0:32:10
