LAMMPS (29 Sep 2021 - Update 2)
OMP_NUM_THREADS environment is not set. Defaulting to 1 thread. (src/comm.cpp:98)
  using 1 OpenMP thread(s) per MPI task
# ----------------------- Inicialização -----------------------

units			lj
atom_style 		atomic
dimension 		3
boundary 		p p p

# -------------------- Criação dos Átomos ---------------------

read_data 		topologia.txt
Reading data file ...
  orthogonal box = (0.0000000 0.0000000 0.0000000) to (21.540000 21.540000 21.540000)
  1 by 1 by 1 MPI processor grid
  reading atoms ...
  1000 atoms
  read_data CPU = 0.006 seconds

velocity 		all create ${temp} 87287 rot yes dist gaussian
velocity 		all create 0.52 87287 rot yes dist gaussian

# ------------------ Interação Interatômica -------------------

pair_style		table linear 1000
pair_coeff		1 1 force.table AA 5.0
WARNING: 2 of 1000 force values in table AA are inconsistent with -dE/dr.
WARNING:  Should only be flagged at inflection points (src/pair_table.cpp:465)
pair_coeff		1 2 force.table AB 5.0
WARNING: 1 of 1000 force values in table AB are inconsistent with -dE/dr.
WARNING:  Should only be flagged at inflection points (src/pair_table.cpp:465)
pair_coeff		2 2 force.table BB 5.0
pair_write		1 1 1000 r 0.008 5.0 table.check AA
Appending to table file table.check with DATE: 2023-07-05
Neighbor list info ...
  update every 1 steps, delay 10 steps, check yes
  max neighbors/atom: 2000, page size: 100000
  master list distance cutoff = 5.3
  ghost atom cutoff = 5.3
  binsize = 2.65, bins = 9 9 9
  1 neighbor lists, perpetual/occasional/extra = 1 0 0
  (1) pair table, perpetual
      attributes: half, newton on
      pair build: half/bin/atomonly/newton
      stencil: half/bin/3d
      bin: standard
pair_write		1 2 1000 r 0.008 5.0 table.check AB
Appending to table file table.check with DATE: 2023-07-05
pair_write		2 2 1000 r 0.008 5.0 table.check BB
Appending to table file table.check with DATE: 2023-07-05

neighbor 		0.3 bin
neigh_modify		every 20 delay 0 check no

# ------------------------- Ensemble --------------------------------------

fix 1			all npt temp ${temp} ${temp} 0.5 iso ${press} ${press} 5
fix 1			all npt temp 0.52 ${temp} 0.5 iso ${press} ${press} 5
fix 1			all npt temp 0.52 0.52 0.5 iso ${press} ${press} 5
fix 1			all npt temp 0.52 0.52 0.5 iso 0.13 ${press} 5
fix 1			all npt temp 0.52 0.52 0.5 iso 0.13 0.13 5

# ---------------------- Função de Distribuição Radial -----------------------

#compute RDF 		all rdf 2000 1 1 1 2 2 2
#fix 2 			all ave/time 1 2000 2000 c_RDF[*] file rdf.data mode vector

# ------------------------- Execução ---------------------------

timestep 		0.005
thermo_style		custom step temp pe ke etotal press vol atoms
thermo			2000
run			3000000
Per MPI rank memory allocation (min/avg/max) = 2.670 | 2.670 | 2.670 Mbytes
Step Temp PotEng KinEng TotEng Press Volume Atoms 
       0         0.52     2.188118      0.77922     2.967338     2.038809    9993.9483     1000 
    2000   0.51513269   -2.5367619   0.77192633   -1.7648356   0.13364899    11762.491     1000 
    4000   0.52132154   -2.5236346   0.78120032   -1.7424343   0.13911639    11445.732     1000 
    6000   0.49085228   -2.5941496   0.73554213   -1.8586075   0.11966246    11679.353     1000 
    8000   0.49572222   -2.5893364   0.74283975   -1.8464966    0.1286963    11492.186     1000 
   10000   0.52794008    -2.607168   0.79111821   -1.8160497   0.13646277    11391.205     1000 
   12000   0.50863322   -2.5824903   0.76218689   -1.8203034   0.13000993    11458.671     1000 
   14000    0.5037886   -2.6046482   0.75492722    -1.849721   0.12110316    11572.022     1000 
   16000   0.51576436   -2.5552987   0.77287289   -1.7824258   0.14166693    11333.887     1000 
   18000   0.54050989   -2.5955487   0.80995407   -1.7855946   0.13233379    11314.373     1000 
   20000   0.52251066   -2.5767471   0.78298223   -1.7937649   0.13208805    11314.723     1000 
   22000   0.50338297   -2.6474152   0.75431939   -1.8930958   0.12839346     11524.11     1000 
   24000   0.50816504   -2.6111674   0.76148531   -1.8496821    0.1050495    11347.617     1000 
   26000   0.51310164    -2.620553    0.7688828   -1.8516702   0.12993489    11388.092     1000 
   28000   0.51215444   -2.6242637   0.76746342   -1.8568003   0.12646033    11532.936     1000 
   30000   0.51135529    -2.598525   0.76626591   -1.8322591   0.11892254    11431.944     1000 
   32000   0.51944618   -2.6283013    0.7783901   -1.8499112   0.11802944     11514.74     1000 
   34000   0.53993489    -2.594621   0.80909243   -1.7855285   0.13828765    11531.796     1000 
   36000   0.51783787   -2.6653507   0.77598004   -1.8893707    0.1415035    11445.724     1000 
   38000   0.51332198   -2.6063429   0.76921299   -1.8371299   0.12734913    11488.875     1000 
   40000   0.49950956   -2.6096384   0.74851507   -1.8611234   0.13885438    11364.374     1000 
   42000   0.54138948   -2.6137294   0.81127214   -1.8024573   0.12353774    11600.078     1000 
   44000   0.53111421   -2.5643555   0.79587464   -1.7684808   0.13713974    11419.884     1000 
   46000   0.51623501    -2.637321   0.77357816   -1.8637429    0.1226558    11565.014     1000 
   48000   0.51337906    -2.614808   0.76929852   -1.8455095   0.12760773    11458.286     1000 
   50000   0.52911878   -2.5706073    0.7928845   -1.7777228   0.13574399    11356.296     1000 
   52000   0.52462341     -2.57344   0.78614817   -1.7872918   0.12127094    11342.317     1000 
   54000   0.53209657   -2.5997832   0.79734671   -1.8024365   0.14553113    11412.421     1000 
   56000   0.50556873    -2.570845   0.75759474   -1.8132502   0.13366859    11255.177     1000 
   58000   0.49828288   -2.6128805    0.7466769   -1.8662036   0.13306027    11353.025     1000 
   60000   0.51672287   -2.5780451   0.77430923   -1.8037359   0.13381428    11424.703     1000 
   62000    0.4973267    -2.609793   0.74524406   -1.8645489    0.1356221    11388.641     1000 
   64000   0.53058647   -2.6226289   0.79508382    -1.827545   0.12593652    11418.823     1000 
   66000   0.51912211   -2.5673952   0.77790448   -1.7894908   0.13105631    11450.306     1000 
   68000   0.51543795   -2.5487457   0.77238376   -1.7763619   0.13370209    11404.484     1000 
   70000   0.49671105    -2.599723   0.74432151   -1.8554015   0.12026068    11526.677     1000 
   72000   0.51072268   -2.5862392   0.76531793   -1.8209212   0.13255629    11374.619     1000 
   74000    0.5395122   -2.6100329   0.80845903   -1.8015739   0.13366482    11505.723     1000 
   76000   0.50999155   -2.6070608   0.76422234   -1.8428385   0.13323557    11540.706     1000 
   78000   0.51060812   -2.6383151   0.76514627   -1.8731688   0.13116236     11280.55     1000 
   80000   0.50427093   -2.6539932   0.75564999   -1.8983433   0.12761799     11549.92     1000 
   82000   0.50546291   -2.6175673   0.75743618   -1.8601311   0.12673566    11290.623     1000 
   84000   0.51878583   -2.6327448   0.77740057   -1.8553442   0.13138748    11387.089     1000 
   86000   0.53766072   -2.5987534   0.80568458   -1.7930688   0.15413705    11275.694     1000 
   88000   0.52164768   -2.6618759   0.78168904   -1.8801868   0.13047463    11413.307     1000 
   90000   0.51004021   -2.5813363   0.76429526    -1.817041   0.11638248    11624.214     1000 
   92000   0.50072924   -2.6104125   0.75034276   -1.8600697    0.1227545    11415.881     1000 
   94000   0.51680736   -2.6029123   0.77443583   -1.8284764   0.12397275    11432.148     1000 
   96000   0.53251407   -2.6044488   0.79797233   -1.8064764   0.13902845    11356.803     1000 
   98000   0.53672999   -2.6248221   0.80428988   -1.8205322   0.13040912     11512.58     1000 
  100000   0.53551365   -2.5892864   0.80246721   -1.7868192     0.144802    11288.317     1000 
  102000    0.4915206   -2.6460771   0.73654362   -1.9095335   0.13067442    11529.219     1000 
  104000   0.53673048   -2.5521118   0.80429063   -1.7478212   0.13660651    11284.056     1000 
  106000   0.50950487   -2.6730471   0.76349305   -1.9095541   0.13454798    11472.429     1000 
  108000   0.52035558   -2.6449019   0.77975283   -1.8651491   0.12309069    11456.731     1000 
  110000   0.52358507   -2.6750401   0.78459223   -1.8904479   0.12291809    11541.557     1000 
  112000   0.50110811   -2.5869762   0.75091051   -1.8360657   0.10333157    11618.375     1000 
  114000   0.49790191   -2.6236067   0.74610601   -1.8775007   0.12923346    11527.126     1000 
  116000   0.52240872   -2.6418574   0.78282947   -1.8590279    0.1185786    11490.903     1000 
  118000   0.51507186   -2.6282997   0.77183519   -1.8564645   0.13869072    11524.075     1000 
  120000   0.52127149   -2.6241223   0.78112533    -1.842997   0.11443649    11437.975     1000 
  122000   0.51678548   -2.6244516   0.77440304   -1.8500486     0.128272    11527.538     1000 
  124000   0.54289217   -2.6099397   0.81352392   -1.7964158   0.12225145    11436.246     1000 
  126000   0.50358421    -2.646676   0.75462094   -1.8920551   0.13753471    11428.954     1000 
  128000   0.52298693   -2.6232056   0.78369592   -1.8395096   0.13602269     11539.99     1000 
  130000   0.51553329   -2.6074103   0.77252664   -1.8348837   0.13215653    11370.584     1000 
  132000   0.51401925   -2.6521505   0.77025785   -1.8818926     0.120112    11552.572     1000 
  134000   0.52950482   -2.6025258   0.79346297   -1.8090628   0.13254479    11360.755     1000 
  136000   0.53572958   -2.6299448   0.80279077   -1.8271541   0.13078305     11368.71     1000 
  138000   0.49876793   -2.6423508   0.74740375   -1.8949471   0.12866783    11544.223     1000 
  140000   0.52069091   -2.6360737   0.78025532   -1.8558183   0.13906269    11386.145     1000 
  142000   0.51996842   -2.5895513   0.77917267   -1.8103786   0.12760809     11451.34     1000 
  144000    0.4978409   -2.6197333   0.74601459   -1.8737187   0.12093512    11404.393     1000 
  146000   0.53590792   -2.6148822   0.80305801   -1.8118242   0.12424901    11570.784     1000 
  148000   0.50094331   -2.6330614   0.75066354   -1.8823978   0.12897802    11368.151     1000 
  150000    0.4975394   -2.5725903   0.74556279   -1.8270275   0.13676362    11406.022     1000 
  152000   0.50281904   -2.5824758   0.75347433   -1.8290015   0.14303741     11322.35     1000 
  154000   0.52755649   -2.6116362    0.7905434   -1.8210928   0.13356834    11428.668     1000 
  156000   0.49774179   -2.6014655   0.74586607   -1.8555994   0.12978167    11330.851     1000 
  158000   0.49908648   -2.5698411   0.74788109   -1.8219601   0.13921577    11258.334     1000 
  160000   0.53811974    -2.625108   0.80637243   -1.8187356   0.13525333    11440.296     1000 
  162000   0.52991302    -2.633737   0.79407466   -1.8396623   0.12598941    11544.214     1000 
  164000   0.52116237   -2.5890057   0.78096182   -1.8080438   0.13783758    11416.688     1000 
  166000   0.50300396    -2.645065   0.75375143   -1.8913136   0.11735506    11469.017     1000 
  168000   0.53986485   -2.5897804   0.80898748   -1.7807929   0.13015833    11539.557     1000 
  170000   0.52171537   -2.5904175   0.78179048   -1.8086271   0.12536851    11580.879     1000 
  172000   0.55831101   -2.6298814   0.83662904   -1.7932523    0.1275924    11407.312     1000 
  174000   0.51639946   -2.6133539    0.7738246   -1.8395293   0.13945732     11273.43     1000 
  176000   0.52730607   -2.5897777   0.79016814   -1.7996096   0.13522553    11361.087     1000 
  178000   0.50345993   -2.6161217   0.75443471    -1.861687   0.11925545    11362.722     1000 
  180000     0.513355   -2.6284432   0.76926246   -1.8591808   0.12489521    11434.046     1000 
  182000   0.50581462    -2.646625   0.75796321   -1.8886618   0.12090328     11410.74     1000 
  184000   0.51148238   -2.6313667   0.76645634   -1.8649104   0.12567555    11558.081     1000 
  186000   0.50197482   -2.6257517   0.75220927   -1.8735424   0.13169504    11522.149     1000 
  188000   0.53112255   -2.6046941   0.79588715   -1.8088069   0.14331346    11420.614     1000 
  190000   0.52726595   -2.6199782   0.79010802   -1.8298702   0.12968114    11441.268     1000 
  192000   0.55182037   -2.6399357   0.82690283   -1.8130329   0.12204582     11535.06     1000 
  194000   0.52480716   -2.5985323   0.78642354   -1.8121088   0.13640231    11372.299     1000 
  196000   0.51333289    -2.656288   0.76922934   -1.8870586    0.1561914    11257.453     1000 
  198000   0.52219555   -2.5579414   0.78251003   -1.7754314   0.13722574    11457.402     1000 
  200000   0.51793314   -2.6635383   0.77612281   -1.8874155   0.12336045    11617.741     1000 
  202000   0.53144648   -2.5831702   0.79637255   -1.7867977   0.11619537    11474.459     1000 
  204000   0.50519924   -2.5846799   0.75704107   -1.8276388   0.11314651    11468.674     1000 
  206000   0.53726804    -2.625913   0.80509616   -1.8208169   0.12483113    11524.828     1000 
  208000   0.51871439   -2.6395087   0.77729351   -1.8622152   0.12746356    11356.468     1000 
  210000   0.52816913   -2.6203657   0.79146145   -1.8289042   0.12622783    11575.196     1000 
  212000   0.53133207   -2.6076922   0.79620111   -1.8114911   0.13233068    11478.442     1000 
  214000   0.52666481   -2.5975639   0.78920722   -1.8083567   0.12474324    11345.654     1000 
  216000   0.54106514   -2.6089678   0.81078611   -1.7981817   0.12357985    11537.525     1000 
  218000   0.50673469   -2.6317253   0.75934194   -1.8723834    0.1316355    11375.468     1000 
  220000   0.54084303   -2.6416002   0.81045328   -1.8311469   0.12559945    11529.551     1000 
  222000   0.51302847   -2.6186852   0.76877316    -1.849912    0.1262127    11333.943     1000 
  224000   0.54345842   -2.6180399   0.81437244   -1.8036675   0.12512766    11626.359     1000 
  226000   0.50904447   -2.6468971   0.76280314    -1.884094   0.12384923    11391.338     1000 
  228000   0.50716094   -2.6028289   0.75998066   -1.8428482   0.14195384     11325.88     1000 
  230000   0.52245027   -2.6248431   0.78289173   -1.8419513    0.1073177    11618.919     1000 
  232000   0.53942657   -2.6146786   0.80833071   -1.8063479   0.12455698    11523.307     1000 
  234000   0.52839192   -2.6007409   0.79179529   -1.8089457   0.13861038    11457.841     1000 
  236000   0.51360697    -2.605322   0.76964004   -1.8356819   0.13508881    11362.828     1000 
  238000   0.51641689   -2.5904045   0.77385071   -1.8165538   0.11594165    11459.904     1000 
  240000   0.50546143   -2.6357544   0.75743395   -1.8783204   0.11242948    11622.966     1000 
  242000   0.53554008   -2.6741943   0.80250681   -1.8716875   0.13904078    11383.901     1000 
  244000   0.50463945   -2.6616616   0.75620221   -1.9054594   0.14069993    11425.577     1000 
  246000   0.53984571   -2.5985791    0.8089588   -1.7896203   0.12324002    11401.684     1000 
  248000   0.51554172   -2.6314212   0.77253927   -1.8588819   0.13161288    11269.905     1000 
  250000   0.51892835   -2.5824008   0.77761413   -1.8047866   0.12557843    11488.588     1000 
  252000   0.49978423   -2.6497796   0.74892668   -1.9008529   0.12059021    11592.986     1000 
  254000   0.50738963   -2.6043779   0.76032336   -1.8440545   0.12289999    11467.924     1000 
  256000   0.49943899   -2.6500311   0.74840932   -1.9016218    0.1186769    11404.622     1000 
  258000   0.54403379   -2.6090869   0.81523463   -1.7938523   0.12913681    11531.957     1000 
  260000   0.54234038   -2.5881145   0.81269706   -1.7754174    0.1220582    11407.183     1000 
  262000   0.51748266   -2.6105555   0.77544776   -1.8351078   0.13376493    11413.989     1000 
  264000    0.5364475   -2.6285461   0.80386658   -1.8246795   0.12350686    11596.581     1000 
  266000   0.50888076   -2.5612136   0.76255782   -1.7986558   0.12351543     11325.06     1000 
  268000   0.50789296   -2.6425092   0.76107761   -1.8814316   0.14402747     11412.28     1000 
  270000   0.49711707   -2.6170333   0.74492993   -1.8721033   0.11826457    11511.555     1000 
  272000   0.54232888    -2.616256   0.81267982   -1.8035762   0.12738598    11465.274     1000 
  274000   0.54251704   -2.5647511   0.81296179   -1.7517893   0.13021818    11357.487     1000 
  276000   0.52184715   -2.6572127   0.78198795   -1.8752248   0.11655561    11639.311     1000 
  278000   0.51106038   -2.6505312   0.76582399   -1.8847072    0.1227673    11572.418     1000 
  280000   0.50255446    -2.652471   0.75307785   -1.8993931   0.12918102    11569.848     1000 
  282000   0.51129068   -2.6260614   0.76616908   -1.8598923   0.13539272    11373.935     1000 
  284000   0.53930202   -2.5914909   0.80814407   -1.7833468   0.15078272    11344.905     1000 
  286000   0.53625366   -2.5898217    0.8035761   -1.7862456   0.14394388    11227.424     1000 
  288000   0.49456344   -2.6290581   0.74110332   -1.8879548   0.12093299      11388.8     1000 
  290000    0.5282519   -2.6108647   0.79158548   -1.8192792   0.13984823     11383.33     1000 
  292000   0.52174835   -2.6132637   0.78183991   -1.8314238   0.13061036    11358.281     1000 
  294000   0.51600681   -2.5929476    0.7732362   -1.8197114   0.11341886    11608.883     1000 
  296000   0.51847194   -2.6421098    0.7769302   -1.8651796   0.13839837    11366.327     1000 
  298000   0.53796281   -2.6243932   0.80613726   -1.8182559   0.13812734    11361.705     1000 
  300000    0.5014305   -2.5908392   0.75139361   -1.8394456   0.12497996    11344.205     1000 
  302000   0.53786641   -2.6604202   0.80599282   -1.8544274   0.13356163    11377.815     1000 
  304000     0.500401   -2.6075977   0.74985089   -1.8577468   0.12198545    11432.965     1000 
  306000   0.52641722   -2.5961476   0.78883621   -1.8073114   0.13415603    11362.108     1000 
  308000   0.48932174   -2.6219348   0.73324863   -1.8886862   0.12904241    11458.566     1000 
  310000   0.51368567   -2.5811176   0.76975798   -1.8113597   0.13459272    11135.284     1000 
  312000   0.49846717   -2.5908623   0.74695306   -1.8439093   0.14348555    11298.709     1000 
  314000   0.52962509   -2.5950455    0.7936432   -1.8014023   0.12537727    11469.391     1000 
  316000   0.51246649    -2.614811   0.76793104     -1.84688   0.13286924     11322.44     1000 
  318000   0.53532868    -2.582845   0.80219003    -1.780655   0.12510574     11274.36     1000 
  320000    0.5109771   -2.6087088   0.76569918   -1.8430096   0.13293946    11510.848     1000 
  322000   0.51617076    -2.611835   0.77348188   -1.8383531   0.13333298    11472.192     1000 
  324000   0.50066058   -2.6166032   0.75023988   -1.8663634   0.11277268    11562.933     1000 
  326000    0.5307718    -2.596822   0.79536154   -1.8014604   0.13690564    11410.323     1000 
  328000   0.50861958   -2.5784566   0.76216644   -1.8162902   0.12158882    11419.368     1000 
  330000   0.53344433   -2.6296924   0.79936633   -1.8303261   0.13216407    11631.007     1000 
  332000   0.50803674   -2.6340567   0.76129306   -1.8727637   0.11843671    11499.073     1000 
  334000   0.49647285   -2.5824834   0.74396456   -1.8385189    0.1355544    11265.877     1000 
  336000   0.51310422   -2.5980481   0.76888668   -1.8291614   0.12696046    11391.867     1000 
  338000   0.53066237   -2.5708773   0.79519756   -1.7756797   0.12981978    11363.897     1000 
  340000   0.53444114   -2.5702187   0.80086005   -1.7693586   0.14209113    11344.707     1000 
  342000   0.51547418   -2.6086669   0.77243805   -1.8362289   0.12956687    11401.976     1000 
  344000   0.53029848   -2.6445006   0.79465228   -1.8498483    0.1173407     11479.96     1000 
  346000   0.52660144   -2.6066922   0.78911225   -1.8175799   0.13646644    11483.072     1000 
  348000   0.49508129   -2.5873498   0.74187931   -1.8454704   0.12366586    11462.228     1000 
  350000   0.51059193   -2.6101583     0.765122   -1.8450363   0.14251922    11436.147     1000 
  352000   0.49637869   -2.6088555   0.74382347    -1.865032   0.13055763    11327.541     1000 
  354000   0.50661847   -2.5735532   0.75916778   -1.8143854   0.14292001    11451.012     1000 
  356000   0.53103324   -2.5726301   0.79575331   -1.7768768   0.13154095    11411.746     1000 
  358000   0.52201426   -2.5956389   0.78223837   -1.8134005   0.12767761    11403.491     1000 
  360000   0.51384693   -2.6731477   0.76999962   -1.9031481   0.11724831    11617.436     1000 
  362000   0.53355821   -2.5909722   0.79953698   -1.7914352   0.13426456    11332.902     1000 
  364000   0.51030131   -2.5900924   0.76468651   -1.8254059   0.13134352    11298.971     1000 
  366000   0.51141555   -2.5921742   0.76635621    -1.825818   0.12792367    11491.542     1000 
  368000   0.55007777   -2.6054297   0.82429153   -1.7811382     0.118038    11550.683     1000 
  370000   0.54140051   -2.5981839   0.81128866   -1.7868953   0.14223168    11260.562     1000 
  372000   0.50574018   -2.6345761   0.75785166   -1.8767245   0.13042622    11436.221     1000 
  374000   0.53255604   -2.6234859   0.79803523   -1.8254506   0.12952312    11438.192     1000 
  376000   0.51666009   -2.5999308   0.77421514   -1.8257156   0.12791442    11392.837     1000 
  378000   0.53203823    -2.645129   0.79725929   -1.8478697   0.11796439    11462.299     1000 
  380000   0.51003362   -2.6572192   0.76428538   -1.8929339   0.13218372    11540.159     1000 
  382000   0.52341801   -2.6234134   0.78434189   -1.8390715    0.1252654    11484.578     1000 
  384000   0.53450092   -2.6329869   0.80094963   -1.8320372   0.13661094    11447.595     1000 
  386000   0.50212136   -2.5741499   0.75242886   -1.8217211   0.14552043      11270.6     1000 
  388000   0.52427787   -2.6426025   0.78563039   -1.8569721   0.13332758    11476.991     1000 
  390000    0.5418086   -2.6429657   0.81190018   -1.8310655   0.14511602    11470.506     1000 
  392000    0.5218225   -2.6073575   0.78195102   -1.8254065   0.14503577    11230.991     1000 
  394000    0.5192068   -2.6211416   0.77803139   -1.8431102   0.13829009    11526.169     1000 
  396000   0.49592354   -2.6360572   0.74314143   -1.8929158   0.11617723    11438.199     1000 
  398000   0.51112935   -2.6095595   0.76592734   -1.8436321   0.12230706    11499.146     1000 
  400000   0.54214115   -2.5936095   0.81239852    -1.781211    0.1401047    11261.412     1000 
  402000    0.5319637   -2.6165489    0.7971476   -1.8194013   0.13225287    11375.821     1000 
  404000   0.54474341   -2.6119424     0.816298   -1.7956444   0.13949015    11350.931     1000 
  406000   0.49963138   -2.6027072   0.74869763   -1.8540095   0.14323785    11254.255     1000 
  408000   0.50733464   -2.6251302   0.76024095   -1.8648893   0.13409055    11410.624     1000 
  410000   0.52426825   -2.6060017   0.78561597   -1.8203858   0.13842923     11248.41     1000 
  412000   0.50543418   -2.6262665   0.75739312   -1.8688734   0.11835909    11451.298     1000 
  414000   0.52494459     -2.57385   0.78662946   -1.7872205   0.15208315    11409.068     1000 
  416000   0.50546647   -2.5979183    0.7574415   -1.8404768   0.12749143    11427.481     1000 
  418000   0.51763745   -2.6370333   0.77567971   -1.8613536   0.14475571    11353.241     1000 
  420000   0.49398781   -2.6239185   0.74024074   -1.8836778   0.12133394    11567.257     1000 
  422000   0.54416679   -2.6209322   0.81543394   -1.8054983   0.13513935    11450.029     1000 
  424000   0.51594528   -2.6287453   0.77314401   -1.8556013   0.12804185    11384.075     1000 
  426000     0.516284   -2.6127602   0.77365157   -1.8391086   0.14365156    11475.782     1000 
  428000   0.52005912   -2.5960709   0.77930859   -1.8167623   0.13805976     11443.36     1000 
  430000   0.50936149    -2.617805    0.7632782   -1.8545268   0.13327693    11367.642     1000 
  432000   0.53024156   -2.6097229   0.79456698   -1.8151559   0.13379601    11337.977     1000 
  434000   0.52263247   -2.6343354   0.78316475   -1.8511706   0.12823198    11402.025     1000 
  436000   0.52113482   -2.5984018   0.78092053   -1.8174812   0.12305216    11305.368     1000 
  438000   0.52442633   -2.6034652   0.78585285   -1.8176123   0.12781768    11298.388     1000 
  440000   0.51903612   -2.6179093   0.77777563   -1.8401337   0.14014191    11371.116     1000 
  442000   0.51452147   -2.6275575   0.77101042    -1.856547   0.13578937    11586.181     1000 
  444000   0.50719487   -2.6390841   0.76003151   -1.8790526   0.12614329    11524.824     1000 
  446000   0.50517891   -2.6092662    0.7570106   -1.8522556   0.12991309    11429.178     1000 
  448000   0.53640318   -2.6203827   0.80380017   -1.8165825   0.13401666    11351.126     1000 
  450000    0.5362251   -2.5944249   0.80353331   -1.7908916   0.14015147    11322.165     1000 
  452000   0.51044017    -2.609922   0.76489459   -1.8450274    0.1430226    11328.731     1000 
  454000   0.53083536   -2.5910868   0.79545678   -1.7956301   0.13467678    11307.185     1000 
  456000   0.51736218   -2.6379775   0.77526723   -1.8627103   0.14254867    11391.419     1000 
  458000   0.50285212   -2.5638284    0.7535239   -1.8103045   0.13924957    11416.335     1000 
  460000   0.53022393   -2.6355766   0.79454055    -1.841036   0.12736904      11528.5     1000 
  462000   0.51009762   -2.6765225   0.76438128   -1.9121412   0.14556924    11422.983     1000 
  464000   0.52338501    -2.636892   0.78429244   -1.8525996   0.11746065    11542.259     1000 
  466000   0.49437308   -2.6094682   0.74081806   -1.8686502   0.12995614    11482.673     1000 
  468000   0.53273957   -2.6282135   0.79831025   -1.8299033   0.12032107    11435.457     1000 
  470000   0.52820471   -2.6158164   0.79151475   -1.8243016   0.13084228    11458.823     1000 
  472000   0.49295866   -2.6383714   0.73869856   -1.8996728   0.12723743    11660.891     1000 
  474000    0.4996429   -2.5916741   0.74871488   -1.8429592   0.14276425    11263.996     1000 
  476000   0.52348067   -2.6201857   0.78443578   -1.8357499   0.11289777    11405.249     1000 
  478000   0.51845835   -2.6001713   0.77690984   -1.8232614   0.12212071    11584.966     1000 
  480000   0.51544149   -2.6479408   0.77238908   -1.8755517   0.13751521    11501.887     1000 
  482000   0.53270875   -2.6403728   0.79826406   -1.8421088   0.13118954    11563.884     1000 
  484000   0.51539462    -2.634956   0.77231883   -1.8626372   0.13596909    11483.596     1000 
  486000   0.50469749   -2.6299768   0.75628919   -1.8736876   0.12957905    11368.025     1000 
  488000   0.53439433   -2.6360537    0.8007899   -1.8352638   0.14787499    11419.497     1000 
  490000   0.51338036   -2.5983261   0.76930048   -1.8290256   0.13856064    11402.748     1000 
  492000   0.52662127   -2.5684672   0.78914197   -1.7793252   0.11209416    11438.811     1000 
  494000   0.51655071   -2.6164146   0.77405124   -1.8423634   0.12534982    11373.641     1000 
  496000   0.54425195   -2.6753803   0.81556155   -1.8598187   0.14272797    11380.099     1000 
  498000    0.5350683   -2.6177636   0.80179985   -1.8159637   0.14275109    11429.811     1000 
  500000   0.48791276   -2.6146761   0.73113727   -1.8835389   0.12673163    11225.293     1000 
  502000   0.50619819   -2.6078888   0.75853799   -1.8493508   0.15282016    11310.636     1000 
  504000   0.51751422   -2.6359066   0.77549506   -1.8604115   0.12854976    11635.019     1000 
  506000   0.49022303   -2.6048044   0.73459922   -1.8702052   0.11080014    11579.615     1000 
  508000   0.52220896   -2.5926542   0.78253012    -1.810124   0.12438713    11387.406     1000 
  510000   0.53716755   -2.6186537   0.80494558   -1.8137081   0.13849011    11368.673     1000 
  512000   0.51084252   -2.6568634   0.76549751   -1.8913658   0.12611781    11428.962     1000 
  514000    0.5020807    -2.633324   0.75236793    -1.880956   0.11649478    11411.162     1000 
  516000   0.51015266   -2.6078952   0.76446377   -1.8434314   0.13078779     11489.08     1000 
  518000   0.52895195   -2.5389666    0.7926345   -1.7463321   0.14188971    11320.027     1000 
  520000   0.52209199   -2.6248141   0.78235484   -1.8424593   0.12187561    11508.451     1000 
  522000   0.52070864   -2.6432576    0.7802819   -1.8629757    0.1241966    11495.798     1000 
  524000   0.50875849    -2.643258   0.76237459   -1.8808835   0.13436297    11300.705     1000 
  526000   0.51207591     -2.62497   0.76734576   -1.8576243   0.11964835    11358.842     1000 
  528000   0.52647292   -2.6049785   0.78891968   -1.8160588   0.12855496     11549.73     1000 
  530000   0.52670854   -2.6160166   0.78927274   -1.8267439   0.13874168    11256.685     1000 
  532000   0.52150794   -2.5920609   0.78147964   -1.8105812   0.13352502    11411.601     1000 
  534000   0.52399617   -2.6237375   0.78520826   -1.8385292   0.12161702    11529.883     1000 
  536000   0.51575539    -2.615088   0.77285945   -1.8422285   0.11481077    11620.003     1000 
  538000   0.50308474   -2.6100329   0.75387248   -1.8561604   0.14328759     11431.31     1000 
  540000   0.54208172   -2.6108552   0.81230946   -1.7985458   0.13527417    11450.556     1000 
  542000    0.4892056    -2.605949   0.73307459   -1.8728744   0.12540411    11438.007     1000 
  544000   0.53374894   -2.6263361   0.79982279   -1.8265133   0.12904255      11364.9     1000 
  546000   0.53213404   -2.6422701   0.79740285   -1.8448673   0.12875869    11628.521     1000 
  548000   0.52180118   -2.5453257   0.78191907   -1.7634067   0.12275467    11390.108     1000 
  550000   0.50909372   -2.6152278   0.76287693   -1.8523509   0.11505105    11506.745     1000 
  552000   0.50171011   -2.6415531    0.7518126   -1.8897405   0.12701474    11514.662     1000 
  554000   0.50193317   -2.5798582   0.75214686   -1.8277114   0.13784021    11417.059     1000 
  556000   0.52859436   -2.6189519   0.79209865   -1.8268533   0.12449176    11519.802     1000 
  558000   0.50762255   -2.5792855   0.76067239   -1.8186131   0.13062387    11224.629     1000 
  560000   0.49514972   -2.5921845   0.74198186   -1.8502026   0.12091044    11355.697     1000 
  562000   0.52525767   -2.6099114   0.78709862   -1.8228128   0.13953003    11456.544     1000 
  564000   0.52339976   -2.6192667   0.78431453   -1.8349522   0.12851362    11501.543     1000 
  566000   0.49758077   -2.5543722   0.74562479   -1.8087474   0.13175805    11407.352     1000 
  568000   0.51177314   -2.6185861   0.76689205   -1.8516941   0.11375356    11497.594     1000 
  570000   0.51452716   -2.5725274   0.77101894   -1.8015084   0.13233213    11424.279     1000 
  572000   0.53743699   -2.5881821   0.80534933   -1.7828328   0.12004101    11499.225     1000 
  574000    0.5143366   -2.6171623   0.77073339   -1.8464289   0.11642288     11463.92     1000 
  576000    0.5336628   -2.5795715    0.7996937   -1.7798778   0.12724495    11394.907     1000 
  578000   0.49109983   -2.6426582   0.73591309   -1.9067451   0.13284726    11380.386     1000 
  580000   0.52555962   -2.5593879   0.78755109   -1.7718369   0.14349318     11402.19     1000 
  582000   0.52581788   -2.6493414    0.7879381   -1.8614033   0.13363231    11346.992     1000 
  584000   0.52307463   -2.6529372   0.78382734   -1.8691098   0.12113654    11521.359     1000 
  586000   0.50080685   -2.6038527   0.75045906   -1.8533936   0.12643043    11533.338     1000 
  588000   0.52821976   -2.6429494    0.7915373   -1.8514121   0.13176928      11489.8     1000 
  590000   0.52757183   -2.6281695   0.79056639   -1.8376031   0.13298078    11453.691     1000 
  592000   0.51578042   -2.6563236   0.77289696   -1.8834267   0.12960776    11461.239     1000 
  594000   0.50911781   -2.5864921   0.76291304   -1.8235791   0.12155166    11374.259     1000 
  596000    0.5080155    -2.641205   0.76126123   -1.8799437   0.12004886    11435.988     1000 
  598000   0.52418295   -2.5900606   0.78548815   -1.8045725   0.13979856    11310.639     1000 
  600000   0.50425225   -2.6302765     0.755622   -1.8746545   0.12909905    11472.999     1000 
  602000   0.52929247   -2.5898682   0.79314477   -1.7967234    0.1359373    11318.547     1000 
  604000   0.53581538   -2.6364608   0.80291935   -1.8335415    0.1181677    11549.833     1000 
  606000   0.52951383   -2.6302861   0.79347648   -1.8368096   0.14195809    11273.277     1000 
  608000   0.49675391   -2.6673696   0.74438573   -1.9229839   0.11407046    11488.702     1000 
  610000   0.52517166   -2.6509935   0.78696974   -1.8640238   0.13451667    11476.831     1000 
  612000    0.5343765   -2.6049964   0.80076318   -1.8042333    0.1156238    11495.624     1000 
  614000   0.52667453   -2.6073569   0.78922178   -1.8181351    0.1345838    11428.137     1000 
  616000   0.50425289    -2.623714   0.75562295   -1.8680911   0.11413676    11483.915     1000 
  618000   0.49852163   -2.6456675   0.74703467   -1.8986328   0.12879026    11535.995     1000 
  620000   0.51001991   -2.6296542   0.76426483   -1.8653894   0.11959629     11598.29     1000 
  622000   0.52478481   -2.6286613   0.78639004   -1.8422713   0.13024973    11412.442     1000 
  624000   0.51171858   -2.6243275   0.76681029   -1.8575172   0.13244852    11372.415     1000 
  626000   0.52396521   -2.6179016   0.78516187   -1.8327397   0.14920645    11286.278     1000 
  628000   0.52265476   -2.6195135   0.78319816   -1.8363154   0.13419622     11385.75     1000 
  630000   0.52420087   -2.6133557     0.785515   -1.8278407   0.14474434    11416.487     1000 
  632000   0.51618991    -2.592619   0.77351057   -1.8191085   0.13192363    11293.678     1000 
  634000   0.53008974   -2.5844396   0.79433948   -1.7901001   0.13546975    11414.238     1000 
  636000   0.52155713   -2.6252111   0.78155337   -1.8436577    0.1313268    11353.991     1000 
  638000   0.50496094   -2.6244946   0.75668397   -1.8678106   0.13952382    11329.926     1000 
  640000    0.5117509    -2.639193   0.76685873   -1.8723342   0.11908124    11474.031     1000 
  642000   0.51238649    -2.616211   0.76781116   -1.8483998   0.12516844    11549.273     1000 
  644000   0.52117625   -2.6209163   0.78098261   -1.8399337   0.11150986    11580.483     1000 
  646000   0.52155842   -2.6247813   0.78155529    -1.843226   0.12377776    11417.966     1000 
  648000   0.49890537   -2.5607135    0.7476097   -1.8131038   0.11769026    11406.419     1000 
  650000   0.50962263   -2.6122424   0.76366951   -1.8485729   0.12257176    11524.475     1000 
  652000   0.53145332   -2.6270981    0.7963828   -1.8307153   0.13304698    11405.973     1000 
  654000   0.50694949   -2.6097592   0.75966381   -1.8500954   0.12481035    11431.986     1000 
  656000   0.52531996   -2.5900847   0.78719195   -1.8028927   0.14700487    11262.589     1000 
  658000   0.49367658   -2.6287065   0.73977435   -1.8889321   0.12622247    11506.548     1000 
  660000   0.52693922   -2.6180246   0.78961843   -1.8284062   0.13913578    11376.783     1000 
  662000   0.52954682   -2.5668864    0.7935259   -1.7733605   0.14074275    11355.248     1000 
  664000   0.50483856   -2.6051752   0.75650059   -1.8486746   0.13193416    11382.047     1000 
  666000   0.53141152   -2.5872484   0.79632017   -1.7909282    0.1326839    11405.871     1000 
  668000   0.52810365   -2.6121648   0.79136332   -1.8208014   0.12921813    11412.649     1000 
  670000   0.53449152   -2.6299998   0.80093554   -1.8290643   0.12745765    11459.216     1000 
  672000   0.52645305   -2.6450281    0.7888899   -1.8561382    0.1360507    11416.884     1000 
  674000   0.51186781   -2.6259826   0.76703391   -1.8589487   0.10955035    11608.025     1000 
  676000    0.5143976   -2.5570432    0.7708248   -1.7862184   0.14640483    11271.923     1000 
  678000   0.51695985   -2.6111873   0.77466433    -1.836523   0.13323297    11276.834     1000 
  680000   0.51118117   -2.6116479   0.76600498   -1.8456429   0.12792813     11503.83     1000 
  682000    0.5212851   -2.6251256   0.78114572   -1.8439799   0.12802323    11392.401     1000 
  684000   0.51395121   -2.6465343   0.77015589   -1.8763784   0.12824753    11487.888     1000 
  686000   0.51545448   -2.6317299   0.77240853   -1.8593213   0.12379099     11438.42     1000 
  688000   0.53267303   -2.6040739   0.79821053   -1.8058634   0.11261689    11535.051     1000 
  690000   0.51340458   -2.5851028   0.76933677   -1.8157661   0.14469046    11193.226     1000 
  692000   0.50242058    -2.582119   0.75287724   -1.8292417   0.13809667    11380.832     1000 
  694000   0.52433805   -2.6090111   0.78572056   -1.8232906   0.14302818    11299.996     1000 
  696000   0.48964764   -2.6111441   0.73373699   -1.8774071   0.11134351    11480.937     1000 
  698000   0.50812821   -2.5984773   0.76143012   -1.8370472   0.13354522    11304.274     1000 
  700000   0.54323485   -2.6178375   0.81403742   -1.8038001   0.12204299    11463.084     1000 
  702000   0.51592309   -2.6128742   0.77311075   -1.8397635   0.12597291    11364.093     1000 
  704000   0.51431002    -2.628176   0.77069357   -1.8574825   0.12207217    11433.346     1000 
  706000   0.52586989   -2.6349631   0.78801604   -1.8469471   0.12940213    11431.612     1000 
  708000   0.53800052    -2.648696   0.80619379   -1.8425022   0.13120048    11455.212     1000 
  710000   0.54386672   -2.6257652   0.81498428   -1.8107809   0.13154039     11361.81     1000 
  712000   0.54073335    -2.617504   0.81028893   -1.8072151   0.12816615    11430.002     1000 
  714000   0.51065735   -2.6199216   0.76522005   -1.8547015   0.12321425    11550.005     1000 
  716000   0.50851417     -2.53064   0.76200849   -1.7686316   0.14351413    11206.097     1000 
  718000   0.53835005   -2.6251803   0.80671756   -1.8184628   0.12431658    11556.545     1000 
  720000    0.5038612   -2.5912992     0.755036   -1.8362632    0.1192677    11680.307     1000 
  722000   0.53035014   -2.5925644   0.79472969   -1.7978347   0.11543139    11428.809     1000 
  724000   0.54704545   -2.6374904   0.81974761   -1.8177428   0.12942028    11502.144     1000 
  726000   0.51516799   -2.6118368   0.77197923   -1.8398575   0.12212193     11497.29     1000 
  728000   0.52466639   -2.6598842   0.78621258   -1.8736716   0.13448295    11697.022     1000 
  730000   0.51366401   -2.6054907   0.76972552   -1.8357652   0.12558914    11495.385     1000 
  732000   0.52448847   -2.6518546   0.78594597   -1.8659086   0.12310253    11501.368     1000 
  734000   0.52696763   -2.6511403   0.78966099   -1.8614793   0.12345142    11754.615     1000 
  736000   0.52253598   -2.5374553   0.78302017   -1.7544351   0.12577964    11360.112     1000 
  738000   0.50447795   -2.6305846   0.75596021   -1.8746244   0.13140247    11308.044     1000 
  740000   0.50582058   -2.6232075   0.75797213   -1.8652353   0.12081203    11481.067     1000 
  742000   0.52061434   -2.5958053   0.78014059   -1.8156647   0.14017205    11253.159     1000 
  744000   0.53522656   -2.6242899     0.802037   -1.8222529   0.13478397    11566.565     1000 
  746000   0.53298823   -2.5758262   0.79868286   -1.7771434   0.14949066    11309.515     1000 
  748000   0.52064001   -2.6420244   0.78017906   -1.8618453   0.12902811    11401.026     1000 
  750000   0.51351903   -2.6024601   0.76950826   -1.8329518   0.12759077    11460.653     1000 
  752000   0.51631048   -2.6352673   0.77369126   -1.8615761    0.1375724    11385.579     1000 
  754000   0.51904017   -2.5575703   0.77778169   -1.7797886   0.14058342    11398.544     1000 
  756000   0.51750238   -2.5389911   0.77547731   -1.7635138   0.12726341    11552.234     1000 
  758000   0.51732335   -2.6231952   0.77520905   -1.8479862   0.13051377    11417.991     1000 
  760000   0.52192464   -2.6104004   0.78210408   -1.8282963   0.14466245    11329.072     1000 
  762000   0.54378722   -2.6339188   0.81486515   -1.8190536   0.12962246    11388.858     1000 
  764000   0.49806583   -2.6406012   0.74635164   -1.8942496   0.12359276     11501.46     1000 
  766000   0.50898447   -2.5539183   0.76271323    -1.791205   0.12738342    11530.974     1000 
  768000   0.52310098   -2.6176623   0.78386682   -1.8337955   0.13251992     11419.37     1000 
  770000   0.49651285   -2.5640156   0.74402451   -1.8199911   0.12579471     11403.87     1000 
  772000   0.54428809   -2.5963147    0.8156157    -1.780699   0.13422056    11371.869     1000 
  774000    0.5440265   -2.6542749    0.8152237   -1.8390511   0.13315474    11507.811     1000 
  776000   0.50033787   -2.6587683    0.7497563    -1.909012    0.1318145    11555.425     1000 
  778000   0.50736505   -2.6473438   0.76028653   -1.8870573   0.11740817    11509.762     1000 
  780000   0.52857877   -2.5943762   0.79207528   -1.8023009   0.13707372    11374.665     1000 
  782000     0.507366   -2.6410785   0.76028795   -1.8807906   0.13316477    11417.578     1000 
  784000   0.51666441   -2.6372644   0.77422162   -1.8630428   0.13396098    11428.266     1000 
  786000   0.52977732   -2.6129242   0.79387132   -1.8190529   0.13598123     11327.25     1000 
  788000   0.52011634   -2.6154309   0.77939433   -1.8360366   0.12713898    11378.134     1000 
  790000   0.51255008   -2.5697092   0.76805629   -1.8016529   0.13861437    11205.879     1000 
  792000   0.51517491   -2.6331041   0.77198961   -1.8611145   0.11410803    11548.781     1000 
  794000   0.52662221   -2.5854014   0.78914338   -1.7962581   0.13731703    11341.981     1000 
  796000   0.53178237   -2.6782786   0.79687588   -1.8814027   0.10978634    11692.773     1000 
  798000   0.50983938   -2.6422054   0.76399431   -1.8782111   0.13263766    11540.692     1000 
  800000   0.51469502   -2.6180614   0.77127049   -1.8467909   0.14026251    11260.803     1000 
  802000    0.5290934   -2.6478261   0.79284646   -1.8549797   0.14576149    11399.611     1000 
  804000   0.51638985   -2.6231561   0.77381019   -1.8493459   0.13594842    11441.805     1000 
  806000   0.53629763   -2.5808256     0.803642   -1.7771836   0.13484395    11383.251     1000 
  808000   0.51910143   -2.6093819   0.77787349   -1.8315084   0.12708857    11597.972     1000 
  810000    0.5287121   -2.6208092   0.79227509   -1.8285342   0.12513284    11286.572     1000 
  812000    0.5173004   -2.5697478   0.77517465   -1.7945731   0.12474171    11471.146     1000 
  814000   0.50443441   -2.5853365   0.75589496   -1.8294415    0.1350718    11404.856     1000 
  816000     0.535083   -2.6416766   0.80182188   -1.8398548    0.1240971    11514.774     1000 
  818000   0.51257288   -2.6107641   0.76809046   -1.8426736    0.1339096    11353.556     1000 
  820000   0.50751461   -2.6131972   0.76051064   -1.8526865   0.13550572     11460.17     1000 
  822000   0.53433494   -2.6246899    0.8007009    -1.823989    0.1296506    11431.791     1000 
  824000   0.50260339    -2.576546   0.75315117   -1.8233949   0.13022834    11530.715     1000 
  826000   0.50397638   -2.6049468    0.7552086   -1.8497382   0.12051084    11418.126     1000 
  828000   0.51558398   -2.6090896   0.77260259    -1.836487   0.12880897    11376.526     1000 
  830000   0.51864432   -2.6204929   0.77718852   -1.8433044   0.15383915     11298.21     1000 
  832000    0.5095179    -2.620247   0.76351258   -1.8567344   0.11612401    11498.927     1000 
  834000   0.53476694   -2.6465602   0.80134826   -1.8452119   0.13781482    11431.089     1000 
  836000   0.53756145   -2.5943137   0.80553583   -1.7887779   0.13868018    11370.761     1000 
  838000    0.5101908   -2.5867167   0.76452091   -1.8221958   0.12310469    11570.962     1000 
  840000   0.50798567   -2.6358953   0.76121652   -1.8746787   0.12757415    11457.019     1000 
  842000   0.53804631   -2.5822042   0.80626239   -1.7759418   0.13136738     11314.04     1000 
  844000   0.51601173   -2.5986948   0.77324358   -1.8254512   0.12162865    11525.963     1000 
  846000   0.53977163   -2.5938759   0.80884779   -1.7850281   0.12494956    11450.349     1000 
  848000    0.5140066   -2.5749489   0.77023889     -1.80471   0.11930228    11461.378     1000 
  850000   0.53447506   -2.6080621   0.80091088   -1.8071512   0.14672281        11164     1000 
  852000   0.53312758   -2.6012615   0.79889168   -1.8023698   0.13553725    11366.539     1000 
  854000    0.5151233   -2.6219404   0.77191227   -1.8500281   0.13060909    11448.629     1000 
  856000   0.51989335   -2.5808494   0.77906019   -1.8017892   0.12352216    11433.749     1000 
  858000   0.50930988   -2.5965202   0.76320086   -1.8333193   0.12314143    11593.023     1000 
  860000   0.51471272   -2.5836959   0.77129702   -1.8123989   0.12393743    11594.104     1000 
  862000   0.49995429   -2.6188115    0.7491815     -1.86963   0.11638603    11498.541     1000 
  864000   0.53384706   -2.6405675   0.79996983   -1.8405977   0.13035205    11454.084     1000 
  866000   0.51474353   -2.6545656   0.77134317   -1.8832225   0.12205373    11589.357     1000 
  868000   0.51166341   -2.6352118   0.76672762   -1.8684842   0.12549379    11397.091     1000 
  870000   0.51024069   -2.5867533   0.76459568   -1.8221576   0.13150391    11298.211     1000 
  872000   0.51336346   -2.5955705   0.76927515   -1.8262954   0.12554897    11369.657     1000 
  874000   0.54540812   -2.6285105   0.81729406   -1.8112165   0.13676534    11554.064     1000 
  876000   0.52863422   -2.5919595   0.79215838   -1.7998011    0.1210864    11394.821     1000 
  878000   0.51878416    -2.575626   0.77739807   -1.7982279   0.14932976    11356.797     1000 
  880000   0.52894772   -2.6003435   0.79262816   -1.8077153   0.14834864     11477.77     1000 
  882000    0.5303463   -2.6438355   0.79472393   -1.8491116   0.12806707    11369.695     1000 
  884000   0.50467955   -2.6117258    0.7562623   -1.8554635   0.12574349    11653.115     1000 
  886000   0.52086563   -2.6423898   0.78051714   -1.8618727    0.1434754    11372.291     1000 
  888000    0.5223954   -2.6817188   0.78280951   -1.8989093   0.12202271     11511.24     1000 
  890000   0.52319762   -2.5816653   0.78401164   -1.7976536   0.12925463    11543.716     1000 
  892000   0.53006947   -2.6168882   0.79430911   -1.8225791   0.12677452     11388.45     1000 
  894000   0.51531529   -2.6055603   0.77219996   -1.8333603   0.13717979    11403.769     1000 
  896000   0.51265594   -2.6047559   0.76821493   -1.8365409   0.13521524    11458.589     1000 
  898000   0.52805702   -2.6546718   0.79129345   -1.8633783   0.12132694     11418.72     1000 
  900000   0.51108897   -2.5974313   0.76586683   -1.8315645   0.14081302    11414.579     1000 
  902000   0.52052239     -2.59104    0.7800028   -1.8110372   0.14936718    11373.881     1000 
  904000    0.5206134   -2.6730424   0.78013918   -1.8929032   0.13205474    11343.542     1000 
  906000   0.51542281   -2.6141615   0.77236108   -1.8418004   0.13181135    11309.434     1000 
  908000    0.5305702   -2.6064419   0.79505944   -1.8113824    0.1283922    11297.737     1000 
  910000    0.5139237   -2.6150391   0.77011466   -1.8449244   0.11792884    11322.095     1000 
  912000   0.53958171   -2.7032833    0.8085632   -1.8947201   0.11895028    11597.742     1000 
  914000   0.50121211   -2.6372073   0.75106635   -1.8861409   0.12363639    11415.967     1000 
  916000   0.51380655   -2.5978459   0.76993911   -1.8279068   0.12074852    11470.232     1000 
  918000   0.51576754   -2.6106725   0.77287766   -1.8377948   0.13022407    11328.232     1000 
  920000   0.52852338   -2.6105991   0.79199228   -1.8186068    0.1424993    11295.034     1000 
  922000   0.51427429   -2.5954219   0.77064002   -1.8247819   0.12573241     11543.25     1000 
  924000   0.51302751   -2.6494931   0.76877172   -1.8807214   0.13214326    11435.795     1000 
  926000   0.50611216   -2.6191825   0.75840907   -1.8607735   0.12142065      11485.6     1000 
  928000   0.49945608   -2.5834603   0.74843493   -1.8350254   0.12957962    11469.797     1000 
  930000   0.52055743   -2.6449171    0.7800553   -1.8648618   0.13354793    11512.214     1000 
  932000   0.52649728   -2.6048317   0.78895618   -1.8158755   0.13388289    11279.137     1000 
  934000   0.53034166   -2.6215069   0.79471697   -1.8267899   0.12666215    11510.249     1000 
  936000   0.52207521   -2.6004638    0.7823297   -1.8181342   0.12761148    11503.236     1000 
  938000   0.51134261   -2.6076985    0.7662469   -1.8414516   0.13154186    11344.892     1000 
  940000   0.53448917   -2.6107804   0.80093203   -1.8098483   0.14351221    11233.957     1000 
  942000   0.52693947   -2.6373044    0.7896188   -1.8476857   0.13221734    11587.118     1000 
  944000    0.5266773   -2.6732193   0.78922593   -1.8839934   0.13169223     11405.29     1000 
  946000   0.52724015   -2.5830283   0.79006937   -1.7929589   0.13454899    11329.744     1000 
  948000   0.52446326   -2.6390374    0.7859082   -1.8531292   0.13754479    11527.933     1000 
  950000   0.50806786   -2.6374012   0.76133969   -1.8760615   0.11513394    11491.964     1000 
  952000   0.51579736   -2.6552943   0.77292235    -1.882372   0.12254342    11609.057     1000 
  954000   0.50561787   -2.5809871   0.75766838   -1.8233187   0.11036845    11447.367     1000 
  956000   0.51293794   -2.6343776    0.7686375   -1.8657401   0.13660038    11348.007     1000 
  958000   0.55069109   -2.5737859    0.8252106   -1.7485753   0.14209413    11251.897     1000 
  960000   0.51280236    -2.659429   0.76843433   -1.8909947   0.12395715    11450.194     1000 
  962000   0.52306079   -2.5850784    0.7838066   -1.8012718   0.12961857    11468.482     1000 
  964000     0.506301   -2.6297821   0.75869205     -1.87109   0.11662395    11451.463     1000 
  966000    0.5326681   -2.5922657   0.79820315   -1.7940626   0.13222939    11622.424     1000 
  968000   0.50943008   -2.6195753   0.76338098   -1.8561943   0.13296817    11367.902     1000 
  970000   0.52162771   -2.6262111   0.78165913    -1.844552   0.13051308    11474.077     1000 
  972000   0.52004089   -2.5958234   0.77928127   -1.8165421   0.13411941    11420.318     1000 
  974000    0.5278556   -2.6716543   0.79099162   -1.8806627   0.13571717    11563.753     1000 
  976000   0.53762723   -2.6437172   0.80563441   -1.8380828   0.13711803    11411.986     1000 
  978000   0.53447371   -2.6509361   0.80090886   -1.8500273   0.13352623     11533.15     1000 
  980000   0.53840095   -2.5803248   0.80679383    -1.773531   0.13143819    11407.228     1000 
  982000   0.52608694    -2.617575   0.78834128   -1.8292337    0.1215127    11495.486     1000 
  984000   0.50885568   -2.6596772   0.76252024   -1.8971569   0.14446484    11494.651     1000 
  986000   0.52786016   -2.6360103   0.79099845   -1.8450118   0.11963839    11351.631     1000 
  988000   0.52217322   -2.6255257   0.78247657   -1.8430491   0.12571797    11472.031     1000 
  990000   0.50373369   -2.5767249   0.75484493     -1.82188    0.1258822    11553.032     1000 
  992000   0.53724412   -2.6487508   0.80506032   -1.8436905   0.11448296    11653.603     1000 
  994000   0.51953271   -2.6088804   0.77851977   -1.8303606   0.12462063    11370.405     1000 
  996000   0.51735148   -2.5906311    0.7752512   -1.8153799   0.13043387    11526.252     1000 
  998000    0.5347142   -2.6319363   0.80126923   -1.8306671   0.12826279    11377.181     1000 
 1000000   0.53414241   -2.6520738   0.80041239   -1.8516614   0.13126541    11332.923     1000 
 1002000   0.50980281   -2.5942563   0.76393951   -1.8303168   0.12669808    11326.737     1000 
 1004000   0.49402017   -2.6126281   0.74028923   -1.8723388   0.13578022    11350.879     1000 
 1006000   0.51553787   -2.6225157   0.77253349   -1.8499822   0.13551881      11313.4     1000 
 1008000   0.53465112    -2.672916   0.80117471   -1.8717413   0.14438233    11431.525     1000 
 1010000   0.54132904   -2.6178262   0.81118157   -1.8066447   0.12559641    11454.067     1000 
 1012000   0.53219542   -2.5981601   0.79749484   -1.8006653   0.12649196    11549.719     1000 
 1014000   0.51155692   -2.7026651   0.76656805    -1.936097   0.13290693    11499.214     1000 
 1016000   0.50738898   -2.5883831   0.76032239   -1.8280607   0.12192068    11378.549     1000 
 1018000   0.51865456   -2.6030443   0.77720386   -1.8258405   0.12970617     11424.87     1000 
 1020000   0.52194854   -2.5887566   0.78213989   -1.8066167   0.13915099    11206.484     1000 
 1022000   0.52639223   -2.6038649   0.78879876   -1.8150661   0.12752346    11356.663     1000 
 1024000    0.5148092   -2.6478554   0.77144158   -1.8764138   0.12613895    11426.823     1000 
 1026000   0.50375611   -2.5800916   0.75487854   -1.8252131   0.12202403    11459.191     1000 
 1028000   0.50523633   -2.6499039   0.75709665   -1.8928072   0.11543778    11531.925     1000 
 1030000   0.52784922     -2.57863   0.79098206   -1.7876479    0.1268606    11406.336     1000 
 1032000   0.54250459    -2.536362   0.81294313   -1.7234189    0.1383581     11498.96     1000 
 1034000   0.55038214   -2.5845829   0.82474764   -1.7598353   0.13517098    11297.104     1000 
 1036000   0.51769697   -2.5982934   0.77576891   -1.8225245   0.13185486    11487.285     1000 
 1038000   0.53905962   -2.6129165   0.80778085   -1.8051357   0.13833192    11451.503     1000 
 1040000   0.54268771     -2.59728   0.81321754   -1.7840625   0.14164266    11496.643     1000 
 1042000   0.51385638   -2.6320481   0.77001379   -1.8620343   0.13328235    11518.361     1000 
 1044000   0.53096299   -2.6013455   0.79564805   -1.8056975   0.11585261    11429.449     1000 
 1046000   0.52438247   -2.5944323   0.78578713   -1.8086451   0.14363803    11332.626     1000 
 1048000    0.5251521   -2.6138642   0.78694042   -1.8269238   0.12581398    11381.034     1000 
 1050000   0.51524084   -2.5878163    0.7720884   -1.8157279    0.1397758     11431.25     1000 
 1052000   0.53670759   -2.6071153   0.80425632    -1.802859   0.13497365    11430.592     1000 
 1054000   0.52606047   -2.5931078   0.78830162   -1.8048062   0.13416063    11468.948     1000 
 1056000   0.51832493   -2.5738647   0.77670991   -1.7971548   0.13523196    11475.792     1000 
 1058000   0.50522948   -2.6077041   0.75708637   -1.8506177    0.1247673    11286.699     1000 
 1060000   0.52951298   -2.6352825    0.7934752   -1.8418073   0.12589967    11575.491     1000 
 1062000   0.50795468   -2.5951103   0.76117008   -1.8339402   0.12908982    11539.445     1000 
 1064000    0.5254277   -2.5731219    0.7873534   -1.7857685    0.1487353    11278.116     1000 
 1066000   0.51932632   -2.6472369    0.7782105   -1.8690264   0.14046196    11461.824     1000 
 1068000   0.53028984   -2.6108832   0.79463933   -1.8162439   0.12688071     11444.02     1000 
 1070000   0.52220195   -2.6331626   0.78251962    -1.850643   0.13365728    11429.381     1000 
 1072000   0.52115998   -2.5895403   0.78095823   -1.8085821   0.13875825    11243.316     1000 
 1074000    0.5123291   -2.5671949   0.76772516   -1.7994697    0.1525953    11315.617     1000 
 1076000   0.51162187   -2.6414796   0.76666537   -1.8748142   0.12369226     11516.66     1000 
 1078000   0.51151533   -2.6163375   0.76650572   -1.8498318   0.13976031    11376.849     1000 
 1080000   0.56257887   -2.5948626   0.84302444   -1.7518381   0.13733455    11310.917     1000 
 1082000   0.51616626    -2.607895   0.77347514   -1.8344199   0.12951845    11348.999     1000 
 1084000   0.51909261   -2.6208565   0.77786028   -1.8429962   0.13025974    11474.596     1000 
 1086000    0.5126043   -2.6103653   0.76813754   -1.8422277   0.14488974    11342.675     1000 
 1088000   0.50653917   -2.5558636   0.75904895   -1.7968147   0.14121358    11240.929     1000 
 1090000   0.51891991   -2.6136327   0.77760149   -1.8360312   0.12855859    11484.366     1000 
 1092000   0.52870811   -2.6591674   0.79226911   -1.8668983   0.12672869    11600.029     1000 
 1094000   0.49504689      -2.5949   0.74182777   -1.8530722   0.13507896    11421.557     1000 
 1096000   0.52680621   -2.6350313    0.7894191   -1.8456122   0.12192216    11600.352     1000 
 1098000   0.53298392   -2.6879458   0.79867641   -1.8892694   0.13151233    11495.905     1000 
 1100000   0.52210035   -2.6054667   0.78236738   -1.8230993   0.14218989    11290.524     1000 
 1102000   0.51152004   -2.6190133   0.76651277   -1.8525006   0.11277748    11422.063     1000 
 1104000   0.52276377   -2.5906894    0.7833615   -1.8073279    0.1308273    11180.324     1000 
 1106000   0.50176642   -2.6326053   0.75189698   -1.8807083    0.1203352    11556.386     1000 
 1108000   0.50781098   -2.6050355   0.76095475   -1.8440808   0.13434493    11261.651     1000 
 1110000   0.52868038   -2.6114358   0.79222755   -1.8192082   0.11915969    11422.777     1000 
 1112000   0.51642835   -2.6466465   0.77386789   -1.8727787   0.13064487    11471.998     1000 
 1114000   0.52170932   -2.6011041   0.78178141   -1.8193227   0.12629181    11494.851     1000 
 1116000   0.51197331   -2.6620226     0.767192   -1.8948306   0.12961297    11483.688     1000 
 1118000   0.50299155   -2.5795008   0.75373284    -1.825768   0.13369425    11354.977     1000 
 1120000   0.51222146   -2.6010147   0.76756385   -1.8334508   0.12998418    11389.856     1000 
 1122000   0.50209827   -2.6635335   0.75239426   -1.9111393   0.12619278      11480.1     1000 
 1124000   0.52274311   -2.6450639   0.78333054   -1.8617334   0.12410982     11521.38     1000 
 1126000   0.51560491   -2.6198542   0.77263395   -1.8472203   0.11960082     11568.22     1000 
 1128000   0.50240956     -2.61329   0.75286073   -1.8604292   0.13434494    11420.476     1000 
 1130000   0.51732465   -2.6679831   0.77521099   -1.8927721    0.1270882    11596.253     1000 
 1132000   0.51804797   -2.5645142   0.77629488   -1.7882193   0.13335998    11296.958     1000 
 1134000   0.54726236    -2.603981   0.82007264   -1.7839083   0.15093479    11272.572     1000 
 1136000   0.53522411   -2.5968945   0.80203332   -1.7948611   0.13948969    11429.068     1000 
 1138000   0.52535554   -2.6589145   0.78724528   -1.8716693   0.13048077    11529.916     1000 
 1140000   0.51855781   -2.6044973   0.77705888   -1.8274384   0.13259875    11371.443     1000 
 1142000   0.53329635    -2.586474   0.79914458   -1.7873294   0.13229343    11385.958     1000 
 1144000   0.50926382   -2.6393579   0.76313183   -1.8762261    0.1348162    11552.618     1000 
 1146000   0.50829247   -2.5904197   0.76167627   -1.8287434   0.13129072    11376.013     1000 
 1148000   0.51922719   -2.6432967   0.77806194   -1.8652348   0.12703056    11419.117     1000 
 1150000   0.51523616   -2.6265249   0.77208139   -1.8544435   0.12855996    11420.171     1000 
 1152000   0.52448978   -2.6124594   0.78594794   -1.8265115   0.12957201    11446.549     1000 
 1154000   0.51498059   -2.6218308   0.77169842   -1.8501324   0.12968007     11383.63     1000 
 1156000   0.51129959   -2.6210246   0.76618244   -1.8548421   0.12923197    11528.186     1000 
 1158000   0.50323793   -2.6083163   0.75410203   -1.8542143   0.13597321    11346.317     1000 
 1160000   0.49528913   -2.6566068   0.74219076   -1.9144161   0.13441879    11459.712     1000 
 1162000   0.54277066   -2.5826154   0.81334183   -1.7692736   0.13456796    11410.507     1000 
 1164000   0.51884842   -2.5848784   0.77749435    -1.807384   0.14500845    11311.116     1000 
 1166000   0.52091358   -2.6604181     0.780589   -1.8798291   0.11402649    11769.844     1000 
 1168000   0.53348013   -2.5507676   0.79941997   -1.7513476   0.13826084    11196.605     1000 
 1170000   0.52269055   -2.6255729    0.7832518   -1.8423211   0.12107314     11460.85     1000 
 1172000   0.50584442    -2.670088   0.75800787   -1.9120801   0.13938668    11396.208     1000 
 1174000   0.52460097    -2.658847   0.78611455   -1.8727325    0.1185001    11590.936     1000 
 1176000    0.5378516   -2.6139231   0.80597062   -1.8079525   0.12732711    11520.231     1000 
 1178000   0.54373913   -2.5889605   0.81479308   -1.7741674   0.12379192     11307.29     1000 
 1180000    0.5429812   -2.5706321   0.81365732   -1.7569748   0.14149178    11301.756     1000 
 1182000   0.52294033   -2.6164916   0.78362609   -1.8328655   0.12605088    11377.894     1000 
 1184000   0.51119037    -2.587682   0.76601876   -1.8216632   0.13045385    11479.601     1000 
 1186000    0.5339523   -2.6338475   0.80012753   -1.8337199   0.14147602    11427.154     1000 
 1188000   0.51447912    -2.650022   0.77094696    -1.879075   0.14266073    11408.734     1000 
 1190000    0.5419207   -2.6565907   0.81206817   -1.8445225   0.13270982    11342.743     1000 
 1192000   0.51387134   -2.6378342   0.77003621    -1.867798   0.12471477     11423.36     1000 
 1194000   0.54255392   -2.6179828   0.81301705   -1.8049658   0.13278883    11452.633     1000 
 1196000   0.53245333   -2.5830102   0.79788131   -1.7851289   0.13083109    11274.209     1000 
 1198000    0.5436773   -2.6229491   0.81470044   -1.8082487   0.13396226    11563.772     1000 
 1200000   0.52930482   -2.6342372   0.79316327   -1.8410739   0.11232393    11606.459     1000 
 1202000   0.52390126   -2.6126416   0.78506604   -1.8275755   0.12481695    11499.493     1000 
 1204000   0.54403684   -2.6342479    0.8152392   -1.8190087   0.13049625    11506.943     1000 
 1206000   0.52577593   -2.6426998   0.78787523   -1.8548246   0.13328804    11465.225     1000 
 1208000   0.51372555   -2.6467427   0.76981774    -1.876925   0.13332586    11429.095     1000 
 1210000   0.50854862   -2.6173292    0.7620601   -1.8552691   0.12803263    11455.468     1000 
 1212000   0.50502732   -2.5916357   0.75678344   -1.8348522   0.15373586    11314.534     1000 
 1214000   0.51624967   -2.5818586   0.77360012   -1.8082585   0.13805079     11461.79     1000 
 1216000   0.51765377   -2.6568592   0.77570418    -1.881155   0.13138155    11443.367     1000 
 1218000    0.5218696   -2.5638033    0.7820216   -1.7817817   0.12505632    11470.616     1000 
 1220000   0.52116925   -2.5977538   0.78097213   -1.8167817   0.13204847    11545.761     1000 
 1222000   0.53760446   -2.5640426   0.80560028   -1.7584424   0.13585561    11457.758     1000 
 1224000   0.52210336   -2.6083323   0.78237188   -1.8259605   0.15042059     11408.93     1000 
 1226000   0.51966568   -2.6306877   0.77871903   -1.8519687   0.12304067    11469.926     1000 
 1228000   0.52318681   -2.5887992   0.78399544   -1.8048038   0.12911536    11408.778     1000 
 1230000   0.51097291   -2.6225759   0.76569291    -1.856883    0.1403019    11406.098     1000 
 1232000   0.51857925   -2.5896968     0.777091   -1.8126058   0.14125246    11383.774     1000 
 1234000   0.53222376   -2.6412551   0.79753731   -1.8437178   0.14668451    11289.402     1000 
 1236000    0.5368202   -2.6292088   0.80442507   -1.8247837   0.14162207    11343.901     1000 
 1238000   0.51653069   -2.6134101   0.77402123   -1.8393889   0.13004408    11505.459     1000 
 1240000   0.49882755   -2.5960406   0.74749308   -1.8485475   0.13195667    11263.792     1000 
 1242000   0.53565214   -2.6095621   0.80267473   -1.8068873   0.13941687    11272.206     1000 
 1244000   0.50296025   -2.6504059   0.75368593     -1.89672    0.1285538    11448.825     1000 
 1246000   0.50611024   -2.5947136    0.7584062   -1.8363074   0.10828282     11401.31     1000 
 1248000   0.49956108   -2.6170769   0.74859229   -1.8684846   0.11747977    11564.416     1000 
 1250000    0.5438334   -2.6867925   0.81493435   -1.8718582   0.11727286    11485.555     1000 
 1252000    0.5284519   -2.5926008   0.79188517   -1.8007157   0.12487412    11422.521     1000 
 1254000   0.53229969   -2.5744236   0.79765109   -1.7767725     0.122387    11399.875     1000 
 1256000   0.50842291   -2.5960606   0.76187173   -1.8341888   0.13202602    11130.546     1000 
 1258000   0.51634126   -2.6137093   0.77373738   -1.8399719   0.14574505     11455.71     1000 
 1260000   0.53288947   -2.5874092   0.79853487   -1.7888744   0.13771781    11222.121     1000 
 1262000   0.51207979    -2.618661   0.76735156   -1.8513094   0.12782711    11478.098     1000 
 1264000   0.51574044     -2.62642   0.77283705   -1.8535829   0.13775362    11402.057     1000 
 1266000   0.53791372   -2.6019568   0.80606371   -1.7958931   0.13797146    11412.957     1000 
 1268000   0.50423636   -2.6139818   0.75559818   -1.8583837   0.11548312    11615.614     1000 
 1270000   0.52619145   -2.5897604   0.78849789   -1.8012626   0.12264717    11335.055     1000 
 1272000   0.49511684   -2.6240792   0.74193259   -1.8821466   0.12896447    11449.146     1000 
 1274000   0.50561034   -2.6156018   0.75765709   -1.8579448   0.12748023    11352.366     1000 
 1276000   0.54267433   -2.6596757   0.81319748   -1.8464782   0.12378193    11635.033     1000 
 1278000      0.50753   -2.6434856   0.76053371   -1.8829519   0.12508631    11560.426     1000 
 1280000   0.52618946   -2.6491448   0.78849491   -1.8606499   0.13321756    11611.544     1000 
 1282000   0.54670122   -2.5674314   0.81923177   -1.7481996   0.13938506    11394.089     1000 
 1284000    0.5100397    -2.604108   0.76429449   -1.8398136   0.13618028    11402.743     1000 
 1286000   0.51150234   -2.6522138   0.76648625   -1.8857276   0.14038825    11219.418     1000 
 1288000   0.52182939   -2.5829106   0.78196134   -1.8009493   0.13179061    11308.804     1000 
 1290000   0.52906003   -2.6025426   0.79279646   -1.8097461   0.12880217    11480.356     1000 
 1292000   0.52899539   -2.6023067   0.79269959   -1.8096071   0.13068446    11374.771     1000 
 1294000   0.51483234   -2.6732239   0.77147627   -1.9017477   0.11702982    11569.841     1000 
 1296000   0.52263109   -2.5962016   0.78316269   -1.8130389   0.13197679    11398.666     1000 
 1298000   0.51350378   -2.6155461   0.76948541   -1.8460607   0.13977238    11333.175     1000 
 1300000     0.498841   -2.5697185   0.74751324   -1.8222053   0.11548044    11466.983     1000 
 1302000    0.5089907   -2.6017596   0.76272257   -1.8390371   0.12696564    11612.322     1000 
 1304000   0.51132312   -2.6164218    0.7662177   -1.8502041    0.1249999    11411.776     1000 
 1306000   0.51763807   -2.5805265   0.77568065   -1.8048459   0.12586072    11419.865     1000 
 1308000   0.52524073   -2.6020096   0.78707323   -1.8149363   0.12245857    11336.781     1000 
 1310000   0.50635381   -2.6508113   0.75877119   -1.8920401   0.13602265    11334.851     1000 
 1312000   0.53000217   -2.6428845   0.79420825   -1.8486762   0.13374477    11336.872     1000 
 1314000   0.51564491   -2.5826247    0.7726939   -1.8099308    0.1138831    11454.457     1000 
 1316000   0.53612105   -2.6240464   0.80337739    -1.820669   0.14008944    11484.629     1000 
 1318000   0.54683509   -2.5739415   0.81943238   -1.7545091    0.1201647    11465.451     1000 
 1320000   0.53067172   -2.6093048   0.79521158   -1.8140933   0.13267002    11393.366     1000 
 1322000   0.54195118   -2.6735775   0.81211384   -1.8614637   0.12432465    11314.509     1000 
 1324000   0.52181134   -2.5983392    0.7819343   -1.8164049   0.14464271    11218.507     1000 
 1326000     0.547289   -2.6082727   0.82011256   -1.7881602   0.12766822     11403.34     1000 
 1328000   0.52099674   -2.6240098   0.78071361   -1.8432962   0.12543663    11485.362     1000 
 1330000   0.52512473   -2.5966378   0.78689941   -1.8097384   0.13894832    11428.176     1000 
 1332000    0.5337933   -2.5939802   0.79988927   -1.7940909   0.13367419    11318.553     1000 
 1334000   0.53229328   -2.6051567   0.79764148   -1.8075152   0.12672299    11436.061     1000 
 1336000   0.52749173     -2.65002   0.79044636   -1.8595736   0.12704695     11552.84     1000 
 1338000   0.53466751    -2.619959   0.80119926   -1.8187598   0.14626726    11408.312     1000 
 1340000   0.50799745   -2.6081088   0.76123418   -1.8468746   0.12570864    11570.035     1000 
 1342000   0.52804953   -2.5421768   0.79128222   -1.7508945    0.1410533    11248.084     1000 
 1344000   0.51020044   -2.6259396   0.76453536   -1.8614043   0.14505733    11196.914     1000 
 1346000   0.51108472    -2.676339   0.76586045   -1.9104786   0.14200991    11393.123     1000 
 1348000   0.50159613   -2.6151689    0.7516418   -1.8635271   0.13171335    11330.604     1000 
 1350000   0.53359173   -2.6200935    0.7995872   -1.8205063    0.1445659    11393.717     1000 
 1352000   0.50268872   -2.6231736   0.75327905   -1.8698946   0.12506225     11364.98     1000 
 1354000   0.51863536   -2.6309421   0.77717509    -1.853767    0.1329398    11430.218     1000 
 1356000   0.50639297    -2.635712   0.75882987   -1.8768821    0.1283896    11474.838     1000 
 1358000   0.51387472    -2.648345   0.77004127   -1.8783037   0.13023877    11523.344     1000 
 1360000   0.52773145   -2.5700115   0.79080558   -1.7792059   0.14988617    11162.772     1000 
 1362000   0.51297391   -2.6375924   0.76869141    -1.868901   0.11844039    11574.614     1000 
 1364000   0.50987423     -2.61821   0.76404653   -1.8541635   0.14337314    11327.272     1000 
 1366000   0.53894991   -2.6500189   0.80761644   -1.8424025   0.13870481    11561.553     1000 
 1368000   0.52817419   -2.6279032   0.79146903   -1.8364341   0.12459496    11343.942     1000 
 1370000   0.49188906   -2.6205702   0.73709576   -1.8834744   0.13365232    11504.671     1000 
 1372000   0.51920063   -2.5791296   0.77802215   -1.8011074    0.1285181    11494.646     1000 
 1374000   0.51278001   -2.6180519   0.76840084   -1.8496511   0.14624132     11369.68     1000 
 1376000   0.50758473   -2.5663412   0.76061571   -1.8057254   0.12387535    11458.953     1000 
 1378000   0.52785789   -2.6302074   0.79099505   -1.8392123   0.14170154    11336.913     1000 
 1380000   0.50934017   -2.5718654   0.76324624   -1.8086192   0.13395079    11485.235     1000 
 1382000   0.52078631   -2.5653594   0.78039828   -1.7849612    0.1236313    11433.105     1000 
 1384000   0.52215457   -2.6459942   0.78244862   -1.8635456   0.14160372    11464.948     1000 
 1386000   0.52808492   -2.6541551   0.79133525   -1.8628198   0.11896456    11440.345     1000 
 1388000   0.51336134   -2.5451108   0.76927196   -1.7758388   0.11758152    11333.963     1000 
 1390000    0.5334148   -2.5767404   0.79932208   -1.7774183   0.12762903    11401.303     1000 
 1392000   0.52365912   -2.5853241   0.78470319    -1.800621   0.13161044    11310.626     1000 
 1394000   0.52609571   -2.5961983   0.78835442   -1.8078439   0.13388383    11428.212     1000 
 1396000   0.52437636   -2.6143254   0.78577797   -1.8285474   0.12899792    11365.722     1000 
 1398000   0.50848744   -2.6212769   0.76196842   -1.8593084   0.11469768    11588.233     1000 
 1400000   0.52437398   -2.6085492   0.78577441   -1.8227748   0.11745347    11576.557     1000 
 1402000   0.55577249   -2.6122114   0.83282508   -1.7793863   0.15151157     11171.07     1000 
 1404000   0.51545776     -2.54947   0.77241345   -1.7770566   0.12189702    11436.183     1000 
 1406000   0.52445958   -2.6063671   0.78590268   -1.8204644   0.13720578     11352.54     1000 
 1408000   0.52914208   -2.6434704    0.7929194    -1.850551   0.13168905    11458.037     1000 
 1410000   0.53401033    -2.622655   0.80021448   -1.8224405   0.13088206    11351.947     1000 
 1412000   0.51493765   -2.6179696   0.77163407   -1.8463355   0.11850534    11444.605     1000 
 1414000   0.51846198   -2.6572258   0.77691528   -1.8803105   0.11870654    11511.029     1000 
 1416000   0.51730608   -2.6275683   0.77518316   -1.8523851   0.13384774     11520.92     1000 
 1418000   0.52801415   -2.6065004    0.7912292   -1.8152712   0.12103656    11600.156     1000 
 1420000   0.48979482   -2.5797933   0.73395754   -1.8458358   0.11576892    11462.507     1000 
 1422000   0.52048794   -2.5517061   0.77995117   -1.7717549   0.13161122    11344.042     1000 
 1424000   0.53508294     -2.60992   0.80182179   -1.8080982   0.13363172    11408.125     1000 
 1426000   0.53138422    -2.627684   0.79627925   -1.8314047   0.12264571    11562.102     1000 
 1428000    0.4931726    -2.614185   0.73901914   -1.8751658   0.12643677    11451.547     1000 
 1430000   0.53436202   -2.6218662   0.80074148   -1.8211247   0.13187766     11469.53     1000 
 1432000   0.53847614   -2.5756111    0.8069065   -1.7687046   0.13918917      11342.4     1000 
 1434000   0.53141156   -2.6070468   0.79632023   -1.8107266   0.13375589    11504.212     1000 
 1436000   0.50922478   -2.6435581   0.76307333   -1.8804848   0.11754125    11429.564     1000 
 1438000   0.52250404   -2.5874767    0.7829723   -1.8045044   0.13421052    11315.245     1000 
 1440000   0.53834202    -2.605542   0.80670552   -1.7988364   0.13509777    11358.479     1000 
 1442000    0.5206572   -2.6031047   0.78020481   -1.8228999   0.13803315    11376.484     1000 
 1444000   0.52359768   -2.6498514   0.78461113   -1.8652403   0.14267791    11383.907     1000 
 1446000   0.50774163   -2.5981727   0.76085083   -1.8373219   0.13329278    11413.336     1000 
 1448000    0.5473207   -2.5807747   0.82016007   -1.7606146   0.13873392    11362.056     1000 
 1450000   0.52895406   -2.6773265   0.79263766   -1.8846888   0.11272014    11569.747     1000 
 1452000   0.51805767   -2.6090284   0.77630941    -1.832719   0.14516818    11406.504     1000 
 1454000   0.52689372   -2.5766499   0.78955024   -1.7870997   0.13694344    11241.376     1000 
 1456000   0.50306101   -2.6184882   0.75383692   -1.8646513   0.12687675    11390.024     1000 
 1458000   0.50521352   -2.6327218   0.75706246   -1.8756593   0.12237735    11497.663     1000 
 1460000   0.54431487   -2.6659455   0.81565584   -1.8502897   0.12463881    11581.944     1000 
 1462000   0.53499837   -2.6260901   0.80169506    -1.824395   0.13494773    11573.344     1000 
 1464000   0.48939544   -2.5661312   0.73335907   -1.8327721     0.136801    11319.062     1000 
 1466000   0.53059548   -2.6254637   0.79509732   -1.8303664   0.13221801    11382.322     1000 
 1468000   0.51372746   -2.6177133   0.76982059   -1.8478927   0.12161807    11584.439     1000 
 1470000   0.51917987   -2.6578184   0.77799104   -1.8798273   0.12412111    11506.867     1000 
 1472000   0.49008263   -2.6007956   0.73438882   -1.8664068   0.11765747     11514.68     1000 
 1474000   0.52515216   -2.6523776   0.78694051   -1.8654371   0.12874805    11494.754     1000 
 1476000   0.50364581    -2.606466   0.75471324   -1.8517527   0.12070007    11402.426     1000 
 1478000   0.52863421   -2.6166893   0.79215837    -1.824531    0.1337098    11337.174     1000 
 1480000   0.52566973   -2.5904533   0.78771609   -1.8027372   0.12804839    11412.336     1000 
 1482000   0.52607031   -2.6493804   0.78831636    -1.861064   0.12517444    11541.792     1000 
 1484000    0.5144338   -2.6021435   0.77087905   -1.8312644    0.1326662    11430.735     1000 
 1486000   0.52700612   -2.5770448   0.78971867   -1.7873262   0.13738056    11484.883     1000 
 1488000   0.49294473   -2.5903241   0.73867768   -1.8516464   0.13217542    11411.552     1000 
 1490000    0.5027655   -2.6284725    0.7533941   -1.8750784   0.14723908     11329.51     1000 
 1492000   0.52473146   -2.6248452    0.7863101   -1.8385351   0.12575003    11673.102     1000 
 1494000   0.53373616   -2.6110447   0.79980363   -1.8112411   0.13338777    11477.892     1000 
 1496000   0.51824692   -2.6125982   0.77659301   -1.8360052    0.1336818      11399.2     1000 
 1498000   0.51428019   -2.6646333   0.77064886   -1.8939844   0.13928543    11392.916     1000 
 1500000   0.51113995   -2.6500356   0.76594322   -1.8840923   0.11801216    11512.681     1000 
 1502000   0.53944946   -2.6327345   0.80836501   -1.8243695   0.13961889     11452.12     1000 
 1504000   0.51927745   -2.5794485   0.77813726   -1.8013113   0.14243931    11245.643     1000 
 1506000   0.50719381   -2.5959855   0.76002993   -1.8359556   0.12485747     11446.93     1000 
 1508000   0.51434669   -2.6217672   0.77074852   -1.8510187   0.14108085    11421.797     1000 
 1510000   0.54840239   -2.6139572   0.82178098   -1.7921762   0.12007707    11357.033     1000 
 1512000   0.52054492   -2.5735299   0.78003657   -1.7934934   0.12998358    11484.499     1000 
 1514000   0.51323626   -2.5758466   0.76908453   -1.8067621   0.13220205    11400.081     1000 
 1516000   0.53253394   -2.6218357   0.79800211   -1.8238336   0.12825108    11556.198     1000 
 1518000   0.51740239   -2.5929044   0.77532748   -1.8175769   0.13207506    11411.135     1000 
 1520000   0.53894907   -2.5957574   0.80761519   -1.7881422   0.14279798    11317.157     1000 
 1522000   0.53683077   -2.6357162    0.8044409   -1.8312753   0.13905763    11325.518     1000 
 1524000   0.54769082   -2.5730707   0.82071469    -1.752356   0.13610478    11341.409     1000 
 1526000   0.50061699    -2.674688   0.75017456   -1.9245135   0.12117122    11533.115     1000 
 1528000    0.5232294   -2.5452552   0.78405926   -1.7611959   0.12276743    11328.236     1000 
 1530000   0.53341909    -2.645338    0.7993285   -1.8460095   0.13831161    11473.951     1000 
 1532000   0.54094339   -2.6326747   0.81060367   -1.8220711   0.13032279     11349.91     1000 
 1534000   0.52301282   -2.6619134   0.78373472   -1.8781787   0.13916511    11257.887     1000 
 1536000   0.51685848   -2.5726181   0.77451243   -1.7981057   0.13482931    11181.613     1000 
 1538000   0.54155852   -2.6498613   0.81152543   -1.8383359   0.13765472      11522.5     1000 
 1540000   0.50457574    -2.645547   0.75610675   -1.8894402   0.12906838      11370.6     1000 
 1542000   0.51928338   -2.5923398   0.77814614   -1.8141937   0.14700859    11435.363     1000 
 1544000   0.52383406   -2.5849764   0.78496534    -1.800011   0.12272473    11442.869     1000 
 1546000   0.51921884   -2.5919001   0.77804943   -1.8138506   0.11604152    11567.784     1000 
 1548000   0.52918909   -2.5988649   0.79298986    -1.805875   0.12987562    11326.325     1000 
 1550000   0.51847398   -2.5926244   0.77693326   -1.8156912   0.12347306    11440.427     1000 
 1552000   0.54256428   -2.6532843   0.81303257   -1.8402517   0.14188004    11483.357     1000 
 1554000   0.52064333   -2.5983067   0.78018402   -1.8181227   0.12539583    11513.389     1000 
 1556000   0.51176248   -2.6258837   0.76687607   -1.8590076   0.14669826    11455.876     1000 
 1558000    0.5397426   -2.6282424   0.80880428   -1.8194381   0.13489844    11413.359     1000 
 1560000   0.50532628   -2.5890601   0.75723143   -1.8318287   0.12462773    11335.488     1000 
 1562000   0.51947973   -2.6355469   0.77844038   -1.8571065   0.14419042     11367.44     1000 
 1564000   0.51317761   -2.6255548   0.76899665   -1.8565581   0.12273719    11428.833     1000 
 1566000   0.50415397   -2.5716958   0.75547473    -1.816221   0.12970071    11405.486     1000 
 1568000    0.5109904   -2.6247855   0.76571912   -1.8590664   0.13278887    11478.801     1000 
 1570000   0.52764729   -2.6408696   0.79067946   -1.8501901   0.12929026    11507.832     1000 
 1572000   0.53669289   -2.6409513    0.8042343    -1.836717   0.11846333    11584.693     1000 
 1574000    0.5217563   -2.5940222   0.78185182   -1.8121703   0.13322099    11465.772     1000 
 1576000   0.51946674   -2.6327261   0.77842091   -1.8543052   0.12741334     11450.42     1000 
 1578000   0.50848979   -2.5957872   0.76197195   -1.8338152   0.14227021    11371.382     1000 
 1580000   0.55677626   -2.6363998   0.83432922   -1.8020705   0.13549787    11448.516     1000 
 1582000   0.50807085   -2.6662697   0.76134417   -1.9049256   0.11814029    11598.032     1000 
 1584000   0.51858752   -2.6042963    0.7771034   -1.8271929   0.13225313    11291.977     1000 
 1586000   0.51158397   -2.6615169   0.76660858   -1.8949083   0.13338624    11491.306     1000 
 1588000   0.51151693   -2.5899705   0.76650812   -1.8234624   0.12484509    11275.478     1000 
[...]
 2614000   0.49996116   -2.5665286    0.7491918   -1.8173368   0.12280463    11413.517     1000 
 2616000   0.50482221   -2.6463564   0.75647608   -1.8898804   0.11708679     11584.24     1000 
 2618000   0.50160651   -2.5618906   0.75165736   -1.8102332   0.12735834    11281.558     1000 
 2620000   0.52106484   -2.5848702   0.78081566   -1.8040546   0.12959977    11459.594     1000 
 2622000   0.54050222   -2.6128892   0.80994258   -1.8029466   0.13232596    11413.777     1000 
 2624000   0.51922125   -2.6369711   0.77805305   -1.8589181    0.1407115    11323.409     1000 
 2626000   0.50257843   -2.6055635   0.75311377   -1.8524497   0.14561475    11267.556     1000 
 2628000   0.49858073   -2.5973081   0.74712323   -1.8501848   0.12815009    11336.855     1000 
 2630000   0.52725754   -2.6543529   0.79009542   -1.8642575   0.14041433    11462.954     1000 
 2632000   0.51867112   -2.6193659   0.77722868   -1.8421372   0.13123909    11266.741     1000 
 2634000   0.51986109    -2.597609   0.77901184   -1.8185971   0.13897256    11314.254     1000 
 2636000   0.53614367   -2.5993682    0.8034113   -1.7959569   0.12023571    11531.096     1000 
 2638000   0.50718419   -2.6156936   0.76001551   -1.8556781   0.12440852    11528.477     1000 
 2640000   0.54222871    -2.608468   0.81252972   -1.7959383   0.13207431    11638.735     1000 
 2642000   0.51895374   -2.6007947   0.77765217   -1.8231426   0.13727808    11453.195     1000 
 2644000   0.50808365   -2.5792742   0.76136335   -1.8179109    0.1357009    11308.514     1000 
 2646000   0.51271976   -2.6049919   0.76831055   -1.8366813   0.12802326    11316.421     1000 
 2648000   0.52624044   -2.5853617    0.7885713   -1.7967904   0.13892164    11368.601     1000 
 2650000   0.52686143   -2.6907986   0.78950185   -1.9012967   0.13213897    11502.708     1000 
 2652000   0.52455563   -2.5904002   0.78604661   -1.8043536   0.12796852    11389.051     1000 
 2654000   0.50550508   -2.6206747   0.75749937   -1.8631753   0.13573448    11299.083     1000 
 2656000   0.52936841   -2.6389922   0.79325857   -1.8457336   0.14020897    11311.811     1000 
 2658000   0.51458996   -2.6455995   0.77111306   -1.8744865   0.12202855    11451.144     1000 
 2660000   0.52484617   -2.6446451   0.78648199   -1.8581631   0.13999265    11281.173     1000 
 2662000   0.52143215   -2.5942736   0.78136608   -1.8129075   0.13260186    11586.573     1000 
 2664000    0.5110174   -2.6539648   0.76575957   -1.8882052   0.13095041    11537.903     1000 
 2666000   0.53713716   -2.6666394   0.80490004   -1.8617394   0.12746988    11462.859     1000 
 2668000   0.51172287   -2.6515402   0.76681672   -1.8847235   0.11788748    11521.543     1000 
 2670000   0.51762399   -2.6202823   0.77565955   -1.8446227   0.13286444    11531.925     1000 
 2672000   0.52057264   -2.5985949    0.7800781   -1.8185168   0.13672386    11425.739     1000 
 2674000   0.53323047   -2.6318992   0.79904586   -1.8328533   0.11758733    11565.813     1000 
 2676000    0.5279375   -2.5917744   0.79111434   -1.8006601   0.13812651    11238.377     1000 
 2678000   0.53095535   -2.6334272    0.7956366   -1.8377906    0.1153148    11503.079     1000 
 2680000    0.5288184   -2.6626499   0.79243437   -1.8702155    0.1254341    11683.907     1000 
 2682000   0.50578088   -2.6050891   0.75791265   -1.8471764   0.10944697    11615.648     1000 
 2684000   0.50466798   -2.6411542   0.75624497   -1.8849093   0.11431154    11422.219     1000 
 2686000   0.53133348   -2.6384218   0.79620322   -1.8422186    0.1290975     11475.48     1000 
 2688000   0.52527291   -2.6084157   0.78712146   -1.8212943   0.13899028    11459.405     1000 
 2690000    0.5306988   -2.5484996   0.79525216   -1.7532474   0.14046889    11341.976     1000 
 2692000   0.50561327   -2.6104414   0.75766149   -1.8527799   0.12830209    11557.785     1000 
 2694000   0.52433642   -2.5851947   0.78571812   -1.7994766   0.13199561    11341.533     1000 
 2696000   0.51790407   -2.6019256   0.77607925   -1.8258463   0.12836278    11408.007     1000 
 2698000   0.49948422   -2.6368203    0.7484771   -1.8883432    0.1250747    11396.897     1000 
 2700000   0.49906973   -2.6266968   0.74785599   -1.8788408   0.11732015    11512.198     1000 
 2702000   0.50372851   -2.5869884   0.75483718   -1.8321512    0.1321702    11293.948     1000 
 2704000   0.54145759    -2.583867    0.8113742   -1.7724928   0.13502046    11384.496     1000 
 2706000   0.52211358   -2.6195492    0.7823872    -1.837162    0.1317357    11450.825     1000 
 2708000   0.51485276    -2.591672   0.77150686   -1.8201652   0.13347735    11434.465     1000 
 2710000   0.53171929   -2.6458464   0.79678135    -1.849065   0.12660299    11322.572     1000 
 2712000   0.50549815   -2.5852079   0.75748897   -1.8277189    0.1377805    11285.761     1000 
 2714000   0.54523566   -2.6119579   0.81703563   -1.7949223   0.13044315    11461.093     1000 
 2716000   0.54410547   -2.6378875   0.81534205   -1.8225454   0.14566486    11336.328     1000 
 2718000   0.51281221    -2.637878    0.7684491   -1.8694289    0.1412631    11360.511     1000 
 2720000   0.51975725   -2.6582914   0.77885624   -1.8794351   0.11582584    11683.811     1000 
 2722000   0.52168402   -2.6479259    0.7817435   -1.8661824   0.11699486    11587.062     1000 
 2724000   0.52501355    -2.610058   0.78673281   -1.8233252   0.12517764    11412.343     1000 
 2726000   0.54261896    -2.582362   0.81311452   -1.7692474   0.14255885    11329.855     1000 
 2728000   0.52998541   -2.6128424   0.79418314   -1.8186593   0.12108799    11538.525     1000 
 2730000   0.52087415   -2.6341679   0.78052991    -1.853638   0.12631181     11492.07     1000 
 2732000    0.5184644   -2.6473991    0.7769189   -1.8704802   0.11734026    11509.221     1000 
 2734000   0.53891278   -2.5915659   0.80756081   -1.7840051   0.13801349    11289.678     1000 
 2736000   0.50771356   -2.6299211   0.76080877   -1.8691123   0.13718539    11445.227     1000 
 2738000   0.54132834   -2.6189489   0.81118052   -1.8077684   0.13369277    11350.808     1000 
 2740000   0.52242089   -2.6156857   0.78284771    -1.832838   0.12721367    11487.635     1000 
 2742000   0.51945106   -2.5596536   0.77839741   -1.7812561    0.1230912    11403.904     1000 
 2744000   0.52393487   -2.5975846   0.78511641   -1.8124682   0.13232266     11366.78     1000 
 2746000   0.53281584   -2.5858417   0.79842454   -1.7874172   0.13069942    11343.342     1000 
 2748000   0.52330683   -2.5978937   0.78417528   -1.8137184   0.13339439    11179.089     1000 
 2750000   0.52511097   -2.6019544   0.78687879   -1.8150756   0.10330458    11667.031     1000 
 2752000   0.53759863    -2.628635   0.80559155   -1.8230434   0.13180104    11424.952     1000 
 2754000   0.52450986   -2.6062718   0.78597802   -1.8202938   0.13543495    11234.575     1000 
 2756000   0.53247369   -2.6349636   0.79791182   -1.8370518   0.12872391    11602.014     1000 
 2758000   0.51572068   -2.6411247   0.77280744   -1.8683173   0.12481655    11482.882     1000 
 2760000   0.51251222   -2.6265628   0.76799957   -1.8585633   0.14224199    11344.403     1000 
 2762000   0.50288133   -2.5880171   0.75356767   -1.8344494   0.12469616    11446.911     1000 
 2764000   0.51562851   -2.6642269   0.77266932   -1.8915576   0.14400453    11351.279     1000 
 2766000   0.51257724   -2.6470938   0.76809699   -1.8789968   0.13690459    11453.699     1000 
 2768000   0.53558996   -2.5946124   0.80258156   -1.7920309   0.12953696    11529.652     1000 
 2770000   0.53036503   -2.6230604     0.794752   -1.8283084    0.1375606    11307.904     1000 
 2772000   0.52501356   -2.6289374   0.78673282   -1.8422046   0.13690725    11583.105     1000 
 2774000    0.4875484   -2.6378786   0.73059127   -1.9072873   0.13046561    11356.939     1000 
 2776000   0.52433241   -2.5913977   0.78571212   -1.8056856   0.13710627    11289.328     1000 
 2778000     0.536677   -2.6282754   0.80421048   -1.8240649   0.12772933    11358.374     1000 
 2780000   0.53387952   -2.6575024   0.80001845   -1.8574839   0.12812937    11509.188     1000 
 2782000   0.54530161   -2.6614397   0.81713447   -1.8443052   0.12541417    11515.642     1000 
 2784000    0.5098476   -2.6227985   0.76400663   -1.8587919   0.13237631    11381.781     1000 
 2786000   0.53079375   -2.6187512   0.79539443   -1.8233567   0.12146356    11525.629     1000 
 2788000   0.50265609     -2.63622   0.75323016   -1.8829898   0.14990897     11447.04     1000 
 2790000   0.52578303   -2.6522747   0.78788586   -1.8643888   0.14362601     11315.27     1000 
 2792000   0.50455152   -2.6275147   0.75607045   -1.8714442   0.11638672    11468.299     1000 
 2794000    0.5067615   -2.6070555    0.7593821   -1.8476734   0.13987831    11324.261     1000 
 2796000   0.52242143   -2.6321348   0.78284851   -1.8492863   0.11787173    11416.227     1000 
 2798000   0.52365563   -2.6061177   0.78469797   -1.8214197   0.12814264    11478.353     1000 
 2800000   0.50000294   -2.5905945    0.7492544   -1.8413401   0.13743282     11336.67     1000 
 2802000   0.51422175   -2.6393883   0.77056129    -1.868827   0.13409638     11372.54     1000 
 2804000   0.51520184   -2.6501079   0.77202995    -1.878078   0.11828564     11531.48     1000 
 2806000   0.51692235   -2.6680378   0.77460814   -1.8934296   0.11804079    11659.513     1000 
 2808000    0.5232579   -2.6254751   0.78410196   -1.8413731   0.13200356    11392.081     1000 
 2810000   0.52055368   -2.5953839    0.7800497   -1.8153342    0.1282285    11496.378     1000 
 2812000   0.53000815   -2.6144958   0.79421721   -1.8202785   0.12679275    11448.726     1000 
 2814000   0.52698007   -2.6244425   0.78967963   -1.8347629   0.14694049    11363.429     1000 
 2816000   0.55315377   -2.5817061   0.82890092   -1.7528051   0.12312296    11407.331     1000 
 2818000   0.50610899   -2.5859226   0.75840433   -1.8275183   0.11480433    11463.755     1000 
 2820000   0.50141047   -2.6843398   0.75136359   -1.9329762    0.1159288    11481.482     1000 
 2822000   0.54060068   -2.6541641   0.81009012    -1.844074   0.12558526    11468.239     1000 
 2824000   0.53440391   -2.6116799   0.80080427   -1.8108756   0.14056331    11417.622     1000 
 2826000   0.52993358   -2.5824772   0.79410548   -1.7883717   0.13512928    11380.443     1000 
 2828000   0.51797937   -2.6111823   0.77619208   -1.8349902   0.12729238    11405.778     1000 
 2830000   0.52121767   -2.6183461   0.78104468   -1.8373014   0.13061949    11497.543     1000 
 2832000   0.51353178   -2.5633496   0.76952737   -1.7938223   0.13249052    11310.478     1000 
 2834000   0.52806762   -2.5973461   0.79130933   -1.8060367   0.11681612    11517.927     1000 
 2836000   0.53143228   -2.6338471   0.79635128   -1.8374958   0.13028731    11328.367     1000 
 2838000   0.51645145   -2.6139525    0.7739025     -1.84005   0.12125274    11528.462     1000 
 2840000   0.52039329   -2.6112132   0.77980934   -1.8314039   0.13093125    11399.081     1000 
 2842000   0.50330736   -2.6187054   0.75420607   -1.8644993   0.14011623    11480.725     1000 
 2844000   0.51539201   -2.6056795   0.77231492   -1.8333646   0.13163959    11535.024     1000 
 2846000   0.50890941   -2.6843627   0.76260075    -1.921762   0.10925232    11696.104     1000 
 2848000   0.50368978    -2.664163   0.75477913   -1.9093838   0.14364292    11462.314     1000 
 2850000   0.53491638   -2.6238216    0.8015722   -1.8222494   0.11676775    11469.933     1000 
 2852000   0.50493643   -2.5529538   0.75664724   -1.7963065   0.13500417    11366.535     1000 
 2854000   0.51798959   -2.5598312   0.77620741   -1.7836238   0.13823958    11386.386     1000 
 2856000   0.50690432   -2.6321366   0.75959612   -1.8725405   0.12919133     11419.26     1000 
 2858000   0.51299174   -2.5731328   0.76871813   -1.8044147   0.13437915    11422.108     1000 
 2860000   0.53088267   -2.6893459   0.79552768   -1.8938182   0.13957028    11588.798     1000 
 2862000   0.50786493   -2.6297077   0.76103559   -1.8686721   0.12316702    11468.179     1000 
 2864000   0.51339128   -2.6305759   0.76931683    -1.861259   0.13091321      11345.8     1000 
 2866000   0.50898048    -2.625109   0.76270724   -1.8624018   0.12317341    11510.202     1000 
 2868000      0.50613   -2.6152665    0.7584358   -1.8568307    0.1288249    11414.049     1000 
 2870000   0.53546705    -2.609877   0.80239737   -1.8074796   0.13098026    11458.459     1000 
 2872000   0.50900434   -2.5806488   0.76274301   -1.8179058   0.14312567    11168.755     1000 
 2874000   0.51003011   -2.6286823   0.76428012   -1.8644022   0.12500783    11383.199     1000 
 2876000   0.51367218   -2.6062356   0.76973776   -1.8364979   0.14409992    11357.196     1000 
 2878000   0.53220087    -2.620456     0.797503    -1.822953   0.13178587    11495.523     1000 
 2880000   0.52586936   -2.6685003   0.78801524   -1.8804851   0.13244105    11474.446     1000 
 2882000   0.50454125   -2.5626879   0.75605507   -1.8066328   0.13484703    11200.026     1000 
 2884000   0.52549433   -2.6507257   0.78745325   -1.8632724   0.13159328    11358.469     1000 
 2886000   0.50740497   -2.6400509   0.76034634   -1.8797046   0.11325793    11438.024     1000 
 2888000   0.52036403   -2.6611125    0.7797655    -1.881347   0.12081312    11501.595     1000 
 2890000   0.50912871   -2.6146202   0.76292937   -1.8516909   0.11971908    11526.324     1000 
 2892000    0.5247398   -2.6277541   0.78632259   -1.8414315   0.12263401    11488.543     1000 
 2894000   0.49606823   -2.6166672   0.74335824   -1.8733089   0.12952261    11293.614     1000 
 2896000   0.50499643    -2.586788   0.75673714   -1.8300509   0.11811589      11433.4     1000 
 2898000   0.50776819   -2.6090133   0.76089064   -1.8481226   0.13813044    11368.672     1000 
 2900000   0.52311808    -2.552059   0.78389244   -1.7681666   0.12853321    11461.234     1000 
 2902000   0.49670355   -2.6051887   0.74431027   -1.8608784   0.13267579      11310.7     1000 
 2904000   0.51394591    -2.571602   0.77014795    -1.801454   0.15118485    11256.297     1000 
 2906000   0.51317055   -2.6235759   0.76898607   -1.8545898   0.10966972    11515.637     1000 
 2908000   0.51853709   -2.6198443   0.77702782   -1.8428164   0.13021094    11564.326     1000 
 2910000   0.52984917   -2.5838218   0.79397898   -1.7898428   0.12237716    11508.768     1000 
 2912000   0.51604727   -2.5709338   0.77329684   -1.7976369   0.12399502    11385.594     1000 
 2914000   0.52814814     -2.62567   0.79142999     -1.83424   0.13158792    11393.622     1000 
 2916000   0.51730575   -2.6489786   0.77518266   -1.8737959   0.12261657    11417.555     1000 
 2918000   0.52584555    -2.611071   0.78797956   -1.8230914   0.12095144    11428.514     1000 
 2920000   0.50243879   -2.6025594   0.75290452   -1.8496549   0.11462451    11325.602     1000 
 2922000   0.52095893   -2.6460343   0.78065695   -1.8653774   0.14246603    11347.529     1000 
 2924000   0.51033134   -2.6320089   0.76473151   -1.8672774   0.11616309     11692.57     1000 
 2926000   0.52671626    -2.665488   0.78928432   -1.8762037   0.14914872    11423.141     1000 
 2928000   0.53223561   -2.6253881   0.79755506    -1.827833   0.13359378    11408.209     1000 
 2930000   0.52752127   -2.6323394   0.79049062   -1.8418488   0.13742589    11348.096     1000 
 2932000   0.51503782   -2.6221105   0.77178417   -1.8503263   0.12326915    11387.541     1000 
 2934000    0.5375528   -2.6199557   0.80552288   -1.8144328   0.13199245    11395.369     1000 
 2936000    0.5053385   -2.6514389   0.75724974   -1.8941891   0.11785691    11375.714     1000 
 2938000   0.50762689   -2.6200491   0.76067889   -1.8593702   0.12122522    11487.837     1000 
 2940000   0.51370699   -2.6109519   0.76978992    -1.841162   0.13538713     11461.54     1000 
 2942000   0.56398207   -2.6290491   0.84512713    -1.783922   0.15125522     11289.78     1000 
 2944000   0.50622343    -2.602285    0.7585758   -1.8437092   0.12274841    11561.763     1000 
 2946000   0.52299483   -2.6042006   0.78370776   -1.8204929   0.12488731    11401.006     1000 
 2948000   0.50311621   -2.6081303   0.75391964   -1.8542107   0.14067014    11280.683     1000 
 2950000    0.5118804   -2.5880776   0.76705277   -1.8210249   0.13203259    11227.859     1000 
 2952000   0.53806161   -2.6180679   0.80628533   -1.8117826    0.1235795    11490.715     1000 
 2954000   0.51626324   -2.6282404   0.77362046     -1.85462   0.13860649    11401.205     1000 
 2956000    0.5127142   -2.6041628   0.76830223   -1.8358606   0.11602738    11436.953     1000 
 2958000   0.52442251   -2.6209145   0.78584713   -1.8350674   0.12717657    11469.182     1000 
 2960000   0.53466708   -2.6104054   0.80119862   -1.8092068    0.1260329    11363.239     1000 
 2962000    0.5155826   -2.5975076   0.77260053    -1.824907   0.11896016    11389.432     1000 
 2964000   0.51547683   -2.6417921   0.77244202   -1.8693501   0.13393815    11402.562     1000 
 2966000   0.51250378   -2.5975844   0.76798692   -1.8295975   0.13277063      11333.3     1000 
 2968000    0.5176621   -2.5479597   0.77571666   -1.7722431   0.14335695    11289.628     1000 
 2970000   0.50864828   -2.6126404   0.76220945    -1.850431   0.12303262    11480.646     1000 
 2972000   0.52361898   -2.6692102   0.78464304   -1.8845672   0.11538959     11555.44     1000 
 2974000   0.50308603   -2.6326318   0.75387441   -1.8787574   0.11659393    11548.599     1000 
 2976000   0.52401566   -2.6478498   0.78523746   -1.8626124   0.12744714    11551.238     1000 
 2978000   0.49452462   -2.6335861   0.74104514    -1.892541     0.122899    11372.889     1000 
 2980000    0.5167731   -2.5873476   0.77438449   -1.8129631   0.11866315    11419.938     1000 
 2982000   0.53754532   -2.6245591   0.80551166   -1.8190474   0.14950926    11203.213     1000 
 2984000   0.53207461   -2.5784518   0.79731381    -1.781138   0.13918412    11279.602     1000 
 2986000   0.50944178   -2.5909432    0.7633985   -1.8275447   0.14699864     11295.61     1000 
 2988000    0.5159517   -2.6159077   0.77315362    -1.842754   0.12817631    11483.854     1000 
 2990000   0.53316619   -2.6128668   0.79894954   -1.8139172   0.12767324    11333.431     1000 
 2992000   0.52538463   -2.6159287   0.78728886   -1.8286398   0.13061998    11329.161     1000 
 2994000   0.52997892    -2.614573   0.79417341   -1.8203996   0.12610627    11583.766     1000 
 2996000   0.51095636   -2.6581369    0.7656681   -1.8924688   0.12290945    11612.399     1000 
 2998000   0.49738417   -2.6201792   0.74533018    -1.874849    0.1299989    11278.881     1000 
 3000000   0.51442182   -2.6127626    0.7708611   -1.8419015   0.12751796    11555.009     1000 
Loop time of 1180.82 on 1 procs for 3000000 steps with 1000 atoms

Performance: 1097543.485 tau/day, 2540.610 timesteps/s
100.0% CPU use with 1 MPI tasks x 1 OpenMP threads

MPI task timing breakdown:
Section |  min time  |  avg time  |  max time  |%varavg| %total
---------------------------------------------------------------
Pair    | 929.26     | 929.26     | 929.26     |   0.0 | 78.70
Neigh   | 147.83     | 147.83     | 147.83     |   0.0 | 12.52
Comm    | 24.855     | 24.855     | 24.855     |   0.0 |  2.10
Output  | 0.018692   | 0.018692   | 0.018692   |   0.0 |  0.00
Modify  | 73.426     | 73.426     | 73.426     |   0.0 |  6.22
Other   |            | 5.421      |            |       |  0.46

Nlocal:        1000.00 ave        1000 max        1000 min
Histogram: 1 0 0 0 0 0 0 0 0 0
Nghost:        2154.00 ave        2154 max        2154 min
Histogram: 1 0 0 0 0 0 0 0 0 0
Neighs:        27005.0 ave       27005 max       27005 min
Histogram: 1 0 0 0 0 0 0 0 0 0

Total # of neighbors = 27005
Ave neighs/atom = 27.005000
Neighbor list builds = 150000
Dangerous builds not checked

Total wall time: 0:19:40
