LAMMPS (29 Sep 2021 - Update 2)
OMP_NUM_THREADS environment is not set. Defaulting to 1 thread. (src/comm.cpp:98)
  using 1 OpenMP thread(s) per MPI task
# ----------------------- Inicialização -----------------------

units			lj
atom_style 		atomic
dimension 		3
boundary 		p p p

# -------------------- Criação dos Átomos ---------------------

read_data 		topologia.txt
Reading data file ...
  orthogonal box = (0.0000000 0.0000000 0.0000000) to (21.540000 21.540000 21.540000)
  1 by 2 by 2 MPI processor grid
  reading atoms ...
  1000 atoms
  read_data CPU = 0.003 seconds

velocity 		all create ${temp} 87287 rot yes dist gaussian
velocity 		all create 0.60 87287 rot yes dist gaussian

# ------------------ Interação Interatômica -------------------

pair_style		table linear 1600
pair_coeff		1 1 force.table AA 8.0
WARNING: 3 of 1600 force values in table AA are inconsistent with -dE/dr.
WARNING:  Should only be flagged at inflection points (src/pair_table.cpp:465)
pair_coeff		1 2 force.table AB 8.0
WARNING: 1 of 1600 force values in table AB are inconsistent with -dE/dr.
WARNING:  Should only be flagged at inflection points (src/pair_table.cpp:465)
pair_coeff		2 2 force.table BB 8.0
pair_write		1 1 1600 r 0.008 8.0 table.check AA
Appending to table file table.check with DATE: 2023-08-08
Neighbor list info ...
  update every 1 steps, delay 10 steps, check yes
  max neighbors/atom: 2000, page size: 100000
  master list distance cutoff = 8.3
  ghost atom cutoff = 8.3
  binsize = 4.15, bins = 6 6 6
  1 neighbor lists, perpetual/occasional/extra = 1 0 0
  (1) pair table, perpetual
      attributes: half, newton on
      pair build: half/bin/atomonly/newton
      stencil: half/bin/3d
      bin: standard
pair_write		1 2 1600 r 0.008 8.0 table.check AB
Appending to table file table.check with DATE: 2023-08-08
pair_write		2 2 1600 r 0.008 8.0 table.check BB
Appending to table file table.check with DATE: 2023-08-08

neighbor 		0.3 bin
neigh_modify		every 20 delay 0 check no

# ------------------------- Ensemble --------------------------------------

fix 1			all npt temp ${temp} ${temp} 0.5 iso ${press} ${press} 5
fix 1			all npt temp 0.60 ${temp} 0.5 iso ${press} ${press} 5
fix 1			all npt temp 0.60 0.60 0.5 iso ${press} ${press} 5
fix 1			all npt temp 0.60 0.60 0.5 iso 0.13 ${press} 5
fix 1			all npt temp 0.60 0.60 0.5 iso 0.13 0.13 5

# ---------------------- Função de Distribuição Radial -----------------------

#compute RDF 		all rdf 2000 1 1 1 2 2 2
#fix 2 			all ave/time 1 2000 2000 c_RDF[*] file rdf.data mode vector

# ------------------------- Execução ---------------------------

timestep 		0.005
thermo_style		custom step temp pe ke etotal press vol atoms
thermo			2000
run			3000000
Per MPI rank memory allocation (min/avg/max) = 2.675 | 2.675 | 2.675 Mbytes
Step Temp PotEng KinEng TotEng Press Volume Atoms 
       0          0.6    1.0337239       0.8991    1.9328239    1.3180603    9993.9483     1000 
    2000    0.5973843   -1.9841373   0.89518037    -1.088957   0.12224248    11852.134     1000 
    4000   0.60896489    -1.925537   0.91253388   -1.0130031   0.14003049     11731.55     1000 
    6000   0.59082178   -1.9229386   0.88534644   -1.0375921   0.13187599    11574.833     1000 
    8000   0.61127854   -1.9746944    0.9160009   -1.0586935   0.13528287    11717.754     1000 
   10000   0.59587539    -2.003323   0.89291927   -1.1104037   0.13370909    11648.454     1000 
   12000   0.59621609   -1.9491938   0.89342981    -1.055764   0.14123079    11508.412     1000 
   14000   0.59209976   -1.9993676   0.88726149   -1.1121061   0.12240671    11830.109     1000 
   16000   0.59892406   -1.9751987   0.89748771    -1.077711   0.13045535    11708.044     1000 
   18000    0.5788925   -1.9517872   0.86747041   -1.0843168    0.1326172    11749.011     1000 
   20000   0.65082008   -2.0294523   0.97525389   -1.0541984   0.12505356    12094.701     1000 
   22000   0.62041951   -2.0098218   0.92969864   -1.0801232   0.12333008    11861.399     1000 
   24000   0.60166159   -1.9669019    0.9015899    -1.065312   0.12065037    11912.226     1000 
   26000   0.60889385   -2.0047656   0.91242743   -1.0923381   0.12433811    11854.972     1000 
   28000   0.61287414   -1.9695803   0.91839189   -1.0511884   0.13071087    11866.635     1000 
   30000   0.60599473    -1.930175   0.90808311   -1.0220919    0.1413091    11502.233     1000 
   32000   0.60647961   -1.9377406    0.9088097   -1.0289309   0.13396634    11755.723     1000 
   34000   0.57186528   -1.9295447   0.85694013   -1.0726045   0.13915394    11554.012     1000 
   36000   0.58350148   -1.9925829   0.87437697    -1.118206   0.11956781    11835.482     1000 
   38000    0.5842604   -2.0426202   0.87551421    -1.167106   0.12083979    11951.546     1000 
   40000   0.62951486   -1.9755725   0.94332802   -1.0322445   0.14967635    11598.128     1000 
   42000   0.59762495   -1.9741329   0.89554099   -1.0785919   0.13971203      11643.3     1000 
   44000   0.63252414   -2.0211644   0.94783742    -1.073327   0.12826046    11718.974     1000 
   46000    0.6011983   -2.0195577   0.90089565    -1.118662    0.1454832    11755.105     1000 
   48000   0.60854029   -1.9911737   0.91189763   -1.0792761   0.12476122    11658.775     1000 
   50000   0.58897168   -2.0060546   0.88257406   -1.1234805   0.14937929    11697.192     1000 
   52000   0.59390192   -1.9781891   0.88996202   -1.0882271   0.12441582    11866.871     1000 
   54000   0.62263787   -1.9559446   0.93302285   -1.0229217   0.13853243     11749.49     1000 
   56000   0.59191333   -2.0379767   0.88698213   -1.1509946   0.12231793    11840.169     1000 
   58000    0.6057751   -1.9791532   0.90775399   -1.0713992   0.12942764    11620.746     1000 
   60000   0.62476497   -1.9740855   0.93621031   -1.0378752   0.14286389    11664.516     1000 
   62000   0.62012767   -1.9925959   0.92926131   -1.0633346   0.13774805    11733.105     1000 
   64000   0.59346482   -1.9160168   0.88930703   -1.0267098   0.14210174    11673.877     1000 
   66000    0.6155629   -1.9784757   0.92242101   -1.0560547   0.14361981    11460.429     1000 
   68000   0.59480086   -2.0252037   0.89130909   -1.1338947     0.135936    11732.641     1000 
   70000   0.62019869   -1.9646952   0.92936774   -1.0353275   0.14469177    11620.746     1000 
   72000   0.58571894   -1.9205995   0.87769983   -1.0428996   0.12786412    11668.886     1000 
   74000   0.61297193   -1.9596541   0.91853844   -1.0411157   0.12213911    11609.729     1000 
   76000   0.59087089   -1.9963022   0.88542003   -1.1108822    0.1236199    11775.011     1000 
   78000   0.60271163   -2.0324051   0.90316338   -1.1292418   0.12635387    11895.649     1000 
   80000   0.59149772   -2.0225247   0.88635933   -1.1361654    0.1278361    11689.817     1000 
   82000   0.59051454   -1.9837573   0.88488604   -1.0988712   0.14027498    11618.409     1000 
   84000   0.59559887   -2.0166208    0.8925049   -1.1241159   0.12809705     11838.17     1000 
   86000   0.58063674   -1.9960178   0.87008416   -1.1259336   0.13062927    11705.285     1000 
   88000   0.61163905   -1.9722634   0.91654111   -1.0557223   0.12208446    11761.572     1000 
   90000   0.59721057   -1.9867214   0.89492003   -1.0918013   0.12297738    11761.886     1000 
   92000   0.62175569   -1.9531155    0.9317009   -1.0214146   0.14162201    11647.238     1000 
   94000   0.60148717   -1.9789929   0.90132852   -1.0776643   0.13696411    11614.375     1000 
   96000   0.60391762    -2.009845   0.90497055   -1.1048745   0.13049277    11704.884     1000 
   98000   0.62349817    -1.927093     0.934312  -0.99278103   0.13456571    11568.799     1000 
  100000   0.59430486   -2.0033688   0.89056583   -1.1128029   0.14569345    11622.035     1000 
  102000   0.61522938   -1.9672367   0.92192123   -1.0453155   0.12720874    11857.209     1000 
  104000    0.5745894   -1.9921257   0.86102221   -1.1311034   0.11348429    11886.918     1000 
  106000   0.58204682   -2.0244825   0.87219716   -1.1522853   0.11893964    11847.716     1000 
  108000   0.58635376   -1.9749239   0.87865111   -1.0962728   0.11692828    11808.889     1000 
  110000   0.61394938   -1.9725707   0.92000315   -1.0525675   0.12363672    11775.716     1000 
  112000   0.60696243   -1.9294494    0.9095332   -1.0199162   0.13497564      11600.5     1000 
  114000   0.58475458   -1.9382468   0.87625474   -1.0619921   0.13346084    11508.751     1000 
  116000   0.57467681   -1.9961234    0.8611532   -1.1349702   0.12390414    11872.047     1000 
  118000   0.62816203   -1.9671596   0.94130081   -1.0258588   0.12599171    12010.384     1000 
  120000   0.59669397   -1.9559797   0.89414592   -1.0618338   0.13246396    11601.267     1000 
  122000   0.60569762   -1.9714418   0.90763789   -1.0638039   0.13005676    11862.906     1000 
  124000   0.57580169   -1.9716352   0.86283883   -1.1087964   0.12346292    11811.404     1000 
  126000   0.57613526   -2.0114215   0.86333868   -1.1480829   0.12593266    11864.642     1000 
  128000   0.59777474   -2.0004463   0.89576545   -1.1046808   0.13348593    11830.166     1000 
  130000   0.60637953   -2.0095515   0.90865972   -1.1008918   0.13369945    11772.949     1000 
  132000   0.58914284   -1.9441835   0.88283055   -1.0613529   0.12333461     11636.44     1000 
  134000   0.57843943   -1.9884983   0.86679149   -1.1217068   0.12677579    11781.591     1000 
  136000   0.59279603   -1.9803879   0.88830485    -1.092083   0.11654016    11816.773     1000 
  138000   0.58628877   -2.0128434   0.87855373   -1.1342897   0.11562214    11789.191     1000 
  140000   0.61310578   -1.9357848   0.91873902   -1.0170458   0.14022055    11741.655     1000 
  142000   0.59445255   -2.0019534   0.89078715   -1.1111663   0.12600747    11632.643     1000 
  144000   0.60851124   -1.9951721   0.91185409    -1.083318    0.1277904    11780.238     1000 
  146000   0.59832514   -1.9946896   0.89659022   -1.0980994   0.13253045    11696.089     1000 
  148000   0.61585792   -1.9950102   0.92286309   -1.0721471   0.11947655    11753.205     1000 
  150000   0.62410905   -2.0234955   0.93522741   -1.0882681   0.14100083    11571.366     1000 
  152000   0.60279301   -1.9978278   0.90328533   -1.0945425   0.12819862     11884.17     1000 
  154000   0.62731495   -1.9712619   0.94003145   -1.0312304   0.13687145     11725.45     1000 
  156000   0.61386345   -1.9693064   0.91987438    -1.049432   0.13031791    11872.242     1000 
  158000   0.59921681    -1.997917    0.8979264   -1.0999906   0.13240452    11661.494     1000 
  160000   0.58448581   -2.0105009   0.87585199   -1.1346489   0.14446544    11778.548     1000 
  162000   0.56133575   -1.9634932   0.84116162   -1.1223316   0.13421505    11434.012     1000 
  164000   0.58917467   -1.9645436   0.88287825   -1.0816653   0.13733311    11681.485     1000 
  166000   0.59865803   -2.0062636   0.89708906   -1.1091745   0.14217021    11689.381     1000 
  168000   0.57854758    -1.941612   0.86695355   -1.0746585   0.13651416    11545.281     1000 
  170000   0.59644333   -2.0294302   0.89377034   -1.1356599   0.12418474    11791.815     1000 
  172000    0.5961261   -1.9636981   0.89329496   -1.0704031   0.13207024    11635.686     1000 
  174000   0.59165041   -1.9826174   0.88658814   -1.0960292   0.13526831    11709.655     1000 
  176000   0.61320405   -2.0378814   0.91888627   -1.1189951   0.14253713    11605.363     1000 
  178000    0.5747634   -1.9838303   0.86128296   -1.1225473   0.12464241    11855.936     1000 
  180000   0.61596261    -1.967356   0.92301997    -1.044336   0.13782204    11680.136     1000 
  182000   0.60373633   -2.0176596    0.9046989   -1.1129607   0.11467382    11810.429     1000 
  184000   0.59421101   -2.0390665   0.89042519   -1.1486413   0.11333756    11967.613     1000 
  186000   0.59869569   -2.0031475    0.8971455    -1.106002   0.12348446    11965.407     1000 
  188000   0.61897432   -1.9931956   0.92753302   -1.0656626   0.12306534    11764.292     1000 
  190000   0.60910999   -1.9960349   0.91275132   -1.0832836    0.1347837    11555.623     1000 
  192000   0.56859537   -2.0087975   0.85204016   -1.1567573   0.12631449    11899.774     1000 
  194000   0.59800024   -1.9589089   0.89610336   -1.0628055   0.13509852    11936.193     1000 
  196000   0.59012057   -1.9663924   0.88429567   -1.0820968    0.1216454    11719.593     1000 
  198000   0.56988638   -1.9690628   0.85397474    -1.115088   0.11682456    11775.488     1000 
  200000   0.60028326   -1.9495777   0.89952447   -1.0500532   0.13798446    11620.585     1000 
  202000   0.61673618   -2.0202742   0.92417916    -1.096095   0.13872675    11692.617     1000 
  204000   0.61034121   -2.0283429   0.91459631   -1.1137465    0.1299429    11659.455     1000 
  206000   0.59460845   -2.0187563   0.89102076   -1.1277355   0.10960254    12031.162     1000 
  208000   0.58350576   -1.9931324   0.87438338    -1.118749   0.13250693     11697.04     1000 
  210000   0.61198526   -1.9920683   0.91705991   -1.0750084   0.12809889    11720.213     1000 
  212000   0.61680222   -1.9850435   0.92427813   -1.0607653   0.14090063    11589.504     1000 
  214000   0.58890328   -2.0057613   0.88247157   -1.1232897    0.1198381    11943.633     1000 
  216000   0.61013842   -1.9845969   0.91429243   -1.0703044   0.12177655    11702.967     1000 
  218000   0.58262658    -2.010944   0.87306593   -1.1378781   0.12721595    11632.915     1000 
  220000   0.60246148   -1.9685658   0.90278852   -1.0657773   0.12725371    11880.236     1000 
  222000   0.60662793   -1.9830806   0.90903195   -1.0740487   0.13817051    11658.539     1000 
  224000   0.60586747   -1.9880027   0.90789241   -1.0801103   0.12571102    11796.711     1000 
  226000     0.598678   -1.9641789   0.89711899   -1.0670599   0.12932487    11981.018     1000 
  228000   0.59745119   -2.0154352   0.89528061   -1.1201546   0.12394131    11770.552     1000 
  230000   0.61652818   -2.0007634   0.92386747   -1.0768959   0.12428599    11757.799     1000 
  232000   0.61124358   -1.9640798   0.91594851   -1.0481313   0.12687894    11714.789     1000 
  234000   0.59887965   -1.9902522   0.89742115   -1.0928311   0.12150451    11572.318     1000 
  236000    0.5831248    -1.981962   0.87381251   -1.1081495   0.11945001    11925.705     1000 
  238000   0.60373035   -1.9212514   0.90468993   -1.0165615   0.14393552    11495.542     1000 
  240000   0.61004539   -1.9999805   0.91415302   -1.0858275   0.14210232    11800.516     1000 
  242000   0.61374228   -1.9573523   0.91969281   -1.0376595   0.12465391    11774.241     1000 
  244000   0.57691897   -1.9783441   0.86451308    -1.113831   0.12783619    11782.636     1000 
  246000   0.58509559   -1.9570058   0.87676575     -1.08024   0.11387636    11849.883     1000 
  248000   0.61852606   -2.0281196    0.9268613   -1.1012583   0.12772076    11883.697     1000 
  250000   0.57826834   -1.9201323   0.86653511   -1.0535972   0.12933313    11777.575     1000 
  252000   0.62468754   -1.9613249   0.93609428   -1.0252306   0.12997769    11817.397     1000 
  254000   0.59870758   -1.9644195    0.8971633   -1.0672562   0.13307838    11560.777     1000 
  256000   0.58597064   -1.9558794     0.878077   -1.0778024   0.13590383    11795.449     1000 
  258000    0.5889389   -2.0090461   0.88252494   -1.1265212    0.1327462    11769.725     1000 
  260000   0.61030574   -1.9781538   0.91454315   -1.0636107   0.13007046    11683.407     1000 
  262000   0.61647146   -1.9827333   0.92378249   -1.0589509   0.12898235    11698.938     1000 
  264000    0.6030787   -1.9766522   0.90371343   -1.0729387   0.12322722    11823.577     1000 
  266000   0.57242586    -1.958611   0.85778016   -1.1008308   0.14866566    11631.119     1000 
  268000   0.61802137   -2.0106949   0.92610503   -1.0845899   0.12898116    11812.367     1000 
  270000   0.58959163    -2.017172   0.88350306    -1.133669   0.13087265    11669.861     1000 
  272000   0.59265816   -2.0588491   0.88809825   -1.1707509   0.13273102    11638.908     1000 
  274000   0.60224759   -2.0069081   0.90246802     -1.10444    0.1256753    11739.742     1000 
  276000    0.6050602   -1.9862335   0.90668271   -1.0795508   0.13357596    11688.552     1000 
  278000   0.60576071   -2.0022831   0.90773242   -1.0945506   0.12225156    11852.872     1000 
  280000    0.5947725   -1.9840309   0.89126659   -1.0927643   0.13139081    11788.965     1000 
  282000   0.59959324   -2.0213946   0.89849047   -1.1229041   0.13972779    11700.674     1000 
  284000    0.5977184   -2.0257406   0.89568103   -1.1300595   0.15489308    11723.575     1000 
  286000   0.59788319   -2.0038463   0.89592796   -1.1079184   0.12204074     11820.56     1000 
  288000   0.61043581   -1.9936437   0.91473806   -1.0789057   0.13136744    11799.878     1000 
  290000   0.61601155   -1.9906959   0.92309331   -1.0676026    0.1270868    11716.484     1000 
  292000   0.61326647   -2.0400158    0.9189798    -1.121036   0.12722029    11802.102     1000 
  294000   0.58216154   -1.9495368   0.87236907   -1.0771678   0.12933105    11730.338     1000 
  296000   0.63013372   -1.9962409   0.94425538   -1.0519855   0.13878526    11652.847     1000 
  298000    0.6042324   -2.0216058   0.90544225   -1.1161635   0.12849487    11627.015     1000 
  300000   0.59041537   -2.0057874   0.88473744     -1.12105   0.13459983    11617.294     1000 
  302000   0.62056433   -1.9809918   0.92991566   -1.0510761   0.13613156    11768.937     1000 
  304000   0.60312862   -1.9616879   0.90378824   -1.0578996   0.11231377    11899.655     1000 
  306000   0.61288223   -1.9888729   0.91840402   -1.0704689   0.12919306    11818.312     1000 
  308000   0.61457504   -1.9914783    0.9209407   -1.0705376   0.12385807    11846.108     1000 
  310000   0.58438487    -2.032445   0.87570073   -1.1567443   0.12850854    11726.497     1000 
  312000   0.59451558   -1.9474482   0.89088159   -1.0565666   0.13120671    11762.919     1000 
  314000   0.57205494   -1.8828782   0.85722433   -1.0256539   0.12756871    11672.364     1000 
  316000   0.61958388   -2.0096702   0.92844645   -1.0812237   0.10851314    12089.284     1000 
  318000    0.6047256   -1.9784637   0.90618131   -1.0722824   0.13339569    11677.299     1000 
  320000   0.56942576   -2.0009611    0.8532845   -1.1476766   0.11206468    11871.552     1000 
  322000   0.60716829    -1.973739   0.90984169   -1.0638973   0.13097953     11642.53     1000 
  324000   0.62787105   -1.9756518   0.94086476   -1.0347871   0.13748474    11714.483     1000 
  326000    0.6290345    -1.967083    0.9426082   -1.0244748   0.13936847    11691.015     1000 
  328000   0.58027062   -1.9868389   0.86953552   -1.1173034   0.11326033     11815.12     1000 
  330000   0.58453561   -1.9640908   0.87592661   -1.0881642   0.12054744    11842.458     1000 
  332000   0.59991247   -2.0078977   0.89896884   -1.1089289   0.12775469    11900.344     1000 
  334000   0.58998159    -1.979838   0.88408742   -1.0957506   0.12950787    11889.301     1000 
  336000    0.6154228   -2.0305995   0.92221107   -1.1083884   0.14028715    11655.423     1000 
  338000   0.60196421   -1.9723204   0.90204337    -1.070277   0.12841495    11731.915     1000 
  340000   0.59507694   -2.0120709   0.89172279   -1.1203481   0.12306111    11714.379     1000 
  342000   0.60831525   -2.0487053   0.91156041   -1.1371449   0.12641269    11893.762     1000 
  344000   0.57733588   -2.0150956   0.86513782   -1.1499578   0.11826106    11874.075     1000 
  346000   0.61475695   -2.0026106    0.9212133   -1.0813973   0.14159032    11790.043     1000 
  348000   0.62003567   -1.9160677   0.92912345  -0.98694424   0.13627569    11748.419     1000 
  350000   0.59304472   -2.0044547   0.88867751   -1.1157772   0.12000562    11910.667     1000 
  352000   0.60100269    -1.934879   0.90060253   -1.0342764   0.13214837    11689.999     1000 
  354000   0.57503336   -1.9737162   0.86168749   -1.1120288   0.13459484    11852.538     1000 
  356000   0.58907922   -2.0211247   0.88273521   -1.1383895   0.11110866     11985.72     1000 
  358000   0.61574232   -1.9967363   0.92268987   -1.0740464   0.12730946    11778.777     1000 
  360000   0.60968716   -1.9860385   0.91361621   -1.0724223    0.1333899    11515.256     1000 
  362000   0.60837248   -1.9626261   0.91164616   -1.0509799   0.12515319    11777.019     1000 
  364000   0.56977406   -1.9486865   0.85380644   -1.0948801   0.13409901    11591.424     1000 
  366000   0.61030996   -2.0566623   0.91454947   -1.1421129   0.11879157    11961.494     1000 
  368000   0.59893482   -2.0483206   0.89750383   -1.1508168   0.13550903    11886.581     1000 
  370000   0.60042714   -1.9764786   0.89974006   -1.0767385   0.13948795    11573.221     1000 
  372000   0.57886963   -1.9584128   0.86743614   -1.0909766   0.12971184    11553.423     1000 
  374000   0.58710768   -1.9840224   0.87978087   -1.1042416   0.12921948    11817.597     1000 
  376000   0.60603303    -1.961211    0.9081405   -1.0530705   0.13434866    11575.645     1000 
  378000   0.57650151   -1.9587599   0.86388751   -1.0948724   0.12924722    11648.955     1000 
  380000   0.59485896   -1.9925104   0.89139615   -1.1011143   0.13508521    11698.609     1000 
  382000   0.58783865   -1.9447938   0.88087622   -1.0639175   0.12500593    11809.109     1000 
  384000   0.59085898   -2.0040422   0.88540219     -1.11864   0.13249107    11823.204     1000 
  386000   0.58979162   -1.9489314   0.88380274   -1.0651287   0.13303193    11643.632     1000 
  388000   0.59696751   -1.9615798   0.89455581    -1.067024   0.11334144    11808.219     1000 
  390000   0.59966019   -1.9989091   0.89859079   -1.1003183   0.13815398    11586.286     1000 
  392000   0.59285514   -1.9905128   0.88839342   -1.1021193   0.13823222    11700.649     1000 
  394000   0.60452488   -2.0064383   0.90588054   -1.1005577   0.12226876    11716.678     1000 
  396000   0.61348378   -1.9914458   0.91930545   -1.0721404   0.14154612    11702.374     1000 
  398000   0.62359293   -2.0387007   0.93445401   -1.1042467   0.13919544    11619.471     1000 
  400000   0.58492247   -2.0157874   0.87650633   -1.1392811   0.12427118     11751.15     1000 
  402000   0.59588577   -2.0599339   0.89293483   -1.1669991   0.12805572    11790.321     1000 
  404000   0.59938274   -2.0044362   0.89817503   -1.1062611    0.1381926    11689.395     1000 
  406000   0.60178591   -1.9928322   0.90177618    -1.091056   0.14079621    11638.964     1000 
  408000   0.59441973   -1.9868981   0.89073796   -1.0961601   0.12358806    11830.518     1000 
  410000   0.60989317   -1.9927916   0.91392492   -1.0788667   0.13061314    11670.969     1000 
  412000   0.59458004    -2.050524    0.8909782   -1.1595458   0.12103207    11724.893     1000 
  414000   0.61368702   -1.9741885      0.91961   -1.0545785   0.13330507    11635.277     1000 
  416000   0.60898471   -2.0054017   0.91256359   -1.0928381   0.14460839    11608.144     1000 
  418000     0.597887   -2.0024014   0.89593368   -1.1064677   0.12652946    11555.822     1000 
  420000   0.61459213    -1.998986   0.92096631   -1.0780197   0.12788914    11696.157     1000 
  422000   0.60000506   -2.0134497   0.89910758   -1.1143421   0.13268462     11767.79     1000 
  424000   0.59308317   -1.9656612   0.88873513   -1.0769261   0.13187357    11739.906     1000 
  426000   0.60011218   -1.9636632    0.8992681   -1.0643951    0.1244564    11888.492     1000 
  428000    0.5822702   -1.9345373    0.8725319   -1.0620054   0.11619269    11644.025     1000 
  430000   0.59242909   -1.9628925   0.88775499   -1.0751376   0.14187169    11491.195     1000 
  432000    0.6125475    -1.987099   0.91790243   -1.0691966   0.12881662    11758.088     1000 
  434000   0.60207846   -1.9457217   0.90221458   -1.0435072    0.1280086    11690.628     1000 
  436000    0.6053163   -2.0005781   0.90706648   -1.0935117   0.14286913    11661.382     1000 
  438000   0.58938172   -1.9758001   0.88318851   -1.0926116   0.14183361    11579.371     1000 
  440000   0.58911735   -1.9750293   0.88279235    -1.092237   0.12825294    11888.996     1000 
  442000   0.60959948   -2.0001365   0.91348483   -1.0866517   0.12981855    11673.372     1000 
  444000   0.56109107   -1.9803035   0.84079497   -1.1395085   0.14511756      11534.7     1000 
  446000   0.61045574   -1.9297453   0.91476793   -1.0149774   0.13310039    11550.537     1000 
  448000   0.62302185   -1.9764446   0.93359824   -1.0428464   0.13305427     11767.64     1000 
  450000   0.60721479   -1.9265575   0.90991136   -1.0166461   0.14262686    11435.128     1000 
  452000   0.59719224   -1.9468158   0.89489256   -1.0519232   0.12404168    11609.372     1000 
  454000   0.59321017   -1.9975819   0.88892543   -1.1086565   0.12601129    11805.859     1000 
  456000   0.60192861   -1.9695401   0.90199002   -1.0675501   0.12778779    11759.756     1000 
  458000   0.59667468   -1.9219278   0.89411701   -1.0278107   0.13154048    11676.597     1000 
  460000   0.59729534    -2.000324   0.89504707   -1.1052769   0.13287031    11584.733     1000 
  462000   0.61217311    -2.025662   0.91734141   -1.1083206    0.1295899    11852.337     1000 
  464000    0.6134507   -1.9965978   0.91925587   -1.0773419    0.1321109    11629.302     1000 
  466000   0.60563334   -1.9768048   0.90754156   -1.0692632   0.12408832    11868.875     1000 
  468000   0.59365621   -1.9804103   0.88959383   -1.0908165   0.13037934    11740.432     1000 
  470000   0.60241507   -2.0081724   0.90271899   -1.1054534   0.12803909    11656.369     1000 
  472000    0.6013917   -1.9794148   0.90118547   -1.0782293   0.12641117    11771.693     1000 
  474000   0.57885311   -1.9696922   0.86741139   -1.1022808   0.13478255    11647.553     1000 
  476000   0.59036141   -2.0251598   0.88465657   -1.1405032   0.12087764    11978.217     1000 
  478000   0.60962233   -1.9916383   0.91351907   -1.0781193   0.12253925    11796.397     1000 
  480000   0.60219216   -1.9975144   0.90238495   -1.0951295   0.12134934    11773.947     1000 
  482000   0.61497646   -2.0019118   0.92154223   -1.0803696   0.12861894    11829.869     1000 
  484000   0.59207069    -2.008831   0.88721793   -1.1216131   0.13573531    11732.561     1000 
  486000   0.57693239   -2.0052948   0.86453319   -1.1407616   0.12207885     11788.36     1000 
  488000   0.60807604   -2.0233797   0.91120194   -1.1121777   0.12294787    11821.421     1000 
  490000   0.58684619   -1.9844406   0.87938902   -1.1050516   0.11322524    11776.724     1000 
  492000   0.57653977   -2.0291139   0.86394485    -1.165169   0.12474295    11734.908     1000 
  494000   0.60407818   -1.8942049   0.90521115  -0.98899374   0.13257382    11784.899     1000 
  496000   0.58884287   -2.0167383   0.88238104   -1.1343572   0.13380786    11806.519     1000 
  498000   0.63041553   -1.9869971   0.94467767   -1.0423195   0.13548219     11796.98     1000 
  500000   0.60761798   -2.0417918   0.91051554   -1.1312763   0.12119567    11854.365     1000 
  502000   0.60852708   -2.0314667   0.91187783   -1.1195888   0.12774244    11836.308     1000 
  504000    0.6179244    -1.997193   0.92595971   -1.0712333   0.12982887    11779.585     1000 
  506000   0.58132271   -1.9916588   0.87111208   -1.1205467   0.11869875    11806.604     1000 
  508000   0.58324235   -1.9739844   0.87398867   -1.0999958    0.1291711    11679.481     1000 
  510000   0.60505143   -2.0205756   0.90666957    -1.113906   0.12974196    11637.226     1000 
  512000   0.59266395   -2.0237969   0.88810693     -1.13569   0.11950936    11747.231     1000 
  514000   0.61237467   -2.0081568   0.91764344   -1.0905133   0.14672669      11707.6     1000 
  516000    0.6114071   -1.9443192   0.91619353   -1.0281257   0.13631833    11677.053     1000 
  518000   0.58746062   -1.9730527   0.88030974    -1.092743   0.11845341    11721.732     1000 
  520000   0.62457315   -2.0063072   0.93592287   -1.0703843   0.12345722    11853.102     1000 
  522000   0.60950569   -1.9618553   0.91334427    -1.048511   0.12412661    11878.484     1000 
  524000   0.60749447   -1.9709015   0.91033047    -1.060571   0.12753631    11689.347     1000 
  526000   0.58071033   -1.9695316   0.87019442   -1.0993372   0.13767646    11742.356     1000 
  528000    0.6040699   -2.0320142   0.90519874   -1.1268155   0.14293915    11598.697     1000 
  530000   0.57703534   -2.0682182   0.86468746   -1.2035308   0.12762887    11690.858     1000 
  532000    0.6155439   -1.9454789   0.92239254   -1.0230864   0.14337732    11608.198     1000 
  534000   0.60236463   -1.9559512    0.9026434   -1.0533078   0.13652458    11752.398     1000 
  536000   0.59799498   -1.9452727   0.89609547   -1.0491772   0.13683924    11710.425     1000 
  538000   0.58070935   -2.0121256   0.87019296   -1.1419326   0.12521952    11897.576     1000 
  540000   0.62540731   -1.9580777   0.93717286   -1.0209048   0.12979814    11730.179     1000 
  542000   0.61899174   -2.0210058   0.92755912   -1.0934467   0.12678608    11698.054     1000 
  544000    0.6048564   -1.9489744   0.90637732    -1.042597   0.13573564    11793.485     1000 
  546000   0.58712225    -1.977126   0.87980269   -1.0973233   0.11880585    11861.454     1000 
  548000   0.60711413   -1.9723526   0.90976052   -1.0625921   0.12377726    11598.127     1000 
  550000   0.60171721   -1.9445922   0.90167324    -1.042919   0.13464181    11608.991     1000 
  552000   0.58016183    -2.005317   0.86937251   -1.1359445   0.14578347    11685.083     1000 
  554000   0.61644435    -1.934002   0.92374186   -1.0102602   0.13804203    11719.933     1000 
  556000   0.59012476    -1.953933   0.88430195    -1.069631   0.13040644    11717.342     1000 
  558000   0.58603727   -1.9704009   0.87817685    -1.092224   0.12754528    11812.384     1000 
  560000   0.59641047    -1.997411   0.89372109   -1.1036899   0.12455153    11746.883     1000 
  562000   0.61211948   -1.9557929   0.91726104   -1.0385318   0.12216433     11626.29     1000 
  564000   0.61213842   -2.0476265   0.91728943   -1.1303371   0.11268528    11804.692     1000 
  566000   0.61276703   -2.0056535    0.9182314   -1.0874221   0.14429057    11523.937     1000 
  568000   0.61022353   -1.9654117   0.91441996   -1.0509917   0.13432943    11739.476     1000 
  570000   0.61950399   -1.9690611   0.92832672   -1.0407344   0.14088256    11741.166     1000 
  572000   0.58871488   -1.9651266   0.88218924   -1.0829374   0.14545875    11521.017     1000 
  574000   0.61108365   -1.9795266   0.91570884   -1.0638178   0.13809553    11602.781     1000 
  576000   0.60263076   -2.0040425   0.90304219   -1.1010003   0.12604371    11837.246     1000 
  578000   0.59816233   -1.9726397   0.89634625   -1.0762935   0.13229746    11839.508     1000 
  580000   0.59797623   -1.9577652   0.89606738   -1.0616979   0.13939959    11767.939     1000 
  582000   0.60822214   -1.9295935   0.91142087   -1.0181727   0.13159852    11766.338     1000 
  584000   0.59642469   -2.0487122   0.89374239   -1.1549699    0.1274399    11839.062     1000 
  586000   0.58988435   -1.9828982   0.88394169   -1.0989565   0.13116376     11755.98     1000 
  588000   0.58248911   -1.9983637   0.87285993   -1.1255038   0.12811125    11695.192     1000 
  590000   0.60265917    -1.973173   0.90308477   -1.0700882   0.13852938     11445.74     1000 
  592000   0.60082627   -1.9810257   0.90033817   -1.0806875   0.13931723     11627.57     1000 
  594000   0.57021985   -2.0031925   0.85447444   -1.1487181   0.14300485    11731.193     1000 
  596000   0.61063723   -2.0032681   0.91503989   -1.0882283   0.13353893    11698.039     1000 
  598000   0.61466527   -1.9672884   0.92107591   -1.0462125   0.11628234    11901.158     1000 
  600000   0.62332857   -1.9661729   0.93405786    -1.032115   0.13572751    11642.912     1000 
  602000   0.60786164   -1.9259255   0.91088066   -1.0150448   0.13275879    11521.445     1000 
  604000   0.58919396    -1.995359   0.88290715   -1.1124518   0.14678131    11649.362     1000 
  606000   0.60837863   -1.9523292   0.91165537   -1.0406738    0.1219349    11895.838     1000 
  608000    0.6058447   -2.0021966   0.90785828   -1.0943383   0.11363529    11965.922     1000 
  610000   0.61579829   -2.0147316   0.92277374   -1.0919579   0.12999756    11763.829     1000 
  612000   0.60887215   -2.0139061   0.91239492   -1.1015111   0.13277771    11832.517     1000 
  614000   0.56764467   -1.9973893   0.85061555   -1.1467738   0.11464024    11834.443     1000 
  616000   0.60944285   -2.0008966   0.91325012   -1.0876465   0.13450008    11636.511     1000 
  618000   0.59355214   -1.9988237   0.88943789   -1.1093858   0.13554551    11825.113     1000 
  620000   0.58611691   -2.0309549   0.87829619   -1.1526587   0.13110852    11706.233     1000 
  622000    0.6169073   -1.9769697   0.92443558   -1.0525342   0.13607828    11592.382     1000 
  624000   0.60557883   -2.0017098   0.90745987     -1.09425    0.1359479    11637.288     1000 
  626000   0.58972148   -2.0423884   0.88369764   -1.1586907   0.12952874    11651.637     1000 
  628000    0.6088732   -1.9903531   0.91239649   -1.0779566   0.15769833        11493     1000 
  630000   0.60541676   -1.9875056   0.90721702   -1.0802886   0.12703694    11783.537     1000 
  632000   0.59107372    -1.942977   0.88572397    -1.057253    0.1498444    11595.676     1000 
  634000   0.59717774   -2.0046553   0.89487084   -1.1097845   0.13889635    11515.154     1000 
  636000   0.59136064   -1.9639276   0.88615393   -1.0777736   0.13144176    11685.205     1000 
  638000   0.60097919    -1.970482   0.90056731   -1.0699146   0.15012688     11706.34     1000 
  640000   0.58157218   -2.0111006   0.87148591   -1.1396147   0.13741341    11747.599     1000 
  642000   0.57330049   -2.0054211   0.85909078   -1.1463304   0.13521517    11491.883     1000 
  644000   0.60637668   -1.9322719   0.90865546   -1.0236165   0.13434864    11712.376     1000 
  646000    0.6247511   -1.9708065   0.93618952    -1.034617   0.12457824    11885.347     1000 
  648000   0.61240747   -1.9927742    0.9176926   -1.0750817   0.13170763    11625.645     1000 
  650000   0.61179782   -1.9925697   0.91677903   -1.0757907   0.13106708    11761.127     1000 
  652000   0.57853336   -1.9957074   0.86693224   -1.1287751   0.12971729    11637.406     1000 
  654000   0.59929999   -1.9895714   0.89805103   -1.0915204   0.12493739      11561.6     1000 
  656000   0.59844666   -1.9459296   0.89677232   -1.0491573   0.14209071    11663.943     1000 
  658000   0.60535261   -1.9293828   0.90712089   -1.0222619   0.12554383    11648.258     1000 
  660000   0.59129484   -1.9546331   0.88605531   -1.0685778   0.13360495    11722.891     1000 
  662000   0.63404491   -1.9941117    0.9501163   -1.0439954   0.13044454    11714.561     1000 
  664000   0.62060902   -1.9602023   0.92998262   -1.0302197   0.14162152      11698.7     1000 
  666000   0.60589666   -1.9626947   0.90793615   -1.0547586   0.12722189    11709.312     1000 
  668000   0.59610123   -1.9812809   0.89325769   -1.0880232    0.1335328    11662.281     1000 
  670000   0.61517147   -1.9819461   0.92183445   -1.0601116   0.13198614    11708.177     1000 
  672000   0.63336935   -1.9702643   0.94910398   -1.0211604   0.13484516    11786.371     1000 
  674000   0.59259035   -1.9970306   0.88799664    -1.109034   0.12092386     11859.07     1000 
  676000   0.58678126   -2.0189157   0.87929172    -1.139624   0.12874898    11731.226     1000 
  678000   0.59415515   -1.9926201   0.89034149   -1.1022786   0.11253191    12038.577     1000 
  680000   0.61620305   -1.9645846   0.92338028   -1.0412044   0.14472846    11446.516     1000 
  682000   0.62179668   -1.9860593   0.93176232   -1.0542969   0.13616974    11760.127     1000 
  684000   0.58753532   -1.9643841   0.88042167   -1.0839624   0.12874463    11647.259     1000 
  686000   0.60077993   -1.9105115   0.90026873   -1.0102428   0.12526817    11781.834     1000 
  688000   0.59075729   -1.9768248    0.8852498    -1.091575   0.14502595    11702.399     1000 
  690000   0.60658872    -1.968221    0.9089732   -1.0592479   0.13583525    11545.711     1000 
  692000     0.578951   -1.9710215   0.86755807   -1.1034634   0.13454635    11808.404     1000 
  694000   0.59979248   -1.9774717   0.89878903   -1.0786827   0.13027361    11621.104     1000 
  696000   0.59869634   -1.9803839   0.89714646   -1.0832375   0.13931646    11594.616     1000 
  698000   0.60756095   -2.0117366   0.91043008   -1.1013065    0.1214195    11791.378     1000 
  700000   0.57876333   -1.9686217   0.86727686   -1.1013448   0.13811712    11558.373     1000 
  702000   0.60276259    -1.908534   0.90323975   -1.0052943   0.13003003     11703.17     1000 
  704000   0.59869672   -1.9532518   0.89714704   -1.0561048   0.12400419    11813.934     1000 
  706000   0.59236098   -1.9995492   0.88765293   -1.1118963   0.12954763     11640.96     1000 
  708000   0.58876977   -1.9647657    0.8822715   -1.0824942   0.11524011    11831.086     1000 
  710000   0.60297465   -1.9168799   0.90355751   -1.0133223   0.14935838    11530.651     1000 
  712000   0.60231707   -1.9634793   0.90257213   -1.0609071    0.1249364    11768.969     1000 
  714000   0.59026669   -2.0323063   0.88451464   -1.1477917   0.12630085    11744.105     1000 
  716000   0.59931675   -1.9938955   0.89807616   -1.0958194   0.11207425    12032.085     1000 
  718000   0.61929437   -1.9954377   0.92801261   -1.0674251   0.13911382    11850.217     1000 
  720000   0.56093937   -1.9917993   0.84056764   -1.1512317   0.14590375     11599.94     1000 
  722000   0.56274735   -2.0046806    0.8432769   -1.1614037   0.14058529    11671.021     1000 
  724000   0.60741492   -1.9615952   0.91021125    -1.051384   0.12320147    11882.108     1000 
  726000    0.5629853   -1.9775846   0.84363347   -1.1339511   0.12721094    11696.015     1000 
  728000   0.57673195   -1.9597633   0.86423282   -1.0955305   0.12179189    11781.945     1000 
  730000   0.58826811   -2.0183738   0.88151977   -1.1368541   0.11599054    11878.026     1000 
  732000   0.58862475    -1.959971   0.88205418   -1.0779168   0.13750322    11630.081     1000 
  734000   0.59743452   -2.0016584   0.89525562   -1.1064028     0.128934    11707.639     1000 
  736000   0.59051115   -1.9902586   0.88488096   -1.1053776   0.13765578    11684.589     1000 
  738000   0.59082995   -1.9978983   0.88535867   -1.1125397    0.1451578    11570.989     1000 
  740000   0.59006112   -1.9924872   0.88420659   -1.1082806   0.13084062    11673.818     1000 
  742000   0.58870249   -2.0358697   0.88217068    -1.153699   0.12508535    11865.917     1000 
  744000   0.61621199   -1.9987685   0.92339367   -1.0753748   0.11390706    11909.839     1000 
  746000   0.59042121   -1.9707329   0.88474618   -1.0859867   0.11428942    11822.374     1000 
  748000    0.5657074   -1.9971103   0.84771253   -1.1493978   0.11897583    11724.409     1000 
  750000   0.60920824   -1.9716872   0.91289855   -1.0587886   0.12625347    11849.977     1000 
  752000   0.63243644   -2.0169508   0.94770601   -1.0692447    0.1306093    11787.682     1000 
  754000   0.60049681    -2.045286   0.89984447   -1.1454415   0.13158726    11881.817     1000 
  756000   0.58170564   -2.0188877    0.8716859   -1.1472018   0.13825965    11655.239     1000 
  758000   0.58791349   -2.0472747   0.88098837   -1.1662863    0.1283808    11953.691     1000 
  760000   0.58376199   -1.9741325   0.87476734   -1.0993652    0.1342232    11638.832     1000 
  762000   0.59105637   -1.9508381   0.88569797   -1.0651401   0.12937454    11658.669     1000 
  764000   0.62668689   -1.9308402   0.93909031  -0.99174985   0.12881368    11597.308     1000 
  766000   0.57423317   -1.9496516    0.8604884   -1.0891632   0.12415256    11748.244     1000 
  768000   0.61359906   -2.0397553   0.91947818   -1.1202771   0.14328399    11675.809     1000 
  770000   0.59073162   -1.9410776   0.88521133   -1.0558662   0.13909024    11624.021     1000 
  772000   0.61068891   -2.0430118   0.91511733   -1.1278944   0.12110785    11959.144     1000 
  774000    0.5934958   -1.9921779   0.88935346   -1.1028244   0.13908644    11656.732     1000 
  776000    0.5995973   -1.9314032   0.89849656   -1.0329067   0.14190896    11724.464     1000 
  778000   0.62444736   -1.9788979   0.93573438   -1.0431636   0.12326027    11718.542     1000 
  780000   0.59813831   -1.9704293   0.89631026    -1.074119   0.13634484    11606.589     1000 
  782000   0.59819654   -2.0367517   0.89639751   -1.1403542   0.12638603    12013.968     1000 
  784000   0.58052706   -2.0257302   0.86991979   -1.1558104   0.12967963    11734.016     1000 
  786000   0.60972704   -1.9620411   0.91367596   -1.0483651    0.1320862    11823.749     1000 
  788000   0.59333641   -1.9735816   0.88911461    -1.084467   0.12521465    11666.552     1000 
  790000   0.62354517   -2.0266619   0.93438244   -1.0922795   0.12015895    11872.706     1000 
  792000   0.61192452   -1.9199835    0.9169689   -1.0030146   0.13496434    11621.756     1000 
  794000   0.61868726   -1.9458991   0.92710287   -1.0187962    0.1320199      11698.7     1000 
  796000   0.58480375    -1.969332   0.87632842   -1.0930035   0.14021273    11577.402     1000 
  798000   0.62770289   -1.9637076   0.94061278   -1.0230948   0.12636511     11696.01     1000 
  800000   0.60554267   -1.9695419    0.9074057   -1.0621362   0.12617666    11818.337     1000 
  802000   0.60424125   -1.9991527   0.90545552   -1.0936972   0.13903083    11730.883     1000 
  804000   0.60920315   -1.9716718   0.91289092   -1.0587809    0.1323105    11555.349     1000 
  806000   0.59986899   -1.9391776   0.89890368   -1.0402739    0.1380968    11603.142     1000 
  808000   0.61243842   -2.0132062   0.91773897   -1.0954672   0.13738217    11769.505     1000 
  810000   0.57858133   -1.9695928   0.86700413   -1.1025887   0.12910842    11746.678     1000 
  812000   0.61375596   -1.9322064    0.9197133   -1.0124931   0.11950919    11743.047     1000 
  814000   0.61639564   -1.9744606   0.92366887   -1.0507917   0.12503598    11821.773     1000 
  816000    0.5916083   -2.0084234   0.88652504   -1.1218984   0.10861736    12028.031     1000 
  818000   0.58107287   -1.9858619    0.8707377   -1.1151242   0.12148198    11872.174     1000 
  820000   0.60049181   -2.0485515   0.89983698   -1.1487145   0.09878161    12089.548     1000 
  822000   0.58741954   -2.0152301   0.88024817   -1.1349819    0.1289429    11687.674     1000 
  824000   0.59656729   -2.0845193   0.89395608   -1.1905632   0.11688781    12005.142     1000 
  826000   0.60635551   -2.0115716   0.90862373   -1.1029479   0.12515613    11891.999     1000 
  828000   0.61179741   -1.9627568   0.91677841   -1.0459784   0.12990801    11741.074     1000 
  830000   0.62098113   -1.9985142   0.93054022    -1.067974   0.11884232    11728.569     1000 
  832000   0.61809434   -1.9853868   0.92621437   -1.0591724   0.12701012    11930.757     1000 
  834000   0.60175367   -2.0079226   0.90172788   -1.1061948   0.14122864    11615.936     1000 
  836000   0.58286705   -2.0257442   0.87342627   -1.1523179   0.12234233     11862.44     1000 
  838000   0.62683635   -1.9738464   0.93931426   -1.0345322   0.14075977    11577.131     1000 
  840000   0.55668043   -1.9663618   0.83418562   -1.1321762    0.1185753    11820.239     1000 
  842000   0.57402926   -1.9551097   0.86018284   -1.0949269    0.1288869    11838.313     1000 
  844000   0.61241921   -1.9991495   0.91771019   -1.0814393   0.12657671    11522.627     1000 
  846000   0.59982409   -1.9653086   0.89883639   -1.0664722   0.14536865    11533.697     1000 
  848000   0.62279164   -1.9224043   0.93325327  -0.98915102   0.13098446    11806.362     1000 
  850000   0.59131965   -1.9962767   0.88609249   -1.1101842   0.12659005     11743.48     1000 
  852000   0.60958312   -1.9416161   0.91346031   -1.0281558   0.12993272    11729.098     1000 
  854000    0.5837934   -2.0287396   0.87481441   -1.1539252   0.11430602     11839.43     1000 
  856000   0.61949067   -1.9978541   0.92830677   -1.0695473   0.13248352    11873.389     1000 
  858000   0.61837414   -2.0204727   0.92663365   -1.0938391   0.13061644    11641.581     1000 
  860000   0.60822171   -1.9946866   0.91142023   -1.0832664   0.13054128    11577.656     1000 
  862000    0.5979247   -2.0350382   0.89599016   -1.1390481   0.12419763    11731.574     1000 
  864000   0.58336465   -2.0119149   0.87417192    -1.137743   0.12557839    11737.811     1000 
  866000    0.5966908   -1.9733139   0.89414116   -1.0791727   0.12701943    11688.769     1000 
  868000   0.59477072   -2.0382564   0.89126392   -1.1469925   0.12436279    11717.073     1000 
  870000   0.59477252   -1.9571818   0.89126663   -1.0659152   0.13559022    11752.353     1000 
  872000   0.59663776   -2.0035237   0.89406168    -1.109462   0.14892574    11516.072     1000 
  874000   0.59008681   -1.9518662   0.88424509   -1.0676211    0.1315358     11680.98     1000 
  876000   0.55187231   -2.0340047   0.82698066    -1.207024   0.12193621    11780.115     1000 
  878000    0.6143195       -1.974   0.92055777   -1.0534422   0.13571306    11671.352     1000 
  880000   0.58102971   -1.9829144   0.87067302   -1.1122414   0.13240614    11741.792     1000 
  882000   0.59610104   -1.9762696    0.8932574   -1.0830122   0.13005677    11673.758     1000 
  884000   0.60398861   -1.9905651   0.90507693   -1.0854882   0.13431415    11729.187     1000 
  886000   0.61188163   -1.9920567   0.91690463   -1.0751521   0.13302138    11698.849     1000 
  888000   0.61444485   -1.9958581   0.92074561   -1.0751125   0.13079776    11736.371     1000 
  890000   0.59365492   -1.9962826    0.8895919   -1.1066907   0.12400061    11726.348     1000 
  892000   0.60351077   -1.9579918   0.90436089   -1.0536309   0.11841698    11776.589     1000 
  894000   0.61186254   -2.0165248   0.91687602   -1.0996488    0.1377499    11644.201     1000 
  896000   0.62254334   -1.9605438    0.9328812   -1.0276626   0.14662952     11501.78     1000 
  898000   0.59613362   -2.0142181   0.89330623   -1.1209119   0.13416535    11677.786     1000 
  900000   0.59711338   -2.0451388    0.8947744   -1.1503644   0.12145064    11875.055     1000 
  902000   0.57677272    -1.914707   0.86429393   -1.0504131   0.12009197    11781.906     1000 
  904000   0.60669304   -1.9362082   0.90912952   -1.0270786   0.15350883    11654.913     1000 
  906000   0.59959148   -2.0088904   0.89848783   -1.1104026   0.13133747    11666.068     1000 
  908000   0.61183532   -1.9860678   0.91683522   -1.0692325   0.12732874    11917.722     1000 
  910000   0.59575961   -1.9776722   0.89274578   -1.0849265   0.12768801    11699.958     1000 
  912000   0.62017125   -2.0063516   0.92932662    -1.077025   0.14017178    11751.101     1000 
  914000   0.58600917   -1.9935818   0.87813474   -1.1154471    0.1416498    11631.225     1000 
  916000   0.60349432    -2.064471   0.90433623   -1.1601348   0.13460062    11793.839     1000 
  918000    0.5716544   -1.9898328   0.85662412   -1.1332087   0.13014977    11695.807     1000 
  920000   0.60624946   -2.0041657   0.90846481   -1.0957009   0.12570612    11793.036     1000 
  922000   0.61317609   -1.9587896   0.91884437   -1.0399453   0.13475758    11754.724     1000 
  924000   0.58953632   -2.0336031   0.88342018   -1.1501829   0.13764669    11656.214     1000 
  926000   0.59705032   -1.9946806    0.8946799   -1.1000007   0.12411886    11951.933     1000 
  928000   0.57803938   -1.9912399   0.86619201   -1.1250479   0.11571263    11947.093     1000 
  930000   0.62825175   -1.9632179   0.94143524   -1.0217827   0.13901186    11677.437     1000 
  932000   0.62965948   -1.9686741   0.94354473   -1.0251294    0.1520457    11471.411     1000 
  934000   0.62332372   -1.9790541    0.9340506   -1.0450035   0.13712488    11766.389     1000 
  936000   0.60974563   -1.9750345   0.91370382   -1.0613306   0.13351095    11678.911     1000 
  938000   0.61034202   -1.9193332   0.91459752   -1.0047357   0.12888933    11623.449     1000 
  940000   0.59714009   -1.9822469   0.89481443   -1.0874325   0.11860436    11798.691     1000 
  942000   0.60360404   -2.0152077   0.90450066    -1.110707   0.15009756    11648.493     1000 
  944000   0.60902593   -2.0224193   0.91262535   -1.1097939   0.13475934    11716.095     1000 
  946000   0.58410532   -1.9721347   0.87528182   -1.0968529   0.13435266      11789.6     1000 
  948000   0.59778832   -1.9789721    0.8957858   -1.0831863   0.13169845    11599.619     1000 
  950000   0.58599351   -1.9847075   0.87811127   -1.1065962   0.14293256    11641.826     1000 
  952000   0.58105016    -1.987916   0.87070367   -1.1172123   0.13535482    11659.782     1000 
  954000   0.56961199   -1.9602528   0.85356357   -1.1066893   0.13357729    11658.404     1000 
  956000   0.59573001   -2.0025406   0.89270141   -1.1098392   0.13507347    11540.069     1000 
  958000   0.61207096   -2.0036892   0.91718833   -1.0865009   0.14521258    11654.881     1000 
  960000   0.60597291   -2.0171013    0.9080504   -1.1090509   0.13316963    11928.306     1000 
  962000   0.61866742   -1.9855977   0.92707314   -1.0585246   0.13511852    11857.347     1000 
  964000    0.5972784   -2.0021993   0.89502168   -1.1071776   0.12752478    11849.457     1000 
  966000   0.62405216   -2.0099142   0.93514216    -1.074772   0.13539138    11788.299     1000 
  968000   0.58689637   -1.9659752   0.87946421    -1.086511   0.14359124    11637.164     1000 
  970000   0.59108447   -1.9729983   0.88574008   -1.0872583   0.13100575    11700.767     1000 
  972000   0.57054635   -1.9883672    0.8549637   -1.1334035   0.12516662    11848.375     1000 
  974000   0.58973603    -1.993602   0.88371944   -1.1098826   0.12450235    11771.062     1000 
  976000   0.61935875   -1.9774768   0.92810909   -1.0493677   0.13631973    11702.964     1000 
  978000   0.61480772   -1.9977987   0.92128936   -1.0765093   0.13812609    11474.269     1000 
  980000    0.5795188   -1.9812607   0.86840892   -1.1128518   0.13242889    11854.675     1000 
  982000   0.60749607   -1.9758327   0.91033285   -1.0654998   0.14389278    11768.375     1000 
  984000   0.57677027   -2.0046882   0.86429024   -1.1403979   0.11525189    11746.992     1000 
  986000   0.61414101   -2.0159336    0.9202903   -1.0956433   0.14021347    11613.395     1000 
  988000   0.58701539   -1.9377279   0.87964257   -1.0580853   0.12098104    11674.728     1000 
  990000   0.60808017   -1.9294335   0.91120814   -1.0182254   0.13610429    11732.828     1000 
  992000   0.62125737   -2.0208996   0.93095417   -1.0899454   0.13389875    11623.966     1000 
  994000   0.61796268   -1.9728828   0.92601707   -1.0468657   0.14825972     11476.42     1000 
  996000   0.58137787   -2.0665292   0.87119474   -1.1953344   0.11758543    11833.685     1000 
  998000   0.58664435   -1.9618124   0.87908656   -1.0827259    0.1328705    11591.884     1000 
 1000000   0.58760954   -1.9866401    0.8805329   -1.1061072   0.13085987    11659.042     1000 
 1002000   0.59793175   -2.0304236   0.89600073   -1.1344229   0.13679107    11568.275     1000 
 1004000   0.62606742   -1.9801364   0.93816202   -1.0419744   0.13632433    11687.528     1000 
 1006000   0.61372873   -1.9917194    0.9196725   -1.0720469   0.12879692    11771.845     1000 
 1008000   0.59562231   -1.9826782   0.89254004   -1.0901382    0.1284408    11748.768     1000 
 1010000   0.62665357   -2.0229203   0.93904038     -1.08388   0.13507445    11716.695     1000 
 1012000   0.61357783   -1.9715195   0.91944637   -1.0520731   0.12126564    11803.685     1000 
 1014000   0.60745972   -1.9667543   0.91027839    -1.056476   0.11826758    12040.084     1000 
 1016000   0.58730254   -1.9961518   0.88007286   -1.1160789   0.11201843    12100.446     1000 
 1018000   0.61069785   -1.9916284   0.91513072   -1.0764977   0.12782181    11804.682     1000 
 1020000   0.59721162   -1.9672981   0.89492161   -1.0723765   0.13148225    11646.834     1000 
 1022000   0.62092365   -1.9925596   0.93045409   -1.0621055   0.13977247    11533.135     1000 
 1024000   0.61009151   -1.9859484   0.91422213   -1.0717263   0.13426611    11735.611     1000 
 1026000   0.61612397   -1.9808242   0.92326177   -1.0575625    0.1250197    12001.504     1000 
 1028000   0.63006654   -2.0197627    0.9441547    -1.075608    0.1276322    11783.946     1000 
 1030000   0.62037673   -1.9945958   0.92963453   -1.0649613   0.12770322     11675.32     1000 
 1032000    0.6019206   -2.0096984   0.90197801   -1.1077204   0.13144777    11846.923     1000 
 1034000   0.62060495   -1.9510392   0.92997652   -1.0210626   0.13791431    11500.659     1000 
 1036000   0.57324073   -1.9817516   0.85900123   -1.1227504   0.12652108    11786.659     1000 
 1038000   0.59764813    -1.947832   0.89557572   -1.0522563   0.12502949    11759.386     1000 
 1040000   0.58763932   -2.0109339   0.88057753   -1.1303563   0.11059315    11887.847     1000 
 1042000   0.59770658   -1.9598182   0.89566332   -1.0641549   0.14515177    11568.629     1000 
 1044000   0.57938406   -1.9953155   0.86820702   -1.1271085   0.12743129     11786.46     1000 
 1046000   0.59120928   -1.9502037   0.88592711   -1.0642766   0.13210913    11767.765     1000 
 1048000   0.59551402   -1.9959051   0.89237776   -1.1035273   0.13232328    11711.949     1000 
 1050000   0.60140746   -2.0035577   0.90120908   -1.1023486   0.13522052    11671.422     1000 
 1052000   0.58851397   -1.9738747   0.88188818   -1.0919865   0.12432224    11789.259     1000 
 1054000   0.59490035   -1.9493473   0.89145817   -1.0578891   0.11879551    11828.027     1000 
 1056000   0.64508855   -1.9799577   0.96666519   -1.0132925   0.12613401     11811.76     1000 
 1058000   0.57540868   -1.9856676   0.86224991   -1.1234177   0.13660181    11667.078     1000 
 1060000   0.56733408   -1.9854766   0.85015012   -1.1353265   0.12273719    11721.557     1000 
 1062000   0.60534266   -1.9471737   0.90710598   -1.0400677   0.12566704    11625.276     1000 
 1064000   0.60111688     -1.99065   0.90077364   -1.0898764   0.13681109     11783.21     1000 
 1066000    0.5939415   -1.9519366   0.89002134   -1.0619153   0.13529279    11653.946     1000 
 1068000   0.60212265   -1.9608387    0.9022808   -1.0585579   0.14990104    11667.443     1000 
 1070000   0.57479595   -1.9922476   0.86133173   -1.1309158   0.12968023     11771.61     1000 
 1072000   0.61885431   -2.0095317   0.92735318   -1.0821785   0.13202219    11869.736     1000 
 1074000   0.59535955   -2.0074146   0.89214629   -1.1152683   0.12545073     11807.79     1000 
 1076000   0.59852989   -1.9945923   0.89689704   -1.0976953   0.11833045    11667.419     1000 
 1078000   0.60782431   -1.9709632   0.91082473   -1.0601385   0.13488687     11708.69     1000 
 1080000   0.61251072   -1.9910411   0.91784731   -1.0731938      0.13126    11800.429     1000 
 1082000   0.60972456   -2.0001529   0.91367226   -1.0864806   0.12489081    11749.471     1000 
 1084000   0.60630197   -1.9948663    0.9085435   -1.0863228   0.13392568    11774.283     1000 
 1086000   0.59281873   -1.9870698   0.88833887    -1.098731   0.13041828    11741.656     1000 
 1088000   0.61847262   -1.9649273   0.92678123    -1.038146   0.12080406    11823.244     1000 
 1090000    0.5904828   -1.9803267   0.88483848   -1.0954882   0.11340112    11795.866     1000 
 1092000   0.62490391   -1.9763395   0.93641851    -1.039921   0.12279919    11598.927     1000 
 1094000   0.62686763   -2.0128288   0.93936114   -1.0734677   0.13467617    11772.549     1000 
 1096000   0.61988348   -1.9757991    0.9288954   -1.0469037   0.12717955     11906.43     1000 
 1098000    0.6094025   -1.9458042   0.91318964   -1.0326145   0.11789717    11882.893     1000 
 1100000   0.59326127   -2.0134604   0.88900201   -1.1244584   0.14253251     11679.45     1000 
 1102000   0.58248438   -1.9959347   0.87285285   -1.1230818   0.11915659    11729.849     1000 
 1104000   0.61815887   -1.9871518   0.92631107   -1.0608408   0.11808718    11701.095     1000 
 1106000   0.61050704    -1.934392    0.9148448   -1.0195472   0.13815118    11743.564     1000 
 1108000   0.60725783   -1.9361919   0.90997586    -1.026216    0.1305303    11689.286     1000 
 1110000   0.60709997   -1.9591087   0.90973931   -1.0493694   0.13296121    11626.696     1000 
 1112000    0.6033091    -2.027117   0.90405868   -1.1230584   0.12604609    11828.184     1000 
 1114000   0.59577815     -1.93717   0.89277356   -1.0443964   0.12209136    11615.344     1000 
 1116000   0.59780675   -2.0017176   0.89581342   -1.1059042   0.15029641    11668.683     1000 
 1118000   0.58934401   -1.9858021   0.88313199   -1.1026701   0.13101011    11673.576     1000 
 1120000   0.61305276   -1.9418264   0.91865956   -1.0231668   0.13784163     11566.19     1000 
 1122000   0.59322112   -2.0246823   0.88894185   -1.1357405   0.14455457    11669.112     1000 
 1124000     0.605277   -2.0000638   0.90700759   -1.0930562   0.12616574    11641.464     1000 
 1126000   0.62100737   -1.9874365   0.93057955    -1.056857   0.11922078    11817.046     1000 
 1128000   0.55995994   -1.9410866   0.83909997   -1.1019867   0.11926667    11933.967     1000 
 1130000   0.61622326   -1.9798574   0.92341056   -1.0564469   0.12554465    11756.379     1000 
 1132000   0.57477058   -1.9377781   0.86129372   -1.0764844   0.12908549    11641.155     1000 
 1134000   0.59967685   -2.0059835   0.89861577   -1.1073677   0.13625852    11753.453     1000 
 1136000   0.60775774    -2.002241   0.91072497   -1.0915161   0.13893455    11664.757     1000 
 1138000   0.58794322   -1.9838069   0.88103292    -1.102774   0.12550826    11660.044     1000 
 1140000   0.60544469    -1.929138   0.90725886   -1.0218791   0.14264289    11393.704     1000 
 1142000   0.61498185   -2.0128095   0.92155031   -1.0912592   0.12695459    11713.721     1000 
 1144000   0.62293547   -1.9936201    0.9334688   -1.0601513    0.1259962    11689.374     1000 
 1146000   0.60168897   -1.9929005   0.90163092   -1.0912696   0.12845741    11727.462     1000 
 1148000   0.57985073   -2.0127111   0.86890632   -1.1438047   0.11612552     11934.84     1000 
 1150000   0.61705674   -1.9950889   0.92465953   -1.0704293   0.11837092     11779.56     1000 
 1152000    0.5670945   -1.9848011    0.8497911     -1.13501   0.11825295    11825.685     1000 
 1154000   0.60215919   -1.9890473   0.90233554   -1.0867118   0.12684346     11820.83     1000 
 1156000   0.59106524   -1.9518931   0.88571126   -1.0661819   0.13902908    11841.909     1000 
 1158000   0.61474616   -1.9879118   0.92119712   -1.0667147   0.13538086    11810.693     1000 
 1160000    0.6021228   -1.9863132   0.90228102   -1.0840322   0.12740707    11656.225     1000 
 1162000   0.60107002   -1.9326119   0.90070342   -1.0319085   0.14024463    11730.355     1000 
 1164000   0.61096897    -1.941047   0.91553701     -1.02551   0.13928475    11625.769     1000 
 1166000   0.59245179   -1.9578818     0.887789   -1.0700928   0.13714644    11789.431     1000 
 1168000   0.59332023   -2.0184861   0.88909036   -1.1293957   0.13687778    11651.037     1000 
 1170000   0.60242838   -1.9840791   0.90273893   -1.0813401   0.13413999    11734.878     1000 
 1172000   0.61263539   -2.0125715   0.91803413   -1.0945374   0.13937307    11805.877     1000 
 1174000   0.60876154   -1.9530374   0.91222917   -1.0408082   0.13026335    11703.826     1000 
 1176000   0.58199562   -1.9531867   0.87212043   -1.0810662    0.1213254    11695.578     1000 
 1178000   0.60696678   -1.9115383   0.90953971   -1.0019986   0.13149466    11630.744     1000 
 1180000   0.63011663   -1.9979289   0.94422978   -1.0536991   0.14450525    11627.602     1000 
 1182000   0.62248114   -1.9390217   0.93278799   -1.0062337   0.13384401    11782.894     1000 
 1184000   0.59414908   -1.9757045    0.8903324   -1.0853721   0.13904701    11740.159     1000 
 1186000   0.61673352   -1.9964539   0.92417517   -1.0722787   0.13813075    11673.496     1000 
 1188000   0.64057057   -1.9687602   0.95989499   -1.0088652   0.13291715    11657.411     1000 
 1190000   0.58834046   -1.9790157   0.88162818   -1.0973876   0.13015409    11640.863     1000 
 1192000   0.61274317   -1.9875698   0.91819564   -1.0693741   0.11705828    11891.275     1000 
 1194000   0.59243084   -2.0265121   0.88775762   -1.1387545    0.1167956    11798.079     1000 
 1196000   0.60643307   -2.0024049   0.90873995   -1.0936649   0.12575974    11744.171     1000 
 1198000   0.59565016   -2.0093474   0.89258177   -1.1167656    0.1414884    11730.882     1000 
 1200000   0.56969997   -1.9265601    0.8536954   -1.0728647   0.13775643    11406.911     1000 
 1202000   0.60717977    -2.032277   0.90985888   -1.1224181   0.12304697     11889.85     1000 
 1204000    0.6243845   -2.0152404   0.93564017   -1.0796002   0.12018185    11767.899     1000 
 1206000   0.63736699   -1.9466573   0.95509443   -0.9915629   0.13563704    11589.384     1000 
 1208000    0.6102652   -1.9618517    0.9144824   -1.0473693   0.13472558    11568.517     1000 
 1210000   0.61840904   -1.9766998   0.92668595   -1.0500139   0.14686533    11490.963     1000 
 1212000   0.62309943   -1.9534919   0.93371449   -1.0197774   0.12897064    11692.312     1000 
 1214000   0.57915874   -2.0130546   0.86786938   -1.1451852    0.1359735    11596.923     1000 
 1216000   0.62346888   -1.9846028   0.93426812   -1.0503346   0.13305815    11826.789     1000 
 1218000   0.58455193   -2.0266686   0.87595106   -1.1507175   0.13056741    11838.121     1000 
 1220000   0.63543701   -1.9467663   0.95220236  -0.99456396   0.12401952    11789.998     1000 
 1222000   0.63745892   -1.9711913    0.9552322   -1.0159591   0.13975604     11643.57     1000 
 1224000   0.61787416   -1.9555454   0.92588443    -1.029661   0.13071115    11553.119     1000 
 1226000   0.60148716   -1.9911176    0.9013285   -1.0897891   0.12619029    11877.519     1000 
 1228000   0.56297515   -1.9919123   0.84361826   -1.1482941   0.12224576    11787.893     1000 
 1230000    0.5938795   -1.9363559   0.88992843   -1.0464275   0.13467215    11707.506     1000 
 1232000   0.61807121   -1.9454216   0.92617971   -1.0192419   0.13906358    11619.516     1000 
 1234000   0.59860557   -2.0276349   0.89701045   -1.1306245   0.13211737    11774.584     1000 
 1236000   0.57616133   -1.9482596   0.86337776   -1.0848818   0.12142621    11800.106     1000 
 1238000   0.59230863   -2.0126247   0.88757448   -1.1250502   0.12883396    11847.467     1000 
 1240000   0.61536948   -1.9241201   0.92213116   -1.0019889   0.13489632    11542.843     1000 
 1242000   0.61588423   -2.0141631   0.92290252   -1.0912606   0.12742182    11735.639     1000 
 1244000   0.59410026   -1.9811671   0.89025924   -1.0909078   0.12970883    11758.152     1000 
 1246000   0.60889636   -2.0751348    0.9124312   -1.1627036   0.13193065    11891.516     1000 
 1248000    0.6042693    -1.924473   0.90549754   -1.0189754   0.13874546    11627.028     1000 
 1250000   0.60500723   -1.9886243   0.90660333    -1.082021   0.13957854    11673.268     1000 
 1252000   0.62787268   -1.9758481   0.94086721   -1.0349808   0.14204171    11701.548     1000 
 1254000   0.60968088   -1.9523906    0.9136068   -1.0387838   0.12666006    11727.654     1000 
 1256000   0.62298482   -1.9727792   0.93354276   -1.0392365   0.14296898    11543.191     1000 
 1258000   0.61265159   -2.0101861    0.9180584   -1.0921277   0.11807758    12016.042     1000 
 1260000   0.59758807   -1.9786206   0.89548572   -1.0831349   0.12621603    11764.699     1000 
 1262000    0.5993816   -2.0226119   0.89817332   -1.1244386   0.13287507    11832.765     1000 
 1264000   0.62718186   -2.0085954   0.93983202   -1.0687633   0.11583751    11965.877     1000 
 1266000   0.58129117   -1.9664776   0.87106481   -1.0954128   0.12614462    11858.059     1000 
 1268000   0.59621051   -1.9492072   0.89342145   -1.0557857    0.1292511    11770.302     1000 
 1270000   0.61083504   -2.0039424    0.9153363   -1.0886061   0.12062581    11945.514     1000 
 1272000   0.59127756    -1.993894   0.88602943   -1.1078645   0.10968719    11929.748     1000 
 1274000   0.60751745    -1.957338    0.9103649   -1.0469731    0.1328983    11873.605     1000 
 1276000   0.60526249   -1.9816846   0.90698584   -1.0746987   0.14293968     11716.96     1000 
 1278000   0.57216128   -2.0072616   0.85738368   -1.1498779   0.12432618    11735.202     1000 
 1280000   0.59344312   -1.9508239   0.88927452   -1.0615494   0.12682427    11771.974     1000 
 1282000   0.59085611   -1.9729129   0.88539788    -1.087515   0.13484564    11716.628     1000 
 1284000   0.58003808   -1.9667399   0.86918707   -1.0975528   0.13452164    11736.526     1000 
 1286000   0.60045339   -2.0439708   0.89977941   -1.1441914   0.12348912    11869.711     1000 
 1288000   0.58809638   -2.0069172   0.88126242   -1.1256548   0.13352829    11547.805     1000 
 1290000   0.60449338   -2.0043461   0.90583333   -1.0985128   0.11640336    11727.419     1000 
 1292000   0.57810402   -1.9526953   0.86628887   -1.0864064    0.1257445    11770.037     1000 
 1294000   0.56865729    -2.007703   0.85213295     -1.15557   0.12907978    11734.221     1000 
 1296000   0.59575564   -1.9518005   0.89273983   -1.0590606   0.13354535    11576.133     1000 
 1298000   0.57388029   -2.0006732   0.85995961   -1.1407136   0.12589546    11638.243     1000 
 1300000   0.58550771   -1.9957304    0.8773833   -1.1183471   0.12424006    11723.375     1000 
 1302000   0.60367473    -1.967517   0.90460658   -1.0629104   0.13778791    11618.333     1000 
 1304000    0.5843682   -2.0267002   0.87567575   -1.1510245   0.12410947    11932.177     1000 
 1306000    0.5851998   -1.9746765    0.8769219   -1.0977546   0.14572459    11592.686     1000 
 1308000   0.60063594   -1.9278189   0.90005296   -1.0277659   0.14539155    11560.489     1000 
 1310000   0.57136296   -2.0238068   0.85618739   -1.1676194   0.12342265    11884.202     1000 
 1312000   0.60357951   -1.9648863    0.9044639   -1.0604224   0.12186525    11717.027     1000 
 1314000   0.60475182   -2.0423574    0.9062206   -1.1361368   0.13263549    11739.673     1000 
 1316000   0.63219258   -1.9834139   0.94734058   -1.0360733   0.11701896    11755.825     1000 
 1318000   0.60060298   -1.9658798   0.90000357   -1.0658763   0.13094643    11900.866     1000 
 1320000   0.60766066   -1.9313969    0.9105795   -1.0208174   0.13478709    11621.289     1000 
 1322000    0.5885679   -1.9480191   0.88196899   -1.0660501   0.13312139    11636.141     1000 
 1324000   0.58478801    -1.958293   0.87630483   -1.0819882   0.12152324    11666.203     1000 
 1326000   0.62643704   -2.0087154    0.9387159   -1.0699995   0.12633158    11842.758     1000 
 1328000    0.5910186   -2.0087702   0.88564137   -1.1231289    0.1221678     11727.21     1000 
 1330000   0.58184406    -2.002071   0.87189332   -1.1301777   0.12876471    11851.164     1000 
 1332000   0.61636067   -1.9755188   0.92361647   -1.0519023   0.13571843    11586.715     1000 
 1334000   0.60304884   -1.9998256   0.90366868   -1.0961569   0.12551141    11742.582     1000 
 1336000   0.58351391   -2.0087767   0.87439559   -1.1343811   0.11855196    11760.626     1000 
 1338000    0.6293617   -2.0119344   0.94309851   -1.0688359   0.12891484    11846.167     1000 
 1340000   0.57816139   -1.9464301   0.86637485   -1.0800553   0.13928518     11659.65     1000 
 1342000   0.58585853   -2.0550534   0.87790901   -1.1771444   0.12558506    11767.782     1000 
 1344000   0.59871292   -1.9952785   0.89717131   -1.0981071   0.12937271    11720.561     1000 
 1346000   0.60212963   -1.9978929   0.90229125   -1.0956016    0.1178574    11867.107     1000 
 1348000   0.58746563    -1.978663   0.88031724   -1.0983457   0.12356881    11844.461     1000 
 1350000   0.60114204    -1.949167   0.90081134   -1.0483556    0.1378545    11685.334     1000 
 1352000    0.5872102   -1.9437653   0.87993448   -1.0638308   0.12200751    11686.079     1000 
 1354000   0.59617125   -2.0090416   0.89336262    -1.115679   0.11614184    11983.611     1000 
 1356000    0.5616036   -2.0155242     0.841563   -1.1739612   0.11336141    11894.558     1000 
 1358000   0.58531974   -1.9870233   0.87710163   -1.1099216    0.1299044    11937.225     1000 
 1360000   0.61359495    -2.012968   0.91947204    -1.093496   0.13291953    11641.276     1000 
 1362000   0.60368625   -1.9693518   0.90462384   -1.0647279   0.11184781    11792.982     1000 
 1364000   0.60713758   -1.9403877   0.90979566    -1.030592   0.13842513    11485.237     1000 
 1366000   0.59801488   -1.9553407   0.89612529   -1.0592154   0.12915731    11723.769     1000 
 1368000   0.60297193   -1.9569661   0.90355343   -1.0534127   0.12400456    11674.826     1000 
 1370000   0.61961065   -1.9539836   0.92848655   -1.0254971   0.11424916    11958.535     1000 
 1372000    0.6143029   -2.0025644    0.9205329   -1.0820315   0.12235682    11702.939     1000 
 1374000   0.60776884   -1.9797901   0.91074161   -1.0690485   0.11376864    11917.657     1000 
 1376000   0.59766767   -2.0458609     0.895605   -1.1502559   0.12764214    11883.438     1000 
 1378000   0.63293766   -1.9902324   0.94845708   -1.0417753   0.14044693    11633.056     1000 
 1380000   0.62560984   -1.9976873   0.93747634    -1.060211   0.12201075    11900.797     1000 
 1382000   0.62931194   -2.0053384   0.94302394   -1.0623145   0.14500705    11748.493     1000 
 1384000     0.609424   -1.9714344   0.91322186   -1.0582126   0.13613046    11713.885     1000 
 1386000    0.5969407   -1.9824951   0.89451564   -1.0879795   0.12858495    11576.938     1000 
 1388000   0.60221454   -1.9679926   0.90241849   -1.0655741   0.13608307    11799.761     1000 
 1390000   0.58361681   -1.9491228   0.87454979    -1.074573   0.12703364    11850.818     1000 
 1392000    0.6104306   -1.9603366   0.91473026   -1.0456063   0.12565371    11810.335     1000 
 1394000   0.61378489    -2.002328   0.91975666   -1.0825713   0.12507695     11824.88     1000 
 1396000    0.5993194   -1.9621542   0.89808011   -1.0640741   0.14594952    11615.991     1000 
 1398000   0.60561545   -1.9427459   0.90751475   -1.0352311   0.13510683    11751.118     1000 
 1400000   0.56281121   -1.9841668    0.8433726   -1.1407942   0.12487563    11761.629     1000 
 1402000   0.58895247    -1.999271   0.88254527   -1.1167258   0.13196175    11673.157     1000 
 1404000   0.61913178   -1.9346154   0.92776898   -1.0068464   0.13457025    11729.775     1000 
 1406000   0.60345967   -2.0077393   0.90428431    -1.103455   0.14085164    11588.308     1000 
 1408000   0.61206656   -1.9343052   0.91718174   -1.0171235   0.14421882    11556.053     1000 
 1410000   0.59926729    -1.998812   0.89800204   -1.1008099   0.11578283    11852.009     1000 
 1412000   0.60317974   -2.0283383   0.90386484   -1.1244735   0.13128019    11699.458     1000 
 1414000   0.63175789   -1.9533028    0.9466892   -1.0066136   0.13029243    11729.375     1000 
 1416000    0.5985261   -1.9685771   0.89689136   -1.0716858   0.13602477    11795.152     1000 
 1418000   0.58539908   -1.9808649   0.87722052   -1.1036444    0.1246793    11698.739     1000 
 1420000   0.58562299   -2.0072289   0.87755605   -1.1296729    0.1389381     11801.66     1000 
 1422000   0.61891821   -2.0190878   0.92744894   -1.0916389   0.12777908     11855.69     1000 
 1424000   0.60480095   -2.0584057   0.90629422   -1.1521115   0.13493511    11831.859     1000 
 1426000   0.60848371   -2.0144732   0.91181284   -1.1026604   0.12815114    11832.464     1000 
 1428000   0.61626226   -1.9706213   0.92346899   -1.0471523   0.13518207    11753.911     1000 
 1430000   0.59225273   -2.0065696   0.88749072   -1.1190789   0.14429622    11661.408     1000 
 1432000   0.62784242   -2.0102608   0.94082186    -1.069439   0.12867278     11755.29     1000 
 1434000   0.57994302   -1.9886409   0.86904462   -1.1195962   0.12107258     11803.65     1000 
 1436000   0.60315003   -1.9520555   0.90382033   -1.0482352   0.12746894    11859.379     1000 
 1438000   0.59529064   -1.9874503   0.89204303   -1.0954073   0.12164193    11857.787     1000 
 1440000   0.59100244   -1.9447895   0.88561716   -1.0591723   0.13051214    11637.008     1000 
 1442000   0.62500661    -1.956891   0.93657241   -1.0203186   0.11711649    11840.107     1000 
 1444000   0.56842298   -1.9677704   0.85178183   -1.1159885   0.12373581    11856.283     1000 
 1446000   0.60803648   -1.9545322   0.91114266   -1.0433896   0.12519376    11767.409     1000 
 1448000   0.60872757   -1.9764743   0.91217826    -1.064296   0.13415857    11500.689     1000 
 1450000   0.59418747     -2.02905   0.89038993   -1.1386601   0.13021307    11669.867     1000 
 1452000   0.59174413   -1.9881506   0.88672858   -1.1014221   0.13115668    11753.958     1000 
 1454000   0.55402389   -2.0017086   0.83020479   -1.1715038    0.1163243    11766.501     1000 
 1456000   0.63197865   -1.9540738   0.94702001   -1.0070538    0.1435649    11543.152     1000 
 1458000   0.59150142   -1.9269199   0.88636488    -1.040555   0.12696412    11724.432     1000 
 1460000   0.58408194   -2.0075752   0.87524679   -1.1323285   0.12614565    11808.768     1000 
 1462000   0.62237516   -1.9906056   0.93262917   -1.0579764     0.144726     11784.45     1000 
 1464000   0.56693194    -1.943336   0.84954751   -1.0937885    0.1228431    11846.558     1000 
 1466000   0.60647944   -1.9872966   0.90880945   -1.0784871   0.12715233    11853.585     1000 
 1468000   0.60942511   -1.9870742   0.91322353   -1.0738506   0.13145178    11843.831     1000 
 1470000   0.62021672   -1.9850357   0.92939475    -1.055641   0.12675424    11691.621     1000 
 1472000   0.59559001   -1.9958253   0.89249163   -1.1033336   0.15251421    11555.342     1000 
 1474000   0.63277573    -2.021601   0.94821444   -1.0733866    0.1309604    11653.609     1000 
 1476000   0.58227482   -2.0204501   0.87253882   -1.1479113   0.12727542    11870.943     1000 
 1478000   0.58855911   -2.0065319   0.88195582   -1.1245761   0.12513331    11656.921     1000 
 1480000   0.60149108   -1.9560915   0.90133438   -1.0547571   0.13729088    11622.083     1000 
 1482000     0.630354   -1.9730709   0.94458546   -1.0284855   0.11717836    11949.468     1000 
 1484000   0.59435238   -2.0359762   0.89063704   -1.1453391   0.13929563    11698.869     1000 
 1486000   0.61500304   -1.9703526   0.92158206   -1.0487705   0.14580899    11555.304     1000 
 1488000   0.61828288   -1.9554015   0.92649689   -1.0289046   0.13779932    11673.121     1000 
 1490000    0.5712858   -1.9762411   0.85607178   -1.1201693   0.11681158    11814.078     1000 
 1492000   0.61461466   -2.0147666   0.92100006   -1.0937666   0.14167223    11608.849     1000 
 1494000   0.57714233   -1.9827353   0.86484778   -1.1178875   0.11197035    11990.068     1000 
 1496000   0.57929922   -2.0346463   0.86807988   -1.1665664    0.1256819    11824.874     1000 
 1498000    0.6154112   -1.9720354   0.92219369   -1.0498417   0.13041324    11799.673     1000 
 1500000   0.61107322   -1.9438829   0.91569322   -1.0281897   0.11516379    11767.053     1000 
 1502000   0.58091356   -2.0000465   0.87049898   -1.1295475   0.14311876    11731.868     1000 
 1504000   0.63134583   -1.9780517   0.94607173     -1.03198   0.14618766    11696.571     1000 
 1506000   0.60168517   -2.0239061   0.90162523   -1.1222808   0.13004183    11886.693     1000 
 1508000   0.59895655   -1.9626892   0.89753639   -1.0651528   0.11208952    12009.393     1000 
 1510000   0.62171743   -2.0045642   0.93164357   -1.0729206   0.12791324    11865.249     1000 
 1512000   0.59926906    -1.974669   0.89800469   -1.0766643    0.1309342    11845.465     1000 
 1514000   0.59757027   -2.0308268   0.89545905   -1.1353678   0.13380746    11777.852     1000 
 1516000   0.59775726   -2.0136937   0.89573926   -1.1179545    0.1204741    11793.714     1000 
 1518000   0.62196597   -1.9883653   0.93201601   -1.0563493   0.13817284    11764.169     1000 
 1520000   0.57588879   -2.0141521   0.86296934   -1.1511828   0.12851664    11731.556     1000 
 1522000   0.60452936    -1.965714   0.90588724   -1.0598267    0.1343797    11640.677     1000 
 1524000   0.62248927    -2.002187   0.93280017   -1.0693868   0.12476029      11837.4     1000 
 1526000   0.60876157   -1.9773521   0.91222921   -1.0651229   0.12364778    11682.851     1000 
 1528000   0.62744536    -2.000398   0.94022688   -1.0601712    0.1229967    11775.188     1000 
 1530000   0.58883488   -2.0113728   0.88236906   -1.1290038   0.12226011     11843.34     1000 
 1532000    0.5938392   -2.0076726   0.88986804   -1.1178045   0.12990319    11706.444     1000 
 1534000   0.60765235   -1.9619928   0.91056705   -1.0514258   0.13319169    11598.022     1000 
 1536000   0.58789049   -1.9481208    0.8809539   -1.0671669   0.12306207    11798.255     1000 
 1538000   0.60678972   -1.9560603    0.9092744   -1.0467859   0.13023191    11736.634     1000 
 1540000   0.63162955   -2.0457214   0.94649688   -1.0992245   0.12277343    12013.443     1000 
 1542000    0.5910041   -1.9973103   0.88561964   -1.1116906   0.11848323    11799.099     1000 
 1544000   0.62001718   -1.9473078   0.92909574    -1.018212   0.13674518    11668.513     1000 
 1546000   0.60858893   -1.9681939   0.91197051   -1.0562234   0.14603615    11614.519     1000 
 1548000   0.59387753   -1.9795918   0.88992548   -1.0896663   0.12716385    11880.956     1000 
 1550000   0.58878289   -2.0213302   0.88229116   -1.1390391   0.12806525    11855.253     1000 
 1552000   0.57445898   -2.0114578   0.86082678   -1.1506311   0.12633812    11719.448     1000 
 1554000   0.60983247   -1.9829823   0.91383395   -1.0691484   0.12152261    11675.122     1000 
 1556000   0.60446319   -1.9723304   0.90578809   -1.0665423   0.12317919    11648.167     1000 
 1558000   0.59643013   -2.0095288   0.89375054   -1.1157783   0.13172686    11669.354     1000 
 1560000    0.6059721   -1.9914668   0.90804919   -1.0834176   0.14371703    11823.292     1000 
 1562000   0.58631845    -1.992754    0.8785982   -1.1141558   0.13035807    11548.793     1000 
 1564000   0.59826099   -1.9325465    0.8964941   -1.0360524    0.1138099    11897.939     1000 
 1566000   0.61767389   -2.0274883   0.92558432   -1.1019039   0.11880072    11842.138     1000 
 1568000   0.58621957   -2.0027722   0.87845003   -1.1243222   0.13377922    11723.985     1000 
 1570000   0.60159068   -2.0214141   0.90148363   -1.1199304   0.12248652    11700.965     1000 
 1572000   0.60199887   -1.9470235   0.90209531   -1.0449282   0.13588903    11491.724     1000 
 1574000   0.60936994   -1.9620656   0.91314086   -1.0489248   0.13067002    11643.908     1000 
 1576000   0.58107204   -1.9936594   0.87073645    -1.122923   0.14349862    11648.338     1000 
 1578000   0.59068958   -2.0130572   0.88514834   -1.1279089   0.13379288    11781.546     1000 
 1580000   0.58523883   -1.9838058   0.87698038   -1.1068254   0.12953155    11695.291     1000 
 1582000   0.58583165   -1.9706824   0.87786872   -1.0928136   0.12713286    11728.382     1000 
 1584000    0.6046692   -1.9628114    0.9060968   -1.0567146   0.13014132    11695.368     1000 
 1586000   0.61296243    -2.003551   0.91852421   -1.0850268   0.12435155    11937.067     1000 
 1588000   0.58138932    -2.011992   0.87121189   -1.1407801   0.11823232    11742.328     1000 
[...]
 2614000   0.61609198   -1.9765096   0.92321384   -1.0532957   0.13349138    11852.988     1000 
 2616000   0.57689454   -2.0119465   0.86447647     -1.14747   0.10776802    11897.436     1000 
 2618000   0.57686847   -1.9507844    0.8644374    -1.086347    0.1285472    11667.903     1000 
 2620000   0.61654937   -1.9868804   0.92389923   -1.0629812   0.13219296    11616.889     1000 
 2622000   0.59737828   -1.9668408   0.89517135   -1.0716695   0.12947832     11882.13     1000 
 2624000   0.59691128   -1.9496684   0.89447155   -1.0551968   0.13610982    11802.036     1000 
 2626000   0.58641774   -2.0312816   0.87874698   -1.1525347   0.11471636    11910.032     1000 
 2628000   0.59699618    -1.924757   0.89459877   -1.0301582   0.12946201     11674.61     1000 
 2630000   0.57282303   -1.9253698   0.85837532   -1.0669945   0.13977242    11677.752     1000 
 2632000   0.59603503   -1.9816077    0.8931585   -1.0884492   0.12815664    11760.438     1000 
 2634000   0.60172569   -1.9592954   0.90168595   -1.0576095   0.11720619    12060.372     1000 
 2636000   0.62305293    -2.001408   0.93364482   -1.0677631   0.12180694    11845.234     1000 
 2638000   0.61100564   -1.9647409   0.91559196   -1.0491489    0.1393578      11695.5     1000 
 2640000    0.5776811    -2.020434   0.86565512   -1.1547789   0.12675329    11736.538     1000 
 2642000   0.59804033   -1.9662489   0.89616343   -1.0700854   0.12460044    11667.142     1000 
 2644000   0.62716115   -1.9604668   0.93980098   -1.0206658   0.14534799     11698.53     1000 
 2646000   0.59872051   -2.0001382   0.89718269   -1.1029555   0.13350584    11557.575     1000 
 2648000   0.58948191   -1.9835748   0.88333864   -1.1002361   0.12986149     11644.49     1000 
 2650000   0.61703342   -1.9473433   0.92462458   -1.0227188   0.12742225    11774.793     1000 
 2652000   0.61714207   -1.9856465    0.9247874   -1.0608591   0.13035132    11696.161     1000 
 2654000   0.61621569   -2.0120356   0.92339921   -1.0886364   0.12063454    11927.322     1000 
 2656000   0.60964532   -1.9299248   0.91355351   -1.0163713   0.13804304    11566.246     1000 
 2658000   0.58462747   -2.0055312   0.87606426   -1.1294669   0.13837899    11587.488     1000 
 2660000   0.60237874   -1.9470331   0.90266454   -1.0443686   0.12526715    11887.261     1000 
 2662000   0.61835171   -1.9779803   0.92660003   -1.0513802   0.13806629    11645.967     1000 
 2664000   0.61908486   -1.9903637   0.92769866    -1.062665   0.13255317    11811.169     1000 
 2666000   0.60487018   -1.9513645   0.90639797   -1.0449665   0.13524327     11603.83     1000 
 2668000   0.62729641   -1.9531796   0.94000367   -1.0131759   0.13251504    11765.849     1000 
 2670000   0.57785123    -2.034727   0.86591007   -1.1688169   0.11192395    11869.521     1000 
 2672000      0.59536   -2.0251506   0.89214696   -1.1330037   0.13332021    11574.922     1000 
 2674000    0.5787342   -1.9495008   0.86723321   -1.0822676    0.1216446    11812.907     1000 
 2676000   0.63284245   -1.9787196   0.94831441   -1.0304052   0.13686891    11695.956     1000 
 2678000    0.6058392   -1.9792501   0.90785004   -1.0714001   0.14433021    11655.421     1000 
 2680000   0.58737721   -1.9766631   0.88018474   -1.0964784   0.13299887    11565.984     1000 
 2682000   0.61219884   -1.9814546   0.91737996   -1.0640747   0.11693309      11746.7     1000 
 2684000   0.59341987   -2.0293315   0.88923967   -1.1400919   0.12457858     11869.41     1000 
 2686000   0.60160435   -2.0154146   0.90150412   -1.1139105   0.14052703     11610.11     1000 
 2688000   0.59810818   -2.0147188    0.8962651   -1.1184537   0.13164556    11741.992     1000 
 2690000    0.6437752    -2.023515   0.96469713   -1.0588179   0.13388051    11886.584     1000 
 2692000   0.58742002   -1.9835308    0.8802489   -1.1032819   0.13066548    11873.707     1000 
 2694000   0.57869971   -2.0101406   0.86718151   -1.1429591    0.1266654    11865.842     1000 
 2696000   0.58526857   -2.0072222   0.87702496   -1.1301972   0.12700825    11704.831     1000 
 2698000   0.62756679    -1.990836   0.94040883   -1.0504271   0.12536642    11769.038     1000 
 2700000   0.59651649   -1.9899025   0.89387996   -1.0960225   0.12535803    11759.552     1000 
 2702000   0.61552491   -2.0158193   0.92236408   -1.0934552   0.13577176    11820.685     1000 
 2704000   0.60161749   -1.9848774   0.90152381   -1.0833536   0.11907047    11796.676     1000 
 2706000   0.59186289   -1.9979794   0.88690653   -1.1110729   0.12217022    11847.886     1000 
 2708000   0.59480962   -1.9684462   0.89132222    -1.077124   0.13773836    11697.357     1000 
 2710000   0.59848455   -1.9794614    0.8968291   -1.0826323   0.12750979    11633.207     1000 
 2712000   0.58244654   -1.9778457   0.87279615   -1.1050496   0.13278293    11691.935     1000 
 2714000   0.59882664   -1.9615653   0.89734172   -1.0642236   0.12552977    11742.162     1000 
 2716000   0.60126466   -1.9788171   0.90099509    -1.077822    0.1425338    11667.537     1000 
 2718000    0.5999243   -1.9710007   0.89898657   -1.0720141    0.1384018    11700.536     1000 
 2720000    0.5985929   -1.9152939   0.89699146   -1.0183025    0.1227548    11519.032     1000 
 2722000   0.58501955   -1.9646481    0.8766518   -1.0879963   0.12883142    11739.057     1000 
 2724000   0.61255901   -2.0084079   0.91791968   -1.0904882   0.12083982    11706.947     1000 
 2726000   0.60098621   -1.9678705   0.90057783   -1.0672927   0.12079865     11884.22     1000 
 2728000   0.59026789   -2.0085757   0.88451644   -1.1240592   0.12845623     11807.27     1000 
 2730000   0.57658089   -2.0087593   0.86400646   -1.1447528   0.11778317    11955.333     1000 
 2732000   0.60052454   -2.0437258   0.89988603   -1.1438398   0.12579613    11880.716     1000 
 2734000    0.6365173   -2.0214267   0.95382117   -1.0676055   0.11708706    11859.013     1000 
 2736000   0.60894749   -2.0242157   0.91250782   -1.1117079   0.12856093    11786.237     1000 
 2738000   0.59758701   -1.9459466   0.89548414   -1.0504625   0.13064687    11718.427     1000 
 2740000   0.59241123   -1.9883574   0.88772823   -1.1006292   0.11920363    11788.033     1000 
 2742000   0.58983056   -1.9970049    0.8838611   -1.1131438   0.12298321    11706.177     1000 
 2744000   0.60866991   -1.9612704   0.91209186   -1.0491785   0.12611362     11844.16     1000 
 2746000   0.59733651   -1.9868728   0.89510876    -1.091764   0.13079487    11754.838     1000 
 2748000    0.6203077   -2.0274011   0.92953109     -1.09787   0.13248842    11644.989     1000 
 2750000    0.5952468   -1.9551824   0.89197733   -1.0632051   0.13733084    11768.222     1000 
 2752000   0.58273546    -2.010303   0.87322909   -1.1370739   0.12896102    11654.355     1000 
 2754000   0.61740902   -2.0013299   0.92518742   -1.0761425   0.12710972    11666.991     1000 
 2756000    0.5960258   -2.0090492   0.89314467   -1.1159045   0.13277365    11617.523     1000 
 2758000   0.58354738   -1.9843518   0.87444575    -1.109906   0.12278865    11820.762     1000 
 2760000   0.60207415   -1.9681905   0.90220811   -1.0659824   0.14934389    11550.275     1000 
 2762000   0.60315236   -1.9536203   0.90382381   -1.0497964   0.12415647    11696.865     1000 
 2764000   0.60766327   -1.8814854   0.91058341  -0.97090197   0.13026957    11606.006     1000 
 2766000   0.58865164   -1.9730537   0.88209448   -1.0909592   0.12797306    11796.326     1000 
 2768000   0.61483252   -2.0173176   0.92132653    -1.095991   0.12769176    11689.108     1000 
 2770000   0.57310864    -1.997458    0.8588033   -1.1386547   0.13613283    11664.339     1000 
 2772000   0.59467371   -1.9898731   0.89111856   -1.0987545   0.13059069    11655.284     1000 
 2774000   0.58692399   -1.9705473    0.8795056   -1.0910417   0.14437926    11599.063     1000 
 2776000   0.58714491   -1.9567266   0.87983665   -1.0768899   0.13695475    11553.616     1000 
 2778000   0.61540664   -2.0117659   0.92218685    -1.089579   0.13288106    11632.085     1000 
 2780000   0.57231315   -1.9560765   0.85761126   -1.0984652   0.13076545    11480.384     1000 
 2782000   0.60059771   -2.0591043   0.89999566   -1.1591087   0.12414241    11718.477     1000 
 2784000   0.60043982   -1.9421962   0.89975907   -1.0424371    0.1274754    11796.476     1000 
 2786000   0.60035356   -1.9657697    0.8996298   -1.0661399   0.15302614     11514.99     1000 
 2788000   0.63974387   -2.0110431   0.95865619   -1.0523869   0.12742103    11856.954     1000 
 2790000   0.56241903   -1.9831963   0.84278492   -1.1404114   0.13741167    11662.894     1000 
 2792000   0.61517238   -1.9591607   0.92183581   -1.0373248   0.13894135    11663.767     1000 
 2794000   0.57169252   -2.0184679   0.85668125   -1.1617867   0.11916326     11852.34     1000 
 2796000   0.59653827   -1.9942444    0.8939126   -1.1003318   0.12226346    11741.506     1000 
 2798000   0.58939838   -1.9577084   0.88321347   -1.0744949   0.13508225     11677.32     1000 
 2800000   0.61466638   -1.9561721   0.92107756   -1.0350946   0.11688079    11602.404     1000 
 2802000   0.58733257   -1.9785996   0.88011786   -1.0984817   0.13087797    11587.273     1000 
 2804000    0.6022583   -2.0569809   0.90248406   -1.1544968   0.14103241    11541.441     1000 
 2806000   0.60578347   -1.9945759   0.90776653   -1.0868094   0.12407315    11868.309     1000 
 2808000   0.59675574   -1.9369398   0.89423848   -1.0427013   0.13845177    11767.065     1000 
 2810000   0.58562035   -2.0088592    0.8775521   -1.1313071   0.12299947    11742.111     1000 
 2812000   0.58410912   -1.9831041   0.87528751   -1.1078166   0.12085402    11850.006     1000 
 2814000     0.576219   -1.9613002   0.86346417   -1.0978361   0.13029297    11765.553     1000 
 2816000   0.59631076   -1.9575192   0.89357168   -1.0639475   0.12847346    11772.371     1000 
 2818000    0.5749267   -1.9822182   0.86152766   -1.1206906   0.12914302    11652.853     1000 
 2820000     0.593286   -1.9548258   0.88903907   -1.0657868   0.12815056    11751.273     1000 
 2822000   0.62549713   -1.9773204   0.93730745   -1.0400129   0.14059283    11501.527     1000 
 2824000   0.59692688   -1.9896557   0.89449493   -1.0951607   0.12789343    11792.525     1000 
 2826000   0.59685032   -1.9750279   0.89438021   -1.0806476   0.13139606    11557.613     1000 
 2828000   0.58449132    -2.006103   0.87586024   -1.1302428   0.12912271    11718.126     1000 
 2830000   0.58225767   -1.9619168   0.87251311   -1.0894036   0.12185158    11884.649     1000 
 2832000   0.60924545   -1.9263769   0.91295431   -1.0134226   0.14050064    11557.963     1000 
 2834000   0.58178672   -1.9854637   0.87180739   -1.1136563   0.12090999    11690.315     1000 
 2836000   0.57889395   -2.0041003   0.86747259   -1.1366277   0.13944462    11624.537     1000 
 2838000   0.60763126   -1.9575352   0.91053544   -1.0469998   0.13751209    11620.998     1000 
 2840000   0.57673649   -1.9894922   0.86423962   -1.1252526   0.13699643    11557.818     1000 
 2842000   0.59260908   -1.9757029   0.88802471   -1.0876781   0.13143835    11842.479     1000 
 2844000   0.57232839   -1.9812211   0.85763408    -1.123587   0.12215996    11836.682     1000 
 2846000   0.58160235   -1.9570527   0.87153112   -1.0855216   0.11717256    11910.002     1000 
 2848000   0.58770163   -1.9961274   0.88067089   -1.1154565   0.12693622    11682.637     1000 
 2850000   0.62072541   -1.9682445   0.93015702   -1.0380875   0.13852717    11621.407     1000 
 2852000   0.59977571   -1.9577588    0.8987639   -1.0589949   0.14717324    11548.375     1000 
 2854000     0.581379   -1.9490906   0.87119644   -1.0778942   0.12192126    11703.372     1000 
 2856000   0.63479253   -2.0018615   0.95123661   -1.0506249   0.12634726    11926.512     1000 
 2858000   0.60346989   -1.9842354   0.90429963   -1.0799358   0.14720383    11696.424     1000 
 2860000   0.58814508   -1.9223952    0.8813354   -1.0410598   0.14748753    11461.202     1000 
 2862000    0.5821592   -1.9680069   0.87236557   -1.0956413   0.12757997    11858.023     1000 
 2864000   0.61716613   -2.0307457   0.92482345   -1.1059223   0.13614351      11689.3     1000 
 2866000   0.60150645    -1.950416   0.90135742   -1.0490585   0.13066118    11565.843     1000 
 2868000    0.5756374   -1.9587468   0.86259264   -1.0961541   0.13181292    11654.502     1000 
 2870000   0.61728222   -2.0042316    0.9249974   -1.0792342   0.12843198    11802.535     1000 
 2872000   0.59566492   -2.0125657   0.89260388   -1.1199618   0.12114791    11855.165     1000 
 2874000   0.61225985   -2.0153411   0.91747139   -1.0978697   0.13898497    11562.588     1000 
 2876000   0.60838276   -1.9626735   0.91166157   -1.0510119   0.13892415    11652.776     1000 
 2878000   0.60203201   -1.9695096   0.90214497   -1.0673646   0.13224762    11821.391     1000 
 2880000   0.60365423   -1.9911143   0.90457587   -1.0865385   0.12624052    11736.246     1000 
 2882000   0.57240457   -1.9921756   0.85774825   -1.1344274   0.12785741    11849.083     1000 
 2884000   0.57007559    -2.043102   0.85425827   -1.1888438   0.12074373    11902.186     1000 
 2886000   0.61610709   -2.0234358   0.92323647   -1.1001993   0.13646758     11686.01     1000 
 2888000    0.6074455   -1.9588353   0.91025708   -1.0485783   0.13123284    11735.834     1000 
 2890000   0.61968051   -1.9971794   0.92859125   -1.0685882   0.12688426     11658.04     1000 
 2892000   0.56709576   -1.9821441   0.84979299   -1.1323512   0.14098129    11556.558     1000 
 2894000   0.62162458   -1.9873743   0.93150443   -1.0558699   0.13208277    11617.892     1000 
 2896000    0.5973677   -2.0239079   0.89515549   -1.1287524   0.14816262    11542.891     1000 
 2898000   0.60108272   -2.0145997   0.90072246   -1.1138773   0.13223424    11531.955     1000 
 2900000   0.56973659   -1.9762195   0.85375028   -1.1224692   0.12498425    11776.567     1000 
 2902000   0.59580812   -1.9918969   0.89281847   -1.0990784   0.13650468    11657.541     1000 
 2904000   0.59824203   -1.9655741   0.89646568   -1.0691085    0.1189996    11811.261     1000 
 2906000   0.61255919   -1.9729125   0.91791995   -1.0549926   0.12862847    11711.225     1000 
 2908000   0.61023901   -1.9732265   0.91444315   -1.0587833   0.13193189    11742.362     1000 
 2910000   0.59727176   -2.0081404   0.89501173   -1.1131286   0.13026101    11804.704     1000 
 2912000   0.59902169     -2.02008     0.897634    -1.122446   0.12725346    11715.226     1000 
 2914000    0.5980462   -1.9761101   0.89617223   -1.0799379   0.13216932    11748.464     1000 
 2916000   0.61902524   -1.9932463   0.92760933    -1.065637   0.13931398     11704.93     1000 
 2918000   0.60079768   -1.9801666   0.90029533   -1.0798713    0.1209794    11810.623     1000 
 2920000   0.59724731   -1.9108025    0.8949751   -1.0158274   0.12130265    11767.346     1000 
 2922000   0.61064287   -1.9262549   0.91504834   -1.0112065   0.12496763    11789.891     1000 
 2924000   0.60529839   -1.9461897   0.90703963   -1.0391501    0.1198696    11917.723     1000 
 2926000     0.609789   -1.9822395   0.91376881   -1.0684707   0.13314565    11720.692     1000 
 2928000   0.59978809   -2.0281265   0.89878246   -1.1293441   0.11657611    11869.213     1000 
 2930000   0.59173594   -2.0312392   0.88671631   -1.1445229   0.13327903     11830.78     1000 
 2932000   0.59318313   -2.0065234   0.88888492   -1.1176385   0.12966859     11851.77     1000 
 2934000   0.60551483   -1.9827419   0.90736397    -1.075378   0.13493964    11469.986     1000 
 2936000    0.5757133   -1.9628677   0.86270638   -1.1001613   0.13019524    11716.816     1000 
 2938000   0.62115201   -2.0027575   0.93079629   -1.0719612   0.13006754    11673.568     1000 
 2940000   0.61849592   -2.0354204   0.92681614   -1.1086042   0.13462313    11718.102     1000 
 2942000   0.58599402   -1.9965684   0.87811204   -1.1184563   0.11960141    11895.298     1000 
 2944000   0.58144975   -2.0415961   0.87130245   -1.1702936   0.12179498     11836.29     1000 
 2946000   0.59675452   -1.9809199   0.89423665   -1.0866832   0.14468067    11565.959     1000 
 2948000   0.60962035   -1.9927535    0.9135161   -1.0792374   0.12935171    11834.814     1000 
 2950000   0.59689465   -1.9953609   0.89444663   -1.1009143   0.12636266    11728.232     1000 
 2952000   0.61367553    -1.935078   0.91959278   -1.0154852   0.13636379     11678.45     1000 
 2954000   0.59270578     -1.93324   0.88816961   -1.0450704   0.14524215    11666.571     1000 
 2956000   0.58808932   -1.9897445   0.88125185   -1.1084927   0.13745817    11807.482     1000 
 2958000   0.58433079   -1.9692615   0.87561968   -1.0936418   0.13519099    11637.114     1000 
 2960000   0.57913098   -2.0109808   0.86782777    -1.143153   0.11260827    11942.542     1000 
 2962000   0.60348088   -1.9893331    0.9043161    -1.085017    0.1177126    11971.161     1000 
 2964000    0.5800571   -1.9709844   0.86921556   -1.1017688   0.11783222    11980.701     1000 
 2966000   0.59591041   -1.9513252   0.89297175   -1.0583534    0.1281771    11706.057     1000 
 2968000   0.59591787   -1.9872457   0.89298293   -1.0942627   0.12282394    11607.939     1000 
 2970000   0.60702275    -1.935628   0.90962359   -1.0260044   0.12654141    11590.454     1000 
 2972000   0.59708831   -2.0255839   0.89473683    -1.130847   0.14819025    11653.474     1000 
 2974000   0.60433146   -1.9994824   0.90559069   -1.0938917   0.12487929    11743.983     1000 
 2976000   0.59712706   -1.9178526    0.8947949   -1.0230577    0.1322165    11553.451     1000 
 2978000   0.58287967   -1.9808235   0.87344519   -1.1073783   0.12646349     11786.77     1000 
 2980000   0.59148283   -1.9693424   0.88633702   -1.0830054   0.11653436     11940.53     1000 
 2982000   0.62102483   -1.9117212    0.9306057  -0.98111547   0.13676385    11631.424     1000 
 2984000   0.58461448   -2.0260463   0.87604479   -1.1500015   0.11900251    11754.934     1000 
 2986000    0.6087768   -1.9908237   0.91225203   -1.0785717   0.12849742    11822.786     1000 
 2988000   0.58857514   -1.9853332   0.88197985   -1.1033534   0.12642817    11726.713     1000 
 2990000   0.58916082   -2.0332065   0.88285749   -1.1503491   0.12843385    11767.269     1000 
 2992000   0.60119933   -2.0208627    0.9008972   -1.1199655   0.11279422    11858.409     1000 
 2994000   0.61707865   -2.0302398   0.92469236   -1.1055475   0.14000911    11734.569     1000 
 2996000   0.59677557   -1.9344222    0.8942682    -1.040154   0.13077721    11513.312     1000 
 2998000   0.62187123   -2.0005653   0.93187403   -1.0686913   0.13276079    11829.932     1000 
 3000000   0.58429758   -1.9880167   0.87556992   -1.1124468   0.13137846    11668.598     1000 
Loop time of 4601.95 on 4 procs for 3000000 steps with 1000 atoms

Performance: 281619.726 tau/day, 651.898 timesteps/s
97.4% CPU use with 4 MPI tasks x 1 OpenMP threads

MPI task timing breakdown:
Section |  min time  |  avg time  |  max time  |%varavg| %total
---------------------------------------------------------------
Pair    | 2116.1     | 2663.4     | 3807       |1303.2 | 57.88
Neigh   | 159.63     | 187.11     | 258.51     | 303.1 |  4.07
Comm    | 396.35     | 1615.1     | 2201.6     |1783.7 | 35.10
Output  | 0.045787   | 0.051388   | 0.067627   |   4.1 |  0.00
Modify  | 106.82     | 119.31     | 124.53     |  66.3 |  2.59
Other   |            | 16.99      |            |       |  0.37

Nlocal:        250.000 ave         255 max         245 min
Histogram: 1 0 0 0 0 2 0 0 0 1
Nghost:        2392.00 ave        2409 max        2376 min
Histogram: 2 0 0 0 0 0 0 0 1 1
Neighs:        25509.2 ave       26956 max       23811 min
Histogram: 1 0 1 0 0 0 0 0 1 1

Total # of neighbors = 102037
Ave neighs/atom = 102.03700
Neighbor list builds = 150000
Dangerous builds not checked

Total wall time: 1:16:42
