LAMMPS (29 Sep 2021 - Update 2)
OMP_NUM_THREADS environment is not set. Defaulting to 1 thread. (src/comm.cpp:98)
  using 1 OpenMP thread(s) per MPI task
# ----------------------- Inicialização -----------------------

units			lj
atom_style 		atomic
dimension 		3
boundary 		p p p

# -------------------- Criação dos Átomos ---------------------

read_data 		topologia.txt
Reading data file ...
  orthogonal box = (0.0000000 0.0000000 0.0000000) to (21.540000 21.540000 21.540000)
  1 by 1 by 1 MPI processor grid
  reading atoms ...
  1000 atoms
  read_data CPU = 0.005 seconds

velocity 		all create ${temp} 87287 rot yes dist gaussian
velocity 		all create 0.41 87287 rot yes dist gaussian

# ------------------ Interação Interatômica -------------------

pair_style		table linear 1000
pair_coeff		1 1 force.table AA 5.0
WARNING: 2 of 1000 force values in table AA are inconsistent with -dE/dr.
WARNING:  Should only be flagged at inflection points (src/pair_table.cpp:465)
pair_coeff		1 2 force.table AB 5.0
WARNING: 1 of 1000 force values in table AB are inconsistent with -dE/dr.
WARNING:  Should only be flagged at inflection points (src/pair_table.cpp:465)
pair_coeff		2 2 force.table BB 5.0
pair_write		1 1 1000 r 0.008 5.0 table.check AA
Appending to table file table.check with DATE: 2023-07-05
Neighbor list info ...
  update every 1 steps, delay 10 steps, check yes
  max neighbors/atom: 2000, page size: 100000
  master list distance cutoff = 5.3
  ghost atom cutoff = 5.3
  binsize = 2.65, bins = 9 9 9
  1 neighbor lists, perpetual/occasional/extra = 1 0 0
  (1) pair table, perpetual
      attributes: half, newton on
      pair build: half/bin/atomonly/newton
      stencil: half/bin/3d
      bin: standard
pair_write		1 2 1000 r 0.008 5.0 table.check AB
Appending to table file table.check with DATE: 2023-07-05
pair_write		2 2 1000 r 0.008 5.0 table.check BB
Appending to table file table.check with DATE: 2023-07-05

neighbor 		0.3 bin
neigh_modify		every 20 delay 0 check no

# ------------------------- Ensemble --------------------------------------

fix 1			all npt temp ${temp} ${temp} 0.5 iso ${press} ${press} 5
fix 1			all npt temp 0.41 ${temp} 0.5 iso ${press} ${press} 5
fix 1			all npt temp 0.41 0.41 0.5 iso ${press} ${press} 5
fix 1			all npt temp 0.41 0.41 0.5 iso 0.13 ${press} 5
fix 1			all npt temp 0.41 0.41 0.5 iso 0.13 0.13 5

# ---------------------- Função de Distribuição Radial -----------------------

#compute RDF 		all rdf 2000 1 1 1 2 2 2
#fix 2 			all ave/time 1 2000 2000 c_RDF[*] file rdf.data mode vector

# ------------------------- Execução ---------------------------

timestep 		0.005
thermo_style		custom step temp pe ke etotal press vol atoms
thermo			2000
run			3000000
Per MPI rank memory allocation (min/avg/max) = 2.670 | 2.670 | 2.670 Mbytes
Step Temp PotEng KinEng TotEng Press Volume Atoms 
       0         0.41   0.35919964     0.614385   0.97358464   0.93716778    9993.9483     1000 
    2000   0.41929817   -2.4799068   0.62831831   -1.8515885   0.13039302    11496.359     1000 
    4000   0.40519586   -2.4319312     0.607186   -1.8247452   0.12829715    11275.005     1000 
    6000   0.40395719   -2.4514195   0.60532985   -1.8460896   0.12149495    11435.464     1000 
    8000   0.41745969   -2.5187688   0.62556334   -1.8932055   0.12329433    11411.569     1000 
   10000   0.42024116    -2.476029   0.62973138   -1.8462977   0.12238752    11361.928     1000 
   12000   0.40065705   -2.4688873   0.60038459   -1.8685027   0.12774408    11461.612     1000 
   14000   0.41848015   -2.4761591    0.6270925   -1.8490666   0.13795806    11249.079     1000 
   16000   0.38764903   -2.4540901   0.58089207   -1.8731981   0.13260309     11350.25     1000 
   18000   0.42760396   -2.4767424   0.64076453   -1.8359778   0.14019306    11300.553     1000 
   20000   0.40693108   -2.5397152   0.60978623    -1.929929   0.11886963     11502.42     1000 
   22000   0.40407585     -2.51464   0.60550766   -1.9091323    0.1324266     11329.65     1000 
   24000   0.39088757   -2.4777426   0.58574503   -1.8919976   0.13594041    11299.513     1000 
   26000   0.39324226   -2.5356278   0.58927352   -1.9463542   0.12416757     11366.77     1000 
   28000   0.41203019   -2.5030292   0.61742724    -1.885602   0.12325675    11419.198     1000 
   30000   0.41235929   -2.5351374   0.61792039    -1.917217   0.13523261    11406.591     1000 
   32000   0.41398816   -2.5334566   0.62036125   -1.9130954   0.12135511    11476.554     1000 
   34000   0.41087817   -2.5011581   0.61570094   -1.8854572   0.13827098    11430.608     1000 
   36000   0.42192181   -2.5157227   0.63224982   -1.8834729   0.12416686    11431.488     1000 
   38000   0.38576141   -2.4772907   0.57806348   -1.8992273   0.14672876    11199.382     1000 
   40000   0.41207767   -2.4687267   0.61749838   -1.8512283   0.14130088    11294.318     1000 
   42000   0.39689764    -2.520191   0.59475112   -1.9254398   0.12803922    11429.491     1000 
   44000   0.39837802   -2.4999063   0.59696947   -1.9029368   0.12179196    11362.039     1000 
   46000   0.40472432   -2.4920089   0.60647939   -1.8855295   0.15046052    11233.237     1000 
   48000   0.42257993   -2.4632452   0.63323602   -1.8300091   0.13765777    11365.278     1000 
   50000   0.41979741   -2.4355275   0.62906641   -1.8064611   0.13113007    11316.758     1000 
   52000    0.4130445   -2.5390422   0.61894718    -1.920095   0.12684136    11418.095     1000 
   54000   0.41971187   -2.5284712   0.62893823    -1.899533    0.1195939    11496.267     1000 
   56000   0.41890652   -2.4742633   0.62773143   -1.8465319   0.13274208    11349.332     1000 
   58000   0.42305341   -2.4816662   0.63394554   -1.8477207   0.14515772    11302.591     1000 
   60000   0.40348099   -2.5349577   0.60461626   -1.9303414   0.12257326    11487.496     1000 
   62000   0.41179816   -2.5137834   0.61707954   -1.8967039   0.12899312    11364.139     1000 
   64000   0.41738084   -2.5096494   0.62544519   -1.8842042   0.13461355     11370.82     1000 
   66000   0.40773634    -2.522515    0.6109929   -1.9115221    0.1419305    11369.433     1000 
   68000   0.41165976   -2.4871014   0.61687215   -1.8702292   0.12300165    11436.243     1000 
   70000    0.4250111   -2.5368205   0.63687914   -1.8999414   0.13073719     11431.07     1000 
   72000   0.40889964   -2.4583799   0.61273612   -1.8456438   0.12681547    11315.738     1000 
   74000   0.42376786   -2.4956981   0.63501614   -1.8606819   0.13261379    11414.501     1000 
   76000   0.38910908   -2.5178493   0.58307996   -1.9347693   0.12651881    11481.951     1000 
   78000   0.40705831   -2.5212268   0.60997688   -1.9112499   0.12307659    11498.468     1000 
   80000   0.40411543   -2.5449642   0.60556697   -1.9393972   0.12437339    11433.239     1000 
   82000    0.4349408    -2.467569   0.65175878   -1.8158102   0.14129802    11268.096     1000 
   84000   0.41169169   -2.4804554      0.61692   -1.8635354   0.15131906    11158.387     1000 
   86000   0.41222206   -2.5322112   0.61771476   -1.9144965   0.12567731    11469.071     1000 
   88000   0.40853971   -2.5339181   0.61219676   -1.9217213   0.11930834    11413.909     1000 
   90000   0.42864265    -2.475975   0.64232102    -1.833654   0.14283666    11222.178     1000 
   92000   0.40788154   -2.5473379   0.61121049   -1.9361275   0.12492676    11419.252     1000 
   94000   0.41967217   -2.5019299   0.62887874   -1.8730512   0.13282421    11312.557     1000 
   96000   0.40339281   -2.4934606   0.60448412   -1.8889765    0.1143147     11476.57     1000 
   98000   0.41087282   -2.5204313   0.61569293   -1.9047384   0.14496549    11304.423     1000 
  100000   0.41487517   -2.4385224   0.62169044    -1.816832   0.13693245    11368.226     1000 
  102000   0.41767993   -2.5130741   0.62589337   -1.8871807   0.12667832    11473.996     1000 
  104000   0.41042539   -2.4905343   0.61502245   -1.8755119   0.12761896    11350.083     1000 
  106000   0.39887592   -2.4736655   0.59771557   -1.8759499   0.13144955    11405.503     1000 
  108000   0.41146633   -2.4990873    0.6165823    -1.882505   0.13398659    11465.952     1000 
  110000   0.41508512   -2.4876129   0.62200505   -1.8656079   0.13688372    11321.906     1000 
  112000   0.40535459    -2.473503   0.60742385   -1.8660792   0.14790899     11150.37     1000 
  114000   0.42242468   -2.5422118   0.63300339   -1.9092084     0.125953    11366.186     1000 
  116000   0.40868557   -2.4877202   0.61241533   -1.8753049   0.13508299    11329.129     1000 
  118000   0.42232389   -2.5175672   0.63285235   -1.8847148   0.13544112    11342.527     1000 
  120000   0.40670731   -2.4688106   0.60945091   -1.8593596   0.12587348    11420.775     1000 
  122000   0.41450168   -2.4722087   0.62113077   -1.8510779   0.12803373    11361.741     1000 
  124000   0.41425611   -2.4873352   0.62076279   -1.8665724   0.12708145    11351.663     1000 
  126000   0.42403134   -2.4521639   0.63541096   -1.8167529   0.14084006    11246.278     1000 
  128000   0.42502352   -2.4632879   0.63689775   -1.8263902   0.13244983    11409.997     1000 
  130000   0.38601674   -2.5059566   0.57844608   -1.9275105   0.13065724     11397.32     1000 
  132000   0.40211967   -2.4820609   0.60257633   -1.8794846   0.12952429    11426.936     1000 
  134000   0.41482079   -2.5014419   0.62160895   -1.8798329   0.12911124    11414.203     1000 
  136000   0.40712811   -2.5292405   0.61008147    -1.919159   0.12667014    11369.953     1000 
  138000   0.42162788   -2.5050451   0.63180938   -1.8732358   0.13155281    11258.993     1000 
  140000    0.4067543   -2.4687206   0.60952132   -1.8591993   0.13179537     11398.67     1000 
  142000   0.40396935    -2.499183   0.60534807    -1.893835   0.12538375    11374.659     1000 
  144000   0.41339401   -2.4976933   0.61947092   -1.8782224   0.13125345    11316.781     1000 
  146000   0.41090578   -2.4697538    0.6157423   -1.8540115   0.13281178    11223.366     1000 
  148000   0.39936148   -2.4803113   0.59844317   -1.8818681     0.125482     11352.59     1000 
  150000   0.40486703   -2.5251918   0.60669324   -1.9184986   0.12737964    11379.315     1000 
  152000   0.41505112   -2.4798842    0.6219541   -1.8579301   0.13261976    11438.019     1000 
  154000   0.40500079   -2.4800636   0.60689369   -1.8731699   0.13832596    11236.857     1000 
  156000   0.40806717   -2.4928794   0.61148866   -1.8813907   0.11367343    11424.836     1000 
  158000   0.40675514   -2.5039234   0.60952257   -1.8944008   0.12460409    11453.774     1000 
  160000   0.40016662   -2.4940137   0.59964968    -1.894364   0.13213365    11346.632     1000 
  162000   0.41868987   -2.4914719   0.62740678   -1.8640651    0.1415891    11239.402     1000 
  164000    0.3961669    -2.527424    0.5936561   -1.9337679   0.12784249     11332.07     1000 
  166000   0.40445215    -2.525508   0.60607155   -1.9194365   0.10414924    11520.932     1000 
  168000   0.40809196   -2.4959833   0.61152581   -1.8844575   0.12767842    11452.041     1000 
  170000   0.42693181   -2.4965057   0.63975732   -1.8567484   0.12020485    11471.393     1000 
  172000   0.40934371    -2.476915   0.61340155   -1.8635135   0.13737987    11230.421     1000 
  174000   0.41122101   -2.4983356   0.61621469   -1.8821209    0.1380398    11339.953     1000 
  176000   0.40154226   -2.4795886   0.60171108   -1.8778775   0.12719826    11278.971     1000 
  178000    0.4030895   -2.5434084   0.60402962   -1.9393788   0.13516316    11402.302     1000 
  180000   0.41551564   -2.5230449   0.62265019   -1.9003947   0.13267103    11368.566     1000 
  182000   0.40094739   -2.4790848   0.60081967   -1.8782651   0.13741365    11234.003     1000 
  184000    0.3989264   -2.4788458   0.59779122   -1.8810546   0.11392604    11370.826     1000 
  186000   0.41113231   -2.4607328   0.61608177    -1.844651   0.11504793     11476.65     1000 
  188000    0.4049355   -2.4889699   0.60679585   -1.8821741   0.11323369    11528.906     1000 
  190000   0.43182767   -2.5181611   0.64709376   -1.8710674   0.13721842    11375.782     1000 
  192000    0.4146061   -2.5031124   0.62128724   -1.8818252   0.13732531    11465.038     1000 
  194000   0.40419461   -2.5129853   0.60568562   -1.9072997   0.14048607    11281.532     1000 
  196000   0.41305939   -2.4806326   0.61896949   -1.8616631   0.12595871    11408.573     1000 
  198000   0.42600471   -2.5371158   0.63836805   -1.8987478   0.14038924    11343.095     1000 
  200000   0.40367717   -2.4944653   0.60491024    -1.889555   0.13658572    11325.772     1000 
  202000    0.4054704   -2.4777414    0.6075974    -1.870144   0.13449885    11352.243     1000 
  204000   0.39982916   -2.4992589   0.59914399   -1.9001149   0.12311704    11477.022     1000 
  206000    0.3921485   -2.4867883   0.58763452   -1.8991538   0.12250892    11425.494     1000 
  208000   0.40607343    -2.485188   0.60850103    -1.876687   0.12243391    11453.878     1000 
  210000   0.42122378   -2.4904166   0.63120383   -1.8592128   0.13019354    11368.118     1000 
  212000   0.40333354   -2.4405915   0.60439531   -1.8361962   0.12999153    11292.671     1000 
  214000   0.41023323   -2.5089255    0.6147345    -1.894191   0.12431424    11353.359     1000 
  216000   0.41134708   -2.4881542   0.61640359   -1.8717506   0.14007176    11338.337     1000 
  218000   0.41995817   -2.5088622   0.62930731   -1.8795549   0.14378483    11269.236     1000 
  220000   0.40824211   -2.5037741    0.6117508   -1.8920233   0.13900086    11291.075     1000 
  222000   0.41791454   -2.5295818   0.62624494   -1.9033369   0.11359377      11452.4     1000 
  224000   0.42395258   -2.4718153   0.63529294   -1.8365224   0.12315976    11428.573     1000 
  226000   0.41631387   -2.5306734   0.62384633    -1.906827   0.13118216    11384.723     1000 
  228000   0.37493408   -2.5442185   0.56183872   -1.9823797   0.12731611    11411.706     1000 
  230000   0.40433686    -2.463928   0.60589879   -1.8580292     0.113114    11436.408     1000 
  232000   0.41960087   -2.5189805   0.62877191   -1.8902086   0.12166471    11449.971     1000 
  234000   0.41947164   -2.5137062   0.62857825    -1.885128   0.14988449    11341.387     1000 
  236000   0.39705508   -2.4689101   0.59498704   -1.8739231   0.11509252    11394.567     1000 
  238000   0.40518134   -2.5255179   0.60716424   -1.9183537   0.12509276    11496.324     1000 
  240000   0.41423017   -2.5103008   0.62072391   -1.8895769   0.12970078    11431.612     1000 
  242000   0.40452978   -2.4963912   0.60618787   -1.8902033   0.12504013    11393.169     1000 
  244000   0.39059458    -2.493829   0.58530598    -1.908523   0.13150966    11385.857     1000 
  246000   0.41366496   -2.5238325   0.61987695   -1.9039556   0.12089167      11453.7     1000 
  248000   0.41297814   -2.5088429   0.61884774   -1.8899952   0.14173805    11330.802     1000 
  250000    0.4178578   -2.4267679   0.62615991    -1.800608   0.13692506    11302.056     1000 
  252000   0.39871892   -2.4906926    0.5974803   -1.8932123   0.13219564    11334.158     1000 
  254000   0.41389104   -2.4791313   0.62021573   -1.8589156   0.14256795    11227.726     1000 
  256000   0.41773609   -2.4808707   0.62597753   -1.8548931   0.14019526    11312.752     1000 
  258000   0.40730395   -2.5049101   0.61034497   -1.8945651   0.13845213    11381.776     1000 
  260000   0.41102977   -2.5324305    0.6159281   -1.9165024   0.12949334    11403.927     1000 
  262000   0.40513226   -2.4955391   0.60709069   -1.8884484   0.13277494    11398.715     1000 
  264000   0.39937248   -2.4624544   0.59845966   -1.8639947   0.13792734    11290.679     1000 
  266000   0.41568732   -2.4895376   0.62290745   -1.8666301   0.12869278    11432.255     1000 
  268000   0.40739386    -2.469955    0.6104797   -1.8594753   0.12793178    11288.085     1000 
  270000   0.41454198   -2.4945692   0.62119116    -1.873378    0.1422514    11212.452     1000 
  272000   0.39634063   -2.4894326   0.59391643   -1.8955161    0.1234972    11450.422     1000 
  274000   0.41888393   -2.5180042   0.62769757   -1.8903066   0.14052011    11240.819     1000 
  276000   0.41885997   -2.4781626   0.62766166   -1.8505009   0.12148652    11497.557     1000 
  278000   0.40963593   -2.5079995   0.61383944     -1.89416   0.13109059    11474.644     1000 
  280000   0.40199272   -2.5163642   0.60238609   -1.9139781   0.12554182    11440.131     1000 
  282000   0.41924252   -2.4666909   0.62823492    -1.838456   0.13153961    11242.246     1000 
  284000   0.41897614   -2.4895391   0.62783575   -1.8617034   0.13113377    11331.669     1000 
  286000   0.40175921   -2.4820157   0.60203617   -1.8799795   0.12167768    11540.177     1000 
  288000   0.40150622   -2.5072302   0.60165707   -1.9055732   0.12263342    11587.102     1000 
  290000   0.42623231   -2.5483019   0.63870912   -1.9095928   0.14532339     11380.15     1000 
  292000   0.40914586   -2.4839583   0.61310507   -1.8708532   0.12323343     11286.52     1000 
  294000   0.41437862   -2.4693042   0.62094637   -1.8483579   0.13701294    11346.279     1000 
  296000   0.41762818   -2.4761735   0.62581583   -1.8503576   0.12990641    11356.693     1000 
  298000   0.40540359    -2.475599   0.60749727   -1.8681017   0.13713437    11403.158     1000 
  300000   0.40602799   -2.4959205   0.60843294   -1.8874876   0.12849098    11351.255     1000 
  302000   0.39494056   -2.5104248   0.59181842   -1.9186064   0.12096526    11349.917     1000 
  304000   0.40415175   -2.4737287   0.60562139   -1.8681073   0.13108332    11380.101     1000 
  306000   0.40063233   -2.5235119   0.60034754   -1.9231643   0.12220893    11463.107     1000 
  308000   0.40359108   -2.4886466   0.60478124   -1.8838653   0.13537222    11400.722     1000 
  310000   0.40762895   -2.5268638   0.61083198   -1.9160318   0.12268769     11504.97     1000 
  312000    0.3998951   -2.4832338   0.59924281    -1.883991   0.11276726    11456.797     1000 
  314000   0.41971776    -2.488888   0.62894707    -1.859941   0.12656938    11468.919     1000 
  316000   0.40506983   -2.5104111   0.60699713    -1.903414   0.12634551    11521.516     1000 
  318000   0.42139919   -2.5289322   0.63146669   -1.8974655   0.12896767    11392.261     1000 
  320000   0.41314666   -2.4732579   0.61910027   -1.8541576   0.13247156    11282.998     1000 
  322000   0.42370772   -2.4541735   0.63492602   -1.8192475   0.12330226        11353     1000 
  324000   0.40216204    -2.556577   0.60263982   -1.9539372   0.13384959    11360.591     1000 
  326000   0.40390662   -2.5181774   0.60525407   -1.9129234   0.12589614    11271.772     1000 
  328000   0.39818614    -2.521581   0.59668193    -1.924899   0.12481279    11553.751     1000 
  330000   0.40209405   -2.5181784   0.60253793   -1.9156404   0.14188465    11238.823     1000 
  332000   0.40643834   -2.5533223   0.60904785   -1.9442744   0.13956232    11360.758     1000 
  334000   0.42042248   -2.5136266   0.63000308   -1.8836235   0.12848295    11353.262     1000 
  336000   0.40657137   -2.4767117    0.6092472   -1.8674645    0.1376273    11308.008     1000 
  338000   0.40046161   -2.5247846   0.60009172   -1.9246929   0.13108651    11388.083     1000 
  340000   0.41287737   -2.4424318   0.61869673   -1.8237351    0.1301856    11305.606     1000 
  342000   0.41588993   -2.4890932   0.62321106   -1.8658822    0.1268747    11408.287     1000 
  344000   0.40661499   -2.5758418   0.60931257   -1.9665292   0.14889034    11342.108     1000 
  346000   0.38751219   -2.5284026   0.58068702   -1.9477156   0.12501716     11417.31     1000 
  348000   0.40378755    -2.483665   0.60507564   -1.8785893   0.12798309    11389.462     1000 
  350000   0.40217643   -2.4858811   0.60266138   -1.8832197   0.13044696    11330.383     1000 
  352000   0.40666171   -2.5020918   0.60938258   -1.8927092   0.13339675    11317.706     1000 
  354000    0.4098542     -2.44802   0.61416652   -1.8338534   0.12123045    11389.928     1000 
  356000   0.40309392   -2.5015765   0.60403624   -1.8975403   0.10862445    11615.087     1000 
  358000   0.40825813   -2.4621126   0.61177481   -1.8503378   0.13040173    11329.361     1000 
  360000   0.43041897   -2.5018954   0.64498282   -1.8569125   0.13994865    11375.077     1000 
  362000   0.39703417   -2.4499139    0.5949557   -1.8549582   0.13501997    11313.217     1000 
  364000   0.40133006    -2.524016    0.6013931   -1.9226229   0.12170133    11493.042     1000 
  366000   0.41561209   -2.4915016   0.62279472   -1.8687069   0.14014703    11245.229     1000 
  368000   0.40803835   -2.5033895   0.61144547    -1.891944   0.14101985    11373.473     1000 
  370000   0.41369602   -2.5192371   0.61992349   -1.8993136   0.11963005    11509.285     1000 
  372000   0.43017696   -2.4592636   0.64462018   -1.8146435   0.14094813    11305.605     1000 
  374000   0.39940331   -2.5282634   0.59850586   -1.9297575    0.1280956    11453.457     1000 
  376000   0.40519191   -2.5490623   0.60718008   -1.9418822   0.12323146    11404.364     1000 
  378000    0.3971537   -2.5387736   0.59513482   -1.9436388   0.12947123    11398.171     1000 
  380000   0.41176918   -2.4968546   0.61703612   -1.8798185   0.13136939    11311.086     1000 
  382000   0.41016576   -2.4966416   0.61463339   -1.8820082   0.12639618    11567.518     1000 
  384000   0.42659661   -2.4751866   0.63925502   -1.8359316   0.13704009    11375.385     1000 
  386000   0.41032818   -2.5065751   0.61487678   -1.8916984   0.12919197    11350.695     1000 
  388000   0.40738835   -2.4833191   0.61047144   -1.8728477    0.1354612     11389.86     1000 
  390000   0.41735776   -2.5046382    0.6254106   -1.8792276   0.12545396      11402.4     1000 
  392000   0.40474177   -2.5269627   0.60650555   -1.9204571   0.11084836    11506.547     1000 
  394000   0.44357279   -2.4863839   0.66469383   -1.8216901   0.14266699    11381.364     1000 
  396000   0.40189819   -2.4900007   0.60224444   -1.8877563   0.12330087    11373.418     1000 
  398000   0.42722331   -2.5149096   0.64019413   -1.8747155   0.13016539    11479.196     1000 
  400000   0.41494608   -2.5188872    0.6217967   -1.8970905   0.13835233    11332.696     1000 
  402000   0.42968614   -2.5066525   0.64388467   -1.8627678   0.13198375     11351.65     1000 
  404000   0.41174845   -2.5100617   0.61700505   -1.8930567   0.12054029    11488.404     1000 
  406000    0.3924924   -2.4994822   0.58814986   -1.9113324   0.13589614    11253.961     1000 
  408000    0.4172347   -2.4873131    0.6252262   -1.8620869   0.12771281    11301.987     1000 
  410000   0.39110338   -2.4914764   0.58606841    -1.905408   0.13437065    11264.452     1000 
  412000   0.40723266   -2.4391325   0.61023814   -1.8288943   0.13286792    11298.685     1000 
  414000   0.41535954   -2.5117291   0.62241626   -1.8893128   0.13740078    11342.603     1000 
  416000   0.40856995   -2.4682023   0.61224207   -1.8559602   0.13173424    11408.826     1000 
  418000   0.42521224   -2.5136405   0.63718054     -1.87646   0.13242227    11412.889     1000 
  420000   0.39848211   -2.5171122   0.59712545   -1.9199868   0.10865504    11433.147     1000 
  422000   0.43911481   -2.5271216   0.65801355   -1.8691081   0.14184388    11328.619     1000 
  424000   0.40080759   -2.4625044   0.60061017   -1.8618943   0.14043712    11264.203     1000 
  426000   0.41305079   -2.5150754   0.61895661   -1.8961188   0.13526582    11362.932     1000 
  428000   0.40523157   -2.4828558   0.60723951   -1.8756163   0.11705766    11456.546     1000 
  430000   0.41918542   -2.5053006   0.62814935   -1.8771513   0.13111018    11441.276     1000 
  432000   0.42642919       -2.486   0.63900413   -1.8469959   0.15416315    11197.301     1000 
  434000   0.40130122   -2.4863388   0.60134988   -1.8849889   0.12803619    11369.129     1000 
  436000     0.397239   -2.4625411   0.59526264   -1.8672784   0.13224148    11264.008     1000 
  438000   0.43059558   -2.4535937   0.64524748   -1.8083462   0.11966445    11482.316     1000 
  440000   0.41407923    -2.488664   0.62049773   -1.8681663   0.12902319    11381.789     1000 
  442000   0.41060996   -2.4706473   0.61529903   -1.8553482   0.14635177     11256.18     1000 
  444000   0.42200948   -2.5140727    0.6323812   -1.8816915   0.12878172     11468.82     1000 
  446000   0.40859512   -2.4746421   0.61227978   -1.8623623   0.12479269    11365.619     1000 
  448000   0.39498033   -2.4573267   0.59187802   -1.8654487   0.14073117      11344.2     1000 
  450000   0.39726054   -2.5259235   0.59529491   -1.9306286   0.12337524    11407.189     1000 
  452000   0.40841843   -2.5502914   0.61201502   -1.9382764   0.12299964     11529.34     1000 
  454000   0.39928108   -2.5351093    0.5983227   -1.9367866   0.12120983    11459.775     1000 
  456000    0.4057098   -2.4550602   0.60795613    -1.847104   0.13937266     11199.53     1000 
  458000   0.41952246    -2.525753   0.62865441   -1.8970986   0.12428434    11417.887     1000 
  460000   0.41401398   -2.5097111   0.62039995   -1.8893112   0.11661468    11482.639     1000 
  462000   0.42212025   -2.5312884    0.6325472   -1.8987412   0.12584025    11425.003     1000 
  464000    0.4108067    -2.510277   0.61559385   -1.8946832   0.13179507    11419.072     1000 
  466000   0.39905807   -2.4903835   0.59798852    -1.892395   0.12318724    11379.289     1000 
  468000   0.41700214   -2.4967414    0.6248777   -1.8718637   0.13134815    11382.457     1000 
  470000   0.41078136   -2.5299906   0.61555587   -1.9144347   0.12982666    11475.579     1000 
  472000   0.42629281   -2.5280666   0.63879977   -1.8892668   0.11981753    11539.782     1000 
  474000   0.40665097   -2.5342361   0.60936647   -1.9248696   0.13138973    11437.418     1000 
  476000   0.40000395   -2.5129031   0.59940592   -1.9134971   0.13428481     11299.33     1000 
  478000   0.39974225   -2.4366797   0.59901377    -1.837666   0.13959935    11327.589     1000 
  480000   0.39952799   -2.4696052   0.59869269   -1.8709125   0.14416129    11265.374     1000 
  482000    0.4085233   -2.4860871   0.61217217   -1.8739149   0.12641221    11398.895     1000 
  484000   0.41185625   -2.5189384    0.6171666   -1.9017719   0.12887456    11409.747     1000 
  486000   0.41009432   -2.4563949   0.61452634   -1.8418686   0.11831708    11401.851     1000 
  488000   0.41991609   -2.4586161   0.62924426   -1.8293719   0.12889931     11428.12     1000 
  490000   0.41978491   -2.5065494   0.62904768   -1.8775017   0.12900902    11466.171     1000 
  492000   0.40113138   -2.5396941   0.60109537   -1.9385987   0.12754906    11476.409     1000 
  494000   0.39672978   -2.4830439   0.59449958   -1.8885443   0.14159497     11334.73     1000 
  496000   0.40465299   -2.5316257   0.60637251   -1.9252532   0.12304258    11448.758     1000 
  498000   0.41066633   -2.4670693    0.6153835   -1.8516858   0.11710464    11376.661     1000 
  500000   0.40771225    -2.473811   0.61095681   -1.8628542   0.13345936    11332.092     1000 
  502000   0.42117134   -2.4797161   0.63112525   -1.8485909    0.1360311    11450.847     1000 
  504000   0.43065074   -2.4592157   0.64533013   -1.8138856    0.1495994    11311.553     1000 
  506000   0.39934859   -2.4991058   0.59842386   -1.9006819   0.14415611    11273.561     1000 
  508000   0.42441408   -2.4865915   0.63598449    -1.850607   0.12006284    11443.577     1000 
  510000   0.40404788   -2.4907288   0.60546574    -1.885263   0.12318202    11425.786     1000 
  512000   0.41975927   -2.5243357   0.62900927   -1.8953264   0.12858824     11433.33     1000 
  514000   0.42409695   -2.4475372   0.63550928   -1.8120279    0.1332746    11278.316     1000 
  516000   0.40459496   -2.4508019   0.60628555   -1.8445164   0.13784883    11204.008     1000 
  518000   0.41904664   -2.5054605    0.6279414   -1.8775191   0.13238452    11347.808     1000 
  520000   0.39711755   -2.4561825   0.59508064   -1.8611019    0.1213464     11389.21     1000 
  522000   0.40078573   -2.5106946   0.60057741   -1.9101172   0.14086624    11413.213     1000 
  524000   0.41931347   -2.4878074   0.62834123   -1.8594662   0.12093636    11382.599     1000 
  526000   0.41080916   -2.4826587   0.61559753   -1.8670612    0.1175047    11408.595     1000 
  528000   0.40892763   -2.4897406   0.61277805   -1.8769626   0.13001148    11364.788     1000 
  530000   0.40538609   -2.4753931   0.60747106   -1.8679221   0.14295011    11305.651     1000 
  532000    0.4132891   -2.4515619   0.61931372   -1.8322482   0.13386987    11378.397     1000 
  534000   0.40094079   -2.4946431   0.60080977   -1.8938333   0.13321452    11385.966     1000 
  536000   0.40438141   -2.5131297   0.60596554   -1.9071641   0.13408578    11332.912     1000 
  538000   0.39293863   -2.5246271   0.58881853   -1.9358086   0.13086031    11444.178     1000 
  540000   0.41517456   -2.4947143   0.62213908   -1.8725752   0.13550354     11264.23     1000 
  542000   0.42183108   -2.4997617   0.63211388   -1.8676478   0.13005978    11441.298     1000 
  544000   0.40385126   -2.5173107   0.60517111   -1.9121396   0.12700671     11360.26     1000 
  546000   0.41327385   -2.4867707   0.61929086   -1.8674798    0.1352682    11422.939     1000 
  548000   0.41291787   -2.5088769   0.61875743   -1.8901195   0.13713269    11312.164     1000 
  550000   0.40136683   -2.4388201    0.6014482    -1.837372   0.12467146    11348.558     1000 
  552000   0.41587824   -2.5007953   0.62319355   -1.8776017   0.13283891    11336.975     1000 
  554000   0.40077729   -2.4906504   0.60056477   -1.8900857   0.13827503    11290.016     1000 
  556000   0.42072024   -2.4889278   0.63044928   -1.8584785   0.12612506     11432.39     1000 
  558000   0.41091199   -2.4709245   0.61575162   -1.8551729   0.13899467    11274.256     1000 
  560000   0.40865063   -2.4577181   0.61236297   -1.8453551   0.13089324    11306.125     1000 
  562000   0.40035909   -2.5287487    0.5999381   -1.9288106   0.12220103    11436.598     1000 
  564000   0.40466451   -2.5203208   0.60638977    -1.913931   0.14996001    11244.102     1000 
  566000   0.39316628    -2.489713   0.58915967   -1.9005534   0.13078738    11343.452     1000 
  568000    0.4146714   -2.4883727    0.6213851   -1.8669876   0.13191378    11309.531     1000 
  570000   0.41558754    -2.535952   0.62275792   -1.9131941   0.12440725    11394.162     1000 
  572000   0.42525932   -2.4935467   0.63725108   -1.8562957   0.13892006    11353.018     1000 
  574000   0.40434379   -2.4994955   0.60590918   -1.8935863   0.13047482    11365.891     1000 
  576000    0.4137057   -2.4942619   0.61993799   -1.8743239   0.11671992    11478.993     1000 
  578000     0.409397   -2.5116768   0.61348141   -1.8981954   0.13420677    11487.126     1000 
  580000   0.40911833   -2.5166806   0.61306382   -1.9036168   0.12660632    11319.045     1000 
  582000   0.42673901   -2.5297728   0.63946841   -1.8903044   0.13299195     11431.87     1000 
  584000   0.41099129   -2.5320106   0.61587045   -1.9161402   0.12708873    11450.582     1000 
  586000    0.4264558   -2.5049382   0.63904402   -1.8658941   0.14447774    11297.892     1000 
  588000   0.42457391   -2.4850898     0.636224   -1.8488658    0.1450618    11302.449     1000 
  590000   0.43789617   -2.5006784   0.65618741    -1.844491   0.13211951    11437.626     1000 
  592000   0.41765299   -2.4571115     0.625853   -1.8312585   0.14212078    11283.963     1000 
  594000   0.41828278   -2.4858786   0.62679675   -1.8590818   0.12539032    11396.264     1000 
  596000   0.40135475   -2.4644043   0.60143009   -1.8629743   0.14103369    11306.479     1000 
  598000   0.41275851   -2.4750569   0.61851863   -1.8565382   0.12429601    11486.673     1000 
  600000   0.41951726   -2.4871915   0.62864661   -1.8585448   0.12424972    11435.469     1000 
  602000   0.41084767   -2.5276293   0.61565523    -1.911974   0.12980115    11329.467     1000 
  604000   0.41090743   -2.5063573   0.61574478   -1.8906125   0.13216734    11389.798     1000 
  606000   0.39374926   -2.4809764   0.59003326   -1.8909431   0.14284341    11235.518     1000 
  608000   0.42373549   -2.5275068   0.63496763   -1.8925392   0.13701323    11334.367     1000 
  610000   0.39723332   -2.4623178   0.59525413   -1.8670637   0.12389508    11311.072     1000 
  612000   0.41665877   -2.4894107   0.62436317   -1.8650475   0.13569758    11420.164     1000 
  614000   0.41059862    -2.472807   0.61528203   -1.8575249   0.11799567    11503.111     1000 
  616000   0.41663468   -2.5079425   0.62432707   -1.8836155   0.13501368    11288.404     1000 
  618000   0.40813968   -2.4795094    0.6115973   -1.8679121   0.12399203    11337.652     1000 
  620000   0.40894742   -2.4762684   0.61280771   -1.8634607   0.12995961    11375.992     1000 
  622000   0.40783429   -2.4960054   0.61113968   -1.8848657   0.13690054    11324.878     1000 
  624000   0.42541614    -2.540189   0.63748609   -1.9027029   0.13654969    11334.179     1000 
  626000   0.42475054   -2.5024101   0.63648869   -1.8659214   0.12072387    11386.264     1000 
  628000   0.39565396   -2.4524439   0.59288746   -1.8595564   0.13105897    11387.422     1000 
  630000   0.40044198   -2.4741417   0.60006231   -1.8740794   0.12411375    11452.661     1000 
  632000   0.41323786   -2.4521768   0.61923693   -1.8329399   0.14061423    11224.704     1000 
  634000   0.41383125   -2.4287482   0.62012613   -1.8086221   0.11689686    11355.839     1000 
  636000   0.41678853   -2.4947595   0.62455761   -1.8702019   0.11730575    11380.824     1000 
  638000   0.40997214   -2.4960572   0.61434325   -1.8817139   0.12902168    11499.435     1000 
  640000   0.41456594   -2.5256462   0.62122707   -1.9044191   0.13704895     11330.18     1000 
  642000   0.41993122   -2.5321404   0.62926693   -1.9028735   0.12600851    11294.303     1000 
  644000   0.40033904    -2.482809   0.59990804    -1.882901   0.12552317    11427.428     1000 
  646000   0.41178831   -2.5008595   0.61706478   -1.8837947   0.12307924     11438.67     1000 
  648000   0.41936876   -2.5326743   0.62842408   -1.9042503   0.13275129    11467.769     1000 
  650000   0.41215138   -2.4641099   0.61760885   -1.8465011   0.13200543    11288.611     1000 
  652000   0.41831049   -2.5001148   0.62683827   -1.8732765   0.13129421    11363.862     1000 
  654000   0.41414214   -2.5102244   0.62059199   -1.8896324   0.12494664    11421.371     1000 
  656000    0.4056782   -2.5142285   0.60790879   -1.9063198   0.12567099    11436.391     1000 
  658000   0.40649309   -2.4914428   0.60912989   -1.8823129   0.12836369    11437.756     1000 
  660000   0.39213749   -2.4875637   0.58761804   -1.8999457   0.13469484    11333.001     1000 
  662000   0.42059651   -2.5213866   0.63026387   -1.8911227   0.12646484    11444.931     1000 
  664000   0.40081233   -2.4811233   0.60061728    -1.880506   0.11778284    11446.336     1000 
  666000     0.405707   -2.4654884   0.60795194   -1.8575365    0.1326982     11245.17     1000 
  668000   0.40743314   -2.4896226   0.61053855    -1.879084   0.13505049    11398.811     1000 
  670000   0.41813364   -2.5226334   0.62657326   -1.8960602   0.12618126    11437.089     1000 
  672000   0.42173704   -2.5689436   0.63197295   -1.9369706   0.12485789    11474.283     1000 
  674000   0.40544413   -2.5324507   0.60755802   -1.9248927   0.12548532    11480.451     1000 
  676000   0.39506305   -2.5141508   0.59200197   -1.9221489   0.12502947    11371.364     1000 
  678000   0.39895673   -2.5006831   0.59783666   -1.9028465   0.11946373    11463.808     1000 
  680000   0.42685236   -2.5407664   0.63963827   -1.9011281   0.12765163    11413.349     1000 
  682000   0.40081924   -2.5355486   0.60062763    -1.934921     0.119927    11415.791     1000 
  684000   0.40239568   -2.4930729   0.60298993    -1.890083   0.14209828    11288.817     1000 
  686000   0.42799668   -2.5107575   0.64135303   -1.8694045   0.13575141    11294.191     1000 
  688000   0.42750422   -2.5332983   0.64061508   -1.8926833   0.13235936    11487.799     1000 
  690000   0.41398066   -2.4751498   0.62035002   -1.8547998   0.13680648    11324.684     1000 
  692000   0.40208798   -2.4753284   0.60252883   -1.8727996   0.11895762    11403.052     1000 
  694000   0.41177082   -2.4809487   0.61703857   -1.8639101   0.14964375    11216.003     1000 
  696000   0.41431245   -2.4837254   0.62084721   -1.8628782   0.13567749    11313.598     1000 
  698000   0.39587328   -2.4824944   0.59321612   -1.8892783   0.11458382    11375.195     1000 
  700000   0.40343979   -2.4789442   0.60455453   -1.8743897   0.13465881    11312.272     1000 
  702000    0.4181292   -2.4664998    0.6265666   -1.8399332   0.13501516    11250.229     1000 
  704000   0.40382029   -2.5208468   0.60512471   -1.9157221   0.12197968     11490.35     1000 
  706000    0.4144729   -2.5051521   0.62108764   -1.8840645   0.12009328    11475.718     1000 
  708000    0.4252225   -2.5100515   0.63719592   -1.8728555   0.12239167    11469.739     1000 
  710000   0.39125044   -2.5071715   0.58628879   -1.9208827   0.11165048    11464.591     1000 
  712000    0.4107106   -2.5128918   0.61544984    -1.897442   0.13786808    11321.105     1000 
  714000   0.38584317   -2.4889197   0.57818599   -1.9107337     0.128951     11309.45     1000 
  716000   0.40764588   -2.4965602   0.61085735   -1.8857028   0.13599215    11309.157     1000 
  718000   0.41580379   -2.5092478   0.62308198   -1.8861658   0.13090184    11336.302     1000 
  720000   0.40220221   -2.5046862   0.60270001   -1.9019862    0.1263906    11421.783     1000 
  722000   0.40511577   -2.5248413   0.60706597   -1.9177753   0.13902927    11350.401     1000 
  724000   0.41121577   -2.5205542   0.61620683   -1.9043473   0.14074582    11380.675     1000 
  726000   0.37282814    -2.483481   0.55868296    -1.924798   0.12957979    11340.237     1000 
  728000   0.41937931   -2.5029334    0.6284399   -1.8744935   0.13403817    11404.681     1000 
  730000   0.41370492   -2.5007889   0.61993682   -1.8808521   0.13352455     11362.23     1000 
  732000   0.41899278   -2.4626941   0.62786069   -1.8348334   0.12645754    11356.939     1000 
  734000   0.42247143   -2.4828171   0.63307344   -1.8497436   0.13799326    11304.157     1000 
  736000   0.42538416   -2.4549247   0.63743816   -1.8174866   0.11223304    11343.933     1000 
  738000   0.40620283   -2.5178647   0.60869494   -1.9091698   0.12009935    11423.952     1000 
  740000   0.40919679   -2.4947119   0.61318139   -1.8815305   0.14256782    11366.435     1000 
  742000   0.40594677   -2.5213714   0.60831123   -1.9130602   0.13876985    11265.925     1000 
  744000   0.40579827   -2.4850609   0.60808872   -1.8769722   0.13459936     11302.41     1000 
  746000   0.40548828   -2.4735268   0.60762419   -1.8659026   0.13557978    11301.045     1000 
  748000   0.41414601   -2.4734521    0.6205978   -1.8528543   0.12900645    11408.382     1000 
  750000   0.40174386   -2.5072156   0.60201317   -1.9052025   0.12947792    11438.726     1000 
  752000   0.40058292   -2.4974839    0.6002735   -1.8972104   0.13622095    11337.738     1000 
  754000   0.40712664   -2.5009103   0.61007927    -1.890831   0.12223346     11421.73     1000 
  756000   0.40801421   -2.4856574    0.6114093   -1.8742481   0.13032072    11448.188     1000 
  758000   0.40521452   -2.4848871   0.60721396   -1.8776732   0.14261202    11334.852     1000 
  760000   0.41259179   -2.5355099   0.61826879   -1.9172411   0.13482401    11448.919     1000 
  762000   0.42072333   -2.5259403   0.63045391   -1.8954864   0.13804846    11320.038     1000 
  764000   0.39744512   -2.4955287   0.59557151   -1.8999572    0.1378123    11270.167     1000 
  766000   0.41887747   -2.4841422   0.62768789   -1.8564543    0.1261259    11384.964     1000 
  768000   0.41682844   -2.5196755   0.62461742   -1.8950581   0.13131059    11453.738     1000 
  770000   0.42267299   -2.5013497   0.63337547   -1.8679743   0.13219324    11281.966     1000 
  772000   0.40311928   -2.5025422   0.60407424   -1.8984679   0.12663786    11511.519     1000 
  774000   0.41837457   -2.4663513   0.62693429    -1.839417   0.12284887    11457.639     1000 
  776000    0.3942807    -2.494203   0.59082963   -1.9033734   0.14149585    11293.933     1000 
  778000   0.41689259   -2.4801528   0.62471354   -1.8554393   0.12185982    11371.067     1000 
  780000   0.41432977    -2.483209   0.62087316   -1.8623359   0.13411197    11331.976     1000 
  782000   0.40490758   -2.5182837   0.60675401   -1.9115297   0.11409952     11469.46     1000 
  784000   0.41179839   -2.5007986   0.61707988   -1.8837187   0.13872578    11213.257     1000 
  786000   0.40517853   -2.5216767   0.60716003   -1.9145166   0.12573798    11549.906     1000 
  788000   0.39233861   -2.4613823    0.5879194   -1.8734629   0.13272132    11300.799     1000 
  790000   0.42630979   -2.5146596   0.63882522   -1.8758344   0.12181132    11421.542     1000 
  792000    0.4232195    -2.464072   0.63419442   -1.8298776   0.13194403    11355.423     1000 
  794000   0.42001841   -2.5355415   0.62939758    -1.906144   0.14413914    11315.407     1000 
  796000   0.40187657   -2.4886457   0.60221205   -1.8864336   0.12159002    11405.143     1000 
  798000    0.4136591   -2.4645912   0.61986816   -1.8447231   0.13785339    11245.494     1000 
  800000   0.39924787   -2.4930948   0.59827294   -1.8948219   0.13833921    11377.377     1000 
  802000   0.41371153   -2.4807359   0.61994672   -1.8607892   0.12806446    11321.242     1000 
  804000   0.41568056   -2.4892111   0.62289732   -1.8663138   0.13028936    11340.997     1000 
  806000   0.42028765   -2.4914441   0.62980104   -1.8616431   0.12933292     11344.84     1000 
  808000   0.41127893   -2.4789606   0.61630147   -1.8626592   0.12606626    11477.486     1000 
  810000   0.41875314   -2.4933576   0.62750158    -1.865856   0.13752143    11287.917     1000 
  812000   0.41423683   -2.5085061    0.6207339   -1.8877722   0.13317695    11305.432     1000 
  814000   0.41654667   -2.4978499   0.62419518   -1.8736547   0.12309933    11383.946     1000 
  816000   0.40122771    -2.460578   0.60123972   -1.8593382   0.12593116    11393.522     1000 
  818000   0.40581443   -2.4693189   0.60811292    -1.861206   0.13217791    11378.798     1000 
  820000   0.40245035   -2.4753552   0.60307184   -1.8722834   0.12671971     11392.45     1000 
  822000   0.40673546   -2.4734481   0.60949309    -1.863955   0.13153343    11296.749     1000 
  824000   0.42287032   -2.4631243   0.63367117   -1.8294531   0.13115231    11371.843     1000 
  826000   0.40619645   -2.5340519   0.60868538   -1.9253666   0.13926873    11331.866     1000 
  828000   0.42508184   -2.4945827   0.63698513   -1.8575976   0.13355419    11431.426     1000 
  830000   0.39754775   -2.4753107    0.5957253   -1.8795854    0.1241471     11457.33     1000 
  832000   0.43603085   -2.4843772   0.65339223    -1.830985   0.14553923    11268.685     1000 
  834000   0.41107028   -2.4766104   0.61598881   -1.8606216   0.12441548    11440.927     1000 
  836000   0.39493732   -2.4922454   0.59181357   -1.9004318   0.13990651    11403.306     1000 
  838000   0.42532653   -2.5099952   0.63735181   -1.8726434   0.12410919    11455.361     1000 
  840000   0.40203363   -2.4895788    0.6024474   -1.8871314   0.13359598    11302.175     1000 
  842000    0.3976747    -2.437897   0.59591554   -1.8419814     0.131465    11226.535     1000 
  844000    0.4204629   -2.5005438   0.63006366   -1.8704801   0.12341749    11422.412     1000 
  846000   0.41502227   -2.5135016   0.62191086   -1.8915907   0.13622389    11374.708     1000 
  848000   0.42989127   -2.4867984   0.64419207   -1.8426063   0.13232671    11400.869     1000 
  850000   0.42253374   -2.5253128    0.6331668    -1.892146   0.12905047    11466.685     1000 
  852000    0.4046318   -2.4929053   0.60634075   -1.8865646   0.11625112    11424.138     1000 
  854000   0.41243028   -2.4896304   0.61802678   -1.8716036   0.12015503    11441.362     1000 
  856000    0.4108629   -2.5322453   0.61567805   -1.9165672   0.12465686    11402.664     1000 
  858000   0.40856864   -2.4991428    0.6122401   -1.8869027   0.14270692    11232.415     1000 
  860000   0.40739539   -2.4598584   0.61048199   -1.8493764    0.1470775     11331.16     1000 
  862000   0.40724678   -2.4966422    0.6102593   -1.8863829   0.13326098    11354.431     1000 
  864000   0.42322119   -2.5678671   0.63419695   -1.9336701   0.13235097    11439.857     1000 
  866000   0.40370433   -2.5261557   0.60495093   -1.9212048   0.14480138    11262.929     1000 
  868000   0.42844209   -2.5087519   0.64202047   -1.8667315   0.13800057    11362.649     1000 
  870000   0.41066794   -2.5055829   0.61538591    -1.890197   0.12540888    11371.566     1000 
  872000   0.41021262   -2.5374797   0.61470361   -1.9227761   0.11525651    11544.641     1000 
  874000   0.40525961   -2.5102964   0.60728153   -1.9030149   0.11821207    11406.137     1000 
  876000   0.40714651   -2.5482864   0.61010904   -1.9381774   0.12307085    11509.334     1000 
  878000   0.42708267   -2.4633635   0.63998338   -1.8233801   0.12893346    11385.259     1000 
  880000   0.41726378   -2.4861437   0.62526978   -1.8608739   0.12806745    11439.545     1000 
  882000   0.41602161   -2.5192534   0.62340839    -1.895845   0.13172783    11366.958     1000 
  884000   0.41954762   -2.4714146   0.62869211   -1.8427225   0.13734977    11215.204     1000 
  886000   0.39393771   -2.4758107   0.59031566    -1.885495   0.14209345    11305.231     1000 
  888000   0.40415684    -2.464923   0.60562903   -1.8592939   0.13428743    11288.926     1000 
  890000   0.41302854   -2.5177789   0.61892327   -1.8988557   0.12789779    11335.814     1000 
  892000   0.40217038   -2.5081599   0.60265232   -1.9055076   0.12568342    11440.554     1000 
  894000   0.41586751   -2.4933575   0.62317746   -1.8701801   0.12882595    11445.199     1000 
  896000   0.40649665   -2.4912679   0.60913522   -1.8821327   0.14036422    11303.298     1000 
  898000   0.40054346   -2.4975386   0.60021437   -1.8973242   0.13161722    11318.894     1000 
  900000    0.4256779    -2.474166   0.63787834   -1.8362877   0.14165505    11326.716     1000 
  902000   0.41374927   -2.5131803   0.62000328   -1.8931771   0.14385563     11382.47     1000 
  904000     0.406882   -2.5178333   0.60971268   -1.9081206   0.12382184    11353.471     1000 
  906000   0.41512999   -2.4778288   0.62207228   -1.8557565   0.14147805    11322.504     1000 
  908000   0.40424463   -2.5277991   0.60576057   -1.9220386   0.12635983    11391.372     1000 
  910000   0.39691082   -2.4855732   0.59477087   -1.8908024   0.13676302     11302.79     1000 
  912000   0.41719544   -2.5198854   0.62516737   -1.8947181   0.11624785    11534.081     1000 
  914000   0.41715846   -2.4916802   0.62511195   -1.8665682   0.12459366     11345.85     1000 
  916000   0.40722281   -2.4700545   0.61022338   -1.8598311   0.13663817    11269.313     1000 
  918000   0.41482546   -2.5059598   0.62161595   -1.8843438   0.13197573    11419.862     1000 
  920000   0.40539394   -2.4688523   0.60748282   -1.8613695   0.12342802    11361.687     1000 
  922000    0.3951045   -2.4857808    0.5920641   -1.8937167   0.13246798    11469.324     1000 
  924000   0.40954853   -2.4752214   0.61370848   -1.8615129   0.12422763    11463.038     1000 
  926000   0.40885248   -2.5282677   0.61266545   -1.9156022   0.12732935    11401.546     1000 
  928000   0.40781154   -2.5010341    0.6111056   -1.8899285     0.132454    11395.054     1000 
  930000   0.41657368   -2.5041337   0.62423566   -1.8798981   0.14404295    11309.753     1000 
  932000   0.40388264   -2.4918161   0.60521814   -1.8865979   0.12826011    11453.876     1000 
  934000   0.42284158   -2.4762383   0.63362811   -1.8426102   0.12751675    11416.933     1000 
  936000   0.41797568   -2.4739476   0.62633656   -1.8476111   0.12872035    11353.387     1000 
  938000   0.40288253   -2.5109698   0.60371947   -1.9072503   0.13341105    11412.515     1000 
  940000   0.39228835   -2.5103121   0.58784409    -1.922468   0.13446383    11391.789     1000 
  942000   0.40347367   -2.4599075   0.60460529   -1.8553022   0.13485035    11293.991     1000 
  944000   0.40310743   -2.4693959   0.60405649   -1.8653394   0.12455312    11423.445     1000 
  946000   0.40506012   -2.4678854   0.60698258   -1.8609028   0.13195038    11368.079     1000 
  948000   0.39856096   -2.5015554    0.5972436   -1.9043118   0.13819688    11300.918     1000 
  950000   0.42547555   -2.4735502   0.63757512    -1.835975   0.13184357    11288.028     1000 
  952000   0.39148229   -2.5093832   0.58663621    -1.922747    0.1136467    11548.545     1000 
  954000   0.40571417   -2.5230929   0.60796269   -1.9151302   0.12802963    11409.644     1000 
  956000   0.40984997   -2.4844481   0.61416018   -1.8702879   0.13866139    11431.878     1000 
  958000   0.39535818   -2.5046493   0.59244424   -1.9122051   0.12997837    11429.726     1000 
  960000   0.40782714   -2.4944351   0.61112897   -1.8833061   0.13365838    11321.911     1000 
  962000   0.39907968   -2.4817581    0.5980209   -1.8837372    0.1344057    11219.959     1000 
  964000   0.39726214    -2.494872   0.59529731   -1.8995747   0.11958838    11391.724     1000 
  966000   0.41774625   -2.4781823   0.62599276   -1.8521896   0.12466537    11455.881     1000 
  968000   0.40775916   -2.4788733   0.61102711   -1.8678462   0.13197356    11335.894     1000 
  970000   0.39441575   -2.5090749     0.591032   -1.9180429   0.13522273    11393.003     1000 
  972000   0.40792034   -2.4953316   0.61126863    -1.884063   0.13099854    11374.339     1000 
  974000   0.40678639   -2.5032678   0.60956941   -1.8936984   0.13321421    11369.896     1000 
  976000   0.40540202   -2.5272901   0.60749493   -1.9197952   0.12598264     11573.03     1000 
  978000   0.41518122   -2.4820378   0.62214906   -1.8598888   0.14119251    11290.701     1000 
  980000   0.39697031   -2.5210429   0.59486001   -1.9261829    0.1507774    11380.194     1000 
  982000   0.42800761   -2.5199664   0.64136941    -1.878597   0.13517572     11333.92     1000 
  984000   0.39411089   -2.5055603   0.59057517   -1.9149851   0.12518879    11324.328     1000 
  986000   0.41785137   -2.4770977   0.62615028   -1.8509474   0.13564497    11400.043     1000 
  988000   0.41286149   -2.4656431   0.61867294   -1.8469702   0.13263505     11467.63     1000 
  990000   0.41713246   -2.5130497   0.62507298   -1.8879767   0.13185702    11431.078     1000 
  992000   0.42073079   -2.5084248   0.63046509   -1.8779598   0.13829972    11341.949     1000 
  994000   0.40043893   -2.5385942   0.60005774   -1.9385365   0.12057154    11563.297     1000 
  996000    0.3777188   -2.4731745   0.56601162   -1.9071629   0.12720899    11374.237     1000 
  998000   0.40233835   -2.5026273   0.60290401   -1.8997233   0.13642722    11300.524     1000 
 1000000   0.41360328   -2.4994107   0.61978452   -1.8796261   0.13631139    11222.302     1000 
 1002000   0.41743735   -2.5197218   0.62552987   -1.8941919   0.13767295    11328.009     1000 
 1004000   0.39729233    -2.522777   0.59534255   -1.9274345   0.12298371    11524.866     1000 
 1006000   0.40097391   -2.4959703   0.60085941   -1.8951109   0.12812983    11417.819     1000 
 1008000   0.41107464   -2.4967899   0.61599535   -1.8807945   0.13374239    11408.535     1000 
 1010000   0.41184695   -2.4782102   0.61715265   -1.8610575   0.13680203     11371.95     1000 
 1012000   0.41652626   -2.4983034   0.62416461   -1.8741388   0.13641255    11401.549     1000 
 1014000   0.40399909    -2.490362   0.60539263   -1.8849694   0.13244233    11268.879     1000 
 1016000   0.42211306    -2.522389   0.63253642   -1.8898526   0.12501608    11388.627     1000 
 1018000   0.40953778   -2.4965092   0.61369237   -1.8828169   0.12837189    11411.513     1000 
 1020000   0.40095799   -2.5171803   0.60083555   -1.9163448   0.11943669    11430.188     1000 
 1022000   0.40955254   -2.5133685   0.61371448    -1.899654   0.12973247    11447.904     1000 
 1024000   0.39820954   -2.5163505     0.596717   -1.9196335   0.12221419    11500.047     1000 
 1026000   0.39431591   -2.4883404   0.59088238    -1.897458   0.11908777    11409.936     1000 
 1028000   0.41834127   -2.5266149   0.62688439   -1.8997305   0.12573074    11402.999     1000 
 1030000   0.39600243   -2.5077266   0.59340965   -1.9143169   0.13303697    11424.234     1000 
 1032000   0.40974888   -2.4939882   0.61400869   -1.8799795   0.13042412    11362.753     1000 
 1034000    0.4227391   -2.4713335   0.63347454    -1.837859   0.13980186    11239.944     1000 
 1036000   0.42124574   -2.5081588   0.63123674   -1.8769221   0.13631314    11330.986     1000 
 1038000   0.39884238   -2.5120836   0.59766531   -1.9144183   0.13906503    11300.699     1000 
 1040000   0.42888863   -2.5003944   0.64268961   -1.8577048   0.13082623    11354.338     1000 
 1042000   0.40547153    -2.515527   0.60759909   -1.9079279   0.12894708    11385.647     1000 
 1044000   0.40000475   -2.4604501   0.59940712    -1.861043   0.13256713    11332.582     1000 
 1046000   0.40075633   -2.5250033   0.60053336   -1.9244699   0.13047836    11473.423     1000 
 1048000   0.40255113   -2.5067269   0.60322286    -1.903504   0.13019408    11433.831     1000 
 1050000   0.40295507   -2.5112731   0.60382817   -1.9074449   0.13016745    11325.391     1000 
 1052000   0.39819444    -2.510336   0.59669437   -1.9136416   0.13230552    11333.825     1000 
 1054000   0.41232392   -2.5074655   0.61786739   -1.8895981   0.12433388    11436.627     1000 
 1056000   0.42653346   -2.4646107    0.6391604   -1.8254503   0.11947967    11413.584     1000 
 1058000   0.41622037    -2.502932   0.62370623   -1.8792257   0.12769289    11424.957     1000 
 1060000   0.41717415   -2.4674185   0.62513546    -1.842283   0.12616556    11379.136     1000 
 1062000    0.4249883   -2.4633028   0.63684497   -1.8264579   0.13958392    11267.445     1000 
 1064000    0.4068044    -2.502398    0.6095964   -1.8928016   0.13203698    11357.723     1000 
 1066000   0.42360061   -2.4667829   0.63476551   -1.8320173   0.13846254    11264.548     1000 
 1068000   0.40290485   -2.4666246   0.60375291   -1.8628716   0.12380844    11443.364     1000 
 1070000   0.39259965   -2.4881324   0.58831058   -1.8998218   0.14075911    11306.562     1000 
 1072000   0.41147767   -2.5271899   0.61659929   -1.9105906   0.11523626     11533.95     1000 
 1074000   0.39960312   -2.4989449   0.59880528   -1.9001396   0.13254862    11391.476     1000 
 1076000   0.39808037   -2.5275433   0.59652343   -1.9310199   0.13160876    11373.494     1000 
 1078000   0.40272727    -2.505595   0.60348682   -1.9021082   0.13002356    11348.939     1000 
 1080000   0.40973429   -2.4494971   0.61398684   -1.8355102    0.1376287    11334.681     1000 
 1082000   0.40058043   -2.4646326   0.60026977   -1.8643629   0.12994659    11409.268     1000 
 1084000   0.40792995   -2.4723619   0.61128302   -1.8610789   0.12423887    11364.875     1000 
 1086000     0.422996   -2.4783384   0.63385951   -1.8444789   0.13350332    11395.659     1000 
 1088000   0.41464513   -2.5360986   0.62134573   -1.9147528   0.13309642     11470.16     1000 
 1090000   0.42638788   -2.4525526   0.63894224   -1.8136104   0.13913118    11273.714     1000 
 1092000   0.40301052   -2.4828388   0.60391127   -1.8789276   0.12134513    11483.719     1000 
 1094000   0.39251655   -2.4695706   0.58818605   -1.8813845   0.13209675    11282.055     1000 
 1096000   0.40259014    -2.497937   0.60328133   -1.8946556   0.11774194     11491.99     1000 
 1098000   0.42266584   -2.5043609   0.63336476   -1.8709961   0.13071766    11370.097     1000 
 1100000    0.4045161   -2.5477262   0.60616737   -1.9415588   0.13720167     11376.65     1000 
 1102000   0.40432658   -2.4804772   0.60588338   -1.8745938   0.11680469    11534.574     1000 
 1104000   0.42717688   -2.4720129   0.64012456   -1.8318883   0.13241464    11377.508     1000 
 1106000   0.43895242   -2.5181514   0.65777021   -1.8603812   0.12213721    11435.122     1000 
 1108000   0.41724446     -2.45802   0.62524082   -1.8327791   0.13171373    11332.176     1000 
 1110000   0.41951035    -2.527267   0.62863625   -1.8986307   0.12680239    11452.756     1000 
 1112000   0.42347696   -2.5405866   0.63458023   -1.9060064   0.13124529    11332.619     1000 
 1114000   0.41683179   -2.4757815   0.62462243   -1.8511591   0.13705628    11311.984     1000 
 1116000   0.39087401    -2.514196   0.58572471   -1.9284713   0.14400656    11267.949     1000 
 1118000    0.4121778   -2.5446028   0.61764843   -1.9269544   0.12755788    11391.168     1000 
 1120000   0.40669643   -2.4954034    0.6094346   -1.8859688   0.12866748    11397.249     1000 
 1122000   0.41239037   -2.4897084   0.61796697   -1.8717415   0.13500084    11410.304     1000 
 1124000   0.42284065   -2.5234985   0.63362671   -1.8898717   0.12037508    11515.531     1000 
 1126000   0.39250258   -2.4997523   0.58816511   -1.9115872   0.12816759    11463.339     1000 
 1128000   0.40682954   -2.4867732   0.60963406   -1.8771391   0.12386917    11491.598     1000 
 1130000    0.3876846   -2.4927823   0.58094538   -1.9118369   0.12506885    11418.785     1000 
 1132000   0.39649944   -2.5349733   0.59415442   -1.9408189   0.13544008     11304.23     1000 
 1134000     0.422817   -2.5097057   0.63359128   -1.8761144    0.1130125    11602.809     1000 
 1136000   0.41515383   -2.4831899   0.62210801   -1.8610819   0.12496599    11313.301     1000 
 1138000   0.41230633   -2.4734764   0.61784104   -1.8556354   0.14127996     11263.89     1000 
 1140000   0.41204077   -2.5044237   0.61744309   -1.8869806   0.13913176    11225.707     1000 
 1142000   0.40461441   -2.4856164    0.6063147   -1.8793017   0.12901918    11409.727     1000 
 1144000   0.37842095   -2.5061606   0.56706379   -1.9390968   0.12928797    11419.958     1000 
 1146000   0.41090549   -2.5104728   0.61574188    -1.894731   0.13536046    11369.953     1000 
 1148000   0.40168052   -2.5058724   0.60191825   -1.9039541   0.12663776    11406.479     1000 
 1150000   0.40541055   -2.4833571   0.60750771   -1.8758494    0.1262704    11516.346     1000 
 1152000   0.41988115   -2.4246443    0.6291919   -1.7954524   0.12552632    11450.325     1000 
 1154000   0.41652507   -2.5121614   0.62416282   -1.8879986   0.12714128    11392.926     1000 
 1156000   0.42418118   -2.5125962    0.6356355   -1.8769607   0.14018173    11318.029     1000 
 1158000   0.39301971    -2.532736   0.58894004    -1.943796   0.12788134    11298.045     1000 
 1160000   0.40223139   -2.4473179   0.60274374   -1.8445742   0.13076275    11323.892     1000 
 1162000   0.40829008   -2.5218047   0.61182269    -1.909982   0.14510265    11267.644     1000 
 1164000   0.41003491   -2.4627117   0.61443732   -1.8482744   0.12840666    11294.499     1000 
 1166000   0.38574177    -2.479536   0.57803405    -1.901502   0.13298533    11419.824     1000 
 1168000   0.41767179   -2.5117638   0.62588118   -1.8858826   0.13920268    11423.881     1000 
 1170000   0.41083429    -2.482244   0.61563519   -1.8666088   0.13813459    11256.385     1000 
 1172000   0.40941387   -2.5136706   0.61350668    -1.900164   0.12308029    11424.182     1000 
 1174000    0.3983823   -2.5076286   0.59697588   -1.9106527   0.12270437    11495.616     1000 
 1176000   0.40178353   -2.4916225   0.60207262   -1.8895499   0.11991497     11466.47     1000 
 1178000   0.39699797   -2.4971834   0.59490145    -1.902282   0.14016536    11394.846     1000 
 1180000   0.42351977   -2.5322516   0.63464438   -1.8976072   0.12430503    11417.774     1000 
 1182000   0.41012518    -2.482901   0.61457258   -1.8683284   0.12640732    11405.185     1000 
 1184000   0.40520414   -2.5013483    0.6071984   -1.8941499   0.13740868    11300.899     1000 
 1186000   0.42496925    -2.473091   0.63681642   -1.8362746   0.12639321     11371.18     1000 
 1188000   0.40419844   -2.4555074   0.60569136    -1.849816    0.1286623    11285.821     1000 
 1190000   0.41049408   -2.4714598   0.61512538   -1.8563344   0.13394886    11305.574     1000 
 1192000    0.4073422   -2.4842997   0.61040228   -1.8738974   0.14801698    11321.002     1000 
 1194000   0.39380088    -2.508413   0.59011062   -1.9183023   0.12788289    11307.712     1000 
 1196000   0.42975114   -2.5163244   0.64398209   -1.8723423   0.13466627    11335.573     1000 
 1198000   0.40957902   -2.5156174   0.61375417   -1.9018632   0.11922516     11598.22     1000 
 1200000   0.41205316   -2.4989288   0.61746166   -1.8814671   0.12929588    11328.386     1000 
 1202000   0.43927356   -2.5193067   0.65825143   -1.8610553   0.14235272    11352.338     1000 
 1204000   0.41217104   -2.5171698    0.6176383   -1.8995315   0.13698488    11390.584     1000 
 1206000   0.41088025   -2.5039607   0.61570405   -1.8882566    0.1337394    11456.333     1000 
 1208000   0.40914857   -2.4730939   0.61310914   -1.8599848   0.15045658    11183.484     1000 
 1210000   0.40010404   -2.4689631    0.5995559   -1.8694072   0.14170115    11288.992     1000 
 1212000   0.40526746   -2.5122366   0.60729329   -1.9049433   0.12644967    11384.095     1000 
 1214000   0.38914198   -2.5169507   0.58312926   -1.9338214   0.14051458    11364.188     1000 
 1216000   0.41073849   -2.5344721   0.61549163   -1.9189805   0.12825221    11357.844     1000 
 1218000    0.3981496   -2.4911435   0.59662717   -1.8945163   0.13154264    11349.887     1000 
 1220000   0.40673993   -2.5277617   0.60949978   -1.9182619   0.12195612    11395.996     1000 
 1222000   0.42436029   -2.5097262    0.6359039   -1.8738223   0.12668316    11452.141     1000 
 1224000   0.41183146   -2.5188587   0.61712944   -1.9017292   0.12957953    11430.746     1000 
 1226000   0.41198833   -2.5287063   0.61736451   -1.9113418   0.12382748    11405.314     1000 
 1228000   0.40835441   -2.4836958   0.61191908   -1.8717768   0.13216428    11326.812     1000 
 1230000   0.41610248   -2.5135517   0.62352956   -1.8900221   0.13068242    11294.456     1000 
 1232000   0.40667036   -2.4952311   0.60939554   -1.8858356   0.14099806    11312.599     1000 
 1234000   0.40295083   -2.5443832   0.60382182   -1.9405614   0.11061662    11507.217     1000 
 1236000   0.39719326    -2.518542    0.5951941   -1.9233479   0.11927201    11395.748     1000 
 1238000   0.41227284     -2.48859   0.61779085   -1.8707991   0.11935949    11437.573     1000 
 1240000   0.41065724   -2.5613879   0.61536987    -1.946018   0.13563161    11373.187     1000 
 1242000   0.41665805   -2.4448299   0.62436209   -1.8204678   0.12995756    11430.202     1000 
 1244000   0.41574083   -2.4642043   0.62298763   -1.8412166    0.1392136     11314.35     1000 
 1246000   0.40437195   -2.4668129   0.60595136   -1.8608616   0.13073387    11368.251     1000 
 1248000   0.39603767   -2.5042362   0.59346245   -1.9107738     0.133308     11402.97     1000 
 1250000   0.41128017   -2.5038255   0.61630333   -1.8875221   0.12882522    11509.683     1000 
 1252000   0.40751314   -2.4981116   0.61065844   -1.8874532    0.1221622     11432.72     1000 
 1254000   0.41469176   -2.4719666   0.62141561    -1.850551   0.12447953    11417.718     1000 
 1256000   0.43237603    -2.523984   0.64791549   -1.8760685   0.14949817    11194.199     1000 
 1258000   0.39960859    -2.453688   0.59881347   -1.8548745   0.12527898    11326.679     1000 
 1260000   0.41529465   -2.5191208   0.62231904   -1.8968017   0.11353804    11498.007     1000 
 1262000   0.41683516   -2.4825741   0.62462749   -1.8579466   0.12784639    11345.276     1000 
 1264000   0.40626386   -2.4956883   0.60878639   -1.8869019    0.1408107    11309.196     1000 
 1266000   0.40387189   -2.5114351   0.60520202   -1.9062331   0.12540264    11424.774     1000 
 1268000   0.40659509   -2.5227652   0.60928274   -1.9134825   0.13168372    11403.594     1000 
 1270000   0.40293684   -2.4676099   0.60380086   -1.8638091   0.14507699    11350.624     1000 
 1272000   0.40287427   -2.4829785   0.60370709   -1.8792715   0.14453613    11212.709     1000 
 1274000   0.41344727   -2.5086851   0.61955073   -1.8891343   0.13349116     11348.73     1000 
 1276000   0.42895701   -2.5060933   0.64279208   -1.8633012   0.12267697    11468.053     1000 
 1278000   0.40506434   -2.4906895   0.60698891   -1.8837006   0.12878102    11372.351     1000 
 1280000   0.42437945   -2.4766137   0.63593261   -1.8406811   0.13534775     11391.35     1000 
 1282000   0.39231008   -2.5123849   0.58787665   -1.9245083   0.10921215    11537.701     1000 
 1284000   0.38833998   -2.4560412   0.58192747   -1.8741137   0.12933199    11338.643     1000 
 1286000   0.42710554    -2.479121   0.64001765   -1.8391033   0.13613313    11427.474     1000 
 1288000   0.40572299   -2.5038057   0.60797591   -1.8958298   0.12295558     11392.19     1000 
 1290000   0.41754668   -2.4978832   0.62569369   -1.8721895   0.13587584    11304.114     1000 
 1292000    0.4152514   -2.4903844   0.62225422   -1.8681302    0.1311214    11481.317     1000 
 1294000   0.41813452   -2.4912527   0.62657458   -1.8646781   0.14321774    11291.333     1000 
 1296000   0.42316929   -2.5184107   0.63411918   -1.8842915   0.13321278    11465.346     1000 
 1298000   0.41647104   -2.5173348   0.62408186   -1.8932529   0.11809124    11542.645     1000 
 1300000   0.40872544   -2.4925736   0.61247507   -1.8800985   0.11704044    11435.175     1000 
 1302000   0.42266064   -2.5081134   0.63335697   -1.8747564   0.12023463    11573.505     1000 
 1304000   0.39353724   -2.5137379   0.58971556   -1.9240224   0.12902858    11421.975     1000 
 1306000   0.41364305   -2.4700921   0.61984412    -1.850248   0.13586542    11359.169     1000 
 1308000   0.40243969    -2.443595   0.60305588   -1.8405392   0.12045659     11391.79     1000 
 1310000   0.41952445   -2.5174142   0.62865739   -1.8887568   0.14173872    11319.793     1000 
 1312000   0.41951737   -2.5511143   0.62864678   -1.9224675    0.1212686    11572.266     1000 
 1314000    0.4134731    -2.484015   0.61958944   -1.8644255   0.12768308    11378.015     1000 
 1316000    0.4068524   -2.5204298   0.60966833   -1.9107614    0.1421518    11400.386     1000 
 1318000   0.41275578   -2.4763893   0.61851454   -1.8578747   0.14530342    11262.188     1000 
 1320000    0.4056133   -2.4545291   0.60781153   -1.8467175   0.13812785    11358.453     1000 
 1322000   0.40820611   -2.4875984   0.61169685   -1.8759015   0.13482066     11310.83     1000 
 1324000   0.41421286   -2.5121537   0.62069797   -1.8914557   0.12251693    11318.127     1000 
 1326000    0.3965424    -2.535842   0.59421879   -1.9416232   0.12993229     11332.87     1000 
 1328000   0.42078511   -2.4675847   0.63054648   -1.8370382   0.13898024    11328.275     1000 
 1330000    0.3999621   -2.4814837   0.59934321   -1.8821405   0.12616466    11402.612     1000 
 1332000   0.40603017   -2.5242043   0.60843621   -1.9157681   0.11773878    11519.265     1000 
 1334000    0.4006606   -2.4850663   0.60038991   -1.8846764   0.13488417    11300.717     1000 
 1336000   0.41481146   -2.5051103   0.62159497   -1.8835153   0.13377161    11395.849     1000 
 1338000   0.39908835   -2.5122469   0.59803389    -1.914213    0.1111047    11503.204     1000 
 1340000    0.4242107   -2.4918615   0.63567973   -1.8561818   0.12971032    11414.408     1000 
 1342000   0.41654244    -2.499842   0.62418885   -1.8756532   0.12804083    11276.063     1000 
 1344000   0.42350351   -2.5348133   0.63462001   -1.9001933   0.13395939    11418.465     1000 
 1346000   0.41645484    -2.489828   0.62405757   -1.8657704    0.1274675    11394.651     1000 
 1348000   0.40664734   -2.4925693   0.60936105   -1.8832082   0.13525794    11380.543     1000 
 1350000   0.39954399   -2.4737417   0.59871668    -1.875025   0.12481179    11386.131     1000 
 1352000   0.40451362   -2.4726876   0.60616366   -1.8665239   0.12523961    11307.631     1000 
 1354000    0.4095213   -2.4634853   0.61366767   -1.8498177   0.14440509    11346.163     1000 
 1356000   0.41559749   -2.4646562   0.62277284   -1.8418834   0.13743405    11380.082     1000 
 1358000   0.39992198   -2.5000231   0.59928309     -1.90074   0.13472653    11369.624     1000 
 1360000   0.39913378   -2.4715922   0.59810196   -1.8734902    0.1369561     11278.05     1000 
 1362000   0.42215841   -2.4623636   0.63260438   -1.8297592   0.12891002    11443.614     1000 
 1364000   0.40850236   -2.5228104   0.61214078   -1.9106696   0.13081296    11455.965     1000 
 1366000   0.41654257   -2.4624058   0.62418904   -1.8382167   0.13389451    11242.703     1000 
 1368000   0.41254198   -2.4799812   0.61819416    -1.861787   0.11585129    11500.239     1000 
 1370000   0.40472086   -2.4616322   0.60647421    -1.855158   0.13801144     11301.37     1000 
 1372000    0.4180598   -2.4940343   0.62646261   -1.8675717   0.14091956    11375.003     1000 
 1374000   0.42230504   -2.4814551    0.6328241    -1.848631   0.13826898    11359.573     1000 
 1376000   0.41270431   -2.5170671   0.61843741   -1.8986297   0.13329927    11414.089     1000 
 1378000   0.39780552   -2.4882101   0.59611158   -1.8920985   0.13665899    11347.369     1000 
 1380000   0.41148177   -2.5372983   0.61660544   -1.9206928   0.12486565    11319.883     1000 
 1382000   0.42380983   -2.4461247   0.63507902   -1.8110457   0.13736997    11214.697     1000 
 1384000   0.41958499   -2.4792513    0.6287481   -1.8505032   0.12319952    11434.123     1000 
 1386000   0.41374347   -2.5151209   0.61999458   -1.8951263   0.14434357    11265.445     1000 
 1388000   0.40865001   -2.4896793   0.61236204   -1.8773173   0.12060322     11433.67     1000 
 1390000   0.40413864   -2.5041126   0.60560175   -1.8985109     0.135272    11295.527     1000 
 1392000   0.39106065   -2.5003841   0.58600438   -1.9143797   0.13032564     11348.53     1000 
 1394000   0.40637131   -2.4579207   0.60894741   -1.8489732   0.12431617    11419.048     1000 
 1396000   0.38948846   -2.5012226   0.58364846   -1.9175742    0.1125003    11567.443     1000 
 1398000   0.42595737   -2.4964087   0.63829711   -1.8581116   0.13796282    11382.402     1000 
 1400000   0.43058925   -2.4928197   0.64523799   -1.8475817   0.13444576    11378.259     1000 
 1402000   0.39573887    -2.523595   0.59301469   -1.9305803   0.12052479    11373.239     1000 
 1404000    0.4381314   -2.5204207    0.6565399   -1.8638808   0.13771485    11321.452     1000 
 1406000   0.40425498   -2.5310559   0.60577608   -1.9252798   0.12678047     11433.57     1000 
 1408000   0.41291331   -2.5104108    0.6187506   -1.8916602   0.13429726    11400.775     1000 
 1410000    0.3865937   -2.5013082   0.57931066   -1.9219976   0.12687094    11362.507     1000 
 1412000   0.40654748   -2.5198836    0.6092114   -1.9106722   0.13283993    11405.029     1000 
 1414000   0.41232122   -2.5295616   0.61786334   -1.9116983   0.14264565    11423.359     1000 
 1416000   0.39613889   -2.5014581   0.59361413    -1.907844   0.12515075    11384.512     1000 
 1418000   0.41343658   -2.5150219   0.61953472   -1.8954872   0.13172511    11379.228     1000 
 1420000   0.41804451   -2.4593677   0.62643969    -1.832928   0.11976074    11486.839     1000 
 1422000   0.41554907   -2.5012985   0.62270028   -1.8785983    0.1372925    11244.483     1000 
 1424000   0.40591659   -2.4760923   0.60826601   -1.8678263   0.12762005    11411.615     1000 
 1426000   0.41054223   -2.4765545   0.61519753    -1.861357   0.12914916    11296.196     1000 
 1428000   0.41711778   -2.4638949   0.62505099   -1.8388439   0.13707414    11335.952     1000 
 1430000   0.42079278   -2.4529419   0.63055798   -1.8223839   0.11963119     11409.44     1000 
 1432000   0.42056725   -2.4640461   0.63022002   -1.8338261   0.13579021     11328.85     1000 
 1434000   0.41536315   -2.4720965   0.62242169   -1.8496748   0.12576761    11464.991     1000 
 1436000   0.41429279   -2.4927639   0.62081774   -1.8719461   0.13765862    11292.902     1000 
 1438000   0.40305074   -2.5256528   0.60397154   -1.9216812   0.12940507    11403.954     1000 
 1440000   0.39842334   -2.4535258   0.59703737   -1.8564885   0.12412056    11346.244     1000 
 1442000   0.38497601   -2.4948743   0.57688656   -1.9179878   0.13580319    11371.921     1000 
 1444000   0.41996707   -2.4786006   0.62932066   -1.8492799   0.11210595    11590.076     1000 
 1446000   0.42065363   -2.4959882   0.63034947   -1.8656387   0.13584134    11354.093     1000 
 1448000   0.42389366   -2.5105658   0.63520465   -1.8753612   0.12682477    11491.013     1000 
 1450000    0.4241417   -2.4930225   0.63557633   -1.8574461   0.12983854    11532.911     1000 
 1452000    0.4168757    -2.486965   0.62468823   -1.8622768   0.13027047    11500.594     1000 
 1454000   0.40701045   -2.5129446   0.60990516   -1.9030394   0.13909143    11268.932     1000 
 1456000   0.41284832   -2.5226428   0.61865321   -1.9039896   0.14012978    11275.728     1000 
 1458000   0.41364048   -2.5373229   0.61984026   -1.9174826   0.12599064    11359.677     1000 
 1460000   0.42082156   -2.5019852    0.6306011   -1.8713841   0.12357989    11503.396     1000 
 1462000   0.40820826   -2.4931372   0.61170008   -1.8814371   0.13739163    11298.002     1000 
 1464000    0.3967005   -2.4496203   0.59445571   -1.8551646   0.11855324    11404.528     1000 
 1466000    0.4162752   -2.4798025   0.62378839   -1.8560141   0.13585514    11369.689     1000 
 1468000    0.3941964   -2.5012433   0.59070331     -1.91054   0.12633549    11320.575     1000 
 1470000   0.39243226   -2.4739651   0.58805973   -1.8859054   0.13262173    11372.728     1000 
 1472000   0.39889614   -2.4666283   0.59774587   -1.8688824   0.12971523    11344.301     1000 
 1474000   0.41585287   -2.4939304   0.62315552   -1.8707748   0.12661631    11351.499     1000 
 1476000   0.40972139   -2.4921129    0.6139675   -1.8781454   0.13133716    11390.809     1000 
 1478000   0.40247015   -2.5127671   0.60310152   -1.9096656   0.12372269     11465.81     1000 
 1480000   0.41333938   -2.5311666   0.61938906   -1.9117776   0.13050756    11406.419     1000 
 1482000   0.40981904   -2.5038568   0.61411383    -1.889743   0.13022197    11321.774     1000 
 1484000   0.41263957   -2.5318106   0.61834039   -1.9134702   0.12865072    11451.246     1000 
 1486000   0.42503405   -2.5207308   0.63691352   -1.8838172   0.12945376    11411.646     1000 
 1488000   0.40805309   -2.4810005   0.61146755   -1.8695329   0.12506902    11458.606     1000 
 1490000   0.42142423   -2.4690161    0.6315042   -1.8375119   0.13569459    11278.727     1000 
 1492000    0.3995445   -2.4728812   0.59871743   -1.8741638     0.136805    11210.064     1000 
 1494000    0.4158595   -2.5191499   0.62316545   -1.8959845   0.13401199    11389.097     1000 
 1496000   0.40445742   -2.5019171   0.60607944   -1.8958377   0.12718628    11449.615     1000 
 1498000     0.391628   -2.5099978   0.58685456   -1.9231433   0.14440594    11333.691     1000 
 1500000   0.40999254     -2.47116   0.61437382   -1.8567861   0.13565055    11355.955     1000 
 1502000   0.39976489   -2.5542405   0.59904768   -1.9551928   0.12601218    11494.607     1000 
 1504000   0.42579504   -2.5096957   0.63805387   -1.8716419    0.1225243     11452.34     1000 
 1506000    0.4201217   -2.4847238   0.62955237   -1.8551714   0.12842955    11325.693     1000 
 1508000   0.38982955   -2.5013354   0.58415958   -1.9171758   0.12042075    11469.519     1000 
 1510000   0.38397095   -2.4712458   0.57538046   -1.8958654   0.13056931    11298.624     1000 
 1512000   0.39524396    -2.469607   0.59227308   -1.8773339   0.13869024    11266.269     1000 
 1514000   0.42187045   -2.5092413   0.63217288   -1.8770685   0.13621901    11309.641     1000 
 1516000   0.43833758   -2.5395131   0.65684887   -1.8826642   0.11148506    11437.314     1000 
 1518000   0.42844799   -2.5263275   0.64202931   -1.8842982    0.1414302    11352.785     1000 
 1520000   0.40292246   -2.4706062   0.60377931   -1.8668269   0.12209663    11413.472     1000 
 1522000   0.39906019   -2.5347791    0.5979917   -1.9367874   0.13702182    11364.522     1000 
 1524000   0.39701248   -2.5469424   0.59492321   -1.9520192   0.13271038    11418.602     1000 
 1526000   0.40344248   -2.5021266   0.60455856   -1.8975681   0.12353603    11436.896     1000 
 1528000   0.39210209   -2.5300854   0.58756498   -1.9425204   0.11866132    11473.309     1000 
 1530000   0.39372175   -2.5149798   0.58999204   -1.9249878     0.138252    11404.324     1000 
 1532000   0.38646013   -2.4817509    0.5791105   -1.9026404   0.11973127     11512.58     1000 
 1534000   0.40810721   -2.4407497   0.61154865    -1.829201   0.14152698    11231.714     1000 
 1536000   0.40543956   -2.5388316   0.60755118   -1.9312804   0.12696203    11450.197     1000 
 1538000    0.4194765   -2.5044126   0.62858554   -1.8758271   0.12469346    11386.031     1000 
 1540000   0.41909203   -2.5056808   0.62800941   -1.8776714   0.12331841    11404.869     1000 
 1542000   0.40767159   -2.4287764   0.61089588   -1.8178805    0.1347792    11239.425     1000 
 1544000   0.41533603   -2.5140504   0.62238104   -1.8916694   0.12747022    11372.966     1000 
 1546000   0.40736162   -2.4837961   0.61043139   -1.8733647   0.12624914    11471.572     1000 
 1548000   0.41329811   -2.4943664   0.61932722   -1.8750391   0.12647249    11364.401     1000 
 1550000   0.40374062    -2.487363   0.60500531   -1.8823577    0.1356311    11365.707     1000 
 1552000   0.41577805    -2.501726    0.6230434   -1.8786826   0.13670033    11337.589     1000 
 1554000   0.39412903   -2.4709704   0.59060236   -1.8803681   0.13836461    11302.621     1000 
 1556000   0.42495165   -2.4591808   0.63679004   -1.8223907   0.12836167    11422.906     1000 
 1558000   0.42332246   -2.5342737   0.63434871    -1.899925   0.12909376     11522.01     1000 
 1560000   0.43388052   -2.5247711   0.65016996   -1.8746011   0.12154829    11585.714     1000 
 1562000   0.40197644   -2.4930663    0.6023617   -1.8907046   0.12881673    11398.238     1000 
 1564000    0.3983684   -2.5383836   0.59695505   -1.9414285   0.12722041    11451.855     1000 
 1566000   0.39629891   -2.4969095   0.59385391   -1.9030556   0.13418003    11344.793     1000 
 1568000   0.41192834   -2.4891165   0.61727461   -1.8718419   0.12740179    11382.713     1000 
 1570000   0.38871626   -2.4784538   0.58249132   -1.8959625   0.12439524    11380.345     1000 
 1572000   0.40467872   -2.5191965   0.60641106   -1.9127854   0.12281744    11465.898     1000 
 1574000   0.40289893   -2.5105286   0.60374405   -1.9067845   0.12405941    11416.189     1000 
 1576000   0.40025942   -2.4504045   0.59978875   -1.8506158   0.13815347    11254.632     1000 
 1578000   0.42404117   -2.5101958    0.6354257   -1.8747701    0.1321995    11346.812     1000 
 1580000   0.42134988   -2.5308375   0.63139279   -1.8994447   0.12925377    11546.143     1000 
 1582000   0.39824277   -2.4760554   0.59676679   -1.8792886   0.12245149    11253.588     1000 
 1584000   0.39751035   -2.4894666   0.59566927   -1.8937974   0.11687845    11382.315     1000 
 1586000   0.40348229   -2.5182664   0.60461821   -1.9136482   0.13098432    11485.818     1000 
 1588000   0.41010241   -2.5324029   0.61453846   -1.9178644   0.13433945    11314.008     1000 
[...]
 2614000   0.41252638   -2.5049767   0.61817077   -1.8868059    0.1263246    11458.803     1000 
 2616000    0.4028121   -2.4744542   0.60361394   -1.8708403   0.12680287    11366.608     1000 
 2618000    0.4008189   -2.4966015   0.60062712   -1.8959744   0.12282268     11394.78     1000 
 2620000   0.41611388   -2.4531931   0.62354665   -1.8296465   0.13262536    11367.225     1000 
 2622000   0.41831968   -2.5043261   0.62685203    -1.877474   0.12668794    11348.014     1000 
 2624000   0.41432102    -2.496871   0.62086005    -1.876011   0.12692776    11433.054     1000 
 2626000   0.42304498    -2.501713   0.63393291   -1.8677801   0.13040365    11433.318     1000 
 2628000   0.42115124    -2.495088   0.63109513   -1.8639929   0.13536593    11371.902     1000 
 2630000   0.42084924   -2.4996251   0.63064259   -1.8689825     0.125888    11445.362     1000 
 2632000   0.41333806   -2.4761515   0.61938709   -1.8567645   0.11426248    11522.814     1000 
 2634000   0.42950143   -2.4993629   0.64360789   -1.8557551   0.13401044      11366.3     1000 
 2636000   0.41168811   -2.5048041   0.61691464   -1.8878895   0.12944706    11416.029     1000 
 2638000   0.40276694   -2.4868707   0.60354626   -1.8833244    0.1377643    11342.805     1000 
 2640000   0.40156254   -2.4864814   0.60174147   -1.8847399   0.13529091    11315.372     1000 
 2642000   0.39668772   -2.4630263   0.59443655   -1.8685898   0.13053579    11289.738     1000 
 2644000   0.42188542   -2.5365491    0.6321953   -1.9043538   0.12628327    11429.056     1000 
 2646000    0.4173948   -2.4522997   0.62546611   -1.8268336   0.12773324    11351.973     1000 
 2648000   0.42052484   -2.4894157   0.63015647   -1.8592592   0.13634527    11355.235     1000 
 2650000   0.41128247   -2.5085069   0.61630678   -1.8922001   0.12214053    11489.933     1000 
 2652000   0.41013269   -2.4973273   0.61458384   -1.8827435   0.13574821    11411.965     1000 
 2654000   0.40435915   -2.5227679   0.60593219   -1.9168357   0.13146286    11419.357     1000 
 2656000   0.41439064   -2.4933801   0.62096438   -1.8724157   0.12344635     11529.13     1000 
 2658000    0.4123285   -2.4899306   0.61787426   -1.8720564   0.13410059     11303.75     1000 
 2660000   0.39365507   -2.5002533   0.58989212   -1.9103612   0.12914588    11365.463     1000 
 2662000   0.41807295   -2.5048015   0.62648231   -1.8783191   0.11464723    11494.739     1000 
 2664000   0.43172488   -2.4916197   0.64693973     -1.84468   0.12920643    11428.553     1000 
 2666000   0.40782768   -2.4647321   0.61112979   -1.8536023   0.14104243    11289.259     1000 
 2668000   0.42541365   -2.4805024   0.63748235     -1.84302   0.13667569    11309.791     1000 
 2670000   0.41729268   -2.5327062   0.62531309   -1.9073931   0.12778228    11338.869     1000 
 2672000   0.41828016   -2.4799522   0.62679281   -1.8531594   0.14246836    11313.727     1000 
 2674000   0.41125871   -2.5101553   0.61627117   -1.8938841   0.12513402    11352.594     1000 
 2676000   0.40561754   -2.4942589   0.60781788    -1.886441   0.12441215    11350.903     1000 
 2678000   0.40246944    -2.570289   0.60310046   -1.9671885   0.12422981     11504.46     1000 
 2680000   0.41436386   -2.4892412   0.62092424    -1.868317   0.14555513    11328.591     1000 
 2682000   0.40198698   -2.4937217   0.60237749   -1.8913442   0.13957108    11252.772     1000 
 2684000   0.40948049   -2.4966114   0.61360651   -1.8830049   0.13395608    11419.764     1000 
 2686000   0.41132682   -2.4807558   0.61637325   -1.8643826   0.14381125    11382.281     1000 
 2688000   0.39048039   -2.4932245   0.58513487   -1.9080897   0.13059397    11362.398     1000 
 2690000   0.41343857   -2.4831952    0.6195377   -1.8636575    0.1139202    11510.199     1000 
 2692000   0.40307957   -2.5252574   0.60401474   -1.9212426   0.13415657    11329.841     1000 
 2694000   0.40880497   -2.4847855   0.61259425   -1.8721912   0.13500652    11424.923     1000 
 2696000   0.42077857   -2.4626777   0.63053669    -1.832141   0.12795406    11414.519     1000 
 2698000   0.41370795   -2.5124233   0.61994136   -1.8924819   0.12755677    11434.728     1000 
 2700000   0.42543543    -2.448153     0.637515    -1.810638   0.13280465    11323.513     1000 
 2702000   0.40482816   -2.4884347   0.60663499   -1.8817997   0.12876474    11369.394     1000 
 2704000   0.41090175   -2.4638081   0.61573628   -1.8480718   0.12712787    11385.553     1000 
 2706000   0.42201416   -2.5035839   0.63238822   -1.8711957    0.1326393    11395.926     1000 
 2708000   0.40548119    -2.566359   0.60761356   -1.9587455   0.11441567    11537.087     1000 
 2710000   0.40299575   -2.4923965   0.60388913   -1.8885074   0.13356194    11425.173     1000 
 2712000   0.40592929   -2.5343225   0.60828505   -1.9260375   0.12046249    11466.955     1000 
 2714000   0.39622432   -2.5458311   0.59374214   -1.9520889   0.12890434    11438.507     1000 
 2716000   0.42289883   -2.4692144   0.63371389   -1.8355005   0.13045968    11357.293     1000 
 2718000   0.40596505    -2.509183   0.60833863   -1.9008443   0.13635155    11304.524     1000 
 2720000   0.39629934   -2.5299811   0.59385456   -1.9361266   0.12425754    11494.011     1000 
 2722000   0.42261767   -2.5184718   0.63329258   -1.8851793   0.13913724    11406.943     1000 
 2724000   0.41638371   -2.4879935   0.62395098   -1.8640425   0.13542787    11319.342     1000 
 2726000   0.40462522   -2.5695536    0.6063309   -1.9632227   0.11844776    11490.644     1000 
 2728000   0.40391756   -2.4685855   0.60527047   -1.8633151   0.13371074    11305.433     1000 
 2730000   0.39609488   -2.5108003   0.59354818   -1.9172521   0.11755525    11488.345     1000 
 2732000    0.3915929   -2.4808329   0.58680197    -1.894031   0.11666633    11482.211     1000 
 2734000   0.39328299   -2.5168653   0.58933456   -1.9275308   0.13215958    11398.874     1000 
 2736000   0.40918006   -2.4903953   0.61315632    -1.877239   0.12099815    11411.395     1000 
 2738000   0.41371731   -2.5525856   0.61995539   -1.9326302   0.12945423    11400.534     1000 
 2740000   0.40936668   -2.5113248   0.61343597   -1.8978888   0.13480602    11383.441     1000 
 2742000   0.41668247   -2.5298923   0.62439868   -1.9054936   0.12797746    11451.725     1000 
 2744000   0.42114294   -2.4630368    0.6310827   -1.8319541    0.1357945    11386.016     1000 
 2746000   0.40662446   -2.4965547   0.60932675   -1.8872279   0.13475211    11360.932     1000 
 2748000   0.40671678   -2.5003185   0.60946509   -1.8908534   0.12425589    11441.684     1000 
 2750000    0.3994471   -2.4606094   0.59857148   -1.8620379   0.12271397    11364.839     1000 
 2752000   0.40714875    -2.548373   0.61011241   -1.9382606    0.1270299    11484.708     1000 
 2754000   0.39492191   -2.4661245   0.59179048    -1.874334   0.13455939    11330.038     1000 
 2756000   0.41189406   -2.4851725   0.61722325   -1.8679492   0.12037572    11379.663     1000 
 2758000   0.40400021   -2.5056976   0.60539431   -1.9003033   0.13678013    11431.039     1000 
 2760000   0.42257295   -2.5069604   0.63322556   -1.8737348   0.13517198     11397.23     1000 
 2762000   0.40439765   -2.5089424   0.60598988   -1.9029525   0.12706962    11410.201     1000 
 2764000   0.40083897   -2.5159566   0.60065719   -1.9152994   0.13849027     11322.54     1000 
 2766000   0.40063104   -2.5696958   0.60034561   -1.9693502   0.14395977    11334.441     1000 
 2768000    0.4162866   -2.4912702   0.62380547   -1.8674647   0.13848243    11399.152     1000 
 2770000   0.41623325   -2.5242907   0.62372552   -1.9005652   0.13422931    11419.734     1000 
 2772000   0.40661607   -2.4598364   0.60931418   -1.8505223   0.12701012    11353.501     1000 
 2774000   0.40116713   -2.5017688   0.60114894   -1.9006199   0.13072802    11369.933     1000 
 2776000   0.42561225   -2.4707781   0.63777996   -1.8329981   0.13137469     11367.15     1000 
 2778000   0.42028029   -2.5277077   0.62979001   -1.8979177   0.12184397    11525.739     1000 
 2780000   0.40569651   -2.5257323   0.60793623   -1.9177961   0.12888717    11462.251     1000 
 2782000    0.4025881   -2.4801669   0.60327826   -1.8768886   0.12979523    11375.179     1000 
 2784000    0.4088339   -2.4984268    0.6126376   -1.8857892   0.13261289    11373.257     1000 
 2786000   0.41808207   -2.4723199   0.62649598    -1.845824   0.14128045    11363.524     1000 
 2788000   0.40317208   -2.4871049   0.60415335   -1.8829515   0.13707574    11399.205     1000 
 2790000   0.42451173   -2.4634204   0.63613083   -1.8272896   0.13409096    11462.245     1000 
 2792000   0.40989124   -2.4495353   0.61422202   -1.8353133   0.13906444    11269.889     1000 
 2794000   0.39462972   -2.4762445   0.59135263   -1.8848918   0.12569164    11415.407     1000 
 2796000   0.39352539   -2.5071252   0.58969779   -1.9174274   0.13783802    11408.466     1000 
 2798000   0.40531908   -2.5395323   0.60737063   -1.9321617   0.13083166    11502.299     1000 
 2800000   0.42876083   -2.4772108   0.64249811   -1.8347127   0.12820072     11382.59     1000 
 2802000   0.41423591   -2.4727873   0.62073251   -1.8520548   0.13761553    11314.011     1000 
 2804000   0.41547295   -2.4572108   0.62258621   -1.8346246   0.12276709    11368.786     1000 
 2806000   0.40275416   -2.4509493   0.60352711   -1.8474222   0.14745376    11236.134     1000 
 2808000   0.41899014    -2.519597   0.62785672   -1.8917402   0.13392599    11463.317     1000 
 2810000    0.4126609   -2.5008594   0.61837236    -1.882487   0.12640363    11496.324     1000 
 2812000   0.42023469   -2.4996804   0.62972168   -1.8699587   0.13661569    11305.234     1000 
 2814000   0.40944297   -2.4736639   0.61355028   -1.8601136   0.13491996    11313.763     1000 
 2816000   0.40485655    -2.536251   0.60667754   -1.9295734   0.12277328    11362.442     1000 
 2818000   0.41024275   -2.5516986   0.61474877   -1.9369498   0.13300666    11460.741     1000 
 2820000   0.41838903   -2.5123254   0.62695596   -1.8853695   0.13983867     11321.62     1000 
 2822000   0.39918353   -2.5343586   0.59817651   -1.9361821   0.12123732    11531.159     1000 
 2824000   0.39948048   -2.5235686    0.5986215   -1.9249471   0.13151151    11341.221     1000 
 2826000   0.39702759   -2.5209818   0.59494585    -1.926036   0.11603952    11504.495     1000 
 2828000   0.39989872   -2.4573009   0.59924824   -1.8580526   0.14233832    11257.841     1000 
 2830000   0.40510389   -2.5025675   0.60704818   -1.8955193    0.1311641    11390.098     1000 
 2832000   0.44150226   -2.4823462   0.66159114   -1.8207551   0.12751948    11498.203     1000 
 2834000   0.42298464   -2.5224784   0.63384249   -1.8886359   0.12637229    11519.191     1000 
 2836000   0.41320785   -2.5106174   0.61919197   -1.8914255   0.13507461    11356.448     1000 
 2838000   0.39971615   -2.5155628   0.59897465   -1.9165881   0.12760155    11449.612     1000 
 2840000   0.39571065   -2.5292107   0.59297241   -1.9362383   0.12185412    11505.078     1000 
 2842000   0.40293845   -2.5246592   0.60380326   -1.9208559   0.11797176    11538.381     1000 
 2844000   0.42840196   -2.5221833   0.64196034    -1.880223   0.14426872    11296.731     1000 
 2846000   0.39603784   -2.5212858    0.5934627   -1.9278231   0.11805492    11543.176     1000 
 2848000   0.40985327   -2.5313844   0.61416513   -1.9172192   0.13335801    11371.303     1000 
 2850000    0.4026045   -2.5350098   0.60330284    -1.931707   0.13196929    11383.371     1000 
 2852000   0.42788604   -2.4837289   0.64118723   -1.8425416   0.12465236    11379.891     1000 
 2854000   0.42394302   -2.4672131   0.63527861   -1.8319345   0.12473292     11447.32     1000 
 2856000   0.40818338   -2.4901764   0.61166279   -1.8785136   0.12189671    11412.125     1000 
 2858000   0.42212483   -2.4815592   0.63255406   -1.8490051   0.13233549    11418.715     1000 
 2860000   0.41394717   -2.4957242   0.62029984   -1.8754244   0.13659881    11383.786     1000 
 2862000   0.40855217   -2.5084355   0.61221543     -1.89622   0.12466524    11558.478     1000 
 2864000    0.4020709    -2.473901   0.60250324   -1.8713978    0.1333984    11244.755     1000 
 2866000   0.40032984   -2.4876457   0.59989427   -1.8877514   0.13597237    11376.549     1000 
 2868000     0.415604   -2.5262305    0.6227826   -1.9034479   0.13178063    11380.351     1000 
 2870000   0.41038558   -2.5332869   0.61496278   -1.9183242   0.12684329    11454.319     1000 
 2872000   0.41167358    -2.482722   0.61689286   -1.8658291    0.1244651    11477.259     1000 
 2874000   0.42219071   -2.5193229   0.63265278   -1.8866701   0.12810178     11452.82     1000 
 2876000   0.41152732   -2.5162457   0.61667369    -1.899572   0.13215661    11443.821     1000 
 2878000   0.41560847   -2.4863562    0.6227893   -1.8635669   0.14273676    11285.425     1000 
 2880000   0.41189915   -2.5019093   0.61723088   -1.8846784   0.12645619     11436.54     1000 
 2882000   0.40533291    -2.481903   0.60739136   -1.8745117    0.1246795    11414.168     1000 
 2884000   0.40841984   -2.4588164   0.61201713   -1.8467992   0.12576511    11301.286     1000 
 2886000   0.39582295   -2.4528855   0.59314069   -1.8597448   0.13154343    11390.656     1000 
 2888000   0.41967977   -2.5138622   0.62889013   -1.8849721   0.13377384    11331.153     1000 
 2890000   0.42152561   -2.5052619   0.63165613   -1.8736058   0.11448099    11531.622     1000 
 2892000   0.42054296   -2.5315287   0.63018362   -1.9013451   0.13017733    11404.802     1000 
 2894000   0.42454314   -2.5308128   0.63617789   -1.8946349   0.12552593     11493.41     1000 
 2896000   0.41191976   -2.4989259   0.61726177   -1.8816641   0.13436679    11350.338     1000 
 2898000   0.40324622   -2.4982786   0.60426446   -1.8940141   0.13179311    11352.128     1000 
 2900000   0.40999301   -2.5123526   0.61437452   -1.8979781   0.13642892    11329.588     1000 
 2902000   0.40124812   -2.4689241   0.60127031   -1.8676538   0.13782369    11418.638     1000 
 2904000   0.39954221   -2.4814864     0.598714   -1.8827724   0.12564232    11355.092     1000 
 2906000   0.39981408   -2.4840331    0.5991214   -1.8849117    0.1182901    11402.775     1000 
 2908000   0.40077617   -2.4811861   0.60056309    -1.880623   0.11578254    11485.413     1000 
 2910000   0.40766633   -2.4860631   0.61088799   -1.8751751   0.13799653    11358.831     1000 
 2912000   0.40657228    -2.492689   0.60924857   -1.8834404   0.12885081      11415.8     1000 
 2914000   0.41772182   -2.4483603   0.62595615   -1.8224041   0.13291249    11348.883     1000 
 2916000   0.40901289   -2.4887291   0.61290582   -1.8758233   0.13441663    11423.213     1000 
 2918000   0.40876652   -2.5114004   0.61253662   -1.8988638   0.11336762    11596.081     1000 
 2920000   0.41358795    -2.511595   0.61976154   -1.8918335   0.11745672    11478.487     1000 
 2922000   0.41003472   -2.5054997   0.61443702   -1.8910627   0.12854569    11378.923     1000 
 2924000   0.41203477   -2.4759423    0.6174341   -1.8585082   0.14329101    11313.457     1000 
 2926000   0.39827196   -2.4885993   0.59681053   -1.8917888   0.12375521    11411.626     1000 
 2928000   0.41690832   -2.4876626   0.62473711   -1.8629255   0.12075413    11517.149     1000 
 2930000   0.41397392   -2.5052668   0.62033992   -1.8849269   0.11554914    11524.994     1000 
 2932000    0.4057623   -2.4620539   0.60803481   -1.8540191   0.15231469    11213.122     1000 
 2934000   0.39891193   -2.4758218   0.59776952   -1.8780523   0.13922178    11373.467     1000 
 2936000    0.4180364   -2.5428597   0.62642755   -1.9164321   0.12808989    11469.003     1000 
 2938000   0.39709294   -2.4492299   0.59504376   -1.8541861   0.12528685    11412.051     1000 
 2940000   0.39770589   -2.5186607   0.59596227   -1.9226985   0.12223782     11484.05     1000 
 2942000   0.40628628   -2.5171349      0.60882   -1.9083149   0.13055338    11541.148     1000 
 2944000   0.41653846   -2.4702444   0.62418288   -1.8460615   0.13634381    11360.991     1000 
 2946000   0.38609375   -2.4514215   0.57856148     -1.87286   0.12416458    11348.632     1000 
 2948000   0.41066561    -2.524471   0.61538242   -1.9090886   0.13906984    11384.697     1000 
 2950000   0.41095048   -2.5065013    0.6158093    -1.890692   0.14263867     11232.16     1000 
 2952000   0.39927322   -2.4787414   0.59831091   -1.8804305   0.13083924    11359.267     1000 
 2954000   0.42136066   -2.5094858   0.63140895   -1.8780768   0.13515677    11362.175     1000 
 2956000   0.39093311    -2.514267   0.58581327   -1.9284538    0.1166448    11521.073     1000 
 2958000   0.40410476   -2.5210387   0.60555098   -1.9154877   0.13322879    11401.194     1000 
 2960000   0.42176782   -2.4769277   0.63201908   -1.8449087   0.13416327    11315.821     1000 
 2962000   0.42135957   -2.5329069   0.63140732   -1.9014995    0.1252996    11463.771     1000 
 2964000   0.40050019   -2.4902796   0.60014953   -1.8901301   0.12594569    11360.652     1000 
 2966000   0.42008826   -2.4803219   0.62950226   -1.8508197   0.12591476    11455.316     1000 
 2968000   0.40369268   -2.4541571   0.60493348   -1.8492236    0.1410286    11269.376     1000 
 2970000   0.42242402   -2.4931432   0.63300239   -1.8601408    0.1384478    11350.425     1000 
 2972000   0.43180151    -2.550119   0.64705456   -1.9030644   0.14156406    11431.369     1000 
 2974000   0.40879271    -2.528946   0.61257588   -1.9163701   0.12553013    11436.099     1000 
 2976000    0.4073362   -2.4329425   0.61039329   -1.8225492   0.12990849    11281.973     1000 
 2978000    0.3976063   -2.4793043   0.59581305   -1.8834913   0.13145007    11302.304     1000 
 2980000   0.40465552   -2.4977634    0.6063763   -1.8913871   0.12432827    11393.137     1000 
 2982000   0.41324442   -2.4914895   0.61924676   -1.8722427   0.14564862    11320.792     1000 
 2984000   0.40167744   -2.5005681   0.60191365   -1.8986545   0.14194662    11300.374     1000 
 2986000   0.42904603    -2.486343   0.64292548   -1.8434176   0.13766227    11385.119     1000 
 2988000   0.41787728   -2.5162524   0.62618911   -1.8900633   0.12399462     11411.92     1000 
 2990000   0.40829458   -2.5023805   0.61182942   -1.8905511   0.13778077    11335.091     1000 
 2992000    0.4185791   -2.4954806   0.62724078   -1.8682398   0.14146208    11298.789     1000 
 2994000    0.4088221    -2.512411   0.61261991   -1.8997911   0.13587865    11359.285     1000 
 2996000   0.41379855   -2.4562014   0.62007713   -1.8361243   0.13410223    11326.042     1000 
 2998000     0.429118   -2.5140921   0.64303332   -1.8710587   0.13629052    11426.297     1000 
 3000000   0.40992465   -2.4703765   0.61427209   -1.8561044   0.12135981    11468.952     1000 
Loop time of 1170.49 on 1 procs for 3000000 steps with 1000 atoms

Performance: 1107232.661 tau/day, 2563.039 timesteps/s
100.0% CPU use with 1 MPI tasks x 1 OpenMP threads

MPI task timing breakdown:
Section |  min time  |  avg time  |  max time  |%varavg| %total
---------------------------------------------------------------
Pair    | 922.66     | 922.66     | 922.66     |   0.0 | 78.83
Neigh   | 144.67     | 144.67     | 144.67     |   0.0 | 12.36
Comm    | 24.485     | 24.485     | 24.485     |   0.0 |  2.09
Output  | 0.019074   | 0.019074   | 0.019074   |   0.0 |  0.00
Modify  | 73.278     | 73.278     | 73.278     |   0.0 |  6.26
Other   |            | 5.371      |            |       |  0.46

Nlocal:        1000.00 ave        1000 max        1000 min
Histogram: 1 0 0 0 0 0 0 0 0 0
Nghost:        2189.00 ave        2189 max        2189 min
Histogram: 1 0 0 0 0 0 0 0 0 0
Neighs:        27380.0 ave       27380 max       27380 min
Histogram: 1 0 0 0 0 0 0 0 0 0

Total # of neighbors = 27380
Ave neighs/atom = 27.380000
Neighbor list builds = 150000
Dangerous builds not checked

Total wall time: 0:19:30
