LAMMPS (29 Sep 2021 - Update 2)
OMP_NUM_THREADS environment is not set. Defaulting to 1 thread. (src/comm.cpp:98)
  using 1 OpenMP thread(s) per MPI task
# ----------------------- Inicialização -----------------------

units			lj
atom_style 		atomic
dimension 		3
boundary 		p p p

# -------------------- Criação dos Átomos ---------------------

read_data 		topologia.txt
Reading data file ...
  orthogonal box = (0.0000000 0.0000000 0.0000000) to (21.540000 21.540000 21.540000)
  1 by 1 by 1 MPI processor grid
  reading atoms ...
  1000 atoms
  read_data CPU = 0.002 seconds

velocity 		all create ${temp} 87287 rot yes dist gaussian
velocity 		all create 0.43 87287 rot yes dist gaussian

# ------------------ Interação Interatômica -------------------

pair_style		table linear 1000
pair_coeff		1 1 force.table AA 5.0
WARNING: 2 of 1000 force values in table AA are inconsistent with -dE/dr.
WARNING:  Should only be flagged at inflection points (src/pair_table.cpp:465)
pair_coeff		1 2 force.table AB 5.0
WARNING: 1 of 1000 force values in table AB are inconsistent with -dE/dr.
WARNING:  Should only be flagged at inflection points (src/pair_table.cpp:465)
pair_coeff		2 2 force.table BB 5.0
pair_write		1 1 1000 r 0.008 5.0 table.check AA
Appending to table file table.check with DATE: 2023-07-05
Neighbor list info ...
  update every 1 steps, delay 10 steps, check yes
  max neighbors/atom: 2000, page size: 100000
  master list distance cutoff = 5.3
  ghost atom cutoff = 5.3
  binsize = 2.65, bins = 9 9 9
  1 neighbor lists, perpetual/occasional/extra = 1 0 0
  (1) pair table, perpetual
      attributes: half, newton on
      pair build: half/bin/atomonly/newton
      stencil: half/bin/3d
      bin: standard
pair_write		1 2 1000 r 0.008 5.0 table.check AB
Appending to table file table.check with DATE: 2023-07-05
pair_write		2 2 1000 r 0.008 5.0 table.check BB
Appending to table file table.check with DATE: 2023-07-05

neighbor 		0.3 bin
neigh_modify		every 20 delay 0 check no

# ------------------------- Ensemble --------------------------------------

fix 1			all npt temp ${temp} ${temp} 0.5 iso ${press} ${press} 5
fix 1			all npt temp 0.43 ${temp} 0.5 iso ${press} ${press} 5
fix 1			all npt temp 0.43 0.43 0.5 iso ${press} ${press} 5
fix 1			all npt temp 0.43 0.43 0.5 iso 0.13 ${press} 5
fix 1			all npt temp 0.43 0.43 0.5 iso 0.13 0.13 5

# ---------------------- Função de Distribuição Radial -----------------------

#compute RDF 		all rdf 2000 1 1 1 2 2 2
#fix 2 			all ave/time 1 2000 2000 c_RDF[*] file rdf.data mode vector

# ------------------------- Execução ---------------------------

timestep 		0.005
thermo_style		custom step temp pe ke etotal press vol atoms
thermo			2000
run			3000000
Per MPI rank memory allocation (min/avg/max) = 2.670 | 2.670 | 2.670 Mbytes
Step Temp PotEng KinEng TotEng Press Volume Atoms 
       0         0.43   0.35919964     0.644355    1.0035546   0.93916699    9993.9483     1000 
    2000   0.43888437   -2.4087875   0.65766822   -1.7511192   0.12810927    11486.622     1000 
    4000   0.43869482   -2.3579692   0.65738419    -1.700585   0.12172236    11405.087     1000 
    6000   0.43182248   -2.3864262   0.64708598   -1.7393402   0.13982341    11296.805     1000 
    8000   0.41893264   -2.4716942   0.62777056   -1.8439236   0.12732986    11466.888     1000 
   10000   0.42193161   -2.4386543   0.63226451   -1.8063898   0.13246031    11432.816     1000 
   12000   0.43976592   -2.4226511   0.65898924   -1.7636619   0.11296475      11458.8     1000 
   14000   0.42815912   -2.4332556   0.64159645   -1.7916592   0.11791684     11457.43     1000 
   16000   0.41683315   -2.4004499   0.62462447   -1.7758255   0.13773817     11389.76     1000 
   18000   0.43208933   -2.3808663   0.64748586   -1.7333805   0.14284818    11224.394     1000 
   20000   0.41763255    -2.397386   0.62582238   -1.7715636   0.12227477    11537.817     1000 
   22000   0.43044715   -2.4435404   0.64502505   -1.7985153   0.13427289    11436.628     1000 
   24000   0.44153986   -2.4530668   0.66164749   -1.7914193   0.13440508    11410.802     1000 
   26000   0.44154455   -2.4677272   0.66165452   -1.8060726   0.13582419    11379.231     1000 
   28000   0.45016119   -2.4549973   0.67456655   -1.7804307   0.13011617    11467.937     1000 
   30000    0.4125945   -2.4318658   0.61827286   -1.8135929   0.11569928    11474.563     1000 
   32000   0.43125167   -2.4005995   0.64623063   -1.7543689   0.12162067    11378.108     1000 
   34000   0.43059316   -2.4342266   0.64524385   -1.7889827   0.12917111    11351.334     1000 
   36000   0.46178052   -2.4683044   0.69197811   -1.7763263   0.12136116    11470.966     1000 
   38000   0.43571183   -2.4244604   0.65291418   -1.7715463   0.14097834    11212.568     1000 
   40000   0.45538268   -2.4390853   0.68239094   -1.7566944   0.13951205    11401.561     1000 
   42000   0.44211779   -2.4420229   0.66251351   -1.7795094   0.13435519    11451.146     1000 
   44000   0.43835012   -2.3944807   0.65686765    -1.737613   0.13839475    11270.772     1000 
   46000   0.42527762   -2.4928412   0.63727851   -1.8555627   0.13364266    11416.371     1000 
   48000   0.42583929   -2.4043998   0.63812018   -1.7662796   0.13650208    11367.899     1000 
   50000    0.4241241   -2.4231881   0.63554996   -1.7876382   0.13698428    11271.863     1000 
   52000   0.42514159   -2.4292041   0.63707467   -1.7921294   0.13465863    11309.948     1000 
   54000   0.43608328   -2.4636564    0.6534708   -1.8101856    0.1371581    11422.314     1000 
   56000   0.42158729   -2.4438366   0.63174856    -1.812088   0.12516661    11391.556     1000 
   58000   0.42998396   -2.4216936   0.64433097   -1.7773626   0.13377205    11355.012     1000 
   60000   0.43448209   -2.4064127    0.6510714   -1.7553413   0.12652268    11417.332     1000 
   62000    0.4586979   -2.4610795    0.6873588   -1.7737207   0.13455918    11453.645     1000 
   64000   0.41206087   -2.4153778   0.61747322   -1.7979046   0.13713038    11431.929     1000 
   66000   0.43592505   -2.3878742   0.65323369   -1.7346405   0.14106117    11317.131     1000 
   68000   0.42759202   -2.4791427   0.64074664   -1.8383961    0.1230301    11493.115     1000 
   70000   0.42870076   -2.4024052   0.64240809   -1.7599971   0.13260309    11433.298     1000 
   72000   0.42322676   -2.4598096    0.6342053   -1.8256043    0.1288262    11372.962     1000 
   74000    0.4278665   -2.4547367   0.64115795   -1.8135787   0.13494235    11293.459     1000 
   76000   0.43452873   -2.4211541   0.65114131   -1.7700127   0.11789037    11433.176     1000 
   78000   0.41475568   -2.4592487   0.62151138   -1.8377373   0.12403206    11466.355     1000 
   80000   0.43737043   -2.4064982   0.65539959   -1.7510986   0.12937799    11356.349     1000 
   82000   0.42279518   -2.3850704   0.63355858   -1.7515118   0.14084982    11265.939     1000 
   84000   0.43008087   -2.4337128   0.64447619   -1.7892366    0.1152622    11590.279     1000 
   86000    0.4340559   -2.4377218   0.65043276   -1.7872891   0.14020401    11298.886     1000 
   88000    0.3999444   -2.4216269   0.59931668   -1.8223102   0.13044221    11389.415     1000 
   90000    0.4453314   -2.4529401    0.6673291    -1.785611   0.13429814    11368.741     1000 
   92000   0.44478307   -2.4439634   0.66650743    -1.777456   0.13076801    11400.332     1000 
   94000   0.41131235   -2.4815488   0.61635155   -1.8651972   0.12909647    11374.211     1000 
   96000   0.45881492   -2.4697145   0.68753416   -1.7821803   0.14986835    11399.395     1000 
   98000   0.45111813   -2.4359704   0.67600052   -1.7599699   0.13198963    11310.901     1000 
  100000   0.42705305    -2.441119   0.63993899     -1.80118   0.12552832    11530.507     1000 
  102000   0.42953311   -2.4033364   0.64365537    -1.759681   0.13090119    11372.929     1000 
  104000   0.42283364   -2.3638557   0.63361621   -1.7302395   0.12533201     11360.62     1000 
  106000   0.41390359   -2.3428896   0.62023453   -1.7226551   0.12529036    11293.051     1000 
  108000   0.41501768   -2.4391827   0.62190399   -1.8172787   0.13814763    11349.508     1000 
  110000   0.42303397   -2.4713704    0.6339164    -1.837454   0.12621403    11445.424     1000 
  112000   0.43470098   -2.4682412   0.65139942   -1.8168418   0.12736912    11457.127     1000 
  114000   0.41638696   -2.4249067   0.62395585   -1.8009509   0.12581623     11415.55     1000 
  116000   0.43053579   -2.4048486   0.64515788   -1.7596907   0.13057694    11251.681     1000 
  118000   0.44180322     -2.43288   0.66204212   -1.7708379   0.12900164    11451.827     1000 
  120000   0.43508122   -2.4172291    0.6519692   -1.7652599   0.13700142    11277.921     1000 
  122000   0.42767708   -2.5057137   0.64087411   -1.8648396   0.11364936    11558.321     1000 
  124000   0.43402657   -2.4501523   0.65038882   -1.7997635   0.13500699    11392.211     1000 
  126000    0.4147389   -2.4188482   0.62148624    -1.797362   0.13468579    11331.248     1000 
  128000   0.44581082   -2.4144635   0.66804752    -1.746416   0.12683155    11466.408     1000 
  130000   0.42744064   -2.4403322   0.64051979   -1.7998124   0.11949253    11439.582     1000 
  132000    0.4398752   -2.4478187   0.65915299   -1.7886657   0.12877334    11442.346     1000 
  134000   0.43798503   -2.4304164   0.65632057   -1.7740958   0.12528518    11458.413     1000 
  136000   0.41660829   -2.4244161   0.62428752   -1.8001285   0.13613193     11222.37     1000 
  138000   0.44220253   -2.4124579   0.66264049   -1.7498174   0.11900626     11536.03     1000 
  140000   0.41947665   -2.4223884   0.62858576   -1.7938027     0.122249    11451.065     1000 
  142000   0.44530074   -2.4646318   0.66728315   -1.7973487   0.12521424    11381.428     1000 
  144000   0.43114499   -2.4520793   0.64607077   -1.8060086   0.13626036    11539.489     1000 
  146000   0.42170605   -2.4149883   0.63192651   -1.7830618   0.12143085    11505.889     1000 
  148000   0.41442354   -2.4114582   0.62101368   -1.7904445   0.13890028    11338.854     1000 
  150000   0.40903214   -2.4322462   0.61293466   -1.8193116   0.14366711    11263.835     1000 
  152000   0.43743313    -2.450532   0.65549355   -1.7950385   0.12474762    11387.883     1000 
  154000   0.42557754   -2.4432897   0.63772795   -1.8055618   0.12480413    11438.099     1000 
  156000   0.43218452   -2.4494215    0.6476285    -1.801793   0.12548095      11426.6     1000 
  158000   0.40944223   -2.4882426   0.61354918   -1.8746934   0.12678005    11434.619     1000 
  160000   0.41317969   -2.4600943   0.61914976   -1.8409445   0.12561264    11464.092     1000 
  162000    0.4312399   -2.4103256   0.64621299   -1.7641126   0.13468535    11235.436     1000 
  164000    0.4205651   -2.4143736   0.63021681   -1.7841568   0.14189541    11259.352     1000 
  166000   0.42347057   -2.4505281   0.63457065   -1.8159574   0.12699419    11490.505     1000 
  168000   0.42442335   -2.4360421    0.6359984   -1.8000437   0.13093306     11255.23     1000 
  170000   0.41602489   -2.4677261    0.6234133   -1.8443128   0.12391044    11556.197     1000 
  172000   0.42199242   -2.3946736   0.63235564   -1.7623179   0.13476781    11444.396     1000 
  174000   0.43631947   -2.4290768   0.65382473   -1.7752521   0.12676596    11501.962     1000 
  176000   0.43311739   -2.4148462   0.64902641   -1.7658198   0.12089193      11504.5     1000 
  178000   0.44562598    -2.445392   0.66777052   -1.7776215   0.14262151    11274.191     1000 
  180000   0.40800774   -2.4195332   0.61139959   -1.8081336   0.12754126    11429.457     1000 
  182000   0.42966118   -2.4269185   0.64384728   -1.7830712   0.12999988    11361.237     1000 
  184000   0.41919233   -2.4316598   0.62815971   -1.8035001   0.11242306    11674.894     1000 
  186000    0.4302574    -2.379283   0.64474071   -1.7345423   0.13741587    11220.639     1000 
  188000   0.43093666   -2.4238181   0.64575858   -1.7780595   0.13645468    11336.487     1000 
  190000   0.43587332   -2.4059748   0.65315618   -1.7528186   0.13551921    11332.049     1000 
  192000   0.41794121   -2.4656703    0.6262849   -1.8393854   0.12741773    11302.895     1000 
  194000   0.43824506   -2.3876433   0.65671021   -1.7309331    0.1378949    11328.788     1000 
  196000   0.43597269   -2.4830542   0.65330508   -1.8297491   0.12613802    11427.236     1000 
  198000   0.41045454   -2.3824844   0.61506613   -1.7674182   0.14185889    11263.511     1000 
  200000   0.43583802   -2.4392101   0.65310327   -1.7861069   0.12990286    11378.648     1000 
  202000   0.43762835   -2.4651121   0.65578608    -1.809326   0.13547817     11386.74     1000 
  204000   0.43260635   -2.4599122   0.64826062   -1.8116516   0.12527233    11469.655     1000 
  206000   0.44540708   -2.4235049   0.66744252   -1.7560624   0.12586215    11348.433     1000 
  208000   0.42679488   -2.4935397   0.63955213   -1.8539875   0.13070294    11367.431     1000 
  210000   0.43848735   -2.4592185    0.6570733   -1.8021452   0.11832743    11495.382     1000 
  212000   0.43839543   -2.4288755   0.65693555     -1.77194   0.12528428    11500.985     1000 
  214000   0.42734285   -2.4249588   0.64037326   -1.7845855   0.13720829    11389.705     1000 
  216000   0.42085384   -2.4727068   0.63064948   -1.8420574   0.12028184    11422.386     1000 
  218000   0.42130116   -2.4505951   0.63131978   -1.8192753   0.14486419    11319.014     1000 
  220000   0.42310513   -2.4267231   0.63402303   -1.7927001   0.13340849    11400.193     1000 
  222000   0.42791688   -2.4526612   0.64123344   -1.8114278   0.12817909    11376.598     1000 
  224000   0.42709976   -2.4490389   0.64000899     -1.80903   0.12975444    11427.873     1000 
  226000   0.44288231   -2.3988645   0.66365914   -1.7352054   0.13875269    11225.887     1000 
  228000   0.44101789   -2.4715854    0.6608653   -1.8107201     0.134147    11324.333     1000 
  230000   0.43495833   -2.4310342   0.65178505   -1.7792491   0.13568685    11343.719     1000 
  232000   0.44024842   -2.4567203   0.65971225   -1.7970081   0.13979735    11415.201     1000 
  234000   0.43052159   -2.4338871    0.6451366   -1.7887505   0.12555572     11450.19     1000 
  236000   0.42721376   -2.3763932   0.64017982   -1.7362133    0.1348753    11337.333     1000 
  238000   0.42724145   -2.4063066   0.64022132   -1.7660853   0.13968613    11306.505     1000 
  240000   0.43603076   -2.4499214   0.65339209   -1.7965293    0.1375368    11456.115     1000 
  242000   0.42418034   -2.4330332   0.63563424   -1.7973989   0.11794234    11468.428     1000 
  244000   0.43124046   -2.4040739   0.64621383     -1.75786   0.13092252    11319.011     1000 
  246000   0.42374451   -2.4911838   0.63498115   -1.8562026   0.13515618    11357.838     1000 
  248000   0.43316594   -2.4632641   0.64909916    -1.814165   0.12807975    11363.286     1000 
  250000   0.43455287   -2.4341004   0.65117748   -1.7829229   0.13607512    11314.964     1000 
  252000   0.42410638   -2.4340253   0.63552342   -1.7985019    0.1228177     11492.88     1000 
  254000   0.42233364   -2.4212788   0.63286695   -1.7884119   0.12537879    11403.526     1000 
  256000   0.42232349   -2.3979346   0.63285175   -1.7650828   0.12513676    11373.051     1000 
  258000   0.43839677   -2.4791711   0.65693756   -1.8222335   0.11903164    11582.817     1000 
  260000   0.42755225   -2.4974619   0.64068705   -1.8567749   0.13075419    11493.785     1000 
  262000   0.42619708   -2.4485286   0.63865632   -1.8098723   0.13149707    11446.052     1000 
  264000   0.41483693   -2.3927425   0.62163314   -1.7711093   0.12743548    11510.567     1000 
  266000   0.43546659   -2.4442174   0.65254668   -1.7916707   0.14376565    11317.156     1000 
  268000    0.4353255    -2.381951   0.65233526   -1.7296158   0.14144988    11175.836     1000 
  270000   0.43618033   -2.4392732   0.65361623    -1.785657   0.12253362    11460.882     1000 
  272000   0.43081975   -2.4490721    0.6455834   -1.8034887   0.11622201    11401.878     1000 
  274000   0.43095488    -2.444084   0.64578588   -1.7982981   0.11584036    11518.873     1000 
  276000   0.42825061   -2.4098486   0.64173354    -1.768115   0.12234686    11381.332     1000 
  278000   0.40671307   -2.4267477   0.60945954   -1.8172882   0.11748579    11561.329     1000 
  280000   0.41219193   -2.4229841    0.6176696   -1.8053145   0.12074879    11426.566     1000 
  282000   0.43312793   -2.4380677    0.6490422   -1.7890255   0.12840085    11389.169     1000 
  284000   0.43791932   -2.4263001    0.6562221    -1.770078    0.1370281    11290.437     1000 
  286000   0.43035518   -2.4180483   0.64488724   -1.7731611   0.13285102    11410.237     1000 
  288000   0.44416204   -2.4563005   0.66557682   -1.7907237   0.14270691    11283.585     1000 
  290000   0.42678898   -2.4467356   0.63954329   -1.8071923   0.12476702    11398.554     1000 
  292000   0.42019645   -2.3942644   0.62966438   -1.7646001   0.12960819    11269.991     1000 
  294000   0.42027858   -2.4736848   0.62978745   -1.8438974   0.12657441    11468.738     1000 
  296000   0.44870373   -2.4210617   0.67238253   -1.7486791   0.13551426    11323.399     1000 
  298000   0.44129542   -2.4133267   0.66128118   -1.7520455   0.13039768    11473.754     1000 
  300000   0.43464043   -2.5057836   0.65130868   -1.8544749   0.14482625    11350.804     1000 
  302000   0.41760689   -2.4446305   0.62578393   -1.8188465   0.13013232      11409.8     1000 
  304000   0.42119737   -2.4369887   0.63116425   -1.8058244    0.1356367    11392.258     1000 
  306000   0.43718036   -2.4758681   0.65511477   -1.8207533   0.13504618    11544.651     1000 
  308000    0.4173061    -2.408118    0.6253332   -1.7827848   0.12754486    11301.915     1000 
  310000   0.43490493   -2.3882542   0.65170505   -1.7365491    0.1318281    11358.705     1000 
  312000   0.43347035   -2.3794397   0.64955531   -1.7298844   0.12744584     11262.32     1000 
  314000   0.40669775   -2.4204237   0.60943658   -1.8109872    0.1336574    11395.531     1000 
  316000   0.41367477   -2.4464346   0.61989164   -1.8265429   0.13850538    11396.052     1000 
  318000   0.45368108   -2.4726731    0.6798411    -1.792832   0.13031489    11414.964     1000 
  320000   0.42094083    -2.456651   0.63077983   -1.8258712   0.13272603    11367.856     1000 
  322000   0.44379852   -2.4704358   0.66503209   -1.8054037   0.11777328    11582.306     1000 
  324000   0.43622037   -2.4168802   0.65367623    -1.763204   0.13158526    11382.364     1000 
  326000   0.45145245   -2.4598564   0.67650149   -1.7833549   0.13188294    11444.987     1000 
  328000   0.43428467   -2.4770259   0.65077558   -1.8262503   0.13811309    11403.265     1000 
  330000   0.43598551   -2.4517626   0.65332429   -1.7984383    0.1291227    11356.999     1000 
  332000   0.45489701    -2.426823   0.68166317   -1.7451598   0.12545298    11516.605     1000 
  334000   0.43941715   -2.4255389   0.65846659   -1.7670723    0.1412845    11384.913     1000 
  336000   0.44202475   -2.4209273   0.66237409   -1.7585532   0.13105709     11451.67     1000 
  338000   0.43538209   -2.4470293   0.65242006   -1.7946092   0.12278913    11410.394     1000 
  340000   0.43674916   -2.4347466   0.65446861    -1.780278   0.11991364    11504.891     1000 
  342000   0.41790913   -2.3962218   0.62623684    -1.769985   0.12754246    11442.077     1000 
  344000   0.42474649    -2.435958   0.63648261   -1.7994753   0.12323952    11381.436     1000 
  346000   0.43967276   -2.3947502   0.65884962   -1.7359006   0.13557333    11216.704     1000 
  348000    0.4415829   -2.4214631   0.66171197   -1.7597511   0.11801446    11349.261     1000 
  350000   0.42814408   -2.4448126   0.64157391   -1.8032387   0.13749324    11304.374     1000 
  352000   0.41950513   -2.4608052   0.62862844   -1.8321768   0.12195452    11511.442     1000 
  354000   0.44076482   -2.4405542   0.66048608   -1.7800681   0.12865696    11250.539     1000 
  356000   0.40980881   -2.4439735   0.61409851    -1.829875   0.13831099    11299.522     1000 
  358000   0.43809161   -2.4392198   0.65648028   -1.7827395   0.11092413    11521.959     1000 
  360000   0.41877943   -2.4966857   0.62754098   -1.8691447   0.12646001    11389.899     1000 
  362000   0.42275689   -2.4362767   0.63350121   -1.8027755    0.1446265    11342.857     1000 
  364000   0.43543231   -2.4493379   0.65249532   -1.7968426   0.13393162    11327.852     1000 
  366000   0.43714441   -2.4028988   0.65506089   -1.7478379   0.12773627    11300.325     1000 
  368000    0.4311526   -2.4864749   0.64608217   -1.8403927   0.13856852    11413.848     1000 
  370000   0.40917577   -2.3912202    0.6131499   -1.7780704   0.12852627    11420.159     1000 
  372000   0.44682128   -2.4561185   0.66956168   -1.7865568   0.12525166    11459.524     1000 
  374000   0.43584822   -2.4357853   0.65311855   -1.7826667   0.12883889    11501.244     1000 
  376000    0.4241196    -2.444503   0.63554323   -1.8089598   0.13030804    11379.233     1000 
  378000   0.45209337   -2.4113806   0.67746191   -1.7339187   0.12988292    11385.419     1000 
  380000   0.44328327   -2.4513649   0.66425997   -1.7871049   0.13229572    11442.904     1000 
  382000   0.43476863   -2.4823237    0.6515008   -1.8308229   0.12113278    11616.558     1000 
  384000   0.40967118   -2.4545079   0.61389226   -1.8406156   0.12587013    11428.446     1000 
  386000   0.42368873   -2.4394229   0.63489756   -1.8045254   0.13752244    11369.654     1000 
  388000   0.42667263   -2.4353359   0.63936894   -1.7959669   0.11919632    11388.172     1000 
  390000   0.43349156   -2.3925024    0.6495871   -1.7429153   0.12962297    11391.185     1000 
  392000   0.44423372   -2.4369148   0.66568423   -1.7712306   0.13652561    11389.168     1000 
  394000   0.42203277   -2.4451894   0.63241611   -1.8127733    0.1193903    11535.707     1000 
  396000   0.42953914   -2.4223579   0.64366441   -1.7786935    0.1299965    11314.594     1000 
  398000   0.42088453   -2.3792663   0.63069546   -1.7485709   0.14024404    11362.258     1000 
  400000   0.44338936   -2.4302805   0.66441895   -1.7658615   0.12886524    11398.185     1000 
  402000   0.43120614   -2.4452713    0.6461624   -1.7991089   0.13442027    11379.964     1000 
  404000   0.41773131   -2.4050258   0.62597037   -1.7790554    0.1210535    11435.453     1000 
  406000   0.43407944   -2.3831244   0.65046804   -1.7326563   0.13670576    11258.519     1000 
  408000   0.42168976   -2.3968053   0.63190211   -1.7649032   0.14319844    11317.627     1000 
  410000   0.42439184   -2.4728983   0.63595117   -1.8369471   0.13655663    11351.111     1000 
  412000   0.41996149   -2.3860875    0.6293123   -1.7567752   0.12781229    11351.715     1000 
  414000   0.42347285   -2.4433869   0.63457407   -1.8088128   0.13980092    11263.419     1000 
  416000   0.43906594   -2.4188211   0.65794031   -1.7608808   0.13644366    11433.866     1000 
  418000   0.43394524   -2.4574215   0.65026695   -1.8071546   0.12128534    11421.856     1000 
  420000   0.42167499   -2.4608092   0.63187997   -1.8289292   0.13195448    11439.673     1000 
  422000   0.43744316   -2.3992399   0.65550858   -1.7437313   0.13899811    11356.571     1000 
  424000   0.43520573   -2.4913657   0.65215578   -1.8392099   0.13127266    11427.605     1000 
  426000   0.42438402   -2.4632501   0.63593945   -1.8273107   0.12143424    11353.424     1000 
  428000   0.45247015   -2.4656997   0.67802652   -1.7876732   0.12794708    11444.207     1000 
  430000     0.441424   -2.4375237   0.66147386   -1.7760498   0.13394543    11398.147     1000 
  432000   0.44227575   -2.4239774   0.66275022   -1.7612272   0.13088276    11377.884     1000 
  434000   0.43129401   -2.4155651   0.64629407    -1.769271   0.12416862    11454.187     1000 
  436000   0.43388476   -2.3875967   0.65017631   -1.7374204   0.12735754    11364.064     1000 
  438000   0.41865846   -2.4015585    0.6273597   -1.7741988   0.13221063    11349.406     1000 
  440000   0.41120521   -2.4181422   0.61619101   -1.8019512   0.12422854    11418.202     1000 
  442000   0.42909844    -2.415167   0.64300401    -1.772163    0.1301009    11376.926     1000 
  444000   0.42448001   -2.4024691    0.6360833   -1.7663858   0.13874749    11301.443     1000 
  446000   0.43322743   -2.4686142    0.6491913   -1.8194229   0.11947692    11489.733     1000 
  448000   0.43527937   -2.4094562   0.65226614   -1.7571901   0.13733619    11315.732     1000 
  450000   0.41211901   -2.4205386   0.61756034   -1.8029783   0.13323252    11351.528     1000 
  452000   0.43628693   -2.4192464   0.65377597   -1.7654704    0.1395491    11348.829     1000 
  454000    0.4331877   -2.4477658   0.64913177    -1.798634   0.11875502    11504.631     1000 
  456000   0.42906401   -2.4104235   0.64295242   -1.7674711    0.1401423    11377.577     1000 
  458000   0.43736117   -2.4453724   0.65538571   -1.7899867   0.12428292    11395.026     1000 
  460000   0.44232376   -2.4063527   0.66282216   -1.7435305   0.12245155    11292.183     1000 
  462000   0.42548033   -2.4305037   0.63758227   -1.7929214   0.12624682    11442.486     1000 
  464000   0.43671765   -2.4338921   0.65442139   -1.7794707   0.12572011    11426.382     1000 
  466000   0.43190801   -2.4108063   0.64721415   -1.7635922   0.13945593    11259.062     1000 
  468000   0.42165352   -2.4611216    0.6318478   -1.8292738   0.13514979    11370.899     1000 
  470000   0.42799142   -2.3647639   0.64134515   -1.7234187   0.12473567    11379.714     1000 
  472000   0.42622993   -2.4370024   0.63870555   -1.7982969   0.12215252    11529.779     1000 
  474000   0.42490666   -2.4299403   0.63672263   -1.7932177   0.12458531    11422.235     1000 
  476000   0.42322206    -2.420156   0.63419826   -1.7859577   0.12590845    11354.272     1000 
  478000   0.42637212    -2.464919   0.63891862   -1.8260004   0.13133723    11342.166     1000 
  480000   0.42901042   -2.4301551   0.64287212    -1.787283   0.14407463    11221.857     1000 
  482000   0.43426562   -2.4304315   0.65074703   -1.7796845   0.13508403    11425.134     1000 
  484000   0.44188131   -2.4380746   0.66215914   -1.7759154   0.14338093    11247.478     1000 
  486000   0.41267767   -2.4340135   0.61839749    -1.815616   0.12577421    11332.824     1000 
  488000   0.44822294   -2.4652811   0.67166207    -1.793619    0.1339056    11410.187     1000 
  490000   0.41213639   -2.4289608   0.61758638   -1.8113745    0.1414436    11229.072     1000 
  492000   0.43019956   -2.3770376   0.64465405   -1.7323836   0.13233343    11229.623     1000 
  494000     0.412149   -2.4406139   0.61760528   -1.8230086   0.12724029    11379.941     1000 
  496000   0.43688028   -2.4793987    0.6546651   -1.8247336   0.11771478    11590.206     1000 
  498000   0.41624668   -2.5018441   0.62374565   -1.8780985   0.12559107    11489.443     1000 
  500000    0.4454189   -2.4250954   0.66746022   -1.7576351   0.13691178    11385.109     1000 
  502000   0.44046824   -2.4222371   0.66004165   -1.7621955   0.13155919    11272.814     1000 
  504000   0.44003496   -2.4079804   0.65939239    -1.748588   0.12400139    11384.166     1000 
  506000   0.42016336   -2.4409292   0.62961479   -1.8113144   0.12784099    11419.181     1000 
  508000   0.44246607   -2.4381785   0.66303541   -1.7751431   0.12674287    11417.698     1000 
  510000   0.42879861   -2.4194303   0.64255472   -1.7768756   0.13992674    11396.447     1000 
  512000   0.42823205   -2.4630467   0.64170573   -1.8213409   0.12975666     11388.77     1000 
  514000   0.41355393   -2.4273673   0.61971056   -1.8076567   0.12488335    11370.815     1000 
  516000   0.43937652     -2.45112   0.65840572   -1.7927143    0.1212624     11487.47     1000 
  518000   0.43705886   -2.4388324    0.6549327   -1.7838997     0.124406    11443.625     1000 
  520000   0.40955908   -2.4186161   0.61372428   -1.8048918   0.11987701    11264.765     1000 
  522000   0.46031153   -2.4217379   0.68977683   -1.7319611   0.13280456    11334.382     1000 
  524000   0.43866415   -2.4174592   0.65733822    -1.760121   0.13275388    11337.823     1000 
  526000   0.41883348   -2.4165052   0.62762197   -1.7888833   0.13364979    11372.023     1000 
  528000   0.43481235   -2.3997742   0.65156631   -1.7482079   0.14444958    11264.519     1000 
  530000   0.41753063   -2.4164817   0.62566964    -1.790812   0.13269766    11359.086     1000 
  532000   0.42715171    -2.422223   0.64008684   -1.7821362   0.12838931    11336.707     1000 
  534000   0.42565056   -2.3925451   0.63783736   -1.7547077   0.14144661    11133.291     1000 
  536000   0.44078282   -2.4378008   0.66051305   -1.7772877   0.13988373    11304.346     1000 
  538000   0.43313997   -2.4080792   0.64906025    -1.759019   0.13782226    11419.009     1000 
  540000   0.43658819   -2.4183794   0.65422741    -1.764152   0.13201879    11431.319     1000 
  542000   0.42851528   -2.4463095   0.64213014   -1.8041794   0.14358382     11308.41     1000 
  544000   0.42930083    -2.428542    0.6433073   -1.7852347   0.12139576    11489.017     1000 
  546000   0.41682098   -2.4128848   0.62460623   -1.7882785    0.1354392    11295.428     1000 
  548000   0.44246851   -2.4302879   0.66303907   -1.7672488    0.1494018    11338.971     1000 
  550000   0.42607732   -2.3738471   0.63847687   -1.7353702   0.15572927    11211.973     1000 
  552000   0.43424877   -2.4209982   0.65072178   -1.7702764   0.13242832    11359.594     1000 
  554000   0.42428986   -2.4833892   0.63579835   -1.8475909   0.12067541    11508.668     1000 
  556000   0.42110584   -2.4436466    0.6310271   -1.8126195    0.1340975    11340.993     1000 
  558000   0.43617437   -2.4316024   0.65360729   -1.7779951    0.1355602    11454.519     1000 
  560000   0.43231788   -2.4713854   0.64782834   -1.8235571   0.12263831     11342.31     1000 
  562000   0.43445585   -2.3969862   0.65103208   -1.7459541    0.1458577    11116.285     1000 
  564000   0.44236672    -2.378244   0.66288652   -1.7153575    0.1314946    11389.043     1000 
  566000   0.44195397   -2.4462469   0.66226802   -1.7839789   0.12494265    11419.962     1000 
  568000   0.42608101    -2.447151   0.63848239   -1.8086687    0.1581887    11187.739     1000 
  570000    0.4235332   -2.4097219    0.6346645   -1.7750574   0.13432579    11314.234     1000 
  572000    0.4383431   -2.4627295   0.65685714   -1.8058723   0.12818285     11303.35     1000 
  574000   0.43364925   -2.4480894    0.6498234    -1.798266   0.12112142    11390.876     1000 
  576000   0.43378867   -2.3841841   0.65003232   -1.7341518   0.12837937    11308.267     1000 
  578000   0.43859969   -2.4174277   0.65724163    -1.760186   0.12646161    11419.896     1000 
  580000   0.43186922   -2.3917054   0.64715603   -1.7445494   0.12945562    11352.867     1000 
  582000    0.4335335   -2.4330594   0.64964995   -1.7834094   0.13663709    11480.559     1000 
  584000   0.43662204   -2.4049426   0.65427813   -1.7506645    0.1265948    11350.676     1000 
  586000   0.41845204   -2.4220423   0.62705038   -1.7949919   0.14319151    11371.283     1000 
  588000   0.44544747   -2.4370363   0.66750303   -1.7695333   0.13345373    11358.808     1000 
  590000   0.42581167   -2.3985109   0.63807879   -1.7604321   0.12783746    11474.802     1000 
  592000   0.42722405   -2.4378402   0.64019524   -1.7976449   0.12098012    11443.358     1000 
  594000   0.42470045   -2.4410896   0.63641362    -1.804676   0.14595695    11190.228     1000 
  596000    0.4430429   -2.4015504   0.66389979   -1.7376506   0.12212736     11378.13     1000 
  598000   0.43742934   -2.3778273   0.65548786   -1.7223395   0.13622164    11323.297     1000 
  600000   0.43144222   -2.3667897   0.64651617   -1.7202735   0.12585684    11429.933     1000 
  602000   0.44759761   -2.4072683   0.67072502   -1.7365433   0.13513706    11325.838     1000 
  604000   0.43762442   -2.4605209    0.6557802   -1.8047407   0.12954549    11511.662     1000 
  606000   0.43571221   -2.4610871   0.65291474   -1.8081724    0.1327461     11430.13     1000 
  608000   0.41549299   -2.4251955   0.62261624   -1.8025793   0.12473483    11384.714     1000 
  610000   0.45114699   -2.4156228   0.67604377    -1.739579   0.13267545     11376.14     1000 
  612000   0.44692545   -2.4077263   0.66971778   -1.7380085   0.12311273    11399.591     1000 
  614000   0.42220213   -2.4511224   0.63266989   -1.8184525   0.13153207    11343.782     1000 
  616000   0.42091803   -2.4421565   0.63074567   -1.8114109   0.12294198    11481.892     1000 
  618000    0.4216978   -2.4240669   0.63191416   -1.7921527   0.12937942    11328.901     1000 
  620000   0.42127284   -2.4392751   0.63127735   -1.8079978   0.13349892     11351.06     1000 
  622000   0.43717422   -2.4156353   0.65510557   -1.7605298   0.13168319    11371.455     1000 
  624000    0.4407907   -2.4354638   0.66052487   -1.7749389   0.12971366    11363.399     1000 
  626000   0.42087818   -2.3950601   0.63068596   -1.7643741   0.12101411    11352.767     1000 
  628000   0.44334754   -2.4475552   0.66435629   -1.7831989    0.1271223    11500.242     1000 
  630000   0.41454853   -2.4222338   0.62120097   -1.8010328   0.12900344    11255.006     1000 
  632000   0.42114028   -2.4657657    0.6310787    -1.834687   0.15714801    11227.387     1000 
  634000   0.42945923   -2.4436832   0.64354466   -1.8001386   0.13179995    11380.808     1000 
  636000   0.40646955   -2.4280957   0.60909462   -1.8190011    0.1305886    11341.029     1000 
  638000   0.43921851   -2.3810339   0.65816893    -1.722865   0.13685231    11340.539     1000 
  640000   0.41956275   -2.3911337   0.62871477   -1.7624189   0.13462347    11352.075     1000 
  642000   0.43034623   -2.3955997   0.64487383   -1.7507258   0.12832226    11448.849     1000 
  644000    0.4302403   -2.4302305   0.64471509   -1.7855154    0.1283903    11354.719     1000 
  646000   0.42339986   -2.4217367   0.63446469    -1.787272   0.13997808     11181.96     1000 
  648000   0.44160497    -2.412807   0.66174505    -1.751062   0.12928145    11356.678     1000 
  650000    0.4256163    -2.346378   0.63778603    -1.708592   0.13291191    11100.379     1000 
  652000   0.43331013   -2.4154807   0.64931523   -1.7661655   0.12446231    11417.613     1000 
  654000   0.44429057   -2.3985032   0.66576942   -1.7327337   0.12784606     11310.65     1000 
  656000   0.43542954   -2.4124616   0.65249116   -1.7599705   0.11568894    11421.855     1000 
  658000   0.41417823   -2.4191032   0.62064608   -1.7984572   0.13024924    11271.347     1000 
  660000   0.43176632   -2.4407575   0.64700183   -1.7937557   0.14161718    11242.828     1000 
  662000   0.44155195   -2.4455398    0.6616656   -1.7838742    0.1170818    11474.083     1000 
  664000   0.43277058   -2.4303319   0.64850671   -1.7818252   0.12696052    11407.464     1000 
  666000   0.43587837   -2.4202259   0.65316374   -1.7670622   0.13640632    11317.955     1000 
  668000   0.44385455   -2.4413126   0.66511605   -1.7761966   0.12400668    11506.111     1000 
  670000    0.4339191   -2.3988142   0.65022777   -1.7485864   0.12685685    11386.084     1000 
  672000   0.42300292   -2.4372657   0.63386988   -1.8033959   0.13153348    11279.061     1000 
  674000    0.4220004   -2.4272049    0.6323676   -1.7948373   0.11989752    11410.662     1000 
  676000   0.43424306   -2.4116889   0.65071322   -1.7609757   0.13716456    11242.622     1000 
  678000   0.44309675   -2.4450224   0.66398048   -1.7810419    0.1290936    11442.138     1000 
  680000   0.42846966   -2.4556505   0.64206178   -1.8135887   0.12969947    11460.631     1000 
  682000   0.43088173   -2.4071387   0.64567628   -1.7614624   0.13839296    11351.683     1000 
  684000   0.42140579   -2.4031011   0.63147658   -1.7716245   0.12975795    11444.142     1000 
  686000   0.42605166   -2.3693262   0.63843841   -1.7308878   0.13379341    11314.155     1000 
  688000   0.43691944   -2.4309918   0.65472379    -1.776268   0.12370943    11482.463     1000 
  690000   0.40411593   -2.4338574   0.60556773   -1.8282897   0.12994355    11301.163     1000 
  692000   0.42349212    -2.449259   0.63460295    -1.814656   0.12111049    11410.997     1000 
  694000    0.4623593   -2.4240667   0.69284542   -1.7312213   0.13770199    11315.883     1000 
  696000   0.42353057   -2.4619561   0.63466057   -1.8272956    0.1238473    11427.352     1000 
  698000   0.43288982   -2.4658256   0.64868539   -1.8171402   0.12901657    11367.713     1000 
  700000    0.4214527   -2.4161657   0.63154688   -1.7846188   0.12368199    11305.355     1000 
  702000    0.4137709   -2.4769545   0.62003569   -1.8569188   0.13832655    11339.301     1000 
  704000   0.41766217   -2.4469204   0.62586676   -1.8210536   0.13107434     11412.11     1000 
  706000    0.4136255   -2.4348794   0.61981781   -1.8150616   0.11740155    11422.398     1000 
  708000    0.4288762   -2.4520202   0.64267099   -1.8093492   0.13012509      11327.8     1000 
  710000   0.41092645   -2.4252847   0.61577329   -1.8095114   0.12656885    11305.153     1000 
  712000   0.42296882   -2.4241543   0.63381878   -1.7903355   0.13663241    11361.305     1000 
  714000   0.41593107   -2.3638488   0.62327271   -1.7405761   0.13928216    11167.994     1000 
  716000   0.44239772   -2.3853778   0.66293298   -1.7224448   0.14063246    11235.382     1000 
  718000   0.42373131   -2.4137431   0.63496137   -1.7787818   0.12412687    11287.089     1000 
  720000   0.43164349   -2.4404715   0.64681777   -1.7936537   0.12056983     11491.57     1000 
  722000   0.42407659    -2.407436   0.63547878   -1.7719573   0.13216362    11455.169     1000 
  724000   0.43643141    -2.432086   0.65399246   -1.7780935    0.1300941    11442.473     1000 
  726000   0.43361567   -2.4721375   0.64977309   -1.8223645   0.12120359    11489.025     1000 
  728000   0.43314991   -2.4232909   0.64907514   -1.7742158   0.12543814    11390.244     1000 
  730000   0.44174823   -2.5063952   0.66195972   -1.8444355    0.1283797     11420.71     1000 
  732000   0.43348223   -2.4392687   0.64957312   -1.7896955    0.1263541    11362.773     1000 
  734000   0.42580302   -2.4094149   0.63806582   -1.7713491   0.12393088    11327.787     1000 
  736000   0.43082555   -2.4366699   0.64559209   -1.7910778   0.13116275    11367.476     1000 
  738000   0.44407533   -2.4363111   0.66544688   -1.7708642    0.1207232    11475.449     1000 
  740000    0.4278942   -2.4236896   0.64119946   -1.7824901   0.13654439    11299.928     1000 
  742000   0.42827564   -2.4648044   0.64177105   -1.8230334   0.14136239    11287.318     1000 
  744000   0.43295532   -2.4265014   0.64878355   -1.7777179   0.12129052    11333.432     1000 
  746000   0.42725458   -2.4168621   0.64024098   -1.7766211   0.13272067     11230.83     1000 
  748000   0.43423795   -2.3996103   0.65070557   -1.7489047   0.15257225    11190.911     1000 
  750000   0.42834863   -2.4243198   0.64188042   -1.7824394   0.13534346    11381.987     1000 
  752000   0.43511497    -2.473696   0.65201979   -1.8216762   0.13336531     11405.02     1000 
  754000   0.43006252   -2.3829146   0.64444868   -1.7384659   0.12873279    11319.422     1000 
  756000   0.42629414   -2.4334628   0.63880177   -1.7946611   0.14784063    11422.238     1000 
  758000    0.4168863   -2.4541581   0.62470413    -1.829454   0.13579926    11402.501     1000 
  760000   0.43818122   -2.4460821   0.65661456   -1.7894675   0.14101725    11334.976     1000 
  762000   0.42268389   -2.3902037   0.63339181   -1.7568118   0.13892119    11192.032     1000 
  764000   0.43592415   -2.4134475   0.65323234   -1.7602152   0.12791249    11375.742     1000 
  766000   0.43888669   -2.4085178    0.6576717   -1.7508461    0.1281337    11367.575     1000 
  768000    0.4188387   -2.4100879   0.62762979   -1.7824581   0.13601608    11276.359     1000 
  770000    0.4291893   -2.4660668   0.64314017   -1.8229266   0.12698297     11557.47     1000 
  772000   0.42789637   -2.4593988    0.6412027   -1.8181961   0.13322814    11356.473     1000 
  774000   0.42871053   -2.4944915   0.64242272   -1.8520687   0.13274705    11474.381     1000 
  776000   0.41915188   -2.4424044   0.62809909   -1.8143053   0.12127796    11433.605     1000 
  778000   0.42830186   -2.4341185   0.64181034   -1.7923082   0.13431515    11467.655     1000 
  780000   0.43917413   -2.3909164   0.65810243   -1.7328139   0.12856695    11385.635     1000 
  782000   0.43481948   -2.4172203   0.65157699   -1.7656433   0.13893145    11359.642     1000 
  784000   0.42825413   -2.4576755   0.64173881   -1.8159367    0.1325966    11448.672     1000 
  786000   0.41553915   -2.4494967   0.62268542   -1.8268112   0.11894124    11553.268     1000 
  788000   0.41721285    -2.446709   0.62519346   -1.8215155   0.13147779    11413.183     1000 
  790000   0.42130479   -2.4140107   0.63132522   -1.7826855   0.12979356    11458.661     1000 
  792000   0.44561905   -2.4139647   0.66776015   -1.7462046   0.12879688    11434.505     1000 
  794000   0.44104615   -2.4140553   0.66090766   -1.7531476   0.13731031    11362.188     1000 
  796000   0.41122132   -2.4804525   0.61621514   -1.8642373   0.13411661    11432.994     1000 
  798000   0.41955525   -2.4169297   0.62870354   -1.7882262   0.13507019    11323.508     1000 
  800000   0.42962116   -2.4132032    0.6437873   -1.7694159   0.12300693    11395.466     1000 
  802000   0.41283907    -2.427677   0.61863935   -1.8090377   0.12361608    11412.891     1000 
  804000   0.41501241   -2.3461861    0.6218961     -1.72429   0.14191089    11259.958     1000 
  806000   0.43522514   -2.4274565   0.65218488   -1.7752717   0.12315975    11451.271     1000 
  808000   0.44590924    -2.412944   0.66819499    -1.744749   0.14176145    11345.003     1000 
  810000   0.43973237   -2.3985317   0.65893896   -1.7395927   0.12602055    11413.105     1000 
  812000   0.43262058    -2.418992   0.64828194     -1.77071    0.1248458    11450.365     1000 
  814000   0.41524147   -2.4081981   0.62223934   -1.7859588   0.13323363    11373.847     1000 
  816000   0.42099973   -2.3932092   0.63086809   -1.7623411   0.13161565    11360.461     1000 
  818000   0.41602961   -2.3962912   0.62342037   -1.7728709   0.12815034    11352.669     1000 
  820000   0.43379771   -2.3925856   0.65004588   -1.7425397   0.13762027    11367.702     1000 
  822000   0.44719383    -2.405067   0.67011995   -1.7349471   0.12480272    11387.826     1000 
  824000   0.43594236   -2.4683324   0.65325963   -1.8150728   0.12061359    11462.186     1000 
  826000   0.42285617   -2.4804086   0.63364997   -1.8467586   0.13141221    11343.318     1000 
  828000   0.44135999   -2.4050418   0.66137795   -1.7436639   0.13816427    11279.972     1000 
  830000   0.41849748   -2.4278441   0.62711848   -1.8007256   0.12772786    11432.431     1000 
  832000   0.44183515   -2.4074084   0.66208997   -1.7453184   0.12886444    11357.396     1000 
  834000   0.44152722   -2.4187076   0.66162853   -1.7570791   0.14593387    11292.756     1000 
  836000   0.42056776    -2.404288    0.6302208   -1.7740672   0.13138358    11335.491     1000 
  838000   0.43684195   -2.4079252   0.65460766   -1.7533176   0.12166881    11415.616     1000 
  840000   0.43500478   -2.4157161   0.65185467   -1.7638615   0.12722144    11503.681     1000 
  842000   0.42887611    -2.464751   0.64267086   -1.8220801   0.12750038    11417.519     1000 
  844000   0.46087581   -2.4766682   0.69062241   -1.7860458   0.12559176    11470.973     1000 
  846000   0.41816272    -2.461435   0.62661684   -1.8348181   0.11741031    11518.218     1000 
  848000   0.41825569   -2.4418252   0.62675615    -1.815069   0.11485434    11471.794     1000 
  850000   0.42612268    -2.385311   0.63854483   -1.7467661   0.13401169    11405.109     1000 
  852000   0.46281883   -2.4333164   0.69353402   -1.7397824    0.1204631    11380.327     1000 
  854000    0.4181757   -2.4638347   0.62663629   -1.8371984   0.13224398     11387.74     1000 
  856000   0.42420914   -2.3974314    0.6356774   -1.7617541   0.12732089    11271.688     1000 
  858000   0.43495939   -2.3728964   0.65178665   -1.7211098   0.13098306    11369.833     1000 
  860000   0.42076136   -2.4411314    0.6305109   -1.8106206   0.13268501    11401.006     1000 
  862000   0.42890104    -2.419633    0.6427082   -1.7769248   0.12906331    11405.304     1000 
  864000   0.42122308   -2.4327621   0.63120278   -1.8015593   0.12076549    11468.138     1000 
  866000   0.41731832   -2.4659956    0.6253515   -1.8406441   0.14354635    11255.441     1000 
  868000   0.42935177   -2.4878332   0.64338362   -1.8444496   0.11504449    11453.794     1000 
  870000   0.43442614   -2.4049104   0.65098757   -1.7539229   0.13628497    11281.351     1000 
  872000   0.42132883   -2.4664659   0.63136125   -1.8351046   0.11550804    11532.795     1000 
  874000    0.4205848   -2.4605856   0.63024632   -1.8303393   0.12207305    11375.993     1000 
  876000   0.44766614   -2.4738658   0.67082772   -1.8030381   0.12221535     11455.97     1000 
  878000   0.42305065   -2.4115467    0.6339414   -1.7776053   0.11949245    11428.673     1000 
  880000   0.42559982   -2.4051133   0.63776134    -1.767352   0.13203652     11310.71     1000 
  882000   0.41110418   -2.4146529   0.61603961   -1.7986133   0.13063906    11332.712     1000 
  884000   0.43170071   -2.3883149   0.64690351   -1.7414114   0.13091249    11293.744     1000 
  886000   0.41993262   -2.4581461   0.62926904    -1.828877   0.11958964    11443.575     1000 
  888000   0.43288947   -2.4446882   0.64868487   -1.7960033    0.1320364    11339.635     1000 
  890000   0.42017193   -2.4582518   0.62962763   -1.8286242   0.13245502    11343.464     1000 
  892000   0.43513221   -2.4010232   0.65204562   -1.7489775   0.10912888    11483.824     1000 
  894000   0.43999565   -2.4531827   0.65933349   -1.7938492   0.12832851    11429.265     1000 
  896000   0.43106895   -2.4172015   0.64595682   -1.7712446   0.14124742    11321.764     1000 
  898000   0.44942334   -2.3882668   0.67346087   -1.7148059   0.12110079    11461.257     1000 
  900000   0.43056585   -2.4292432   0.64520292   -1.7840403   0.13665653    11318.892     1000 
  902000   0.41556671   -2.4097902   0.62272671   -1.7870635   0.13884182    11427.892     1000 
  904000   0.43214123   -2.3981233   0.64756363   -1.7505597   0.13463449    11412.175     1000 
  906000   0.43368223    -2.392912   0.64987282   -1.7430392     0.146871    11287.212     1000 
  908000   0.43194145   -2.4462164   0.64726427   -1.7989521   0.12006742    11446.161     1000 
  910000   0.43386384   -2.4404393   0.65014496   -1.7902943   0.14623509    11260.392     1000 
  912000   0.44085292   -2.4227798    0.6606181   -1.7621617   0.12981605    11457.998     1000 
  914000   0.43477958   -2.4147896    0.6515172   -1.7632724   0.14966783    11317.485     1000 
  916000   0.41593987   -2.3997143   0.62328589   -1.7764284   0.13976396    11301.324     1000 
  918000   0.43126609   -2.4162221   0.64625224   -1.7699698   0.13807928    11309.992     1000 
  920000   0.46044018   -2.4456986    0.6899696    -1.755729   0.12604236    11455.177     1000 
  922000   0.41756931   -2.4453146   0.62572762    -1.819587    0.1394573    11236.425     1000 
  924000   0.42914704   -2.4191062   0.64307683   -1.7760294   0.11926202    11491.155     1000 
  926000   0.42677675   -2.4412361   0.63952496   -1.8017111   0.14189521    11247.746     1000 
  928000   0.42629473   -2.4229567   0.63880265   -1.7841541   0.11238452    11492.469     1000 
  930000   0.42955376   -2.3975328    0.6436863   -1.7538465   0.12887258    11289.004     1000 
  932000   0.45388272   -2.4855364   0.68014326   -1.8053931   0.12604661    11445.494     1000 
  934000   0.41723438   -2.4245615   0.62522572   -1.7993357   0.13705189    11311.223     1000 
  936000   0.41456877   -2.4122167   0.62123131   -1.7909854   0.12194284    11394.173     1000 
  938000   0.43786548   -2.4621716   0.65614142   -1.8060302   0.13894114    11306.544     1000 
  940000   0.43371374    -2.449678   0.64992004   -1.7997579   0.12573264    11446.592     1000 
  942000   0.41912763   -2.4156846   0.62806275   -1.7876218   0.13983796    11303.422     1000 
  944000   0.40960845   -2.4440176   0.61379827   -1.8302193   0.12360349    11428.753     1000 
  946000   0.43177567    -2.462028   0.64701584   -1.8150121   0.14804219    11341.933     1000 
  948000   0.43928549   -2.4406452   0.65826931   -1.7823759   0.12750661    11401.495     1000 
  950000   0.44177991   -2.3892921   0.66200719   -1.7272849   0.12896776    11391.843     1000 
  952000   0.41619483   -2.4359802   0.62366795   -1.8123122     0.128284    11372.478     1000 
  954000   0.42338284    -2.439351   0.63443919   -1.8049118   0.12982309     11433.39     1000 
  956000    0.4233983   -2.4292073   0.63446236    -1.794745   0.13388897    11399.677     1000 
  958000   0.43720055   -2.4602079   0.65514503   -1.8050629   0.13155198    11382.776     1000 
  960000   0.44604665   -2.4303749    0.6684009    -1.761974   0.14142449     11339.84     1000 
  962000   0.43265725   -2.4648659   0.64833688    -1.816529   0.12153286    11561.883     1000 
  964000   0.44973843   -2.4879793   0.67393303   -1.8140463   0.13059776    11478.739     1000 
  966000   0.42632002   -2.4289207   0.63884055   -1.7900801   0.12573826     11382.94     1000 
  968000   0.40975694   -2.3702221   0.61402077   -1.7562013    0.1318442     11295.16     1000 
  970000    0.4266043    -2.396806   0.63926654   -1.7575394   0.14188656    11215.077     1000 
  972000   0.44265809   -2.4539334   0.66332316   -1.7906103   0.12963409    11340.265     1000 
  974000   0.42236241   -2.3837081   0.63291007    -1.750798   0.14216055    11270.563     1000 
  976000   0.43680045   -2.4447473   0.65454548   -1.7902018   0.11927466    11521.677     1000 
  978000   0.40697011   -2.4294828   0.60984471   -1.8196381   0.14437557    11278.719     1000 
  980000   0.41540772   -2.3963197   0.62248846   -1.7738312   0.12731197    11353.627     1000 
  982000   0.42470035   -2.4409944   0.63641348    -1.804581   0.11680441    11466.823     1000 
  984000   0.43052203   -2.4419743   0.64513726    -1.796837   0.13035039    11353.066     1000 
  986000    0.4404739   -2.4872434   0.66005014   -1.8271932   0.11998545    11481.421     1000 
  988000   0.42529848   -2.4306242   0.63730977   -1.7933144   0.13691474    11377.309     1000 
  990000   0.42616171   -2.3959691   0.63860333   -1.7573658   0.13856009    11367.732     1000 
  992000   0.42341931   -2.3764598   0.63449384    -1.741966    0.1290771    11325.128     1000 
  994000   0.40236955   -2.4554794   0.60295077   -1.8525286   0.12480375    11423.494     1000 
  996000   0.43374204   -2.4330798   0.64996245   -1.7831173   0.13065263    11444.235     1000 
  998000   0.41445112   -2.5142426   0.62105501   -1.8931876   0.13213765    11403.225     1000 
 1000000   0.43494743   -2.4251197   0.65176872   -1.7733509   0.13772306    11376.413     1000 
 1002000   0.41543337    -2.416178    0.6225269   -1.7936511   0.14331325      11268.2     1000 
 1004000   0.40356507   -2.4149696   0.60474226   -1.8102274   0.13094792     11282.57     1000 
 1006000   0.41845581   -2.4493941   0.62705603    -1.822338   0.13090031    11379.946     1000 
 1008000    0.4197012   -2.4236378   0.62892225   -1.7947156   0.13206543    11351.989     1000 
 1010000   0.43406555   -2.3772676   0.65044722   -1.7268203   0.13008057    11366.461     1000 
 1012000   0.42570038   -2.4403798   0.63791203   -1.8024678   0.13531868    11360.731     1000 
 1014000   0.41983101   -2.4263396   0.62911677   -1.7972228   0.11816901    11425.766     1000 
 1016000   0.42689808   -2.3523694   0.63970677   -1.7126626   0.13215011    11211.362     1000 
 1018000   0.43677554    -2.402357   0.65450814   -1.7478488   0.12853199    11344.474     1000 
 1020000   0.43857766    -2.419562   0.65720862   -1.7623533   0.13851496    11273.696     1000 
 1022000   0.43681011   -2.4259893   0.65455995   -1.7714293    0.1331174    11367.082     1000 
 1024000   0.44205326   -2.4373948   0.66241681    -1.774978     0.137008    11430.828     1000 
 1026000   0.42664002   -2.4817236   0.63932007   -1.8424035   0.11370115    11554.627     1000 
 1028000   0.43439831   -2.4066976   0.65094587   -1.7557518   0.12456072    11348.024     1000 
 1030000   0.44359798   -2.4425216   0.66473157     -1.77779   0.12603576     11398.38     1000 
 1032000   0.42973269   -2.4084291   0.64395444   -1.7644746   0.12789276     11290.86     1000 
 1034000   0.43244425   -2.3957607   0.64801771    -1.747743   0.13984687    11372.536     1000 
 1036000   0.43434889   -2.4175822   0.65087181   -1.7667104   0.14777273    11205.177     1000 
 1038000   0.41187815   -2.4311814   0.61719941    -1.813982   0.12208371    11405.255     1000 
 1040000   0.44158282   -2.3955941   0.66171186   -1.7338823   0.12951083    11327.508     1000 
 1042000   0.40326587   -2.3794421    0.6042939   -1.7751482   0.12842769    11350.574     1000 
 1044000   0.42018755   -2.4245934   0.62965104   -1.7949424   0.12178947    11466.465     1000 
 1046000   0.40192593   -2.4529539   0.60228601   -1.8506679   0.11469851    11380.169     1000 
 1048000   0.43389741   -2.4560198   0.65019528   -1.8058245   0.12753099    11421.407     1000 
 1050000   0.42875668   -2.4535001   0.64249189   -1.8110082   0.13148434    11372.059     1000 
 1052000   0.44359785   -2.4448299   0.66473138   -1.7800985   0.13368936    11409.625     1000 
 1054000   0.43753027   -2.4128235    0.6556391   -1.7571844    0.1594443    11090.995     1000 
 1056000   0.40668062   -2.4629423   0.60941091   -1.8535314   0.12211066    11524.696     1000 
 1058000   0.43359759   -2.4434833   0.64974599   -1.7937373   0.11267076    11528.678     1000 
 1060000   0.41151378   -2.4334972    0.6166534   -1.8168438   0.11250905    11558.554     1000 
 1062000   0.42341708   -2.3921183   0.63449049   -1.7576278   0.12768024    11352.152     1000 
 1064000   0.42718632   -2.4167923   0.64013869   -1.7766536   0.13109627    11341.275     1000 
 1066000   0.44094137    -2.418922   0.66075064   -1.7581714   0.11633667    11472.943     1000 
 1068000   0.43992684   -2.4355241   0.65923037   -1.7762938   0.12070286    11452.528     1000 
 1070000   0.43641732   -2.4077116   0.65397135   -1.7537403   0.13593614    11305.676     1000 
 1072000   0.42709659   -2.4451862   0.64000424    -1.805182   0.12905207    11386.259     1000 
 1074000   0.42536403    -2.463039     0.637408    -1.825631   0.13543207    11309.105     1000 
 1076000   0.43227252   -2.4669675   0.64776037   -1.8192071   0.11859301    11427.878     1000 
 1078000   0.43374358   -2.4652335   0.64996475   -1.8152687   0.13537662    11397.438     1000 
 1080000    0.4232849   -2.4675056   0.63429243   -1.8332132   0.11879085    11530.513     1000 
 1082000   0.42949383   -2.4090998   0.64359651   -1.7655033   0.13229402    11322.292     1000 
 1084000    0.4331652   -2.4016074   0.64909805   -1.7525093   0.14641379    11275.776     1000 
 1086000   0.42385233   -2.4449639   0.63514272   -1.8098212   0.13787103    11314.609     1000 
 1088000   0.41150316   -2.4413926   0.61663749   -1.8247551    0.1264234    11456.923     1000 
 1090000   0.42795397   -2.4488357   0.64128902   -1.8075467   0.12185134    11390.037     1000 
 1092000   0.42471988   -2.4664856   0.63644275   -1.8300428   0.11331292    11445.814     1000 
 1094000   0.41829164   -2.4274902   0.62681002   -1.8006802   0.13936856    11333.161     1000 
 1096000   0.44458636   -2.4400162   0.66621266   -1.7738036   0.12286708    11483.529     1000 
 1098000    0.4189561    -2.443865   0.62780572   -1.8160593   0.12970414    11447.814     1000 
 1100000   0.43032553   -2.4454648    0.6448428   -1.8006219    0.1262732    11417.263     1000 
 1102000   0.43229468   -2.4779364   0.64779358   -1.8301428   0.11185821    11546.091     1000 
 1104000   0.44394127   -2.4296572   0.66524599   -1.7644112   0.12504985    11377.985     1000 
 1106000   0.43937353   -2.4070241   0.65840123   -1.7486229   0.13022235     11325.25     1000 
 1108000   0.43036978   -2.4383897   0.64490912   -1.7934806   0.12927953    11378.597     1000 
 1110000   0.43260711   -2.4677719   0.64826176   -1.8195102   0.13239233     11465.46     1000 
 1112000   0.43238192   -2.4754086   0.64792431   -1.8274843   0.12932153    11435.503     1000 
 1114000   0.45024096   -2.4087863   0.67468608   -1.7341002    0.1237698    11385.338     1000 
 1116000   0.40983833   -2.4025828   0.61414274   -1.7884401    0.1355828    11406.037     1000 
 1118000   0.44383293    -2.420361   0.66508365   -1.7552774   0.13268728    11378.845     1000 
 1120000   0.43007933   -2.4050587   0.64447388   -1.7605848   0.11940895    11478.313     1000 
 1122000    0.4578005    -2.474096   0.68601405   -1.7880819   0.12789122    11398.439     1000 
 1124000    0.4402504   -2.4521883   0.65971523   -1.7924731   0.13448126    11326.794     1000 
 1126000   0.44651741   -2.4445628   0.66910634   -1.7754565   0.13472667    11354.572     1000 
 1128000   0.42272997   -2.4745591   0.63346086   -1.8410983   0.12067585    11436.267     1000 
 1130000   0.44661662   -2.4237197   0.66925501   -1.7544647   0.11732088    11407.901     1000 
 1132000   0.43042846   -2.3954145   0.64499705   -1.7504174   0.11998833    11468.643     1000 
 1134000   0.42014318   -2.4409503   0.62958456   -1.8113658   0.12791963    11389.666     1000 
 1136000   0.41057926   -2.4358228   0.61525303   -1.8205698   0.12131187    11464.096     1000 
 1138000   0.40896466   -2.4337723   0.61283354   -1.8209387   0.11859669    11499.881     1000 
 1140000   0.42789176   -2.4114055    0.6411958   -1.7702097   0.12519052    11396.882     1000 
 1142000    0.4155324   -2.4048369   0.62267531   -1.7821615   0.12044981    11418.247     1000 
 1144000   0.43920595   -2.3734748   0.65815012   -1.7153247   0.13121647    11259.524     1000 
 1146000   0.42210497   -2.4102773    0.6325243   -1.7777531   0.12184928    11397.063     1000 
 1148000    0.4458828   -2.4020417   0.66815538   -1.7338863   0.13099347    11274.197     1000 
 1150000   0.44228865   -2.4187038   0.66276954   -1.7559342   0.12206139    11478.467     1000 
 1152000   0.43979217   -2.4360016   0.65902857    -1.776973   0.13136995    11297.829     1000 
 1154000   0.41369525   -2.4191398   0.61992233   -1.7992175   0.12222298    11449.275     1000 
 1156000   0.44444958   -2.3676223    0.6660077   -1.7016146   0.13373619    11401.389     1000 
 1158000   0.44083009   -2.4079146   0.66058389   -1.7473307   0.12694609     11390.66     1000 
 1160000   0.43389552   -2.4731147   0.65019243   -1.8229222   0.12385293    11553.794     1000 
 1162000   0.41525632   -2.4291486    0.6222616    -1.806887   0.13591127    11299.061     1000 
 1164000   0.44561264   -2.4070368   0.66775053   -1.7392862    0.1330196    11435.306     1000 
 1166000   0.43521393    -2.460935   0.65216807   -1.8087669   0.13602169    11348.366     1000 
 1168000   0.44819083   -2.4167278   0.67161396   -1.7451138   0.13501482    11424.855     1000 
 1170000   0.43033239   -2.4783942   0.64485309   -1.8335411   0.12602224    11375.357     1000 
 1172000   0.44097925   -2.4049221   0.66080741   -1.7441147   0.13569443    11239.833     1000 
 1174000    0.4350963   -2.4104052   0.65199181   -1.7584134   0.12596677    11434.456     1000 
 1176000   0.43737023   -2.4179175   0.65539929   -1.7625182   0.13334788    11437.096     1000 
 1178000   0.42498247   -2.4539482   0.63683623    -1.817112   0.13667889    11370.194     1000 
 1180000   0.43895195   -2.4291331   0.65776949   -1.7713636    0.1258376    11456.733     1000 
 1182000   0.42574337   -2.4222136   0.63797644   -1.7842372   0.12738504    11423.222     1000 
 1184000   0.41391861   -2.4452849   0.62025704   -1.8250279   0.14744639    11171.906     1000 
 1186000   0.44301098   -2.4225891   0.66385196   -1.7587372   0.14639057    11306.472     1000 
 1188000   0.44928516   -2.4561783   0.67325382   -1.7829245   0.11901886     11386.41     1000 
 1190000   0.45561322   -2.4423638    0.6827364   -1.7596274   0.14189736     11381.18     1000 
 1192000   0.42524472    -2.417574   0.63722921   -1.7803448   0.13123969    11338.922     1000 
 1194000   0.43393925   -2.4483829   0.65025796   -1.7981249   0.13425292    11360.499     1000 
 1196000   0.44645048   -2.4146831   0.66900604    -1.745677   0.13652438    11445.398     1000 
 1198000   0.43023207   -2.4446266   0.64470276   -1.7999239   0.12610651    11515.261     1000 
 1200000   0.44796383   -2.4258239   0.67127381   -1.7545501    0.1251964    11380.108     1000 
 1202000    0.4305665   -2.4618688    0.6452039   -1.8166649   0.13134964    11411.401     1000 
 1204000   0.41648846   -2.3546059   0.62410795   -1.7304979   0.13636453     11287.48     1000 
 1206000   0.43318689   -2.4130167   0.64913055   -1.7638861   0.13278432    11306.362     1000 
 1208000   0.42512556    -2.394179   0.63705065   -1.7571284    0.1381173    11330.703     1000 
 1210000   0.44213836   -2.4441563   0.66254434    -1.781612   0.13185895     11364.83     1000 
 1212000   0.41814903   -2.4069214   0.62659632   -1.7803251   0.13350794    11377.721     1000 
 1214000   0.44003588   -2.4446916   0.65939376   -1.7852978   0.11840437    11427.419     1000 
 1216000   0.43340666   -2.3918657   0.64945988   -1.7424058   0.13237066    11416.354     1000 
 1218000   0.42785954   -2.4295655   0.64114753    -1.788418   0.14102115    11262.633     1000 
 1220000    0.4148805   -2.4317946   0.62169843   -1.8100962   0.12706685    11467.765     1000 
 1222000   0.42817559   -2.4114756   0.64162112   -1.7698545   0.13402452    11354.524     1000 
 1224000   0.45075421   -2.4364021   0.67545518    -1.760947   0.12976838    11398.172     1000 
 1226000   0.41632917    -2.435191   0.62386927   -1.8113217   0.12458172    11502.264     1000 
 1228000   0.44424759   -2.4698297   0.66570501   -1.8041247   0.13574356    11427.461     1000 
 1230000   0.43091028   -2.4588921   0.64571905   -1.8131731   0.11634285      11462.5     1000 
 1232000   0.43594472   -2.4254452   0.65326317   -1.7721821   0.13678755    11340.567     1000 
 1234000   0.43656112   -2.4313247   0.65418684   -1.7771379   0.13519715    11394.315     1000 
 1236000   0.42139509    -2.434971   0.63146054   -1.8035104   0.14309798    11265.051     1000 
 1238000   0.40730428   -2.4178999   0.61034546   -1.8075545   0.13309627      11279.9     1000 
 1240000   0.42687331   -2.4381688   0.63966966   -1.7984991   0.12210542    11367.605     1000 
 1242000   0.40106543   -2.4288669   0.60099654   -1.8278703   0.11507278     11364.72     1000 
 1244000   0.42454311   -2.4552133   0.63617784   -1.8190355    0.1376225    11359.147     1000 
 1246000   0.42774207   -2.4331687   0.64097149   -1.7921972   0.12704202    11453.632     1000 
 1248000   0.42990164     -2.45502   0.64420761   -1.8108124   0.12843851    11404.687     1000 
 1250000    0.4435621   -2.4087855   0.66467781   -1.7441077   0.13846762    11197.484     1000 
 1252000    0.4220702   -2.4853173    0.6324722   -1.8528451   0.13536627    11377.883     1000 
 1254000   0.41677241     -2.45066   0.62453345   -1.8261266    0.1291892    11312.724     1000 
 1256000   0.43967721   -2.4361203    0.6588563    -1.777264   0.13450835    11481.643     1000 
 1258000   0.43595596    -2.419074   0.65328001   -1.7657939   0.12685858    11353.323     1000 
 1260000   0.44779729   -2.4585654   0.67102424   -1.7875412   0.11195377    11538.994     1000 
 1262000   0.42176871   -2.4224839   0.63202041   -1.7904635   0.13080648    11279.377     1000 
 1264000   0.42234195    -2.418129   0.63287941   -1.7852496   0.12708513    11350.685     1000 
 1266000    0.4319852   -2.4124367   0.64732982   -1.7651069   0.13584476    11341.193     1000 
 1268000   0.42138759   -2.4158427    0.6314493   -1.7843934   0.13075464    11408.931     1000 
 1270000   0.41808081    -2.393738   0.62649409   -1.7672439    0.1297017    11331.674     1000 
 1272000   0.42165681    -2.436555   0.63185273   -1.8047022   0.13346862    11382.199     1000 
 1274000   0.42510863   -2.4674748   0.63702529   -1.8304495   0.14689191    11338.117     1000 
 1276000   0.42910471   -2.4050122   0.64301341   -1.7619988   0.12419978    11432.206     1000 
 1278000   0.44215886   -2.4854483   0.66257506   -1.8228733   0.11725432    11557.736     1000 
 1280000   0.41939594   -2.4508702   0.62846481   -1.8224054   0.13298367    11378.497     1000 
 1282000   0.41880242   -2.4092333   0.62757543   -1.7816579   0.13343277    11301.406     1000 
 1284000    0.4334823   -2.4598242   0.64957323    -1.810251   0.12446588     11482.52     1000 
 1286000   0.45092219   -2.4524818    0.6757069   -1.7767749   0.12133806    11527.174     1000 
 1288000   0.41757309   -2.4480341   0.62573328   -1.8223008   0.12787127    11402.119     1000 
 1290000   0.43770459   -2.4624608   0.65590033   -1.8065605   0.14168001     11409.07     1000 
 1292000   0.42768545   -2.4441253   0.64088665   -1.8032387   0.12839336    11495.786     1000 
 1294000   0.42662531   -2.4136763   0.63929803   -1.7743783   0.13195346    11413.174     1000 
 1296000   0.43760777   -2.4239119   0.65575524   -1.7681567    0.1139933    11458.555     1000 
 1298000   0.43280854   -2.4196535    0.6485636   -1.7710899    0.1353276    11336.231     1000 
 1300000   0.43484214    -2.447119   0.65161094    -1.795508   0.12579805    11380.676     1000 
 1302000   0.42180099   -2.4459596   0.63206879   -1.8138908   0.12362117    11553.762     1000 
 1304000   0.43832529   -2.4192783   0.65683045   -1.7624478   0.14361789    11272.116     1000 
 1306000   0.44657332   -2.4634563   0.66919011   -1.7942661   0.12429071    11442.314     1000 
 1308000   0.42924784   -2.4194657   0.64322789   -1.7762378   0.12315195    11368.189     1000 
 1310000   0.44354948   -2.4075207    0.6646589   -1.7428618   0.13162426    11334.502     1000 
 1312000   0.42238916   -2.4197606   0.63295016   -1.7868105   0.12863321    11430.017     1000 
 1314000   0.44150042   -2.4288143   0.66158838   -1.7672259   0.12660607    11397.672     1000 
 1316000   0.42947745   -2.4474628   0.64357196   -1.8038908   0.13514404    11378.106     1000 
 1318000   0.42472682   -2.3761339   0.63645314   -1.7396807   0.12202499    11505.248     1000 
 1320000   0.41742591   -2.4774156   0.62551273   -1.8519028   0.12136233    11406.667     1000 
 1322000   0.42744513   -2.4421424   0.64052653   -1.8016158   0.13662291    11369.858     1000 
 1324000   0.39899936   -2.4688919   0.59790054   -1.8709914   0.12238191    11449.593     1000 
 1326000   0.45806976   -2.3782556   0.68641754   -1.6918381   0.13539887    11389.412     1000 
 1328000     0.434307     -2.37073   0.65080904    -1.719921   0.13483908    11333.646     1000 
 1330000   0.42490773   -2.4205017   0.63672423   -1.7837775   0.12801351    11356.087     1000 
 1332000   0.41456105   -2.4216845   0.62121973   -1.8004648   0.12741797    11415.845     1000 
 1334000   0.44295827   -2.4044836   0.66377297   -1.7407106   0.13103573     11448.12     1000 
 1336000   0.41935805   -2.4598589   0.62840803   -1.8314509   0.13319563    11283.427     1000 
 1338000    0.4377131   -2.4055636   0.65591308   -1.7496505   0.13014042    11347.882     1000 
 1340000   0.42834206   -2.4077794   0.64187058   -1.7659088   0.13080002    11435.683     1000 
 1342000    0.4180751   -2.4203357   0.62648554   -1.7938502   0.13570312    11243.437     1000 
 1344000   0.43678924   -2.4366249   0.65452867   -1.7820962   0.13631068    11287.738     1000 
 1346000   0.40810523   -2.4309869   0.61154568   -1.8194412   0.12538812    11447.553     1000 
 1348000   0.42605908   -2.4101936   0.63844952   -1.7717441   0.13700984    11254.939     1000 
 1350000   0.43655768   -2.4487206   0.65418168   -1.7945389   0.12124316    11431.915     1000 
 1352000   0.43715987    -2.385714   0.65508407     -1.73063   0.12240802    11224.583     1000 
 1354000   0.42397493    -2.435847   0.63532643   -1.8005205    0.1233041    11452.365     1000 
 1356000   0.43687268   -2.4069694   0.65465371   -1.7523157   0.13861872    11225.597     1000 
 1358000   0.43834847    -2.421188   0.65686518   -1.7643228   0.12675247    11405.927     1000 
 1360000   0.40846347   -2.4196417    0.6120825   -1.8075592   0.12164396    11495.439     1000 
 1362000   0.43488808   -2.3866593   0.65167979   -1.7349795   0.12539983    11357.785     1000 
 1364000   0.42930427   -2.4498407   0.64331245   -1.8065283   0.12907915    11449.252     1000 
 1366000   0.44782669   -2.4378202   0.67106829    -1.766752   0.10728215    11456.411     1000 
 1368000   0.43493341   -2.4285305   0.65174771   -1.7767828   0.12765426    11376.311     1000 
 1370000   0.42815879   -2.4061957   0.64159595   -1.7645998   0.13301634    11245.339     1000 
 1372000   0.42474627   -2.4801805   0.63648228   -1.8436982   0.11870809    11518.928     1000 
 1374000   0.42759997   -2.4175033   0.64075855   -1.7767448   0.12078028    11371.204     1000 
 1376000   0.43538565   -2.4451792    0.6524254   -1.7927538   0.13549882    11329.474     1000 
 1378000   0.42914725   -2.4504901   0.64307716   -1.8074129   0.12189918    11445.517     1000 
 1380000   0.41614104   -2.4090336   0.62358735   -1.7854463   0.12887104    11227.273     1000 
 1382000   0.44815665   -2.4262667   0.67156274   -1.7547039   0.13645377    11227.839     1000 
 1384000   0.43025319   -2.4059347    0.6447344   -1.7612003    0.1314022    11345.961     1000 
 1386000    0.4120514   -2.3823854   0.61745902   -1.7649264   0.13212524    11322.661     1000 
 1388000   0.43081231   -2.4265739   0.64557225   -1.7810017   0.13715362    11364.974     1000 
 1390000   0.42951608   -2.4570611   0.64362985   -1.8134312   0.11973198    11501.875     1000 
 1392000   0.41729733   -2.4386668   0.62532005   -1.8133468   0.12022786    11468.877     1000 
 1394000   0.42562219   -2.4130881   0.63779484   -1.7752933   0.12939356    11345.616     1000 
 1396000   0.42792251   -2.3910644   0.64124188   -1.7498225   0.12488823    11404.434     1000 
 1398000    0.4339332   -2.4993213    0.6502489   -1.8490724   0.12193017    11557.767     1000 
 1400000   0.43425449    -2.424704   0.65073035   -1.7739736   0.12947437    11332.888     1000 
 1402000   0.43153699   -2.4514316   0.64665819   -1.8047735   0.11993002    11417.611     1000 
 1404000   0.45161648   -2.4522758   0.67674729   -1.7755285   0.13300278    11378.736     1000 
 1406000   0.46488937   -2.4256478   0.69663672   -1.7290111   0.13255157    11390.025     1000 
 1408000   0.43664074   -2.4091728   0.65430615   -1.7548666   0.12854658    11358.832     1000 
 1410000   0.43007607   -2.4081814   0.64446899   -1.7637124   0.14559579    11219.606     1000 
 1412000   0.43600089   -2.4479976   0.65334734   -1.7946503   0.13518659     11392.98     1000 
 1414000   0.41970801   -2.4504939   0.62893245   -1.8215615   0.12685165    11401.843     1000 
 1416000   0.43444067   -2.4366303   0.65100934    -1.785621   0.12586588    11510.989     1000 
 1418000   0.41722136   -2.4638557   0.62520621   -1.8386495   0.12659697    11465.755     1000 
 1420000   0.42839385   -2.4070302   0.64194818    -1.765082   0.12619242    11420.022     1000 
 1422000   0.43346445    -2.477034   0.64954648   -1.8274875    0.1262392    11467.106     1000 
 1424000   0.43280945   -2.4305891   0.64856496   -1.7820241   0.12544275    11549.798     1000 
 1426000   0.40944925   -2.4158652    0.6135597   -1.8023055   0.12494248    11362.491     1000 
 1428000   0.43008311   -2.4374439   0.64447953   -1.7929644   0.12022013    11510.103     1000 
 1430000   0.43813257   -2.4275014   0.65654165   -1.7709597    0.1367499     11275.65     1000 
 1432000   0.43621986   -2.4283522   0.65367547   -1.7746767   0.13659814    11265.828     1000 
 1434000   0.44001837    -2.404182   0.65936752   -1.7448145   0.13609641    11283.694     1000 
 1436000   0.43734894   -2.4170004   0.65536738    -1.761633   0.11727573    11452.655     1000 
 1438000   0.42510381   -2.4466347   0.63701806   -1.8096166   0.12489699    11397.642     1000 
 1440000   0.44026094   -2.4411801   0.65973101   -1.7814491   0.13483351     11392.53     1000 
 1442000   0.43096364   -2.4437602   0.64579902   -1.7979611   0.13260851    11376.813     1000 
 1444000   0.42653734   -2.4603395    0.6391662   -1.8211733   0.11298578    11514.144     1000 
 1446000   0.42714799   -2.4400536   0.64008127   -1.7999723   0.12143991    11498.505     1000 
 1448000   0.41309693   -2.4095734   0.61902575   -1.7905476   0.14631404    11236.108     1000 
 1450000   0.43744254   -2.4424393   0.65550764   -1.7869316   0.13541819    11330.128     1000 
 1452000   0.43172806   -2.4189519    0.6469445   -1.7720074   0.12562943    11487.099     1000 
 1454000   0.44945337   -2.4246433   0.67350587   -1.7511374   0.14275846      11217.1     1000 
 1456000   0.43518644   -2.4214255   0.65212688   -1.7692986   0.12203512    11383.105     1000 
 1458000   0.44171446   -2.4045325   0.66190912   -1.7426233   0.12976941    11409.572     1000 
 1460000   0.40467299   -2.4017143   0.60640248   -1.7953119    0.1271253    11373.125     1000 
 1462000     0.426587   -2.4546292   0.63924062   -1.8153886   0.11511108    11419.459     1000 
 1464000   0.42281779   -2.4284204   0.63359246   -1.7948279   0.14193951     11296.06     1000 
 1466000   0.43480611   -2.3779448   0.65155696   -1.7263878   0.13714319    11250.381     1000 
 1468000   0.42216697   -2.4090172    0.6326172      -1.7764   0.13149764    11333.796     1000 
 1470000   0.43517125   -2.4259272   0.65210412   -1.7738231   0.12705116    11400.122     1000 
 1472000   0.43325865   -2.4623028   0.64923809   -1.8130647   0.12634494    11400.126     1000 
 1474000   0.43689652    -2.451555   0.65468944   -1.7968656   0.14437662    11300.349     1000 
 1476000   0.43567975   -2.4286623    0.6528661   -1.7757962    0.1328075    11400.829     1000 
 1478000   0.45971341   -2.4055182   0.68888055   -1.7166377   0.12220912    11358.694     1000 
 1480000   0.43391766   -2.4393673   0.65022562   -1.7891416    0.1216343    11370.219     1000 
 1482000   0.42171933   -2.4143374   0.63194642    -1.782391   0.12450047    11378.246     1000 
 1484000   0.45495148   -2.4628909   0.68174479   -1.7811461   0.12753745    11394.101     1000 
 1486000   0.42020579   -2.4111714   0.62967838   -1.7814931   0.13952966    11224.933     1000 
 1488000   0.43257074   -2.4572174   0.64820725   -1.8090101   0.12014264    11497.139     1000 
 1490000   0.41081141   -2.3843583    0.6156009   -1.7687574   0.12399059     11296.72     1000 
 1492000   0.41636787   -2.4353272   0.62392725      -1.8114   0.11115575    11610.357     1000 
 1494000   0.42543917   -2.4541357   0.63752059   -1.8166151   0.13619281    11440.701     1000 
 1496000   0.43518503   -2.4175514   0.65212477   -1.7654267   0.13115893    11329.703     1000 
 1498000   0.44205822   -2.3931823   0.66242424    -1.730758   0.12828146    11153.042     1000 
 1500000   0.42562314   -2.4156003   0.63779628    -1.777804   0.12845754    11403.779     1000 
 1502000   0.43197794   -2.4582529   0.64731894   -1.8109339   0.13730314    11281.689     1000 
 1504000   0.41426155   -2.4468121   0.62077093   -1.8260412   0.12151142    11472.701     1000 
 1506000   0.42931157   -2.4454334   0.64332338     -1.80211   0.13503308    11379.082     1000 
 1508000   0.43188482   -2.3975357    0.6471794   -1.7503563   0.11807464    11389.051     1000 
 1510000   0.42031438   -2.3694242   0.62984109   -1.7395831   0.13363848    11267.948     1000 
 1512000   0.41899461   -2.4317527   0.62786343   -1.8038893   0.12403115    11328.819     1000 
 1514000   0.44697609   -2.4295239   0.66979367   -1.7597302   0.14202763    11347.422     1000 
 1516000   0.42864786   -2.4267788   0.64232882   -1.7844499   0.12226515    11502.056     1000 
 1518000   0.41126052   -2.4284792   0.61627389   -1.8122053   0.12737639    11339.248     1000 
 1520000   0.43095805   -2.3847287   0.64579064    -1.738938   0.12541445    11315.258     1000 
 1522000   0.42949946   -2.4668522   0.64360494   -1.8232472   0.12824271     11344.38     1000 
 1524000   0.43258348   -2.4540422   0.64822635   -1.8058159   0.13481741    11355.936     1000 
 1526000   0.43284517   -2.4483382   0.64861848   -1.7997198   0.12894902    11383.435     1000 
 1528000   0.43180493   -2.4483462   0.64705969   -1.8012865   0.13265026    11442.584     1000 
 1530000   0.43256535   -2.4311525   0.64819918   -1.7829534   0.11784486    11364.137     1000 
 1532000   0.44493137   -2.4516717   0.66672966    -1.784942   0.12445441     11348.92     1000 
 1534000   0.43915751    -2.456239   0.65807753   -1.7981615   0.13600322    11460.298     1000 
 1536000   0.44265693   -2.4762677   0.66332141   -1.8129463   0.12568547    11515.084     1000 
 1538000    0.4327511   -2.3966291   0.64847753   -1.7481516   0.12920497    11457.865     1000 
 1540000   0.41821769   -2.4238909    0.6266992   -1.7971917   0.13470273    11361.194     1000 
 1542000   0.42113975   -2.4333094   0.63107792   -1.8022315   0.12575169    11376.171     1000 
 1544000   0.41978923   -2.4397866   0.62905417   -1.8107324   0.12849007     11379.13     1000 
 1546000   0.43171476   -2.4482572   0.64692457   -1.8013326   0.14078508    11282.111     1000 
 1548000   0.44806268   -2.4463378   0.67142193   -1.7749159   0.13677142    11356.517     1000 
 1550000   0.41930863   -2.4359756   0.62833398   -1.8076416    0.1211023    11377.357     1000 
 1552000   0.41925232   -2.4370355    0.6282496   -1.8087859   0.14087375    11274.609     1000 
 1554000   0.43691949   -2.3967151   0.65472386   -1.7419913   0.12379153    11364.509     1000 
 1556000   0.43627524   -2.4321862   0.65375845   -1.7784277   0.13462352      11335.4     1000 
 1558000   0.43681512   -2.4294088   0.65456746   -1.7748413   0.12003525    11342.327     1000 
 1560000   0.43276815   -2.4967521   0.64850307   -1.8482491   0.12025516    11456.185     1000 
 1562000   0.40647431   -2.3970638   0.60910175   -1.7879621   0.11875904    11410.682     1000 
 1564000   0.43034591   -2.4154166   0.64487334   -1.7705432   0.12535019      11372.2     1000 
 1566000   0.42319197   -2.4288125   0.63415317   -1.7946594   0.13452768    11398.435     1000 
 1568000   0.41258031   -2.4435987   0.61825159   -1.8253471    0.1352595    11242.361     1000 
 1570000   0.40783527   -2.4290349   0.61114115   -1.8178937   0.13079333    11352.099     1000 
 1572000   0.43242375   -2.4291482   0.64798699   -1.7811612   0.12307925    11438.752     1000 
 1574000   0.40578965   -2.4310867   0.60807578   -1.8230109   0.12890072    11350.946     1000 
 1576000   0.42911769   -2.4265585   0.64303285   -1.7835256   0.12749304    11352.987     1000 
 1578000   0.44795635    -2.353082   0.67126258   -1.6818195   0.14031541    11190.645     1000 
 1580000   0.41963539   -2.4467117   0.62882364   -1.8178881   0.12938464    11477.105     1000 
 1582000   0.43370104   -2.4547674   0.64990101   -1.8048664   0.12642921    11512.382     1000 
 1584000   0.40867759   -2.4315432   0.61240337   -1.8191398   0.13259993    11392.362     1000 
 1586000   0.41886355   -2.4420842   0.62766702   -1.8144172   0.13080593    11350.533     1000 
 1588000   0.43579814    -2.453531   0.65304351   -1.8004875   0.12859073    11339.959     1000 
[...]
 2614000   0.42829451   -2.4411799   0.64179932   -1.7993806   0.11733105    11475.468     1000 
 2616000   0.44869575    -2.464435   0.67237059   -1.7920644    0.1344165    11417.585     1000 
 2618000   0.43077949   -2.4563175   0.64552306   -1.8107944   0.12975774    11421.426     1000 
 2620000   0.41661205   -2.4269154   0.62429315   -1.8026222   0.13730098    11273.925     1000 
 2622000   0.42936211   -2.4295879   0.64339912   -1.7861887   0.13244402    11352.743     1000 
 2624000   0.44229786   -2.4846112   0.66278334   -1.8218279   0.13543208    11387.589     1000 
 2626000     0.426061   -2.4106519    0.6384524   -1.7721995   0.12304699     11286.06     1000 
 2628000   0.42382327   -2.4029002   0.63509917    -1.767801   0.12372687    11374.726     1000 
 2630000   0.43403967   -2.4838498   0.65040844   -1.8334414   0.12337106    11487.538     1000 
 2632000   0.43908205   -2.4520249   0.65796446   -1.7940604   0.12666711    11415.413     1000 
 2634000   0.42950308   -2.3967974   0.64361037   -1.7531871   0.12023328    11397.969     1000 
 2636000   0.40366977   -2.4356237   0.60489915   -1.8307245   0.13228968    11358.748     1000 
 2638000   0.43165175   -2.4560697   0.64683014   -1.8092396   0.11296165    11531.852     1000 
 2640000   0.43745772   -2.4156979   0.65553039   -1.7601675   0.13436116    11361.579     1000 
 2642000   0.41904789   -2.4941263   0.62794326    -1.866183   0.11459112    11525.311     1000 
 2644000    0.4190719   -2.4108664   0.62797924   -1.7828872   0.13400498    11395.822     1000 
 2646000   0.42711244   -2.4452016     0.640028   -1.8051736   0.12179824    11465.567     1000 
 2648000   0.42257903   -2.4402913   0.63323467   -1.8070567   0.13533789    11215.929     1000 
 2650000   0.43621389   -2.4363482   0.65366651   -1.7826817   0.11652294    11435.806     1000 
 2652000   0.41105468   -2.4429893   0.61596544   -1.8270238   0.11335446    11451.166     1000 
 2654000   0.41101763   -2.4595827   0.61590991   -1.8436727   0.13583044    11375.758     1000 
 2656000   0.42357435   -2.4555193   0.63472616   -1.8207932   0.13893244    11293.136     1000 
 2658000   0.44175206   -2.3832033   0.66196545   -1.7212379   0.12856766    11384.618     1000 
 2660000    0.4205077   -2.4436538   0.63013079    -1.813523   0.13396527    11338.606     1000 
 2662000   0.44841595   -2.4778433    0.6719513    -1.805892   0.12684845    11508.611     1000 
 2664000   0.43063053   -2.3995419   0.64529985    -1.754242   0.12457186    11391.552     1000 
 2666000     0.439964   -2.3762116   0.65928605   -1.7169256   0.13067692    11342.526     1000 
 2668000   0.41546818   -2.4324955   0.62257906   -1.8099164   0.13205773     11243.31     1000 
 2670000   0.43392625   -2.4330672   0.65023848   -1.7828287   0.13464117    11319.852     1000 
 2672000   0.43263318   -2.4440028   0.64830082   -1.7957019   0.12723701    11362.275     1000 
 2674000    0.4433565   -2.4369321   0.66436972   -1.7725623   0.13303568    11283.938     1000 
 2676000   0.41218952   -2.4254112   0.61766599   -1.8077452   0.12083065    11402.735     1000 
 2678000   0.43768447   -2.4879364   0.65587018   -1.8320662   0.12107794    11475.453     1000 
 2680000   0.42111729   -2.4756276   0.63104427   -1.8445833    0.1174186    11493.751     1000 
 2682000   0.43377881   -2.4050446   0.65001754   -1.7550271   0.12630701    11409.321     1000 
 2684000   0.44548199   -2.4105065   0.66755476   -1.7429518   0.14048134    11276.496     1000 
 2686000    0.4301973   -2.4178007   0.64465066   -1.7731501   0.13244011    11266.651     1000 
 2688000    0.4449172   -2.4161806   0.66670843   -1.7494721   0.13045924    11444.228     1000 
 2690000   0.41918351   -2.4605944   0.62814649   -1.8324479   0.12242477    11476.093     1000 
 2692000   0.43510148   -2.4146259   0.65199957   -1.7626264   0.13214755    11204.167     1000 
 2694000   0.41586808   -2.4097089   0.62317832   -1.7865305   0.11937787    11435.837     1000 
 2696000   0.42880096   -2.4087028   0.64255824   -1.7661446   0.13549289    11415.845     1000 
 2698000   0.44620822   -2.4425193   0.66864302   -1.7738763   0.13558989    11427.158     1000 
 2700000   0.46388041   -2.4505153   0.69512479   -1.7553905   0.13938424    11437.235     1000 
 2702000   0.41641447    -2.443086   0.62399708    -1.819089   0.13667181    11342.921     1000 
 2704000   0.43845107   -2.3586589   0.65701893     -1.70164   0.13086635    11260.535     1000 
 2706000   0.44520994   -2.4521182    0.6671471   -1.7849711   0.13389274    11334.112     1000 
 2708000   0.43020821   -2.4781634     0.644667   -1.8334964   0.13361604    11319.179     1000 
 2710000   0.42259284   -2.4525243   0.63325537   -1.8192689   0.12850476     11383.68     1000 
 2712000   0.43246988   -2.4193714   0.64805611   -1.7713153   0.13543432    11367.596     1000 
 2714000   0.43541683   -2.4217606   0.65247211   -1.7692885   0.15321719     11267.74     1000 
 2716000   0.44147787   -2.4752864   0.66155458   -1.8137318   0.13725667    11385.393     1000 
 2718000    0.4094113   -2.4175683   0.61350284   -1.8040655   0.12553336    11377.024     1000 
 2720000   0.42355306   -2.4596706   0.63469426   -1.8249763   0.14084838    11307.226     1000 
 2722000   0.41331802    -2.480372   0.61935705   -1.8610149   0.14208373    11355.944     1000 
 2724000   0.43729018   -2.4282329   0.65527933   -1.7729536   0.12241786    11512.397     1000 
 2726000   0.43768742   -2.4116444    0.6558746   -1.7557698   0.15111705    11127.977     1000 
 2728000   0.42673398   -2.4368899   0.63946087    -1.797429   0.11748966    11549.455     1000 
 2730000   0.42658703    -2.415491   0.63924067   -1.7762503   0.12991146    11372.342     1000 
 2732000   0.40594382   -2.4327848   0.60830681   -1.8244779   0.12599504    11270.878     1000 
 2734000   0.43920195   -2.4342459   0.65814412   -1.7761017   0.12787309    11397.714     1000 
 2736000    0.4475311   -2.4280026   0.67062535   -1.7573773   0.13948811    11227.623     1000 
 2738000    0.4417664    -2.381231   0.66198694   -1.7192441   0.12469633    11406.614     1000 
 2740000   0.44469943   -2.4058006   0.66638209   -1.7394186   0.12469712    11412.658     1000 
 2742000   0.41182572   -2.4363623   0.61712085   -1.8192415   0.12783407    11482.951     1000 
 2744000   0.41469112   -2.4276923   0.62141465   -1.8062776   0.11510041    11457.096     1000 
 2746000   0.43013097   -2.4729512   0.64455126      -1.8284   0.12925297    11411.712     1000 
 2748000   0.41413767   -2.4197903   0.62058529    -1.799205   0.12634126    11344.719     1000 
 2750000   0.43281972   -2.4123902   0.64858035   -1.7638099   0.12660414    11395.466     1000 
 2752000   0.41651964   -2.4586585   0.62415467   -1.8345039     0.113014    11455.031     1000 
 2754000   0.42233236   -2.4283926   0.63286504   -1.7955276    0.1346871    11299.847     1000 
 2756000   0.44647442   -2.4323552   0.66904192   -1.7633132   0.11380235    11470.209     1000 
 2758000   0.43659593   -2.4233813   0.65423901   -1.7691423   0.12938044    11401.697     1000 
 2760000   0.43279412   -2.4123803   0.64854199   -1.7638384   0.13196046    11356.803     1000 
 2762000   0.41970759   -2.4329373   0.62893182   -1.8040055   0.12464866    11416.187     1000 
 2764000   0.44614159   -2.4280171   0.66854318   -1.7594739   0.12996553    11426.206     1000 
 2766000   0.42371363   -2.4359207   0.63493487   -1.8009858   0.12025448    11392.153     1000 
 2768000   0.42779735   -2.4786959   0.64105433   -1.8376416   0.12952171    11405.242     1000 
 2770000   0.44160265   -2.4501958   0.66174157   -1.7884542   0.11978006    11393.552     1000 
 2772000   0.42308778   -2.4443405   0.63399704   -1.8103435   0.12428702    11494.795     1000 
 2774000   0.42722109   -2.4777628    0.6401908    -1.837572    0.1227015    11443.405     1000 
 2776000   0.42775628   -2.3978952   0.64099279   -1.7569024   0.13550258    11293.352     1000 
 2778000   0.44666473   -2.4030606    0.6693271   -1.7337335   0.11978618    11359.808     1000 
 2780000   0.43381702   -2.4217242    0.6500748   -1.7716494   0.13250222    11330.601     1000 
 2782000   0.43386021   -2.4197131   0.65013952   -1.7695735   0.12656804    11325.894     1000 
 2784000   0.41700362   -2.4271557   0.62487993   -1.8022758   0.12304618    11439.425     1000 
 2786000   0.43736497   -2.4512281    0.6553914   -1.7958367   0.14011805     11344.88     1000 
 2788000   0.43697432   -2.4264184   0.65480602   -1.7716124   0.12368128    11421.024     1000 
 2790000   0.42876242   -2.4412169   0.64250048   -1.7987164   0.11781279     11475.51     1000 
 2792000   0.40912909   -2.4191876   0.61307994   -1.8061076   0.11867991    11431.795     1000 
 2794000   0.43061037   -2.4239786   0.64526963    -1.778709   0.11990238    11397.879     1000 
 2796000   0.42883209   -2.4291335   0.64260488   -1.7865286   0.13236657    11438.476     1000 
 2798000   0.43055809   -2.4780454    0.6451913   -1.8328541   0.11998937    11449.573     1000 
 2800000   0.43040952   -2.4395088   0.64496867   -1.7945401   0.12486075    11375.506     1000 
 2802000   0.42413599   -2.4397784   0.63556779   -1.8042107   0.12369385    11440.541     1000 
 2804000   0.42885117   -2.4264753   0.64263349   -1.7838418   0.12539549    11446.296     1000 
 2806000   0.45426945   -2.4381492   0.68072277   -1.7574264   0.13618849    11404.235     1000 
 2808000   0.43623179   -2.4452242   0.65369334   -1.7915308   0.12683851    11434.543     1000 
 2810000   0.43264354   -2.4350337   0.64831635   -1.7867173   0.11745722    11454.366     1000 
 2812000   0.43737693   -2.4039976   0.65540933   -1.7485883   0.13244865    11306.947     1000 
 2814000   0.44028586   -2.4647169   0.65976836   -1.8049485   0.12740333    11534.728     1000 
 2816000   0.41705373   -2.4603761   0.62495501   -1.8354211   0.12027583    11419.721     1000 
 2818000   0.44558092   -2.3993846   0.66770301   -1.7316816   0.14020342    11289.628     1000 
 2820000   0.41794815   -2.4047547    0.6262953   -1.7784594   0.11226277    11454.572     1000 
 2822000   0.44997978   -2.3836227    0.6742947    -1.709328   0.12149933    11461.193     1000 
 2824000    0.4264967   -2.3844964   0.63910531    -1.745391   0.12313635    11540.982     1000 
 2826000   0.44193511   -2.3705058   0.66223976    -1.708266   0.13425609    11344.697     1000 
 2828000   0.43802628    -2.410352   0.65638238   -1.7539696   0.12286664    11409.033     1000 
 2830000   0.44594431   -2.4492039   0.66824755   -1.7809564   0.12497843    11458.939     1000 
 2832000   0.43219423   -2.4402998   0.64764305   -1.7926568   0.14050067    11212.317     1000 
 2834000   0.43536261   -2.4226922   0.65239087   -1.7703013   0.12617601    11436.048     1000 
 2836000   0.42818248    -2.398128   0.64163145   -1.7564966   0.14132508     11291.23     1000 
 2838000   0.42422201   -2.4341394   0.63569668   -1.7984427   0.14418604    11345.437     1000 
 2840000   0.42585108    -2.406566   0.63813785   -1.7684281   0.13189509    11375.459     1000 
 2842000   0.42149482   -2.4168797   0.63160999   -1.7852697   0.12494583    11376.266     1000 
 2844000   0.41375148   -2.4303361   0.62000659   -1.8103296   0.14176713    11276.502     1000 
 2846000   0.42576389   -2.4501043   0.63800718   -1.8120971   0.12534443    11359.989     1000 
 2848000   0.43327113   -2.3841842   0.64925679   -1.7349275   0.13416258    11289.646     1000 
 2850000   0.44776087   -2.4524993   0.67096966   -1.7815297   0.11958345    11434.999     1000 
 2852000   0.43998654   -2.3456882   0.65931983   -1.6863684   0.14083264      11198.2     1000 
 2854000   0.42093734   -2.4598392    0.6307746   -1.8290646   0.12760206    11427.228     1000 
 2856000   0.43685255   -2.4896857   0.65462355   -1.8350621    0.1246552    11542.806     1000 
 2858000   0.44796927   -2.3866339   0.67128195   -1.7153519   0.13534001    11265.419     1000 
 2860000   0.42120148   -2.4377238   0.63117041   -1.8065534   0.13848007    11266.548     1000 
 2862000   0.42511824   -2.3956101   0.63703968   -1.7585704   0.13168673    11348.788     1000 
 2864000   0.41779024   -2.4460002   0.62605867   -1.8199415   0.12920002     11493.66     1000 
 2866000   0.45334692   -2.4413268   0.67934037   -1.7619865   0.12819685    11424.758     1000 
 2868000   0.41698792   -2.4328174   0.62485639    -1.807961   0.12535749    11434.874     1000 
 2870000   0.43969041   -2.3981975   0.65887607   -1.7393215   0.13737905    11293.763     1000 
 2872000   0.42177217   -2.4308776    0.6320256    -1.798852   0.12802709    11370.959     1000 
 2874000   0.40465356   -2.3912127   0.60637336   -1.7848394    0.1326215    11268.196     1000 
 2876000   0.43094531   -2.4714458   0.64577155   -1.8256743   0.12923616    11459.725     1000 
 2878000   0.41089942   -2.4373485   0.61573278   -1.8216157   0.13929802    11206.102     1000 
 2880000   0.44249591   -2.4128161   0.66308012   -1.7497359   0.13203617    11374.552     1000 
 2882000   0.41499656   -2.4216762   0.62187235   -1.7998038   0.12227616    11343.151     1000 
 2884000   0.42909232    -2.404046   0.64299484   -1.7610511   0.12216062    11489.424     1000 
 2886000   0.42885729   -2.4159257   0.64264265   -1.7732831   0.12671382    11426.677     1000 
 2888000   0.43467017   -2.3999324   0.65135325   -1.7485791   0.12900797    11281.949     1000 
 2890000   0.43009185    -2.419094   0.64449264   -1.7746014   0.14745482    11233.375     1000 
 2892000   0.43446313   -2.3650717     0.651043   -1.7140287    0.1190114    11391.632     1000 
 2894000   0.44821311   -2.4504806   0.67164735   -1.7788333   0.13421666    11401.184     1000 
 2896000   0.41643684   -2.4610636   0.62403061    -1.837033   0.11880212    11466.485     1000 
 2898000   0.44183072   -2.4127264   0.66208333   -1.7506431   0.12168588    11425.344     1000 
 2900000   0.46226338   -2.3962599   0.69270168   -1.7035582   0.12704552    11430.681     1000 
 2902000   0.43512255   -2.4566187   0.65203115   -1.8045876   0.13584679    11307.626     1000 
 2904000   0.43492187   -2.4354788   0.65173041   -1.7837484   0.12472063    11565.589     1000 
 2906000   0.41344106   -2.4687765   0.61954143   -1.8492351   0.13598837    11312.604     1000 
 2908000   0.43906565   -2.4655974   0.65793987   -1.8076575   0.12541026    11500.932     1000 
 2910000   0.42235212   -2.4554164   0.63289466   -1.8225217   0.13160353    11402.688     1000 
 2912000   0.42604673   -2.4475384   0.63843103   -1.8091074   0.13396393    11405.344     1000 
 2914000   0.43339693   -2.4259044    0.6494453   -1.7764591   0.11947732    11485.475     1000 
 2916000   0.43852845   -2.4041065   0.65713488   -1.7469716   0.12278132    11383.872     1000 
 2918000   0.40498532   -2.4611934   0.60687051   -1.8543229    0.1115327    11545.582     1000 
 2920000   0.43665959     -2.44307    0.6543344   -1.7887356   0.12465243    11379.657     1000 
 2922000   0.44252713   -2.4670811    0.6631269   -1.8039542   0.13764351    11362.773     1000 
 2924000   0.42772066   -2.3749974   0.64093942    -1.734058   0.13578947    11272.972     1000 
 2926000   0.43366717   -2.4123943   0.64985025   -1.7625441    0.1210075    11520.355     1000 
 2928000   0.42825391   -2.4724213   0.64173848   -1.8306828   0.12712325    11338.922     1000 
 2930000   0.44154626   -2.4296405   0.66165707   -1.7679835   0.13312665    11408.178     1000 
 2932000    0.4147825   -2.4884507   0.62155158   -1.8668991   0.11882758    11447.785     1000 
 2934000   0.43615872   -2.4441936   0.65358384   -1.7906097   0.12771657    11418.223     1000 
 2936000    0.4057584   -2.4189013   0.60802896   -1.8108723   0.12029003    11415.628     1000 
 2938000    0.4587814   -2.4559947   0.68748393   -1.7685108    0.1258141    11377.683     1000 
 2940000   0.40925255   -2.3768973   0.61326495   -1.7636324   0.13654474     11231.72     1000 
 2942000   0.42591614   -2.3942184   0.63823534   -1.7559831   0.14266742    11163.988     1000 
 2944000   0.42724532   -2.4480686   0.64022711   -1.8078415   0.12228293    11582.857     1000 
 2946000   0.45321893   -2.4659357   0.67914857   -1.7867871   0.13578639    11373.798     1000 
 2948000   0.43671181   -2.4121582   0.65441264   -1.7577455   0.13711745    11291.376     1000 
 2950000   0.42947179   -2.4405255   0.64356348    -1.796962   0.11381261    11426.044     1000 
 2952000     0.435412   -2.4324616   0.65246488   -1.7799967   0.13115196    11381.247     1000 
 2954000   0.43601761   -2.4543362   0.65337239   -1.8009638   0.12325421    11420.736     1000 
 2956000   0.42709388   -2.4646613   0.64000017   -1.8246611   0.13663332     11391.13     1000 
 2958000   0.41961027   -2.4152555   0.62878599   -1.7864695   0.13046925    11425.433     1000 
 2960000   0.43166534   -2.3831289   0.64685051   -1.7362783   0.13696845    11360.107     1000 
 2962000   0.43822527   -2.4262591   0.65668057   -1.7695786   0.13840104    11362.295     1000 
 2964000   0.41090457   -2.4034497    0.6157405   -1.7877092   0.13999336     11306.06     1000 
 2966000   0.44649366   -2.4132053   0.66907075   -1.7441346   0.12941066    11445.739     1000 
 2968000    0.4309526   -2.4511661   0.64578247   -1.8053836   0.12498948    11378.744     1000 
 2970000   0.40921459   -2.4605788   0.61320807   -1.8473707   0.11889307    11505.726     1000 
 2972000   0.43080147   -2.3665507     0.645556   -1.7209947   0.12170727    11421.003     1000 
 2974000   0.42620926   -2.4410011   0.63867458   -1.8023265    0.1377755    11389.006     1000 
 2976000   0.43572411    -2.404845   0.65293258   -1.7519125   0.13309017     11411.59     1000 
 2978000   0.43040541   -2.4314168   0.64496251   -1.7864543   0.13838028    11349.453     1000 
 2980000   0.42567291   -2.3931383   0.63787085   -1.7552675   0.13437051    11291.508     1000 
 2982000   0.43484286   -2.3580666   0.65161203   -1.7064546   0.14443282    11175.637     1000 
 2984000   0.42998775   -2.4131999   0.64433665   -1.7688632   0.13704545    11301.887     1000 
 2986000   0.43665628   -2.4403763   0.65432943   -1.7860469   0.13491725    11359.335     1000 
 2988000   0.43594063   -2.4859879   0.65325703   -1.8327308   0.12858763    11436.373     1000 
 2990000   0.41695863   -2.4169142   0.62481251   -1.7921017   0.12736633    11497.088     1000 
 2992000   0.42826331   -2.4891883   0.64175257   -1.8474358   0.13683192    11310.064     1000 
 2994000   0.43539229    -2.498624   0.65243535   -1.8461887   0.13050369    11479.456     1000 
 2996000   0.42062494   -2.4213753   0.63030647   -1.7910688   0.11586047    11527.091     1000 
 2998000   0.43443468   -2.4517811   0.65100037   -1.8007808   0.13176711    11384.551     1000 
 3000000   0.42225254   -2.4136201   0.63274543   -1.7808746   0.14713474    11303.428     1000 
Loop time of 1961.39 on 1 procs for 3000000 steps with 1000 atoms

Performance: 660757.224 tau/day, 1529.531 timesteps/s
100.0% CPU use with 1 MPI tasks x 1 OpenMP threads

MPI task timing breakdown:
Section |  min time  |  avg time  |  max time  |%varavg| %total
---------------------------------------------------------------
Pair    | 1575.7     | 1575.7     | 1575.7     |   0.0 | 80.34
Neigh   | 203.69     | 203.69     | 203.69     |   0.0 | 10.39
Comm    | 41.838     | 41.838     | 41.838     |   0.0 |  2.13
Output  | 0.18983    | 0.18983    | 0.18983    |   0.0 |  0.01
Modify  | 132.09     | 132.09     | 132.09     |   0.0 |  6.73
Other   |            | 7.872      |            |       |  0.40

Nlocal:        1000.00 ave        1000 max        1000 min
Histogram: 1 0 0 0 0 0 0 0 0 0
Nghost:        2227.00 ave        2227 max        2227 min
Histogram: 1 0 0 0 0 0 0 0 0 0
Neighs:        27705.0 ave       27705 max       27705 min
Histogram: 1 0 0 0 0 0 0 0 0 0

Total # of neighbors = 27705
Ave neighs/atom = 27.705000
Neighbor list builds = 150000
Dangerous builds not checked

Total wall time: 0:32:41
