LAMMPS (29 Sep 2021 - Update 2)
OMP_NUM_THREADS environment is not set. Defaulting to 1 thread. (src/comm.cpp:98)
  using 1 OpenMP thread(s) per MPI task
# ----------------------- Inicialização -----------------------

units			lj
atom_style 		atomic
dimension 		3
boundary 		p p p

# -------------------- Criação dos Átomos ---------------------

read_data 		topologia.txt
Reading data file ...
  orthogonal box = (0.0000000 0.0000000 0.0000000) to (21.540000 21.540000 21.540000)
  1 by 1 by 1 MPI processor grid
  reading atoms ...
  1000 atoms
  read_data CPU = 0.002 seconds

velocity 		all create ${temp} 87287 rot yes dist gaussian
velocity 		all create 0.44 87287 rot yes dist gaussian

# ------------------ Interação Interatômica -------------------

pair_style		table linear 1000
pair_coeff		1 1 force.table AA 5.0
WARNING: 2 of 1000 force values in table AA are inconsistent with -dE/dr.
WARNING:  Should only be flagged at inflection points (src/pair_table.cpp:465)
pair_coeff		1 2 force.table AB 5.0
WARNING: 1 of 1000 force values in table AB are inconsistent with -dE/dr.
WARNING:  Should only be flagged at inflection points (src/pair_table.cpp:465)
pair_coeff		2 2 force.table BB 5.0
pair_write		1 1 1000 r 0.008 5.0 table.check AA
Appending to table file table.check with DATE: 2023-07-05
Neighbor list info ...
  update every 1 steps, delay 10 steps, check yes
  max neighbors/atom: 2000, page size: 100000
  master list distance cutoff = 5.3
  ghost atom cutoff = 5.3
  binsize = 2.65, bins = 9 9 9
  1 neighbor lists, perpetual/occasional/extra = 1 0 0
  (1) pair table, perpetual
      attributes: half, newton on
      pair build: half/bin/atomonly/newton
      stencil: half/bin/3d
      bin: standard
pair_write		1 2 1000 r 0.008 5.0 table.check AB
Appending to table file table.check with DATE: 2023-07-05
pair_write		2 2 1000 r 0.008 5.0 table.check BB
Appending to table file table.check with DATE: 2023-07-05

neighbor 		0.3 bin
neigh_modify		every 20 delay 0 check no

# ------------------------- Ensemble --------------------------------------

fix 1			all npt temp ${temp} ${temp} 0.5 iso ${press} ${press} 5
fix 1			all npt temp 0.44 ${temp} 0.5 iso ${press} ${press} 5
fix 1			all npt temp 0.44 0.44 0.5 iso ${press} ${press} 5
fix 1			all npt temp 0.44 0.44 0.5 iso 0.13 ${press} 5
fix 1			all npt temp 0.44 0.44 0.5 iso 0.13 0.13 5

# ---------------------- Função de Distribuição Radial -----------------------

#compute RDF 		all rdf 2000 1 1 1 2 2 2
#fix 2 			all ave/time 1 2000 2000 c_RDF[*] file rdf.data mode vector

# ------------------------- Execução ---------------------------

timestep 		0.005
thermo_style		custom step temp pe ke etotal press vol atoms
thermo			2000
run			3000000
Per MPI rank memory allocation (min/avg/max) = 2.670 | 2.670 | 2.670 Mbytes
Step Temp PotEng KinEng TotEng Press Volume Atoms 
       0         0.44   0.35919964      0.65934    1.0185396   0.94016659    9993.9483     1000 
    2000   0.45287128    -2.291138   0.67862762   -1.6125104   0.13535447     11204.81     1000 
    4000   0.43759138   -2.3936999   0.65573069   -1.7379693   0.13632395    11445.676     1000 
    6000   0.44751756   -2.3893488   0.67060507   -1.7187437   0.11954932    11442.469     1000 
    8000   0.43109361   -2.3991574   0.64599378   -1.7531636   0.13551339    11298.045     1000 
   10000   0.44108247    -2.354976   0.66096208    -1.694014   0.12961766    11402.377     1000 
   12000   0.42562872   -2.3639735   0.63780463   -1.7261689   0.14860057     11245.63     1000 
   14000   0.44971286   -2.3864208   0.67389472   -1.7125261   0.12231591    11496.432     1000 
   16000   0.45724602   -2.3690444   0.68518315   -1.6838612   0.13078762     11342.39     1000 
   18000   0.43246328   -2.3879962   0.64804623   -1.7399499   0.13548026    11408.436     1000 
   20000    0.4224491   -2.3529559   0.63303998    -1.719916   0.12451663    11286.735     1000 
   22000   0.43430902   -2.4714774   0.65081207   -1.8206653   0.12845306    11350.326     1000 
   24000   0.44472935   -2.4596422   0.66642694   -1.7932153   0.13837285    11434.462     1000 
   26000   0.46642502   -2.4061031   0.69893789   -1.7071653   0.14062239    11264.809     1000 
   28000   0.41032166   -2.3793781   0.61486701   -1.7645111   0.13793167    11288.571     1000 
   30000   0.44634566   -2.4054426   0.66884897   -1.7365937   0.12787441    11346.471     1000 
   32000    0.4321833   -2.3829639   0.64762667   -1.7353373   0.14535972    11394.469     1000 
   34000   0.43110822   -2.3937229   0.64601567   -1.7477073   0.14124416    11265.243     1000 
   36000   0.45271351   -2.3987346    0.6783912   -1.7203434   0.11866556    11480.588     1000 
   38000   0.43189108   -2.3878459   0.64718878   -1.7406571   0.13461297    11367.026     1000 
   40000   0.43119594   -2.3945975   0.64614712   -1.7484503   0.12483297    11435.624     1000 
   42000   0.44277483   -2.3784953   0.66349808   -1.7149972   0.12984667    11383.161     1000 
   44000   0.43270298   -2.3958877   0.64840542   -1.7474823   0.12758304    11309.063     1000 
   46000   0.43773574   -2.4162069   0.65594701   -1.7602599   0.13973857    11290.649     1000 
   48000   0.43137442   -2.4431034   0.64641456   -1.7966888   0.12242645    11488.376     1000 
   50000   0.43436164   -2.4063824   0.65089092   -1.7554915    0.1275538    11385.126     1000 
   52000   0.43960812   -2.3994109   0.65875277   -1.7406582   0.13804096    11346.514     1000 
   54000   0.44693236   -2.3598762   0.66972814    -1.690148     0.136472    11482.284     1000 
   56000    0.4593879   -2.3761366   0.68839276   -1.6877439   0.12934799    11301.599     1000 
   58000   0.43349014   -2.3897347   0.64958498   -1.7401497   0.12187001    11452.468     1000 
   60000   0.43461644   -2.3847468   0.65127273   -1.7334741   0.12207662    11462.228     1000 
   62000   0.44387158   -2.4410349   0.66514157   -1.7758934   0.13726538    11494.656     1000 
   64000   0.44154985   -2.3866941   0.66166245   -1.7250317   0.14739765    11338.589     1000 
   66000     0.468266   -2.4237433    0.7016966   -1.7220467   0.12952615    11479.841     1000 
   68000   0.44481465   -2.4052085   0.66655475   -1.7386537   0.13055617    11289.605     1000 
   70000   0.43980628   -2.3454378   0.65904972   -1.6863881   0.12994533    11247.338     1000 
   72000   0.45645555   -2.4194546   0.68399863    -1.735456   0.13828637    11275.372     1000 
   74000   0.43528606   -2.3977723   0.65227616   -1.7454961   0.12015926    11362.302     1000 
   76000   0.43808409   -2.4406771   0.65646902   -1.7842081   0.12263681    11413.464     1000 
   78000   0.43639511   -2.4194039   0.65393807   -1.7654658   0.13114398    11451.908     1000 
   80000   0.46146426   -2.4283013    0.6915042   -1.7367971   0.12887759    11431.427     1000 
   82000   0.45457389   -2.4297023   0.68117897   -1.7485233   0.12233026    11509.808     1000 
   84000   0.45213342   -2.4060664   0.67752193   -1.7285445   0.11230745    11540.096     1000 
   86000   0.46379321   -2.3829974   0.69499413   -1.6880033   0.13197228    11305.207     1000 
   88000   0.44398021   -2.4123712   0.66530435   -1.7470668   0.12119375    11350.477     1000 
   90000    0.4404087   -2.3540532   0.65995244   -1.6941008   0.13039629    11316.334     1000 
   92000   0.43306041   -2.4005991   0.64894102   -1.7516581   0.13398371    11376.815     1000 
   94000   0.44148302   -2.4105501   0.66156231   -1.7489878   0.13326923    11308.677     1000 
   96000   0.44250616   -2.3371817   0.66309548   -1.6740862   0.13068365    11312.363     1000 
   98000   0.45766336   -2.3902484   0.68580855   -1.7044398   0.12897418    11435.039     1000 
  100000   0.46261209   -2.3855961   0.69322422   -1.6923719   0.14420894    11362.736     1000 
  102000   0.42275522   -2.3809298   0.63349869   -1.7474311   0.13304399    11279.754     1000 
  104000   0.42945337   -2.4134476   0.64353587   -1.7699118    0.1329244    11292.822     1000 
  106000   0.43828394   -2.3816549   0.65676848   -1.7248864    0.1250583    11358.595     1000 
  108000   0.43905425   -2.4404571    0.6579228   -1.7825343   0.12857089    11391.119     1000 
  110000   0.40544482   -2.3956745   0.60755906   -1.7881154   0.12582506    11326.426     1000 
  112000   0.45795836    -2.379402   0.68625061   -1.6931514   0.14403899    11383.306     1000 
  114000   0.44705198   -2.3558472   0.66990739   -1.6859398   0.14417637    11255.263     1000 
  116000     0.442443   -2.3736794   0.66300084   -1.7106785   0.13584718    11355.565     1000 
  118000   0.44614545   -2.4478366   0.66854896   -1.7792877   0.13102872    11316.824     1000 
  120000   0.44661871   -2.4548105   0.66925813   -1.7855524   0.14029568    11446.012     1000 
  122000   0.43808537    -2.384172   0.65647093    -1.727701   0.14025141    11305.994     1000 
  124000   0.44380567   -2.4053668    0.6650428    -1.740324   0.14432546    11308.017     1000 
  126000   0.41614666   -2.4309028   0.62359576   -1.8073071   0.12483042    11435.686     1000 
  128000   0.44563734   -2.3751628   0.66778756   -1.7073752   0.11856278    11496.097     1000 
  130000   0.44160942   -2.4371359   0.66175172   -1.7753842    0.1367766    11397.944     1000 
  132000   0.46171341   -2.3854331   0.69187754   -1.6935555   0.12499187    11291.045     1000 
  134000   0.43486041   -2.3384058   0.65163833   -1.6867675   0.14245745    11244.183     1000 
  136000   0.44250464   -2.3776714   0.66309321   -1.7145781   0.12367448    11366.561     1000 
  138000    0.4389025   -2.4531667    0.6576954   -1.7954713   0.12548654    11485.417     1000 
  140000   0.46275616   -2.3784792    0.6934401   -1.6850391   0.12284812    11434.237     1000 
  142000   0.43450366   -2.3978814   0.65110374   -1.7467777   0.12246658     11457.89     1000 
  144000   0.43245027   -2.3632758   0.64802672    -1.715249    0.1169546    11508.603     1000 
  146000   0.43726943   -2.4338831   0.65524824   -1.7786349   0.14317775    11392.599     1000 
  148000   0.44757109   -2.4025888   0.67068528   -1.7319035   0.14759234    11305.009     1000 
  150000   0.44494552   -2.4512822   0.66675085   -1.7845313   0.13211194    11493.599     1000 
  152000   0.42645453   -2.4017604   0.63904212   -1.7627183   0.13436568    11305.533     1000 
  154000   0.43887937   -2.3845754   0.65766073   -1.7269146   0.14632666    11385.145     1000 
  156000   0.44289141   -2.3705665   0.66367278   -1.7068937   0.14691487    11267.905     1000 
  158000   0.43014154   -2.3870386    0.6445671   -1.7424715   0.11809928    11412.252     1000 
  160000   0.44313051    -2.433328   0.66403107    -1.769297   0.12528243    11427.665     1000 
  162000   0.44864642   -2.4548433   0.67229665   -1.7825466   0.12416763    11473.113     1000 
  164000    0.4555557   -2.3906489   0.68265022   -1.7079987   0.12771032    11405.165     1000 
  166000   0.43871812   -2.4097602    0.6574191   -1.7523411   0.12467427    11462.057     1000 
  168000   0.44477895   -2.3440412   0.66650126   -1.6775399   0.13120737    11410.504     1000 
  170000    0.4426319   -2.4118661   0.66328391   -1.7485822   0.13236406    11384.915     1000 
  172000   0.44051069   -2.4094398   0.66010527   -1.7493345   0.12902411    11446.696     1000 
  174000   0.44811735   -2.3873912   0.67150384   -1.7158873   0.13213547    11435.229     1000 
  176000   0.44569914   -2.4273934   0.66788016   -1.7595133   0.14455961    11372.083     1000 
  178000   0.44987111   -2.3909965   0.67413186   -1.7168646   0.13944437    11270.572     1000 
  180000   0.42265826   -2.4076413   0.63335341   -1.7742879   0.11890118     11376.01     1000 
  182000   0.45467397   -2.4324593   0.68132894   -1.7511304   0.12055982    11460.938     1000 
  184000   0.45944599   -2.4095294   0.68847981   -1.7210496   0.13355874    11488.556     1000 
  186000   0.43821058   -2.4336181   0.65665855   -1.7769595   0.13372353    11411.255     1000 
  188000   0.44716647   -2.3656462   0.67007896   -1.6955672   0.13546418    11396.432     1000 
  190000   0.42520242   -2.3876205   0.63716583   -1.7504547   0.12721883    11507.098     1000 
  192000   0.43994002   -2.3751987   0.65925012   -1.7159486   0.12852032    11388.738     1000 
  194000   0.42668087   -2.4031501   0.63938128   -1.7637688   0.13220573    11336.381     1000 
  196000   0.44031608   -2.4088664   0.65981365   -1.7490528   0.12765753    11462.119     1000 
  198000   0.45901659   -2.4391651   0.68783636   -1.7513287   0.13284872    11366.948     1000 
  200000   0.45194963   -2.4231967   0.67724652   -1.7459501   0.13461174    11372.459     1000 
  202000    0.4190909   -2.4300568   0.62800771   -1.8020491   0.12405585    11393.112     1000 
  204000   0.44741784   -2.3810349   0.67045564   -1.7105793    0.1406523    11213.072     1000 
  206000     0.434465   -2.3606121    0.6510458   -1.7095663   0.12718094     11360.24     1000 
  208000   0.41957393    -2.380768   0.62873154   -1.7520364   0.12635655    11350.992     1000 
  210000   0.45019865   -2.3897827   0.67462268   -1.7151601   0.13842783    11319.322     1000 
  212000   0.44656421     -2.42388   0.66917647   -1.7547036   0.13358932    11370.297     1000 
  214000   0.45660215   -2.4188471   0.68421832   -1.7346288   0.13545709    11401.319     1000 
  216000   0.43622802    -2.416592   0.65368769   -1.7629044   0.12262667    11460.614     1000 
  218000   0.44462482   -2.4416372   0.66627029   -1.7753669   0.12821766    11411.173     1000 
  220000   0.44416297    -2.405068   0.66557821   -1.7394898   0.12601896    11392.335     1000 
  222000   0.43500094   -2.4262044   0.65184891   -1.7743555   0.12773815    11486.623     1000 
  224000   0.45459716   -2.3369976   0.68121384   -1.6557838   0.14257145    11309.679     1000 
  226000   0.43788472   -2.3716397   0.65617025   -1.7154694   0.13053923    11270.014     1000 
  228000   0.42973633   -2.4039331   0.64395989   -1.7599732    0.1299077    11351.288     1000 
  230000    0.4305411   -2.3664019   0.64516583   -1.7212361   0.12199326    11422.862     1000 
  232000   0.43085966   -2.4001066   0.64564321   -1.7544634   0.14638152     11348.68     1000 
  234000   0.42070729   -2.3845368   0.63042988    -1.754107   0.12494958    11390.288     1000 
  236000   0.44237067   -2.4329054   0.66289245    -1.770013   0.13509776    11404.893     1000 
  238000   0.44093599   -2.3633804   0.66074259   -1.7026378   0.12415104    11311.365     1000 
  240000   0.44295186   -2.3594446   0.66376337   -1.6956812   0.12683158    11431.384     1000 
  242000   0.43551672   -2.3783945   0.65262181   -1.7257727   0.13379812    11369.232     1000 
  244000   0.42381313   -2.3430908   0.63508397   -1.7080068   0.12139645     11417.55     1000 
  246000    0.4407299   -2.3721472   0.66043375   -1.7117134   0.13477538    11296.205     1000 
  248000   0.45334851   -2.4292833   0.67934274   -1.7499405   0.12642938    11425.759     1000 
  250000   0.43767086   -2.4451396   0.65584979   -1.7892899   0.12397855    11438.815     1000 
  252000    0.4363269    -2.405935   0.65383585   -1.7520991   0.12205181    11372.006     1000 
  254000   0.43231432   -2.4079247   0.64782301   -1.7601017   0.12737884    11396.947     1000 
  256000   0.43076746   -2.4106011   0.64550504    -1.765096   0.13005637    11295.574     1000 
  258000   0.43855195   -2.3512193   0.65717009   -1.6940492   0.13135353    11453.558     1000 
  260000   0.43900075   -2.3795524   0.65784263   -1.7217097   0.13257536    11419.249     1000 
  262000   0.43924419   -2.4152885   0.65820741   -1.7570811   0.12039693    11484.325     1000 
  264000   0.44972166   -2.3890599   0.67390791    -1.715152   0.12457439    11472.609     1000 
  266000   0.43336845    -2.316712   0.64940262   -1.6673094   0.13779565    11337.227     1000 
  268000   0.44738717   -2.4439387   0.67040967    -1.773529   0.12497289    11490.664     1000 
  270000   0.42578806    -2.400205   0.63804341   -1.7621615   0.12779936     11421.89     1000 
  272000   0.43975124   -2.4008594   0.65896723   -1.7418922    0.1453384    11348.175     1000 
  274000   0.43498872   -2.4458509    0.6518306   -1.7940203   0.12163179    11489.745     1000 
  276000   0.43716934   -2.4258021   0.65509825   -1.7707038   0.13293686    11386.655     1000 
  278000   0.44109863   -2.3997772   0.66098629   -1.7387909   0.13468533    11352.455     1000 
  280000   0.42810223   -2.4042743    0.6415112   -1.7627631   0.14284454    11297.106     1000 
  282000     0.441001   -2.3992339      0.66084   -1.7383939   0.13757233    11388.173     1000 
  284000   0.43973484   -2.3993155   0.65894265   -1.7403728   0.12571857    11365.437     1000 
  286000   0.43823896   -2.3561452   0.65670108   -1.6994441   0.12955729    11380.695     1000 
  288000   0.44778131   -2.3769872   0.67100029   -1.7059869   0.12505533     11459.84     1000 
  290000    0.4463059   -2.4058292   0.66878938   -1.7370398   0.11770272    11504.566     1000 
  292000   0.42646076   -2.4223837   0.63905145   -1.7833322   0.14293307    11321.709     1000 
  294000   0.42243026   -2.4227517   0.63301175     -1.78974   0.12059295    11510.116     1000 
  296000    0.4576668    -2.405524    0.6858137   -1.7197103   0.13826716    11366.226     1000 
  298000     0.453033   -2.4663663   0.67886996   -1.7874964   0.13560663    11483.651     1000 
  300000   0.44188348    -2.389547   0.66216239   -1.7273846   0.12715263     11484.19     1000 
  302000   0.45187086   -2.3684131   0.67712848   -1.6912846    0.1310786    11414.115     1000 
  304000   0.44606069    -2.388584   0.66842194    -1.720162     0.141439    11386.733     1000 
  306000   0.43606523   -2.3946761   0.65344374   -1.7412323   0.13564595    11426.732     1000 
  308000   0.45543692   -2.4750695   0.68247222   -1.7925973    0.1245378    11628.327     1000 
  310000   0.44381827   -2.3851623   0.66506168   -1.7201006   0.13702931    11244.238     1000 
  312000   0.43696413   -2.4092565   0.65479075   -1.7544658   0.12735757    11343.468     1000 
  314000   0.45990315   -2.3660274   0.68916488   -1.6768625   0.13047633    11234.528     1000 
  316000   0.44651218   -2.3420452    0.6690985   -1.6729467   0.12744959    11378.028     1000 
  318000   0.44060735   -2.3857998   0.66025011   -1.7255497   0.12635306    11535.195     1000 
  320000    0.4511596   -2.3802987   0.67606266    -1.704236    0.1346154    11280.896     1000 
  322000   0.42176077   -2.3878814   0.63200851   -1.7558729    0.1172176    11408.241     1000 
  324000   0.42977734   -2.3761082   0.64402134   -1.7320868   0.13940829    11360.956     1000 
  326000   0.46655284   -2.3936969   0.69912943   -1.6945675    0.1443578    11239.155     1000 
  328000   0.46879973   -2.4288491   0.70249639   -1.7263527   0.12166664    11420.877     1000 
  330000   0.43339573   -2.3444026   0.64944351   -1.6949591   0.13385937    11350.908     1000 
  332000   0.45349153    -2.394356   0.67955705   -1.7147989   0.13433546    11292.727     1000 
  334000   0.42079649   -2.3810909   0.63056354   -1.7505274   0.13513714    11235.565     1000 
  336000   0.44123773    -2.388936   0.66119473   -1.7277413   0.13308046     11410.02     1000 
  338000   0.44443187    -2.436407   0.66598115   -1.7704259   0.12685039    11467.364     1000 
  340000    0.4384419   -2.3934106   0.65700518   -1.7364055   0.13159895    11305.475     1000 
  342000   0.45344087   -2.3790883   0.67948114   -1.6996072   0.13107968    11344.164     1000 
  344000   0.43475632   -2.4143172   0.65148234   -1.7628349   0.12281914    11427.467     1000 
  346000   0.44154177   -2.3984387   0.66165035   -1.7367883   0.14461929    11351.212     1000 
  348000    0.4302193   -2.4272521   0.64468362   -1.7825685   0.12812671    11467.223     1000 
  350000    0.4418075   -2.4090346   0.66204854   -1.7469861   0.13265631     11362.98     1000 
  352000   0.44344501   -2.4173276   0.66450235   -1.7528253   0.13907011    11477.852     1000 
  354000   0.44244757   -2.3799744   0.66300768   -1.7169667    0.1361992     11304.74     1000 
  356000    0.4342257   -2.4131377    0.6506872   -1.7624505   0.13362397    11276.285     1000 
  358000    0.4483229   -2.3827159   0.67181187    -1.710904     0.123074    11375.174     1000 
  360000     0.435065   -2.3876335    0.6519449   -1.7356886   0.12461675    11446.776     1000 
  362000   0.43397856   -2.4297524   0.65031687   -1.7794355   0.13781723    11382.731     1000 
  364000    0.4595697   -2.3673579    0.6886652   -1.6786927   0.14422913    11282.257     1000 
  366000   0.44745973   -2.4119971   0.67051841   -1.7414787   0.12611997    11489.287     1000 
  368000   0.43754608   -2.3820534   0.65566279   -1.7263906   0.14144394    11397.493     1000 
  370000   0.42351612   -2.3872284   0.63463891   -1.7525895   0.13031851    11238.775     1000 
  372000   0.44427341   -2.3713626    0.6657437   -1.7056189   0.12336127    11422.674     1000 
  374000   0.42126443   -2.3990692   0.63126475   -1.7678044   0.12756261    11427.984     1000 
  376000   0.43174593   -2.4264065   0.64697127   -1.7794352   0.12205396        11429     1000 
  378000   0.45839072   -2.4432838   0.68689849   -1.7563853   0.13772641    11369.526     1000 
  380000   0.43657864   -2.4179173    0.6542131   -1.7637042   0.12102101    11488.832     1000 
  382000   0.44000116   -2.3771879   0.65934174   -1.7178462   0.13669269    11340.325     1000 
  384000   0.41713942   -2.4055728   0.62508342   -1.7804894   0.13789565    11337.484     1000 
  386000   0.46246333   -2.3881085    0.6930013   -1.6951072   0.13370052    11349.174     1000 
  388000   0.46213967   -2.3628107    0.6925163   -1.6702944   0.12864773    11279.593     1000 
  390000    0.4262424   -2.4058521   0.63872424   -1.7671279   0.12908263    11316.668     1000 
  392000    0.4557014    -2.381902   0.68286854   -1.6990335   0.13642503    11250.431     1000 
  394000   0.44071672   -2.3563412     0.660414   -1.6959272   0.14747259    11149.214     1000 
  396000   0.42960771   -2.3493061   0.64376716    -1.705539   0.13670881    11310.019     1000 
  398000   0.43812612   -2.3665682   0.65653199   -1.7100362    0.1206458    11482.508     1000 
  400000   0.44393298   -2.3676534   0.66523356   -1.7024199   0.14159383    11274.564     1000 
  402000   0.41975188   -2.4624346    0.6289982   -1.8334364    0.1117853    11632.778     1000 
  404000   0.44022399   -2.3185952   0.65967565   -1.6589196   0.14299279    11284.383     1000 
  406000   0.44497711   -2.3931728   0.66679819   -1.7263746   0.13750982    11330.446     1000 
  408000   0.43188425   -2.4195793   0.64717855   -1.7724007   0.13326939     11325.02     1000 
  410000   0.46716926   -2.4350155   0.70005314   -1.7349624   0.13278854    11343.449     1000 
  412000   0.43749566   -2.3759381   0.65558724   -1.7203508   0.13134112     11413.22     1000 
  414000   0.43064059   -2.3906661   0.64531492   -1.7453512   0.11854229    11475.776     1000 
  416000   0.43518694   -2.4068001   0.65212762   -1.7546725   0.13181646     11340.56     1000 
  418000   0.43913683   -2.3561404   0.65804653   -1.6980939   0.12858393     11405.33     1000 
  420000    0.4492773   -2.4289016   0.67324203   -1.7556596   0.12875582    11376.392     1000 
  422000   0.45885971   -2.4021283   0.68760127   -1.7145271   0.13692235    11305.645     1000 
  424000   0.43815506   -2.4263268   0.65657535   -1.7697515   0.12155583    11391.232     1000 
  426000   0.44379645    -2.422921   0.66502898   -1.7578921    0.1334598    11400.667     1000 
  428000   0.43016069   -2.4082216    0.6445958   -1.7636258   0.13133001    11421.352     1000 
  430000   0.43469357   -2.3884329   0.65138831   -1.7370445   0.13294101    11392.069     1000 
  432000   0.44564576    -2.321594   0.66780017   -1.6537938    0.1441576    11280.898     1000 
  434000   0.41472552    -2.404196    0.6214662   -1.7827298   0.13618873    11279.157     1000 
  436000    0.4310703   -2.4155723   0.64595884   -1.7696135   0.14703223    11388.858     1000 
  438000   0.43530889   -2.3912401   0.65231037   -1.7389297   0.12966528    11453.028     1000 
  440000   0.42258878   -2.4049727   0.63324929   -1.7717234   0.12592473    11464.131     1000 
  442000   0.43629279   -2.4135624   0.65378474   -1.7597777   0.11626205    11442.367     1000 
  444000   0.42830061    -2.410082   0.64180847   -1.7682735   0.12468792     11429.29     1000 
  446000    0.4414632   -2.4155386    0.6615326    -1.754006   0.14011157    11340.989     1000 
  448000   0.45055326   -2.3962209   0.67515407   -1.7210669   0.12871275    11322.569     1000 
  450000   0.47575726   -2.4141996   0.71292226   -1.7012774   0.13162924    11306.356     1000 
  452000    0.4305514   -2.4149982   0.64518128   -1.7698169   0.12053941    11488.579     1000 
  454000   0.44456009   -2.3680295    0.6661733   -1.7018562   0.12702491    11381.481     1000 
  456000   0.42613278   -2.3846857   0.63855997   -1.7461258   0.13340634    11414.708     1000 
  458000   0.46416059   -2.4105411   0.69554465   -1.7149964   0.14374793    11289.231     1000 
  460000   0.45293289   -2.3471096   0.67871993   -1.6683897   0.13127005    11389.333     1000 
  462000   0.44348764   -2.3996805   0.66456623   -1.7351143   0.12090206    11388.956     1000 
  464000   0.42980811   -2.4474617   0.64406746   -1.8033942   0.12499405    11457.935     1000 
  466000   0.42825925   -2.4042238   0.64174648   -1.7624773   0.12305702    11366.807     1000 
  468000   0.42486878   -2.3971409   0.63666587   -1.7604751   0.12648878    11443.943     1000 
  470000   0.42612938   -2.4379273   0.63855488   -1.7993724   0.10859832    11639.016     1000 
  472000    0.4517622   -2.3820671   0.67696566   -1.7051014   0.12499371     11492.05     1000 
  474000   0.45471779   -2.4179425    0.6813946   -1.7365479   0.12487777    11347.446     1000 
  476000   0.43538468   -2.4593538   0.65242395   -1.8069298   0.13056279    11439.384     1000 
  478000   0.41755273   -2.3845499   0.62570277   -1.7588472   0.11224323    11469.859     1000 
  480000   0.40767053   -2.3399271   0.61089429   -1.7290328   0.12915183    11328.766     1000 
  482000   0.43316589   -2.4220321   0.64909909    -1.772933    0.1401325    11309.929     1000 
  484000   0.42903536   -2.3646739   0.64290949   -1.7217644   0.13820052    11167.469     1000 
  486000   0.45932866   -2.3799585     0.688304   -1.6916545   0.13499697    11294.362     1000 
  488000   0.42409962   -2.3586443   0.63551329   -1.7231311   0.13787475     11342.63     1000 
  490000   0.44130104   -2.4563376   0.66128961    -1.795048   0.12868732    11431.857     1000 
  492000   0.43872832   -2.3863231   0.65743438   -1.7288887   0.13081602    11346.022     1000 
  494000   0.45339411    -2.373336   0.67941107    -1.693925   0.12038452    11514.003     1000 
  496000   0.43755947   -2.4237245   0.65568287   -1.7680416   0.12345515    11410.926     1000 
  498000   0.43750168   -2.3650652   0.65559627   -1.7094689   0.14274229    11190.654     1000 
  500000   0.44458415   -2.3939673   0.66620935    -1.727758    0.1341269    11404.505     1000 
  502000   0.43531227    -2.381258   0.65231543   -1.7289425   0.12096575     11438.63     1000 
  504000   0.42954874   -2.3699985   0.64367878   -1.7263198   0.12508128    11353.784     1000 
  506000   0.43703294    -2.406667   0.65489386   -1.7517731   0.12591001    11477.721     1000 
  508000   0.44981687   -2.3725215   0.67405058    -1.698471   0.12393822    11457.773     1000 
  510000   0.44048715   -2.3927001   0.66006999   -1.7326301   0.12495995    11352.117     1000 
  512000   0.43836156   -2.4322706    0.6568848   -1.7753858   0.11530849    11461.624     1000 
  514000   0.42837593   -2.3537814   0.64192133   -1.7118601   0.12667685    11298.576     1000 
  516000   0.42492142   -2.3548243   0.63674475   -1.7180796   0.12939584    11420.362     1000 
  518000   0.44434868   -2.4339787    0.6658565   -1.7681222   0.12951018    11501.294     1000 
  520000   0.44411561     -2.40139   0.66550725   -1.7358827   0.14637579    11329.743     1000 
  522000   0.45356728   -2.4203717   0.67967057   -1.7407011   0.13036799    11356.306     1000 
  524000   0.43051721    -2.403271   0.64513004   -1.7581409   0.12404904    11378.854     1000 
  526000   0.45065818   -2.3736062   0.67531129   -1.6982949   0.12248245    11379.732     1000 
  528000   0.44346297   -2.3922838   0.66452926   -1.7277546   0.12936238    11461.127     1000 
  530000   0.44295071   -2.3896436   0.66376164    -1.725882   0.12571738    11508.347     1000 
  532000    0.4290371   -2.4232546    0.6429121   -1.7803425   0.12836844     11339.17     1000 
  534000   0.44619962   -2.4295242   0.66863013   -1.7608941   0.12296694    11449.521     1000 
  536000   0.42932787   -2.4042242   0.64334781   -1.7608764   0.12018842    11476.806     1000 
  538000   0.44674787   -2.4087811   0.66945168   -1.7393294   0.14016501    11382.598     1000 
  540000   0.44615464   -2.4103906   0.66856273   -1.7418279     0.141798    11372.548     1000 
  542000   0.43961042   -2.3901979   0.65875622   -1.7314417   0.13232889    11278.819     1000 
  544000   0.42817131   -2.3858237    0.6416147    -1.744209   0.11485281    11521.487     1000 
  546000   0.47214604   -2.4209736   0.70751083   -1.7134627   0.13856452    11374.994     1000 
  548000   0.43115623    -2.392086   0.64608761   -1.7459984   0.12719531    11273.251     1000 
  550000   0.42722285   -2.4017031   0.64019344   -1.7615097   0.12436789    11320.046     1000 
  552000   0.46037369   -2.4039529   0.68986998   -1.7140829   0.12859838    11328.032     1000 
  554000   0.44988418   -2.4152693   0.67415144   -1.7411179   0.12726415    11414.871     1000 
  556000   0.44803834    -2.368011   0.67138545   -1.6966255    0.1341764    11318.331     1000 
  558000   0.43444971   -2.4031664   0.65102289   -1.7521435   0.13242855    11352.252     1000 
  560000   0.42187096   -2.3733741   0.63217363   -1.7412005   0.12636035     11348.73     1000 
  562000   0.44465916   -2.3912871   0.66632175   -1.7249654   0.12991654    11308.178     1000 
  564000   0.44607723   -2.3617269   0.66844673   -1.6932802   0.13457975    11344.932     1000 
  566000   0.43240248    -2.356906   0.64795512   -1.7089509   0.13064095    11336.163     1000 
  568000   0.45737192    -2.413986   0.68537182   -1.7286142    0.1400766    11428.838     1000 
  570000   0.45842544   -2.4270222   0.68695052   -1.7400717   0.13885484    11382.959     1000 
  572000   0.44625669   -2.4239489   0.66871565   -1.7552332   0.12647549    11448.833     1000 
  574000   0.44096772   -2.4072092   0.66079013   -1.7464191   0.12493076    11348.555     1000 
  576000   0.42557624   -2.3651932   0.63772599   -1.7274672   0.12807898    11346.477     1000 
  578000   0.43944316   -2.4114369   0.65850557   -1.7529313   0.13542909    11356.079     1000 
  580000   0.46228365   -2.4245055   0.69273204   -1.7317735    0.1408837    11325.057     1000 
  582000   0.44383328   -2.3623729   0.66508417   -1.6972887   0.12912288    11354.591     1000 
  584000   0.43504302   -2.3965757   0.65191197   -1.7446638   0.12613449    11451.706     1000 
  586000   0.45958177   -2.3854849   0.68868328   -1.6968016   0.13329793    11319.699     1000 
  588000   0.42944341   -2.3823118   0.64352095   -1.7387908   0.12819297    11317.004     1000 
  590000   0.44383512   -2.4268525   0.66508693   -1.7617656   0.12892961    11335.922     1000 
  592000   0.44654735   -2.4139731    0.6691512   -1.7448219   0.13138688    11372.733     1000 
  594000   0.44110733      -2.4331   0.66099933   -1.7721007   0.13858334    11376.287     1000 
  596000   0.44235031   -2.3780215   0.66286194   -1.7151596   0.12706575    11367.786     1000 
  598000   0.45456105   -2.3811634   0.68115973   -1.7000036   0.13356513      11299.9     1000 
  600000   0.44153233   -2.4208754    0.6616362   -1.7592392   0.14665054    11284.961     1000 
  602000   0.43528563   -2.3859571   0.65227551   -1.7336816   0.13022631    11353.645     1000 
  604000   0.44902147   -2.3710481   0.67285868   -1.6981894    0.1296758    11392.168     1000 
  606000   0.44716468   -2.4061825   0.67007628   -1.7361063   0.13697731    11386.428     1000 
  608000   0.46233295   -2.4212517   0.69280593   -1.7284458   0.13966999     11243.98     1000 
  610000   0.43264375   -2.4004292   0.64831666   -1.7521126   0.13949372    11400.118     1000 
  612000     0.439416    -2.406176   0.65846487   -1.7477111   0.13088377    11405.952     1000 
  614000   0.45527658   -2.4249514   0.68223195   -1.7427195   0.13769451    11370.769     1000 
  616000   0.43771001    -2.410482   0.65590845   -1.7545736   0.13157525    11291.682     1000 
  618000   0.42700409    -2.402707   0.63986563   -1.7628414   0.13105283    11407.889     1000 
  620000   0.44092764   -2.4433274   0.66073007   -1.7825974   0.14255095    11344.741     1000 
  622000   0.42178742   -2.3794679   0.63204844   -1.7474194   0.12565609    11457.437     1000 
  624000   0.45462265   -2.4245785   0.68125204   -1.7433265    0.1260967    11402.139     1000 
  626000   0.44410976   -2.3669497   0.66549847   -1.7014512   0.12142275    11327.309     1000 
  628000    0.4318348   -2.4230474   0.64710445   -1.7759429   0.15425347    11282.601     1000 
  630000   0.42951696   -2.3540071   0.64363116    -1.710376   0.12547284    11221.258     1000 
  632000   0.42618493   -2.3848333   0.63863812   -1.7461951   0.12814495    11385.909     1000 
  634000   0.43640311   -2.4111214   0.65395006   -1.7571714    0.1307382    11356.435     1000 
  636000    0.4242547   -2.3563905   0.63574567   -1.7206448   0.13092568    11274.115     1000 
  638000   0.47113494   -2.3701013    0.7059957   -1.6641056    0.1364209    11351.425     1000 
  640000     0.452477   -2.3979631   0.67803678   -1.7199264    0.1315834    11388.952     1000 
  642000   0.44375048   -2.3989922    0.6649601   -1.7340321   0.12813082    11482.729     1000 
  644000   0.43619346    -2.451777    0.6536359   -1.7981411   0.11178002    11564.588     1000 
  646000   0.42660467    -2.413728    0.6392671   -1.7744609   0.12223395    11439.003     1000 
  648000   0.42215992   -2.4314415   0.63260663   -1.7988349   0.11359967    11497.146     1000 
  650000   0.45001133    -2.375165   0.67434198    -1.700823   0.12464422    11521.619     1000 
  652000   0.42235173   -2.4086569   0.63289407   -1.7757628    0.1243957     11520.38     1000 
  654000   0.44735184   -2.3743679   0.67035673   -1.7040112   0.12495001    11416.603     1000 
  656000   0.45593125   -2.4661614   0.68321298   -1.7829484   0.14316709    11437.013     1000 
  658000   0.45419963   -2.3185127   0.68061815   -1.6378946   0.12801968     11377.94     1000 
  660000    0.4319707   -2.3782638    0.6473081   -1.7309557   0.12179559    11345.178     1000 
  662000   0.45164291   -2.4325019   0.67678691    -1.755715   0.12568779    11383.875     1000 
  664000   0.45504926   -2.3648482   0.68189131   -1.6829569   0.14615614    11301.656     1000 
  666000   0.45036744   -2.4025631    0.6748756   -1.7276875   0.13420299    11436.571     1000 
  668000   0.46224016   -2.4298748   0.69266688   -1.7372079   0.13302447     11356.15     1000 
  670000   0.43341386   -2.3787283   0.64947067   -1.7292577   0.12535436    11392.603     1000 
  672000   0.45536969    -2.412433   0.68237148   -1.7300615   0.12815581    11321.602     1000 
  674000    0.4261865   -2.3765633   0.63864046   -1.7379229   0.11855388    11369.443     1000 
  676000   0.45514479   -2.3534154   0.68203446   -1.6713809   0.13060647    11431.061     1000 
  678000   0.45980953   -2.3762067   0.68902458   -1.6871821   0.12719683    11420.151     1000 
  680000    0.4558273   -2.4107343   0.68305721   -1.7276771   0.11994046    11425.247     1000 
  682000   0.43201686   -2.4228634   0.64737726   -1.7754861   0.12582512    11406.798     1000 
  684000   0.44549537   -2.3805142   0.66757481   -1.7129394   0.12959581    11358.905     1000 
  686000   0.42492925    -2.434221   0.63675649   -1.7974645   0.12023717    11454.039     1000 
  688000    0.4309972   -2.3953346   0.64584931   -1.7494852   0.12844177    11568.612     1000 
  690000   0.43838229   -2.4173783   0.65691585   -1.7604625   0.13546786    11444.099     1000 
  692000   0.43512888   -2.3920098   0.65204062   -1.7399691   0.12613109    11376.067     1000 
  694000   0.41996872   -2.4482221   0.62932313    -1.818899   0.12727523    11416.305     1000 
  696000   0.43027932   -2.3396232   0.64477355   -1.6948496   0.14236088    11438.139     1000 
  698000   0.43731489   -2.4403008   0.65531637   -1.7849844    0.1380525    11361.501     1000 
  700000   0.44285254   -2.3622541   0.66361453   -1.6986396   0.14417393    11274.108     1000 
  702000   0.45500921    -2.388089    0.6818313   -1.7062577   0.13055243    11448.883     1000 
  704000   0.46553949   -2.3903052   0.69761093   -1.6926943   0.13620845    11301.606     1000 
  706000   0.43817472   -2.3605274   0.65660482   -1.7039226   0.12601455    11324.434     1000 
  708000   0.44250533   -2.3695979   0.66309424   -1.7065036   0.14416576    11325.168     1000 
  710000   0.41849967   -2.4284993   0.62712176   -1.8013775   0.13184703    11301.108     1000 
  712000   0.42542279   -2.3800502   0.63749605   -1.7425542   0.12187575    11388.374     1000 
  714000   0.45802535   -2.3986912   0.68635098   -1.7123402   0.13046825    11448.443     1000 
  716000    0.4448902     -2.39891   0.66666797    -1.732242   0.14131111     11347.55     1000 
  718000   0.44683348   -2.4030127   0.66957997   -1.7334328    0.1268019    11397.011     1000 
  720000   0.42764488   -2.3788222   0.64082585   -1.7379964   0.14963898      11270.9     1000 
  722000   0.44091271   -2.4194868   0.66070769   -1.7587791   0.13467281    11337.327     1000 
  724000   0.44310815   -2.3615028   0.66399756   -1.6975053   0.12398053    11417.144     1000 
  726000   0.44617417   -2.3889834   0.66859199   -1.7203914   0.13578531    11491.803     1000 
  728000   0.44225102   -2.3994169   0.66271316   -1.7367038   0.15102237    11231.845     1000 
  730000   0.44974386   -2.3569004   0.67394118   -1.6829593   0.14681204    11262.205     1000 
  732000   0.42269223   -2.3804708    0.6334043   -1.7470665   0.13432141     11293.68     1000 
  734000   0.44258306   -2.4218873   0.66321072   -1.7586766   0.13300445    11432.237     1000 
  736000   0.44732728    -2.416382   0.67031993    -1.746062   0.11684195    11571.976     1000 
  738000   0.44776866   -2.3813805   0.67098134   -1.7103992   0.13704731    11335.963     1000 
  740000   0.45018003   -2.4528443   0.67459477   -1.7782495   0.14535923    11411.191     1000 
  742000   0.44211105   -2.4149974   0.66250341    -1.752494   0.14937456    11250.731     1000 
  744000   0.43427313   -2.3579789   0.65075829   -1.7072206   0.13081129    11456.696     1000 
  746000   0.41461357    -2.376479   0.62129844   -1.7551805   0.11938486    11410.788     1000 
  748000   0.43987432   -2.4285488   0.65915167   -1.7693971   0.10833904    11564.166     1000 
  750000    0.4156865   -2.3752268   0.62290622   -1.7523206   0.12562222     11332.53     1000 
  752000   0.43012005   -2.3897412   0.64453489   -1.7452063   0.12885188    11307.245     1000 
  754000   0.43641695   -2.4182903    0.6539708   -1.7643195     0.135265     11386.02     1000 
  756000   0.44938631   -2.3967424   0.67340538    -1.723337   0.12928889     11340.15     1000 
  758000   0.44497089   -2.3982592   0.66678887   -1.7314703   0.13992489    11318.231     1000 
  760000    0.4378759   -2.3793006   0.65615704   -1.7231435   0.11682148    11532.347     1000 
  762000   0.41616627   -2.4077403   0.62362515   -1.7841152   0.14173026    11342.703     1000 
  764000   0.43490874   -2.3711847   0.65171075    -1.719474   0.13729158    11325.461     1000 
  766000   0.42457509   -2.3912073   0.63622577   -1.7549816   0.13270141    11361.941     1000 
  768000    0.4649583   -2.3810282   0.69674001   -1.6842881   0.14433656    11260.054     1000 
  770000   0.43819035   -2.3929069   0.65662824   -1.7362786   0.13045584    11389.466     1000 
  772000   0.41427734   -2.3879223    0.6207946   -1.7671277   0.13020359    11343.951     1000 
  774000   0.44046318   -2.3761352   0.66003407   -1.7161011   0.13654644    11419.316     1000 
  776000   0.45340554   -2.3960738    0.6794282   -1.7166456   0.13374015    11280.595     1000 
  778000   0.43820758   -2.3864961   0.65665406    -1.729842   0.12458195    11464.045     1000 
  780000   0.43902846   -2.3555189   0.65788415   -1.6976347   0.13064371    11405.429     1000 
  782000   0.42417096    -2.429322   0.63562018   -1.7937018   0.13865221    11303.859     1000 
  784000   0.42640252   -2.4240747   0.63896417   -1.7851105   0.13627281    11413.331     1000 
  786000    0.4380899   -2.4177307   0.65647772   -1.7612529   0.12768742    11359.972     1000 
  788000   0.43952743   -2.4012499   0.65863185    -1.742618   0.13102956     11316.96     1000 
  790000   0.43848401   -2.4438703   0.65706828    -1.786802   0.13070487    11403.922     1000 
  792000   0.44269925   -2.3837284   0.66338482   -1.7203436    0.1323631    11396.541     1000 
  794000   0.42537288   -2.4112187   0.63742125   -1.7737974    0.1339921    11261.348     1000 
  796000   0.45405234    -2.433749   0.68039743   -1.7533516   0.13047257    11414.398     1000 
  798000    0.4285177    -2.413701   0.64213378   -1.7715672   0.12691006      11442.6     1000 
  800000   0.43117467   -2.4150887   0.64611525   -1.7689734    0.1356307    11427.296     1000 
  802000    0.4283054   -2.3740846   0.64181564    -1.732269   0.12409013    11349.125     1000 
  804000   0.44244805   -2.3922765   0.66300841   -1.7292681   0.12659387     11454.91     1000 
  806000   0.43075202   -2.4029116    0.6454819   -1.7574297   0.13606179    11146.068     1000 
  808000   0.42692798   -2.3869992   0.63975157   -1.7472477   0.13884448    11394.763     1000 
  810000     0.433802   -2.4166102    0.6500523   -1.7665579   0.12565573    11451.349     1000 
  812000   0.45099054    -2.432236   0.67580932   -1.7564267   0.13467011    11533.529     1000 
  814000    0.4448695     -2.39673   0.66663694    -1.730093   0.12629241    11289.006     1000 
  816000   0.44428414   -2.3941389   0.66575978   -1.7283791   0.11883584    11429.463     1000 
  818000   0.43728884   -2.4201436   0.65527732   -1.7648663    0.1286373    11409.592     1000 
  820000   0.43920204   -2.3917762   0.65814426   -1.7336319    0.1228044    11380.714     1000 
  822000   0.44696132   -2.4063611   0.66977154   -1.7365896   0.13438657    11329.303     1000 
  824000   0.42545055   -2.3975188   0.63753765   -1.7599812   0.11842996    11383.917     1000 
  826000   0.44301022   -2.4043139   0.66385082    -1.740463   0.12313832    11437.192     1000 
  828000   0.45191731   -2.4297186   0.67719808   -1.7525205   0.13097885    11435.965     1000 
  830000   0.43474902   -2.3659703   0.65147141   -1.7144989   0.12729297    11390.652     1000 
  832000   0.42547252   -2.4029199   0.63757057   -1.7653493   0.11479505    11463.226     1000 
  834000   0.44199123   -2.4245628   0.66232385   -1.7622389    0.1292326    11426.472     1000 
  836000   0.43952181   -2.3795507   0.65862343   -1.7209272   0.12780681    11340.046     1000 
  838000   0.43456021   -2.3915565   0.65118847    -1.740368   0.13390676    11333.123     1000 
  840000   0.45632202   -2.3987967   0.68379855   -1.7149982   0.12812635    11376.096     1000 
  842000   0.44296759   -2.3660097   0.66378694   -1.7022228   0.13777225    11275.242     1000 
  844000   0.45145529   -2.4073055   0.67650575   -1.7307997     0.140818    11379.947     1000 
  846000   0.42873815   -2.3653229   0.64246412   -1.7228587   0.13622164    11331.932     1000 
  848000   0.44927893   -2.3961718   0.67324448   -1.7229274   0.13525891    11312.698     1000 
  850000   0.44317062   -2.4310094   0.66409118   -1.7669182   0.13177482    11360.963     1000 
  852000   0.43213842   -2.3998446   0.64755942   -1.7522852   0.14303215    11233.189     1000 
  854000   0.44288145   -2.4085989   0.66365785    -1.744941   0.12208911    11386.617     1000 
  856000   0.44178534   -2.4189238   0.66201533   -1.7569085   0.13132321    11326.119     1000 
  858000   0.46386311   -2.3722787   0.69509887   -1.6771798   0.12338126    11414.479     1000 
  860000   0.41120185    -2.387135   0.61618597    -1.770949    0.1227017    11387.519     1000 
  862000   0.43015166   -2.4484209   0.64458226   -1.8038387   0.12898199    11438.161     1000 
  864000   0.45131787   -2.3720354   0.67629983   -1.6957356   0.13147221    11463.273     1000 
  866000   0.42837204   -2.4403104   0.64191551   -1.7983948   0.12326332    11526.635     1000 
  868000   0.43428123   -2.3999731   0.65077043   -1.7492027    0.1170472    11461.666     1000 
  870000   0.42385722   -2.3754589   0.63515004   -1.7403088   0.12708881    11474.831     1000 
  872000   0.43686047   -2.3711378   0.65463541   -1.7165024   0.13072045    11464.497     1000 
  874000   0.43922118   -2.4515005   0.65817294   -1.7933275   0.13081053    11340.174     1000 
  876000   0.43851273   -2.4099845   0.65711133   -1.7528732   0.12678017    11427.042     1000 
  878000   0.43181898   -2.4084526   0.64708074   -1.7613718   0.12788867    11302.249     1000 
  880000   0.43661872   -2.4282889   0.65427316   -1.7740157   0.13215866    11303.612     1000 
  882000   0.45888034   -2.3525025    0.6876322   -1.6648703   0.13607257    11333.066     1000 
  884000   0.44807714   -2.4131755   0.67144359   -1.7417319   0.12569374    11419.751     1000 
  886000   0.46329353   -2.3511033   0.69424535    -1.656858   0.12489429    11304.995     1000 
  888000   0.46166992   -2.3631687   0.69181237   -1.6713563   0.13065533    11417.693     1000 
  890000    0.4551377   -2.3950768   0.68202384   -1.7130529   0.13658622    11349.548     1000 
  892000   0.46297881   -2.3622336   0.69377374   -1.6684599   0.13781258    11275.085     1000 
  894000   0.45829687   -2.4074718   0.68675787   -1.7207139   0.12498243     11474.08     1000 
  896000   0.45140455   -2.4095121   0.67642972   -1.7330824   0.13446595    11468.332     1000 
  898000   0.44769042   -2.3810347   0.67086409   -1.7101707    0.1464191    11257.135     1000 
  900000   0.43006689   -2.3917279   0.64445523   -1.7472726   0.11810985    11490.473     1000 
  902000    0.4322626   -2.4077047   0.64774551   -1.7599592   0.12657695    11405.542     1000 
  904000   0.45106552   -2.4065126   0.67592168   -1.7305909   0.13849284    11237.026     1000 
  906000   0.45001043   -2.4220956   0.67434063    -1.747755   0.12638967    11356.694     1000 
  908000   0.43050887   -2.3929716   0.64511754   -1.7478541   0.12536543    11446.383     1000 
  910000   0.42604744   -2.3661976   0.63843209   -1.7277655   0.14175541    11263.868     1000 
  912000   0.43977628   -2.3910745   0.65900475   -1.7320698   0.13231147    11431.191     1000 
  914000   0.45427514   -2.4106739   0.68073129   -1.7299426   0.13400588     11364.29     1000 
  916000   0.44633456   -2.3742758   0.66883234   -1.7054435    0.1443436    11336.438     1000 
  918000   0.43535827   -2.3742833   0.65238437   -1.7218989   0.12200711    11456.496     1000 
  920000   0.44430877   -2.3456595   0.66579669   -1.6798628   0.11101996    11501.992     1000 
  922000   0.43108752   -2.3965361   0.64598465   -1.7505515   0.11593673    11531.496     1000 
  924000   0.45003306   -2.3782342   0.67437454   -1.7038597   0.13137946     11298.05     1000 
  926000   0.42839652   -2.3637119   0.64195219   -1.7217597   0.14597833    11159.556     1000 
  928000   0.43162802   -2.3573492   0.64679458   -1.7105547   0.13195846    11334.513     1000 
  930000   0.43508068   -2.3782891    0.6519684   -1.7263207   0.13118897    11327.187     1000 
  932000   0.45075327   -2.4594556   0.67545378   -1.7840018   0.10870002    11608.649     1000 
  934000   0.43383345   -2.4213781   0.65009943   -1.7712787    0.1340747    11427.963     1000 
  936000   0.43288943   -2.3689274   0.64868482   -1.7202425   0.13861223    11195.578     1000 
  938000   0.43195617   -2.3978144   0.64728633   -1.7505281   0.13289913     11202.01     1000 
  940000   0.45354316   -2.3858807   0.67963442   -1.7062463   0.12643152    11330.698     1000 
  942000   0.44185244   -2.4445062   0.66211588   -1.7823903   0.11399768     11554.55     1000 
  944000   0.43687652   -2.3884211   0.65465946   -1.7337616   0.13842593    11321.267     1000 
  946000   0.42837354   -2.4117113   0.64191775   -1.7697936   0.12068004    11346.492     1000 
  948000   0.45739449   -2.4182349   0.68540564   -1.7328293   0.12318985    11398.338     1000 
  950000   0.44099638   -2.4587863   0.66083307   -1.7979533   0.13545363    11479.085     1000 
  952000   0.45316687    -2.401364   0.67907056   -1.7222935   0.12285098    11453.744     1000 
  954000   0.44226691   -2.3737509   0.66273697   -1.7110139   0.13041889    11308.385     1000 
  956000   0.44940561   -2.3394756   0.67343431   -1.6660413   0.14738303    11202.259     1000 
  958000   0.43626312   -2.3777905   0.65374029   -1.7240502   0.13348021    11382.745     1000 
  960000   0.43921521   -2.4249095   0.65816399   -1.7667455   0.13525049    11386.269     1000 
  962000   0.44557577   -2.3814459   0.66769529   -1.7137507   0.12303512    11362.543     1000 
  964000    0.4273019   -2.4152926   0.64031189   -1.7749807    0.1492265    11236.033     1000 
  966000   0.42795436   -2.3765489    0.6412896   -1.7352593   0.12450259    11468.109     1000 
  968000   0.45305282   -2.3490649   0.67889965   -1.6701653    0.1368425    11295.279     1000 
  970000    0.4651661   -2.3719113    0.6970514   -1.6748599   0.14060515    11250.762     1000 
  972000    0.4463576   -2.3933085   0.66886686   -1.7244417   0.12040261    11302.991     1000 
  974000   0.43316176   -2.4160304    0.6490929   -1.7669375   0.13436109    11350.704     1000 
  976000   0.42570075    -2.391931   0.63791258   -1.7540184   0.13446228    11341.768     1000 
  978000   0.42913167    -2.402502   0.64305381   -1.7594482    0.1372953    11329.278     1000 
  980000    0.4119696   -2.3826264   0.61733645   -1.7652899   0.13544466     11264.73     1000 
  982000   0.44687117   -2.3610313   0.66963645   -1.6913948   0.12286944    11427.201     1000 
  984000   0.43802903   -2.3961855    0.6563865   -1.7397989   0.13076095    11379.725     1000 
  986000   0.45344079   -2.4130928   0.67948103   -1.7336118   0.13629444     11290.74     1000 
  988000   0.42619594   -2.3493648   0.63865461   -1.7107102   0.13584424    11312.587     1000 
  990000   0.44087656   -2.3888645   0.66065353   -1.7282109   0.13933127    11277.448     1000 
  992000   0.43175487   -2.4001726   0.64698467   -1.7531879   0.12757466    11447.352     1000 
  994000   0.43873214   -2.3571902   0.65744011   -1.6997501   0.12953876     11439.36     1000 
  996000   0.44516369   -2.4175501   0.66707779   -1.7504723   0.13122113    11339.134     1000 
  998000   0.44193322    -2.387343   0.66223693    -1.725106   0.13758087    11243.206     1000 
 1000000    0.4560064   -2.4098506   0.68332558    -1.726525   0.11600488    11525.323     1000 
 1002000   0.43141088   -2.3989528   0.64646921   -1.7524836    0.1461561    11202.922     1000 
 1004000   0.44167459   -2.3857658   0.66184938   -1.7239164   0.14456294    11295.633     1000 
 1006000    0.4314521   -2.3511296   0.64653097   -1.7045987   0.12462604    11438.607     1000 
 1008000   0.44983985   -2.3960306   0.67408501   -1.7219456   0.14998721    11305.266     1000 
 1010000   0.44600821   -2.3886117   0.66834331   -1.7202683   0.14588883    11206.153     1000 
 1012000   0.45581367   -2.3516952   0.68303678   -1.6686584   0.13655194    11273.539     1000 
 1014000   0.44409696   -2.4019962   0.66547929   -1.7365169   0.12928224    11353.121     1000 
 1016000   0.45350676   -2.3896446   0.67957989   -1.7100647   0.13935916    11329.489     1000 
 1018000   0.42015008   -2.4108169    0.6295949    -1.781222   0.12099874    11398.791     1000 
 1020000    0.4424483    -2.400035   0.66300878   -1.7370262   0.13093302    11342.847     1000 
 1022000   0.44385763   -2.4238885   0.66512066   -1.7587679   0.13364295    11458.268     1000 
 1024000   0.44030292   -2.3704722   0.65979392   -1.7106783   0.13668172    11331.764     1000 
 1026000   0.43995892   -2.4112639   0.65927844   -1.7519855    0.1342456    11286.635     1000 
 1028000   0.44367292   -2.4324312   0.66484387   -1.7675873   0.13262849    11388.854     1000 
 1030000   0.43707141   -2.4124785    0.6549515    -1.757527   0.13947513    11331.305     1000 
 1032000   0.44776547   -2.4027901   0.67097655   -1.7318136   0.12315215    11500.584     1000 
 1034000   0.42115739   -2.4036568   0.63110435   -1.7725524   0.12765225    11391.183     1000 
 1036000   0.42710979   -2.3933831   0.64002402   -1.7533591   0.12182509    11424.899     1000 
 1038000    0.4645282   -2.3838177    0.6960955   -1.6877222   0.12741391    11406.517     1000 
 1040000   0.44436536   -2.3541153   0.66588149   -1.6882338   0.13538229    11239.724     1000 
 1042000    0.4384217   -2.4108736   0.65697491   -1.7538987   0.12654804    11369.857     1000 
 1044000    0.4255805   -2.3920507   0.63773238   -1.7543184   0.12101592    11414.616     1000 
 1046000   0.44771541   -2.4415049   0.67090154   -1.7706034    0.1326533    11367.122     1000 
 1048000   0.43633741   -2.4177431   0.65385161   -1.7638915   0.13706563    11259.824     1000 
 1050000   0.45000895   -2.3899852   0.67433841   -1.7156467   0.12710783    11516.555     1000 
 1052000   0.44459789   -2.3336652   0.66622994   -1.6674352   0.14104496    11337.827     1000 
 1054000   0.43550295   -2.4076266   0.65260116   -1.7550255    0.1144248    11464.258     1000 
 1056000   0.45774667   -2.3905845   0.68593339   -1.7046511   0.13991235    11364.233     1000 
 1058000   0.44203871   -2.4140575     0.662395   -1.7516624   0.12290258    11409.259     1000 
 1060000   0.44764788   -2.3804855   0.67080036   -1.7096851   0.11579306    11396.051     1000 
 1062000   0.46751485   -2.3912292     0.700571   -1.6906582   0.13110866    11315.905     1000 
 1064000   0.42948435   -2.3992609    0.6435823   -1.7556786   0.13335315    11389.426     1000 
 1066000   0.43547963   -2.3581436   0.65256622   -1.7055773   0.13750729    11366.914     1000 
 1068000   0.44001042   -2.3981131   0.65935562   -1.7387575   0.13143195    11414.219     1000 
 1070000   0.46309243   -2.4062584   0.69394401   -1.7123144   0.12795572    11417.143     1000 
 1072000   0.42740979   -2.4395042   0.64047357   -1.7990306    0.1278438    11405.754     1000 
 1074000   0.42469817   -2.4351426   0.63641021   -1.7987324   0.13725243    11257.633     1000 
 1076000   0.44990827   -2.4250111   0.67418754   -1.7508235   0.12556095     11486.49     1000 
 1078000   0.43135439   -2.4161491   0.64638455   -1.7697645   0.13684505    11298.365     1000 
 1080000   0.44885839   -2.4114912   0.67261429   -1.7388769   0.12758707    11278.472     1000 
 1082000   0.44758068    -2.390658   0.67069965   -1.7199583   0.13653801    11355.194     1000 
 1084000    0.4383146   -2.4079871   0.65681443   -1.7511727     0.123765    11302.819     1000 
 1086000   0.42996738   -2.3673244   0.64430612   -1.7230183   0.12228934    11448.743     1000 
 1088000   0.43766178   -2.4061023   0.65583618   -1.7502662   0.13298114    11350.842     1000 
 1090000    0.4292397    -2.377283    0.6432157   -1.7340673    0.1280546    11356.041     1000 
 1092000    0.4469055   -2.3620892    0.6696879   -1.6924013    0.1319951    11315.972     1000 
 1094000   0.43626477   -2.4435813   0.65374276   -1.7898386   0.11675242    11476.614     1000 
 1096000   0.42607279   -2.3569878   0.63847008   -1.7185177   0.13983675     11367.51     1000 
 1098000   0.43917476    -2.378136   0.65810337   -1.7200326   0.13236055    11365.399     1000 
 1100000    0.4369479   -2.4203292   0.65476643   -1.7655628    0.1341756    11380.061     1000 
 1102000   0.43130289   -2.3464157   0.64630738   -1.7001084   0.14898188     11175.06     1000 
 1104000   0.44903502   -2.4068119   0.67287897    -1.733933    0.1303989    11540.426     1000 
 1106000   0.44057344   -2.4167656    0.6601993   -1.7565663   0.11378135    11453.029     1000 
 1108000   0.44081706   -2.3615115   0.66056436   -1.7009471   0.13766291     11277.61     1000 
 1110000   0.44814627   -2.3717484   0.67154719   -1.7002012   0.13631427    11216.599     1000 
 1112000   0.45365937   -2.4200745   0.67980856   -1.7402659   0.11740291    11467.343     1000 
 1114000   0.45614345   -2.4313382   0.68353096   -1.7478073   0.13370009    11415.121     1000 
 1116000   0.43041107   -2.4448809   0.64497099   -1.7999099    0.1462939    11287.317     1000 
 1118000    0.4179105   -2.4428628   0.62623888   -1.8166239   0.13240845    11457.018     1000 
 1120000   0.41808644   -2.3966526   0.62650254   -1.7701501   0.12589076     11413.21     1000 
 1122000    0.4422778   -2.4303128   0.66275328   -1.7675596   0.12015909    11491.263     1000 
 1124000   0.44034845   -2.3841225   0.65986216   -1.7242603   0.13371406    11349.261     1000 
 1126000   0.44159708    -2.409472   0.66173323   -1.7477388   0.13809007    11395.022     1000 
 1128000   0.43573912    -2.390252   0.65295507   -1.7372969   0.11894425    11524.574     1000 
 1130000   0.44410367   -2.3948104   0.66548935    -1.729321   0.12157366    11363.542     1000 
 1132000   0.41978918   -2.3932666   0.62905409   -1.7642125   0.11282489    11528.943     1000 
 1134000   0.42878577   -2.3876271   0.64253548   -1.7450916   0.12524517    11335.864     1000 
 1136000   0.45255946   -2.4443987   0.67816035   -1.7662383   0.13077059    11461.869     1000 
 1138000    0.4525655   -2.4150027   0.67816941   -1.7368333   0.12968882    11427.067     1000 
 1140000   0.43588952   -2.3985111   0.65318045   -1.7453307   0.13276452    11416.405     1000 
 1142000   0.44900087   -2.4166195    0.6728278   -1.7437917   0.12884081    11363.299     1000 
 1144000   0.44863317   -2.3773437   0.67227681   -1.7050669   0.12534924    11412.262     1000 
 1146000   0.45077796   -2.3936738   0.67549078    -1.718183   0.13092216    11366.725     1000 
 1148000   0.42664838   -2.4300438    0.6393326   -1.7907112   0.12317509    11355.665     1000 
 1150000   0.43470209   -2.3974489   0.65140108   -1.7460479   0.12584993    11319.988     1000 
 1152000   0.41207128   -2.3939783   0.61748881   -1.7764895   0.12076929    11416.001     1000 
 1154000   0.43076475   -2.3704552   0.64550098   -1.7249542    0.1347538    11305.061     1000 
 1156000    0.4546136   -2.4311554   0.68123848   -1.7499169   0.12759892    11535.688     1000 
 1158000   0.43829943   -2.4413031    0.6567917   -1.7845114   0.13483123    11418.069     1000 
 1160000   0.45032666   -2.3700757    0.6748145   -1.6952612   0.12881428     11339.48     1000 
 1162000   0.43668153   -2.4339022   0.65436728   -1.7795349   0.13894573    11363.709     1000 
 1164000   0.44315666   -2.4099667   0.66407025   -1.7458965   0.12677666     11419.41     1000 
 1166000   0.45312221   -2.4096894   0.67900364   -1.7306858   0.13022747    11381.572     1000 
 1168000   0.44480899   -2.4113441   0.66654627   -1.7447978   0.13435114    11386.195     1000 
 1170000   0.46041376   -2.4163046   0.68993002   -1.7263746   0.12050566     11530.13     1000 
 1172000   0.46498116   -2.3655985   0.69677427   -1.6688242   0.12667284    11417.958     1000 
 1174000    0.4353089    -2.385511   0.65231039   -1.7332006    0.1362461    11272.674     1000 
 1176000   0.45907924   -2.3719776   0.68793025   -1.6840473   0.13751456    11365.078     1000 
 1178000   0.42724279   -2.3527593   0.64022333   -1.7125359   0.13973304    11335.456     1000 
 1180000   0.44483274   -2.3554234   0.66658187   -1.6888416   0.13812781    11265.115     1000 
 1182000   0.44121821   -2.4234452   0.66116549   -1.7622797   0.14015269    11424.482     1000 
 1184000   0.44960163   -2.4110289   0.67372805   -1.7373009   0.14776973    11295.004     1000 
 1186000   0.44873739   -2.3557332   0.67243297   -1.6833002   0.13670782    11259.352     1000 
 1188000   0.45202818    -2.385829   0.67736423   -1.7084648   0.12816632    11340.357     1000 
 1190000   0.44540506   -2.3941685   0.66743948    -1.726729   0.12469846    11247.155     1000 
 1192000   0.43742671   -2.3815853   0.65548393   -1.7261014   0.13380987      11306.2     1000 
 1194000   0.44055275   -2.4186404    0.6601683   -1.7584721    0.1235682     11428.08     1000 
 1196000   0.44023552   -2.4135643   0.65969293   -1.7538713   0.13799756    11376.807     1000 
 1198000   0.43436974   -2.4224856   0.65090306   -1.7715825   0.14103824    11313.778     1000 
 1200000   0.44310705   -2.3911173   0.66399592   -1.7271214   0.15404206    11248.362     1000 
 1202000   0.44628666   -2.3493198   0.66876056   -1.6805592   0.12704539    11367.751     1000 
 1204000   0.44071608   -2.3817785   0.66041305   -1.7213655    0.1186137    11428.578     1000 
 1206000   0.44517321   -2.4032627   0.66709205   -1.7361707   0.14028974    11335.786     1000 
 1208000   0.42542875   -2.3894655   0.63750499   -1.7519605   0.13248003    11363.322     1000 
 1210000   0.44557411   -2.3951502   0.66769281   -1.7274574   0.13591799    11288.382     1000 
 1212000   0.44674823   -2.4117927   0.66945223   -1.7423405   0.12888492    11363.109     1000 
 1214000    0.4457159   -2.4187053   0.66790527      -1.7508   0.13023528    11351.899     1000 
 1216000   0.44203051   -2.4318027   0.66238271     -1.76942   0.12292139    11410.917     1000 
 1218000   0.43555651   -2.4300248   0.65268143   -1.7773433   0.11517077    11394.392     1000 
 1220000   0.42414909   -2.4193911    0.6355874   -1.7838037   0.12339804    11382.894     1000 
 1222000   0.43572236   -2.3706869   0.65292996   -1.7177569   0.12462686    11427.943     1000 
 1224000   0.42677809   -2.4244229   0.63952696   -1.7848959   0.13407628    11296.636     1000 
 1226000   0.45062619    -2.387056   0.67526335   -1.7117926   0.13471767    11297.171     1000 
 1228000    0.4310529   -2.4124089   0.64593277   -1.7664761   0.13192164    11327.462     1000 
 1230000   0.44359002   -2.3649476   0.66471964    -1.700228     0.131347    11324.717     1000 
 1232000   0.42754993   -2.4058502   0.64068357   -1.7651667   0.12253227    11484.543     1000 
 1234000   0.45246462   -2.4017792   0.67801823    -1.723761   0.14102923    11393.517     1000 
 1236000   0.44867461   -2.4283785    0.6723389   -1.7560396   0.13125687    11370.026     1000 
 1238000   0.44130751   -2.4159235    0.6612993   -1.7546242   0.13657653    11375.733     1000 
 1240000     0.437403   -2.4395231    0.6554484   -1.7840747   0.13611805     11408.86     1000 
 1242000   0.44550583    -2.409726   0.66759048   -1.7421356   0.12317355    11427.398     1000 
 1244000   0.43390661   -2.3935546   0.65020906   -1.7433456   0.11741706     11440.39     1000 
 1246000   0.43680646   -2.4174717   0.65455447   -1.7629172   0.13373542    11450.237     1000 
 1248000   0.43414275   -2.4017124   0.65056292   -1.7511495   0.12494131    11367.851     1000 
 1250000   0.41612395    -2.426579   0.62356174   -1.8030173     0.126787    11510.501     1000 
 1252000    0.4356309   -2.4379505   0.65279291   -1.7851576   0.11820206     11457.85     1000 
 1254000   0.44292354   -2.3781877   0.66372093   -1.7144668   0.13832604    11257.535     1000 
 1256000   0.46317363   -2.4035178   0.69406569   -1.7094521    0.1262664    11380.317     1000 
 1258000   0.43397073   -2.3891257   0.65030514   -1.7388206   0.11597324    11449.298     1000 
 1260000   0.43909922   -2.3341423   0.65799018   -1.6761521   0.12756876    11241.877     1000 
 1262000    0.4406676   -2.4163359    0.6603404   -1.7559955   0.11896078    11507.689     1000 
 1264000   0.45419493   -2.4235191   0.68061111    -1.742908   0.13597432    11375.622     1000 
 1266000   0.43916559   -2.3578238   0.65808964   -1.6997342   0.13352467    11388.363     1000 
 1268000    0.4209949   -2.3435284   0.63086086   -1.7126676   0.12510015      11261.3     1000 
 1270000   0.44217927   -2.3949039   0.66260564   -1.7322983   0.13480017    11310.149     1000 
 1272000   0.42950332   -2.3375965   0.64361072   -1.6939858   0.13159989    11276.414     1000 
 1274000   0.43391199   -2.3869968   0.65021711   -1.7367797   0.13415876    11386.043     1000 
 1276000   0.43688796   -2.4026008   0.65467661   -1.7479242   0.11194089    11446.365     1000 
 1278000   0.44010477   -2.4103568     0.659497   -1.7508598   0.12754577    11495.906     1000 
 1280000   0.46112845   -2.4125967   0.69100099   -1.7215958   0.12903271    11328.582     1000 
 1282000   0.43198124   -2.3558791   0.64732388   -1.7085553    0.1303842    11435.302     1000 
 1284000   0.42999452   -2.3900655   0.64434679   -1.7457187   0.12579437    11371.322     1000 
 1286000   0.44212014   -2.4312368   0.66251703   -1.7687198   0.13541962    11424.483     1000 
 1288000   0.43663342     -2.38104   0.65429518   -1.7267448   0.12863127    11352.399     1000 
 1290000   0.45079528   -2.4220217   0.67551672    -1.746505   0.13034898    11437.323     1000 
 1292000   0.45811817   -2.4099184   0.68649008   -1.7234284   0.13762724    11417.488     1000 
 1294000   0.45073469   -2.3979539   0.67542593    -1.722528    0.1295695    11301.336     1000 
 1296000   0.45438122   -2.4092792   0.68089026   -1.7283889   0.12994843    11427.735     1000 
 1298000   0.43572348   -2.3279236   0.65293164   -1.6749919   0.13024085     11411.66     1000 
 1300000   0.42216037   -2.3754884   0.63260731   -1.7428811   0.12987293    11436.085     1000 
 1302000   0.44866689   -2.3164723   0.67232734    -1.644145   0.12423262    11440.483     1000 
 1304000   0.44557245   -2.3827675   0.66769031   -1.7150772   0.12664969     11494.25     1000 
 1306000   0.44373296   -2.3645522   0.66493384   -1.6996184   0.13231321     11260.46     1000 
 1308000   0.44181468   -2.3915524    0.6620593   -1.7294931   0.12333605    11478.862     1000 
 1310000   0.42065469   -2.3869134   0.63035106   -1.7565623   0.12246035    11300.157     1000 
 1312000   0.43572626    -2.406458   0.65293581   -1.7535222   0.12525763    11360.562     1000 
 1314000   0.43953455   -2.4517267   0.65864252   -1.7930841   0.12319995    11511.766     1000 
 1316000   0.44339746   -2.3644343   0.66443109   -1.7000032   0.14395033    11347.508     1000 
 1318000   0.44719134   -2.4363364   0.67011622   -1.7662202   0.12776663    11436.972     1000 
 1320000   0.42484819   -2.3809518   0.63663501   -1.7443168   0.13166233    11387.444     1000 
 1322000    0.4553612   -2.4031307   0.68235875    -1.720772   0.12307606    11513.189     1000 
 1324000   0.43481156   -2.3757666   0.65156512   -1.7242015   0.12223682    11530.634     1000 
 1326000   0.43567457   -2.4059205   0.65285834   -1.7530622   0.13438064    11333.977     1000 
 1328000   0.44244233   -2.3773778   0.66299983   -1.7143779   0.13471931    11309.194     1000 
 1330000   0.43812868   -2.4221862   0.65653582   -1.7656504   0.13725415    11352.764     1000 
 1332000   0.43455082   -2.4054946    0.6511744   -1.7543202    0.1191819    11409.881     1000 
 1334000   0.45043275   -2.4199585   0.67497348    -1.744985   0.12168273    11411.294     1000 
 1336000   0.43508901   -2.4051365   0.65198089   -1.7531556   0.13008331    11316.344     1000 
 1338000   0.42611755   -2.4003326   0.63853715   -1.7617955   0.12603997    11447.509     1000 
 1340000   0.44042179   -2.3897549   0.65997205   -1.7297829   0.13753475    11329.287     1000 
 1342000   0.46281929   -2.3506446   0.69353471   -1.6571099   0.13667647    11272.886     1000 
 1344000   0.44571831    -2.396001   0.66790889   -1.7280921    0.1246715    11336.442     1000 
 1346000   0.43843364   -2.3972829    0.6569928   -1.7402901   0.11446319    11529.574     1000 
 1348000   0.43637851   -2.4067166   0.65391319   -1.7528034   0.13710885    11354.141     1000 
 1350000   0.43895487   -2.3924167   0.65777388   -1.7346429   0.13967613    11340.406     1000 
 1352000   0.43202234   -2.3884806   0.64738547   -1.7410951   0.12695852    11411.265     1000 
 1354000   0.45541976   -2.3861303   0.68244651   -1.7036838   0.13384553      11387.4     1000 
 1356000   0.44484248   -2.3800147   0.66659646   -1.7134182   0.13332157    11259.074     1000 
 1358000   0.44535024   -2.3587708   0.66735733   -1.6914135   0.13704508    11304.025     1000 
 1360000   0.45710687   -2.4160726   0.68497465    -1.731098   0.12992733    11468.158     1000 
 1362000   0.43560315   -2.3869459   0.65275131   -1.7341946   0.13334648    11303.767     1000 
 1364000   0.43619055   -2.3899482   0.65363154   -1.7363166   0.14163617    11340.236     1000 
 1366000   0.44716768   -2.3842857   0.67008077   -1.7142049   0.12851782    11359.432     1000 
 1368000   0.45243483   -2.3993134   0.67797359   -1.7213398   0.13705578    11311.903     1000 
 1370000   0.42259724   -2.4252534   0.63326197   -1.7919914   0.13020617    11326.663     1000 
 1372000   0.43630152   -2.3575181   0.65379783   -1.7037203   0.12485112    11377.431     1000 
 1374000   0.42438158   -2.3544099   0.63593579   -1.7184741   0.13192044    11395.579     1000 
 1376000   0.44769188   -2.3895544   0.67086628   -1.7186881   0.12363248    11376.874     1000 
 1378000   0.43894153   -2.3630511   0.65775389   -1.7052973   0.14064446    11290.462     1000 
 1380000    0.4395009   -2.3566803   0.65859209   -1.6980883    0.1282085     11417.86     1000 
 1382000   0.43038982    -2.410791   0.64493914   -1.7658519   0.13473863    11324.219     1000 
 1384000   0.45216863   -2.3590821    0.6775747   -1.6815074   0.13180783    11398.525     1000 
 1386000   0.43214414   -2.4021556     0.647568   -1.7545876   0.13555368      11371.3     1000 
 1388000   0.41930666   -2.3897078   0.62833103   -1.7613767   0.13505169    11323.804     1000 
 1390000   0.46044612   -2.3954067   0.68997852   -1.7054282   0.12911301    11284.797     1000 
 1392000   0.41615137   -2.4278677   0.62360283   -1.8042649   0.13456805    11340.528     1000 
 1394000   0.42769893   -2.3843745   0.64090685   -1.7434676   0.12837305    11307.524     1000 
 1396000   0.42371949   -2.3934068   0.63494365   -1.7584632   0.13713054    11377.598     1000 
 1398000    0.4201031   -2.4232132   0.62952449   -1.7936887    0.1218248    11466.643     1000 
 1400000   0.43471512   -2.4219615   0.65142061   -1.7705409   0.12350088    11452.709     1000 
 1402000   0.41838778    -2.345527   0.62695409   -1.7185729   0.12756845    11362.105     1000 
 1404000   0.44318244   -2.4139376   0.66410888   -1.7498288    0.1297312    11398.139     1000 
 1406000   0.44488912   -2.3785008   0.66666635   -1.7118344   0.12396974    11334.426     1000 
 1408000   0.42177993   -2.4249986   0.63203723   -1.7929614   0.11782506    11449.285     1000 
 1410000    0.4580076   -2.4030747   0.68632439   -1.7167503   0.13294126    11412.944     1000 
 1412000   0.44482554   -2.3668037   0.66657108   -1.7002326    0.1492717    11307.773     1000 
 1414000   0.45328692   -2.3690015   0.67925045   -1.6897511   0.12877657    11375.539     1000 
 1416000   0.43215768    -2.371764   0.64758829   -1.7241757   0.13289079    11428.186     1000 
 1418000   0.45452504   -2.3884274   0.68110577   -1.7073217   0.12975756    11281.541     1000 
 1420000   0.43560614   -2.4003164    0.6527558   -1.7475606   0.13435264    11291.925     1000 
 1422000   0.41926453   -2.3851897   0.62826789   -1.7569218   0.13324031    11361.669     1000 
 1424000   0.43827752   -2.3784571   0.65675887   -1.7216982   0.13217067    11440.651     1000 
 1426000   0.43443809   -2.4373787   0.65100548   -1.7863733   0.12368466    11449.512     1000 
 1428000   0.45193144   -2.3905337   0.67721926   -1.7133144   0.12673407    11429.904     1000 
 1430000   0.44339681   -2.4237408   0.66443013   -1.7593107   0.12216633    11515.667     1000 
 1432000   0.43460498   -2.3912466   0.65125557    -1.739991   0.12884867    11472.853     1000 
 1434000   0.42894483   -2.3922526   0.64277383   -1.7494788   0.12355145    11423.582     1000 
 1436000   0.45681913   -2.3837264   0.68454347    -1.699183   0.13333369    11420.767     1000 
 1438000   0.43224292   -2.4064498   0.64771602   -1.7587338   0.13719387    11345.609     1000 
 1440000   0.43170086   -2.4115341   0.64690374   -1.7646304    0.1111587    11504.561     1000 
 1442000   0.42941704   -2.4291587   0.64348143   -1.7856773   0.12093245    11411.078     1000 
 1444000   0.44047545   -2.3572217   0.66005246   -1.6971692   0.13457277    11415.993     1000 
 1446000   0.43137043   -2.4501313    0.6464086   -1.8037227   0.13665557    11320.029     1000 
 1448000   0.45232986   -2.4091532    0.6778163   -1.7313369   0.14356376    11387.917     1000 
 1450000    0.4364979   -2.4061376    0.6540921   -1.7520455   0.13166199    11383.621     1000 
 1452000   0.44641462   -2.3830487   0.66895231   -1.7140964    0.1355311    11355.394     1000 
 1454000   0.44523099   -2.3513597   0.66717865    -1.684181   0.12142096     11328.09     1000 
 1456000   0.44697983   -2.4345174   0.66979928   -1.7647182   0.13682333    11471.973     1000 
 1458000   0.44107729    -2.407999   0.66095432   -1.7470447   0.12803296    11296.337     1000 
 1460000   0.41988229   -2.3735247   0.62919361   -1.7443311   0.12487243    11440.939     1000 
 1462000   0.42862581   -2.3970238   0.64229578    -1.754728   0.12640208    11347.179     1000 
 1464000   0.42958742   -2.4159433   0.64373674   -1.7722066   0.12967224    11325.598     1000 
 1466000   0.42454987    -2.452976   0.63618798    -1.816788   0.11695656    11480.337     1000 
 1468000   0.43309334   -2.3917871   0.64899036   -1.7427967   0.12141659    11346.593     1000 
 1470000    0.4505872   -2.3822131   0.67520493   -1.7070081   0.14030541    11416.175     1000 
 1472000   0.45175201   -2.4039236   0.67695038   -1.7269732   0.13167458    11263.357     1000 
 1474000   0.42916418   -2.4225009   0.64310253   -1.7793984   0.13360673    11406.881     1000 
 1476000   0.44666486   -2.4483872   0.66932729   -1.7790599   0.13773252    11318.954     1000 
 1478000   0.44524755   -2.3974225   0.66720345    -1.730219   0.14101991    11372.575     1000 
 1480000   0.43110514   -2.4002458   0.64601106   -1.7542347   0.13936071    11239.963     1000 
 1482000   0.42499266   -2.4302484    0.6368515   -1.7933969   0.13283818    11451.459     1000 
 1484000   0.42415295    -2.441071    0.6355932   -1.8054778   0.12310331    11398.274     1000 
 1486000     0.434364   -2.3901362   0.65089446   -1.7392417   0.12273103    11384.062     1000 
 1488000   0.44857144   -2.3884923    0.6721843    -1.716308   0.13433677    11389.756     1000 
 1490000   0.43999109   -2.3762588   0.65932666   -1.7169322   0.12717652    11289.261     1000 
 1492000   0.45775566   -2.4168994   0.68594685   -1.7309525   0.12817195    11397.586     1000 
 1494000   0.45576122   -2.3962738   0.68295819   -1.7133156   0.12288966    11502.492     1000 
 1496000   0.43363797   -2.3805309    0.6498065   -1.7307244   0.11985539    11464.318     1000 
 1498000   0.45295346    -2.396981   0.67875077   -1.7182302   0.12283863    11380.669     1000 
 1500000   0.43022216   -2.3971265   0.64468791   -1.7524386   0.13525117    11349.324     1000 
 1502000   0.44374703   -2.4211565   0.66495492   -1.7562016   0.12592915    11462.664     1000 
 1504000    0.4239415   -2.3441818   0.63527634   -1.7089055   0.13455498    11229.821     1000 
 1506000   0.41782334   -2.4365428   0.62610828   -1.8104345   0.12774217    11419.188     1000 
 1508000    0.4414118   -2.3930187   0.66145558   -1.7315631   0.13840349    11253.797     1000 
 1510000   0.44960237   -2.4013414   0.67372915   -1.7276123   0.13679623    11386.139     1000 
 1512000   0.45091433   -2.4435179   0.67569512   -1.7678227    0.1265868    11440.815     1000 
 1514000   0.43737321   -2.3764879   0.65540376   -1.7210841   0.13940965    11412.899     1000 
 1516000   0.43136723   -2.3793486   0.64640379   -1.7329448   0.13710828    11423.625     1000 
 1518000   0.43687649   -2.4048883   0.65465942   -1.7502288   0.11892564    11299.891     1000 
 1520000   0.44635856   -2.3796916   0.66886831   -1.7108233   0.14317393     11210.24     1000 
 1522000   0.45381616   -2.3939898   0.68004351   -1.7139463   0.13484469    11400.635     1000 
 1524000     0.443111   -2.4162677   0.66400183   -1.7522658   0.13737697    11359.965     1000 
 1526000   0.42056809   -2.4076958   0.63022128   -1.7774745   0.13259209    11387.744     1000 
 1528000   0.41953869   -2.4393673   0.62867872   -1.8106886   0.12131382    11450.004     1000 
 1530000   0.44851139    -2.391756   0.67209432   -1.7196616   0.14421315    11319.464     1000 
 1532000   0.45624316    -2.443183   0.68368038   -1.7595027   0.13605108    11354.779     1000 
 1534000   0.42459903   -2.4082705   0.63626165   -1.7720088   0.11853869    11377.106     1000 
 1536000   0.42560252   -2.4037564   0.63776537   -1.7659911    0.1213918    11504.988     1000 
 1538000   0.44455725   -2.4032695   0.66616904   -1.7371004   0.13680974    11256.037     1000 
 1540000   0.44690429   -2.3967983   0.66968608   -1.7271123   0.14559976    11280.426     1000 
 1542000   0.43923529   -2.4014277   0.65819408   -1.7432336   0.14093595    11359.298     1000 
 1544000    0.4494692   -2.3844346    0.6735296    -1.710905   0.13380787    11374.711     1000 
 1546000   0.46589138   -2.4210768   0.69813824   -1.7229386   0.14481641    11290.441     1000 
 1548000    0.4462031   -2.4329548   0.66863535   -1.7643195   0.12668183    11472.919     1000 
 1550000   0.44720941   -2.3897416   0.67014331   -1.7195982   0.13960178    11178.148     1000 
 1552000   0.45085491   -2.4531762   0.67560609   -1.7775702   0.12937558    11491.482     1000 
 1554000   0.42796238   -2.4105982   0.64130163   -1.7692966   0.14053596    11284.393     1000 
 1556000   0.43871959    -2.436266   0.65742131   -1.7788447   0.13669692    11342.856     1000 
 1558000   0.44288405   -2.3992953   0.66366175   -1.7356336   0.12143162    11439.778     1000 
 1560000   0.43758941    -2.343526   0.65572773   -1.6877983   0.13763836    11197.681     1000 
 1562000   0.44013382   -2.4008694   0.65954053   -1.7413288   0.13208876    11477.838     1000 
 1564000   0.45481121   -2.4018731   0.68153459   -1.7203385   0.12825927    11450.804     1000 
 1566000   0.43266982   -2.4051491   0.64835573   -1.7567933   0.13971559      11287.1     1000 
 1568000   0.43603521   -2.3918815   0.65339876   -1.7384827   0.13991351    11346.296     1000 
 1570000   0.44890123   -2.3732415    0.6726785    -1.700563   0.13869216    11302.908     1000 
 1572000   0.43855061   -2.3920819   0.65716809   -1.7349139   0.12984842     11295.03     1000 
 1574000   0.42882496   -2.4145302    0.6425942    -1.771936   0.11625817    11378.133     1000 
 1576000    0.4299122   -2.3548541   0.64422343   -1.7106307   0.13368663    11342.161     1000 
 1578000    0.4472017   -2.3239816   0.67013175   -1.6538499   0.12372619    11404.304     1000 
 1580000   0.44609773   -2.4284041   0.66847744   -1.7599267   0.13183963    11438.054     1000 
 1582000   0.42663999   -2.3914934   0.63932002   -1.7521734   0.12231945     11452.02     1000 
 1584000   0.43455959   -2.4242622   0.65118754   -1.7730747   0.12785089    11410.569     1000 
 1586000   0.43008098   -2.4177695   0.64447635   -1.7732932    0.1275313    11394.808     1000 
 1588000   0.43830402   -2.4211351   0.65679857   -1.7643365   0.14034391    11358.987     1000 
[...]
 2614000   0.42200662   -2.4525803   0.63237691   -1.8202034   0.13594887    11326.069     1000 
 2616000   0.45531067   -2.4054672   0.68228305   -1.7231841   0.14947684    11322.494     1000 
 2618000   0.43495827   -2.3792596   0.65178497   -1.7274747   0.12944609     11331.34     1000 
 2620000   0.43568409   -2.3783797   0.65287261   -1.7255071   0.12875302    11418.394     1000 
 2622000   0.43141738   -2.4175297   0.64647895   -1.7710508   0.11549352    11518.522     1000 
 2624000    0.4439233   -2.3882857   0.66521906   -1.7230666   0.13296479    11402.233     1000 
 2626000   0.42670552   -2.3904981   0.63941823   -1.7510798   0.12723347    11435.255     1000 
 2628000   0.41648715   -2.3748154   0.62410599   -1.7507094   0.12769489    11328.177     1000 
 2630000   0.42203848   -2.3775595   0.63242466   -1.7451349   0.13663149    11207.081     1000 
 2632000   0.44637889   -2.3628839   0.66889877   -1.6939851   0.13464979    11393.989     1000 
 2634000   0.43755282   -2.4280094   0.65567291   -1.7723365   0.12391738    11386.223     1000 
 2636000   0.44508624   -2.3801358   0.66696173   -1.7131741   0.12921826    11350.891     1000 
 2638000   0.42983193   -2.3209539   0.64410315   -1.6768507   0.13081252    11304.042     1000 
 2640000   0.44890178   -2.4240187   0.67267931   -1.7513394   0.12317248     11588.63     1000 
 2642000   0.43117282   -2.3908366   0.64611248   -1.7447241   0.11715376    11425.191     1000 
 2644000   0.43436332   -2.3956292   0.65089344   -1.7447357   0.13030269    11312.564     1000 
 2646000   0.44121169   -2.4145425   0.66115572   -1.7533868   0.12070847    11538.066     1000 
 2648000   0.44971471   -2.3256682   0.67389749   -1.6517707   0.13489522    11223.746     1000 
 2650000   0.43562806   -2.4162707   0.65278865   -1.7634821   0.14147275    11345.329     1000 
 2652000   0.45586812    -2.412188   0.68311838   -1.7290696   0.11927219      11508.8     1000 
 2654000    0.4564872   -2.3848097   0.68404607   -1.7007636   0.13629192    11313.649     1000 
 2656000   0.46377254   -2.3999397   0.69496315   -1.7049766     0.124858    11417.125     1000 
 2658000   0.43509456   -2.3700428    0.6519892   -1.7180536   0.13532543    11333.058     1000 
 2660000     0.434016   -2.4688406   0.65037297   -1.8184677   0.13125041    11429.097     1000 
 2662000   0.44648741   -2.4001005   0.66906138   -1.7310391   0.12569478    11405.136     1000 
 2664000   0.45861465   -2.3703947   0.68723405   -1.6831606   0.13750135    11237.282     1000 
 2666000   0.45785394   -2.4252743   0.68609413   -1.7391801   0.14446556    11364.971     1000 
 2668000   0.47597599   -2.3896152   0.71325002   -1.6763652   0.13799154    11277.539     1000 
 2670000   0.42344271   -2.3387633    0.6345289   -1.7042344   0.13731098    11123.093     1000 
 2672000   0.44092026   -2.3621323   0.66071901   -1.7014133   0.14693419     11267.11     1000 
 2674000   0.44378852   -2.3632559    0.6650171   -1.6982388   0.12837982    11276.188     1000 
 2676000   0.42718957   -2.4451386   0.64014356   -1.8049951   0.13634916     11385.18     1000 
 2678000   0.41718224   -2.3875059   0.62514759   -1.7623583   0.12025814     11401.17     1000 
 2680000   0.44112069   -2.4002207   0.66101935   -1.7392014   0.13199954    11283.297     1000 
 2682000   0.44725351   -2.4157659   0.67020939   -1.7455565   0.12604846    11421.497     1000 
 2684000   0.45409886   -2.3855981   0.68046715   -1.7051309   0.13599788    11349.657     1000 
 2686000    0.4529282   -2.3905081   0.67871291   -1.7117952   0.11765044    11404.591     1000 
 2688000   0.44333048   -2.3473031   0.66433072   -1.6829724    0.1300105    11402.247     1000 
 2690000   0.46409417    -2.336387   0.69544511   -1.6409419   0.12628334    11470.034     1000 
 2692000   0.43634056   -2.4007984   0.65385633   -1.7469421   0.12769007    11386.065     1000 
 2694000   0.44347093   -2.3855869   0.66454119   -1.7210457   0.13461575    11460.899     1000 
 2696000     0.423641   -2.4270264   0.63482603   -1.7922003   0.12116836    11475.046     1000 
 2698000   0.44884818   -2.4206328     0.672599   -1.7480338   0.12616469    11516.474     1000 
 2700000   0.43333928   -2.3845026   0.64935891   -1.7351437   0.13245565    11298.983     1000 
 2702000   0.43299222   -2.4307898   0.64883884   -1.7819509   0.13651336    11457.043     1000 
 2704000   0.44706127   -2.3643078   0.66992131   -1.6943865   0.14033155    11367.791     1000 
 2706000   0.42008357   -2.4241335   0.62949522   -1.7946383   0.11609573    11477.118     1000 
 2708000   0.43501366   -2.4435117   0.65186797   -1.7916437   0.12549112    11307.039     1000 
 2710000   0.43531188   -2.3964895   0.65231486   -1.7441746   0.12773311    11350.407     1000 
 2712000   0.44348896   -2.3641347    0.6645682   -1.6995665   0.14017468    11207.521     1000 
 2714000   0.45590646   -2.3969016   0.68317582   -1.7137258   0.11592232    11588.746     1000 
 2716000   0.44560871   -2.4091741   0.66774466   -1.7414294   0.13582554    11382.795     1000 
 2718000    0.4429125   -2.4185525   0.66370438   -1.7548481   0.12150625    11407.508     1000 
 2720000   0.43319652   -2.4095086   0.64914498   -1.7603636   0.11819221    11461.305     1000 
 2722000   0.44940108    -2.390105   0.67342753   -1.7166775    0.1276752    11443.644     1000 
 2724000   0.43421973   -2.4417338   0.65067826   -1.7910556   0.11668408    11470.691     1000 
 2726000   0.44805279    -2.355415   0.67140711   -1.6840078    0.1368388    11171.822     1000 
 2728000   0.44534452   -2.3313278   0.66734877   -1.6639791   0.12775764    11384.641     1000 
 2730000   0.42808186   -2.3629743   0.64148067   -1.7214937   0.12846418    11291.555     1000 
 2732000   0.41707103    -2.396032   0.62498094    -1.771051   0.12827075    11404.018     1000 
 2734000   0.45223146   -2.3658675   0.67766884   -1.6881987   0.13768392    11308.124     1000 
 2736000   0.44804634   -2.4129204   0.67139743    -1.741523   0.13285483    11428.015     1000 
 2738000   0.43428036   -2.4355176   0.65076912   -1.7847485   0.11962501    11477.154     1000 
 2740000   0.42781594   -2.3990873   0.64108219   -1.7580051   0.13199552    11330.905     1000 
 2742000   0.42669874   -2.3823011   0.63940807    -1.742893   0.12416854    11375.603     1000 
 2744000   0.42944654   -2.3707532   0.64352564   -1.7272275   0.13683127    11325.055     1000 
 2746000   0.44454181    -2.361109   0.66614589   -1.6949631    0.1330021    11313.506     1000 
 2748000      0.45239   -2.3904713   0.67790642   -1.7125649    0.1298678    11367.829     1000 
 2750000   0.45017323   -2.3583745   0.67458458   -1.6837899    0.1373762    11336.559     1000 
 2752000    0.4214799   -2.3775915   0.63158764   -1.7460039    0.1417359    11247.174     1000 
 2754000   0.45135681   -2.3899352   0.67635818    -1.713577   0.12043221    11342.765     1000 
 2756000   0.43751677   -2.4220427   0.65561889   -1.7664238   0.12223011    11539.857     1000 
 2758000   0.44892298   -2.4099455   0.67271108   -1.7372345   0.12754649    11534.743     1000 
 2760000   0.45317795   -2.3992106   0.67908716   -1.7201234   0.12450042    11357.203     1000 
 2762000   0.44778005   -2.3443569    0.6709984   -1.6733585   0.12985547    11360.051     1000 
 2764000   0.44540218   -2.4111874   0.66743517   -1.7437522   0.14845072    11337.115     1000 
 2766000   0.45202007    -2.449152   0.67735208   -1.7717999   0.12687311    11466.233     1000 
 2768000   0.43455665   -2.4015698   0.65118314   -1.7503867   0.13238789    11429.994     1000 
 2770000   0.44415999   -2.4046291   0.66557375   -1.7390553   0.13282937    11389.853     1000 
 2772000   0.42775963   -2.3759798    0.6409978    -1.734982   0.13988373    11209.142     1000 
 2774000   0.44644791   -2.3867762    0.6690022    -1.717774   0.13576384    11335.535     1000 
 2776000   0.44786943   -2.3650329   0.67113234   -1.6939006   0.13572258    11318.612     1000 
 2778000    0.4383782   -2.3900265   0.65690974   -1.7331168    0.1351837    11320.377     1000 
 2780000   0.42888619   -2.3738917   0.64268595   -1.7312057   0.12083196      11374.7     1000 
 2782000   0.43844559    -2.380777   0.65701071   -1.7237663   0.13354004    11245.525     1000 
 2784000    0.4453526   -2.4198558   0.66736087    -1.752495   0.14444792     11226.62     1000 
 2786000   0.41922787   -2.3722826   0.62821296   -1.7440696   0.12284008    11381.881     1000 
 2788000   0.44440602   -2.4502216   0.66594242   -1.7842791   0.12946346    11467.086     1000 
 2790000   0.43752188   -2.3507307   0.65562654   -1.6951041   0.13961967    11320.853     1000 
 2792000   0.44190773   -2.3574763   0.66219874   -1.6952775   0.12383981    11321.119     1000 
 2794000   0.45873233   -2.4122537    0.6874104   -1.7248433    0.1412036    11268.123     1000 
 2796000   0.43630855    -2.378852   0.65380837   -1.7250436   0.12607134    11304.466     1000 
 2798000   0.45464545   -2.3589005   0.68128621   -1.6776143   0.14210298    11244.579     1000 
 2800000   0.42324963   -2.4020911   0.63423957   -1.7678516    0.1445496    11246.208     1000 
 2802000   0.41440315   -2.3955413   0.62098312   -1.7745582   0.11226785    11526.965     1000 
 2804000   0.43378813   -2.4501475   0.65003151    -1.800116   0.12805884    11546.382     1000 
 2806000   0.44876012   -2.3910522   0.67246704   -1.7185852   0.13370985    11344.084     1000 
 2808000   0.44165809   -2.4103679   0.66182465   -1.7485433   0.12703797    11394.206     1000 
 2810000   0.45002263     -2.42634   0.67435891   -1.7519811   0.12976696    11203.393     1000 
 2812000   0.44288661   -2.4631082   0.66366558   -1.7994426   0.12444552    11425.406     1000 
 2814000   0.43972573   -2.3826798     0.658929   -1.7237508   0.11637006    11480.541     1000 
 2816000   0.43798042   -2.3957391   0.65631366   -1.7394254   0.11999114     11432.84     1000 
 2818000   0.44992845    -2.384312   0.67421778   -1.7100942   0.12506854    11472.329     1000 
 2820000   0.43459685   -2.4073378   0.65124339   -1.7560944   0.13670826    11284.792     1000 
 2822000   0.43686309   -2.3870089   0.65463934   -1.7323696   0.13929217    11329.076     1000 
 2824000   0.44064072   -2.4487332   0.66030012   -1.7884331   0.11603502     11473.89     1000 
 2826000   0.45192662   -2.4031274   0.67721204   -1.7259153   0.12826572    11293.878     1000 
 2828000   0.43937441   -2.3324425   0.65840256   -1.6740399   0.13878711    11321.441     1000 
 2830000   0.45404166    -2.365685   0.68038143   -1.6853035   0.13315233    11393.895     1000 
 2832000   0.42427711   -2.4958599   0.63577924   -1.8600806    0.1182401    11588.372     1000 
 2834000   0.43017792    -2.394692   0.64462162   -1.7500703   0.11359698    11453.852     1000 
 2836000   0.44364703   -2.3776184   0.66480507   -1.7128133   0.13333144    11280.464     1000 
 2838000    0.4475526   -2.4125204   0.67065758   -1.7418629   0.12489873    11540.222     1000 
 2840000   0.44426957   -2.3796442   0.66573795   -1.7139063   0.12626764    11388.733     1000 
 2842000   0.45384969    -2.379972   0.68009376   -1.6998783   0.12673418    11466.516     1000 
 2844000   0.45705539   -2.3827128   0.68489749   -1.6978153   0.13295156     11417.62     1000 
 2846000   0.43630794   -2.4188549   0.65380744   -1.7650475    0.1204754    11415.106     1000 
 2848000     0.442988   -2.4277232   0.66381751   -1.7639057   0.12114083    11522.754     1000 
 2850000    0.4287301   -2.3461309   0.64245205   -1.7036789   0.12896502    11317.541     1000 
 2852000   0.43879814   -2.4353197   0.65753902   -1.7777807   0.13088825    11439.667     1000 
 2854000   0.43809136   -2.4409123    0.6564799   -1.7844324   0.11296904     11496.73     1000 
 2856000   0.44377816   -2.3638662   0.66500158   -1.6988647   0.13403346    11379.148     1000 
 2858000   0.44058873   -2.3926929   0.66022222   -1.7324707   0.13786422    11375.003     1000 
 2860000   0.44110996   -2.3364607   0.66100327   -1.6754574   0.14323175    11324.535     1000 
 2862000   0.41559853   -2.4243528    0.6227744   -1.8015784   0.12210052    11434.306     1000 
 2864000   0.43669474   -2.4094919   0.65438706   -1.7551049   0.13015032    11448.545     1000 
 2866000   0.44037666   -2.4280376   0.65990442   -1.7681332   0.13684512    11351.967     1000 
 2868000   0.45233163   -2.3691838   0.67781895   -1.6913649   0.13363283    11302.687     1000 
 2870000   0.45554866   -2.4156406   0.68263966    -1.733001   0.13661153      11340.1     1000 
 2872000   0.44899205    -2.352773   0.67281459   -1.6799584   0.14098481    11290.794     1000 
 2874000   0.44507375   -2.3856487   0.66694302   -1.7187057   0.12739568    11306.219     1000 
 2876000    0.4474352   -2.4308921   0.67048165   -1.7604105   0.12873288    11307.518     1000 
 2878000   0.46812391   -2.4129917   0.70148368    -1.711508    0.1144976    11517.987     1000 
 2880000   0.43596076   -2.4107936    0.6532872   -1.7575064   0.11947111    11392.261     1000 
 2882000   0.42739789   -2.4212056   0.64045573   -1.7807498   0.13351594    11359.963     1000 
 2884000   0.43314124   -2.4443504   0.64906215   -1.7952883   0.12731334    11466.959     1000 
 2886000   0.44410636   -2.3972822   0.66549338   -1.7317888   0.12955244    11476.765     1000 
 2888000   0.42526889   -2.3989757   0.63726543   -1.7617103   0.12648085    11393.245     1000 
 2890000   0.43854359   -2.3906961   0.65715758   -1.7335385     0.142474    11298.095     1000 
 2892000   0.44922477   -2.3868679   0.67316332   -1.7137046   0.13247392    11366.804     1000 
 2894000   0.43430839   -2.3454365   0.65081112   -1.6946254    0.1302187    11200.291     1000 
 2896000   0.43670395   -2.4074318   0.65440088   -1.7530309   0.13256716     11307.42     1000 
 2898000   0.43374779   -2.4083907   0.64997106   -1.7584197   0.12448823     11466.18     1000 
 2900000   0.45820256   -2.4084589   0.68661653   -1.7218423   0.13384765    11375.036     1000 
 2902000   0.43419557   -2.3687222   0.65064207   -1.7180801    0.1185064    11537.855     1000 
 2904000    0.4310828   -2.3792026   0.64597757    -1.733225   0.13239433     11294.63     1000 
 2906000   0.44499715   -2.3787736   0.66682823   -1.7119454   0.13879527    11290.357     1000 
 2908000   0.42960461   -2.3850154   0.64376251   -1.7412529   0.12250381    11324.541     1000 
 2910000   0.43463045   -2.3870397   0.65129374    -1.735746   0.12346892    11552.573     1000 
 2912000   0.45521144   -2.3684499   0.68213435   -1.6863155   0.13966793    11219.236     1000 
 2914000    0.4586969   -2.3594102    0.6873573   -1.6720529   0.14304951    11320.229     1000 
 2916000   0.42138376   -2.3903772   0.63144357   -1.7589336   0.12578255     11564.75     1000 
 2918000   0.45097459   -2.4393887   0.67578542   -1.7636033   0.12857969    11399.225     1000 
 2920000   0.44397874   -2.3969802   0.66530214   -1.7316781   0.14393461    11228.009     1000 
 2922000   0.42383889   -2.4251291   0.63512257   -1.7900066   0.12767585     11473.16     1000 
 2924000   0.43911199   -2.4221278   0.65800931   -1.7641184   0.12842164    11416.799     1000 
 2926000   0.44316054   -2.3707762   0.66407606   -1.7067002    0.1218312    11449.928     1000 
 2928000   0.43357564   -2.4184529    0.6497131   -1.7687398   0.12827911    11420.874     1000 
 2930000   0.43360002   -2.3501972   0.64974962   -1.7004475   0.12381181     11491.05     1000 
 2932000   0.45015234   -2.4171607   0.67455328   -1.7426074   0.12282442    11419.925     1000 
 2934000   0.44479455   -2.4665656   0.66652464    -1.800041   0.12326127    11495.695     1000 
 2936000   0.47189418    -2.362421   0.70713342   -1.6552875   0.15085147    11148.648     1000 
 2938000   0.43199662   -2.3515805   0.64734694   -1.7042336   0.11592027     11482.25     1000 
 2940000   0.43779693   -2.3263427    0.6560387    -1.670304   0.14558967    11223.094     1000 
 2942000   0.43931037   -2.3781502   0.65830659   -1.7198436   0.12769643    11254.066     1000 
 2944000   0.43637151   -2.3404468   0.65390271   -1.6865441   0.13137001    11312.435     1000 
 2946000   0.43436271   -2.4317783   0.65089251   -1.7808858   0.12646484    11493.091     1000 
 2948000   0.43070587   -2.4076066   0.64541275   -1.7621938   0.13569311    11336.542     1000 
 2950000   0.44572043   -2.3930104   0.66791207   -1.7250984   0.12013013    11438.633     1000 
 2952000   0.43155742   -2.3987113   0.64668879   -1.7520225   0.14828023    11237.799     1000 
 2954000   0.43598788   -2.4197289   0.65332784   -1.7664011   0.12032672    11472.531     1000 
 2956000   0.45355753   -2.3989693   0.67965596   -1.7193133   0.11161803    11472.506     1000 
 2958000   0.43236374   -2.3373202   0.64789707   -1.6894231   0.14198331    11257.682     1000 
 2960000   0.44186416   -2.3508174   0.66213344   -1.6886839   0.12918975    11270.552     1000 
 2962000   0.45109572   -2.3567143   0.67596694   -1.6807473    0.1184256    11437.346     1000 
 2964000    0.4596526   -2.4248196   0.68878943   -1.7360302   0.13296115     11479.99     1000 
 2966000   0.42784049   -2.3979316   0.64111897   -1.7568126   0.12644072    11398.744     1000 
 2968000   0.43572091   -2.4390707   0.65292778   -1.7861429   0.11434486     11503.13     1000 
 2970000   0.45458673   -2.3774089   0.68119822   -1.6962107   0.14918764    11401.835     1000 
 2972000   0.45538714   -2.3841936   0.68239763    -1.701796   0.13758615    11255.571     1000 
 2974000   0.44434605   -2.3564682   0.66585256   -1.6906157    0.1307035    11353.208     1000 
 2976000   0.46060031   -2.4195334   0.69020956   -1.7293239   0.13696276    11377.913     1000 
 2978000    0.4325077   -2.3879612   0.64811279   -1.7398484    0.1216455     11473.64     1000 
 2980000   0.42867009   -2.3877984   0.64236212   -1.7454363   0.12190405    11408.188     1000 
 2982000   0.45017009   -2.3944257   0.67457989   -1.7198459   0.12249491    11382.892     1000 
 2984000   0.41908431   -2.4065103   0.62799784   -1.7785125    0.1386433    11323.446     1000 
 2986000    0.4323304   -2.3849387   0.64784711   -1.7370916   0.13036327    11429.485     1000 
 2988000   0.44612105   -2.4003452   0.66851239   -1.7318328   0.13839326    11354.033     1000 
 2990000   0.43763501   -2.3771536   0.65579606   -1.7213576   0.13470588    11266.379     1000 
 2992000   0.43819515   -2.3632802   0.65663544   -1.7066448   0.12295098    11434.614     1000 
 2994000   0.42345359   -2.3895764    0.6345452   -1.7550312   0.12468328    11530.612     1000 
 2996000   0.44161959   -2.4207956   0.66176696   -1.7590287   0.13155226     11362.75     1000 
 2998000   0.43765467     -2.40209   0.65582552   -1.7462644    0.1286891    11376.006     1000 
 3000000   0.44240467    -2.410911    0.6629434   -1.7479676   0.12669995    11537.843     1000 
Loop time of 1934.54 on 1 procs for 3000000 steps with 1000 atoms

Performance: 669926.811 tau/day, 1550.757 timesteps/s
100.0% CPU use with 1 MPI tasks x 1 OpenMP threads

MPI task timing breakdown:
Section |  min time  |  avg time  |  max time  |%varavg| %total
---------------------------------------------------------------
Pair    | 1552.4     | 1552.4     | 1552.4     |   0.0 | 80.25
Neigh   | 201.37     | 201.37     | 201.37     |   0.0 | 10.41
Comm    | 41.535     | 41.535     | 41.535     |   0.0 |  2.15
Output  | 0.19011    | 0.19011    | 0.19011    |   0.0 |  0.01
Modify  | 131.19     | 131.19     | 131.19     |   0.0 |  6.78
Other   |            | 7.839      |            |       |  0.41

Nlocal:        1000.00 ave        1000 max        1000 min
Histogram: 1 0 0 0 0 0 0 0 0 0
Nghost:        2135.00 ave        2135 max        2135 min
Histogram: 1 0 0 0 0 0 0 0 0 0
Neighs:        27164.0 ave       27164 max       27164 min
Histogram: 1 0 0 0 0 0 0 0 0 0

Total # of neighbors = 27164
Ave neighs/atom = 27.164000
Neighbor list builds = 150000
Dangerous builds not checked

Total wall time: 0:32:14
