LAMMPS (29 Sep 2021 - Update 2)
OMP_NUM_THREADS environment is not set. Defaulting to 1 thread. (src/comm.cpp:98)
  using 1 OpenMP thread(s) per MPI task
# ----------------------- Inicialização -----------------------

units			lj
atom_style 		atomic
dimension 		3
boundary 		p p p

# -------------------- Criação dos Átomos ---------------------

read_data 		topologia.txt
Reading data file ...
  orthogonal box = (0.0000000 0.0000000 0.0000000) to (21.540000 21.540000 21.540000)
  1 by 1 by 1 MPI processor grid
  reading atoms ...
  1000 atoms
  read_data CPU = 0.005 seconds

velocity 		all create ${temp} 87287 rot yes dist gaussian
velocity 		all create 0.52 87287 rot yes dist gaussian

# ------------------ Interação Interatômica -------------------

pair_style		table linear 1000
pair_coeff		1 1 force.table AA 5.0
WARNING: 2 of 1000 force values in table AA are inconsistent with -dE/dr.
WARNING:  Should only be flagged at inflection points (src/pair_table.cpp:465)
pair_coeff		1 2 force.table AB 5.0
WARNING: 1 of 1000 force values in table AB are inconsistent with -dE/dr.
WARNING:  Should only be flagged at inflection points (src/pair_table.cpp:465)
pair_coeff		2 2 force.table BB 5.0
pair_write		1 1 1000 r 0.008 5.0 table.check AA
Appending to table file table.check with DATE: 2023-07-05
Neighbor list info ...
  update every 1 steps, delay 10 steps, check yes
  max neighbors/atom: 2000, page size: 100000
  master list distance cutoff = 5.3
  ghost atom cutoff = 5.3
  binsize = 2.65, bins = 9 9 9
  1 neighbor lists, perpetual/occasional/extra = 1 0 0
  (1) pair table, perpetual
      attributes: half, newton on
      pair build: half/bin/atomonly/newton
      stencil: half/bin/3d
      bin: standard
pair_write		1 2 1000 r 0.008 5.0 table.check AB
Appending to table file table.check with DATE: 2023-07-05
pair_write		2 2 1000 r 0.008 5.0 table.check BB
Appending to table file table.check with DATE: 2023-07-05

neighbor 		0.3 bin
neigh_modify		every 20 delay 0 check no

# ------------------------- Ensemble --------------------------------------

fix 1			all npt temp ${temp} ${temp} 0.5 iso ${press} ${press} 5
fix 1			all npt temp 0.52 ${temp} 0.5 iso ${press} ${press} 5
fix 1			all npt temp 0.52 0.52 0.5 iso ${press} ${press} 5
fix 1			all npt temp 0.52 0.52 0.5 iso 0.13 ${press} 5
fix 1			all npt temp 0.52 0.52 0.5 iso 0.13 0.13 5

# ---------------------- Função de Distribuição Radial -----------------------

#compute RDF 		all rdf 2000 1 1 1 2 2 2
#fix 2 			all ave/time 1 2000 2000 c_RDF[*] file rdf.data mode vector

# ------------------------- Execução ---------------------------

timestep 		0.005
thermo_style		custom step temp pe ke etotal press vol atoms
thermo			2000
run			3000000
Per MPI rank memory allocation (min/avg/max) = 2.670 | 2.670 | 2.670 Mbytes
Step Temp PotEng KinEng TotEng Press Volume Atoms 
       0         0.52    1.5784776      0.77922    2.3576976      1.67526    9993.9483     1000 
    2000   0.52851212   -2.3806747    0.7919754   -1.5886993     0.124947    11695.349     1000 
    4000   0.52028158   -2.3812715   0.77964194   -1.6016296   0.12645618    11598.383     1000 
    6000   0.51037278   -2.4165055   0.76479362   -1.6517119   0.13919228    11555.908     1000 
    8000    0.4998773   -2.4767376   0.74906613   -1.7276715   0.13756424    11406.099     1000 
   10000   0.50962864   -2.4249792   0.76367852   -1.6613006   0.13186235    11553.245     1000 
   12000    0.5232219   -2.4249204   0.78404802   -1.6408724   0.12908397    11543.761     1000 
   14000   0.53115805   -2.4486971   0.79594034   -1.6527568    0.1376401    11387.677     1000 
   16000   0.50594513   -2.5031916   0.75815878   -1.7450328   0.12064541    11618.019     1000 
   18000   0.51537814   -2.4770851   0.77229415   -1.7047909   0.12668281     11499.71     1000 
   20000   0.54369149    -2.517961    0.8147217   -1.7032393   0.13617718    11511.472     1000 
   22000   0.52618404   -2.4215978   0.78848678    -1.633111   0.12435192    11352.185     1000 
   24000   0.50053155    -2.446492   0.75004653   -1.6964455   0.12421496    11581.303     1000 
   26000   0.53893312   -2.4854685   0.80759128   -1.6778773   0.13975305    11282.868     1000 
   28000    0.5306919   -2.4539225   0.79524181   -1.6586807   0.12285525    11514.633     1000 
   30000   0.51819889   -2.4844981   0.77652104   -1.7079771   0.12138742    11523.707     1000 
   32000   0.51779492   -2.4204284   0.77591569   -1.6445127   0.11926598    11405.669     1000 
   34000   0.52097839    -2.443121   0.78068612   -1.6624349   0.12925763    11359.826     1000 
   36000   0.49238196   -2.4613901   0.73783437   -1.7235557   0.12674717    11392.014     1000 
   38000   0.50863608   -2.4587448   0.76219117   -1.6965536   0.13684764    11404.918     1000 
   40000   0.49623597   -2.4562883    0.7436096   -1.7126787   0.12465358    11389.952     1000 
   42000   0.52393194   -2.4771999   0.78511202   -1.6920879   0.12814129    11327.417     1000 
   44000    0.5158614   -2.4080917    0.7730183   -1.6350734   0.13379076     11308.68     1000 
   46000   0.51302012   -2.4781414   0.76876065   -1.7093807   0.12455637    11471.668     1000 
   48000   0.52034016   -2.4804395   0.77972973   -1.7007097   0.13739106    11397.113     1000 
   50000    0.4996816   -2.4533518   0.74877288   -1.7045789   0.14348395    11427.252     1000 
   52000    0.5208775   -2.4992779   0.78053494   -1.7187429   0.14149705    11574.143     1000 
   54000   0.52030406   -2.4781756   0.77967563   -1.6984999   0.13891249    11525.985     1000 
   56000   0.52649286   -2.4635559   0.78894956   -1.6746064   0.13360086    11619.442     1000 
   58000   0.47455453   -2.4676137   0.71111996   -1.7564937   0.12851241     11312.23     1000 
   60000    0.5376726   -2.4692109   0.80570239   -1.6635085   0.12679785     11522.34     1000 
   62000   0.51154509   -2.4905425   0.76655032   -1.7239922   0.12461491    11465.334     1000 
   64000   0.49342358   -2.4449461   0.73939524   -1.7055509   0.13733317    11382.146     1000 
   66000   0.51431382   -2.5349074   0.77069926   -1.7642082   0.11159972     11629.87     1000 
   68000   0.50931977   -2.4925869   0.76321568   -1.7293712   0.11836138    11396.796     1000 
   70000   0.51384793   -2.4758583   0.77000112   -1.7058572    0.1227922    11514.191     1000 
   72000   0.50730412   -2.5164626   0.76019522   -1.7562674   0.13025512    11483.804     1000 
   74000   0.54411085   -2.4826729   0.81535011   -1.6673228   0.12038104    11558.638     1000 
   76000   0.52569778   -2.4509853   0.78775812   -1.6632272   0.13189947    11223.767     1000 
   78000   0.53573313   -2.4954288    0.8027961   -1.6926327    0.1383186     11407.93     1000 
   80000   0.52393757   -2.4704055   0.78512044   -1.6852851   0.13129225    11450.815     1000 
   82000   0.53594433   -2.4656307   0.80311257   -1.6625182   0.13566832    11547.901     1000 
   84000   0.54638091   -2.4506784    0.8187518   -1.6319266   0.13448544    11376.608     1000 
   86000   0.50470376   -2.4893444   0.75629859   -1.7330458   0.11714465    11681.405     1000 
   88000   0.49960431   -2.4692919   0.74865705   -1.7206349   0.12083491    11374.183     1000 
   90000    0.5451722   -2.5005522   0.81694055   -1.6836117   0.13517996    11344.834     1000 
   92000   0.49928648   -2.4858445    0.7481808   -1.7376637   0.13118016    11333.109     1000 
   94000   0.50073356   -2.4731185   0.75034924   -1.7227693   0.12231737    11490.739     1000 
   96000   0.53149963   -2.4858525    0.7964522   -1.6894003   0.13000975    11537.004     1000 
   98000   0.51624084    -2.445331   0.77358689   -1.6717441   0.12696728    11502.878     1000 
  100000   0.51282022   -2.4599146    0.7684611   -1.6914535   0.11786237    11529.956     1000 
  102000   0.52991665   -2.4323659    0.7940801   -1.6382858    0.1137539    11600.964     1000 
  104000   0.51544531   -2.4894452    0.7723948   -1.7170504   0.12131716    11580.788     1000 
  106000   0.51576187   -2.4641042   0.77286917   -1.6912351   0.14022945     11305.83     1000 
  108000   0.54021011   -2.4241714   0.80950486   -1.6146665   0.12385139    11402.896     1000 
  110000   0.53074273    -2.465031   0.79531798    -1.669713   0.10199144    11513.715     1000 
  112000   0.50143663   -2.4268475   0.75140279   -1.6754447   0.12683541    11371.169     1000 
  114000   0.51449298   -2.4798628   0.77096774   -1.7088951   0.12827276    11453.646     1000 
  116000   0.53211594   -2.4500885   0.79737574   -1.6527127   0.12305722    11529.249     1000 
  118000   0.50277266   -2.4498033   0.75340483   -1.6963985   0.15146715    11354.931     1000 
  120000   0.52323698   -2.4752046   0.78407061    -1.691134   0.13257091    11501.337     1000 
  122000   0.51130838   -2.4363886   0.76619561    -1.670193   0.12794064    11300.616     1000 
  124000   0.53376408   -2.4576587   0.79984547   -1.6578132    0.1183182    11529.579     1000 
  126000   0.53627192   -2.4569153   0.80360347   -1.6533118   0.12197317    11396.101     1000 
  128000   0.51345041   -2.4430169   0.76940544   -1.6736115   0.13505796    11384.813     1000 
  130000   0.51183295   -2.4860206   0.76698168   -1.7190389   0.14754456    11420.366     1000 
  132000   0.49640493   -2.4539587   0.74386279   -1.7100959   0.13758378    11379.454     1000 
  134000   0.52684889   -2.4656943   0.78948306   -1.6762112   0.13420119    11343.147     1000 
  136000   0.53024912   -2.4722725   0.79457831   -1.6776942   0.12486082    11451.485     1000 
  138000   0.53802092   -2.4937809   0.80622436   -1.6875565   0.13228438    11339.049     1000 
  140000   0.51103275   -2.4968955   0.76578257   -1.7311129   0.12868985    11399.136     1000 
  142000   0.53229833   -2.4915863   0.79764905   -1.6939373   0.13636934    11330.618     1000 
  144000   0.52242216   -2.4176987   0.78284961   -1.6348491   0.13950467    11256.047     1000 
  146000   0.51913354   -2.4517524   0.77792161   -1.6738308   0.12807045    11408.267     1000 
  148000   0.51383875    -2.450636   0.76998736   -1.6806486   0.12455731    11448.715     1000 
  150000    0.5260063    -2.446364   0.78822044   -1.6581436   0.13423162    11388.667     1000 
  152000   0.52825654   -2.4762618   0.79159243   -1.6846694   0.10700022    11711.518     1000 
  154000   0.51230629   -2.4955866   0.76769098   -1.7278956   0.12431832    11267.191     1000 
  156000   0.51638615   -2.4605862   0.77380464   -1.6867816   0.11709395    11473.085     1000 
  158000   0.53715595   -2.5053965   0.80492819   -1.7004683   0.12200726     11529.56     1000 
  160000   0.52188051   -2.4907724   0.78203795   -1.7087345   0.12710794    11508.913     1000 
  162000   0.52256026   -2.4729502   0.78305656   -1.6898936    0.1370195    11247.151     1000 
  164000   0.52433494   -2.4580141   0.78571591   -1.6722982   0.13568713    11305.327     1000 
  166000   0.52907374   -2.4202664     0.792817   -1.6274494    0.1240044    11379.682     1000 
  168000   0.53711908   -2.4984356   0.80487294   -1.6935627   0.13221282    11423.363     1000 
  170000   0.50857889   -2.4530678   0.76210546   -1.6909623   0.14163241    11418.953     1000 
  172000   0.50882998   -2.5001942   0.76248172   -1.7377125   0.13050861    11281.878     1000 
  174000   0.53986091   -2.5080562   0.80898158   -1.6990746   0.13871902    11409.132     1000 
  176000   0.51933486   -2.4897973   0.77822329    -1.711574   0.13035053    11465.962     1000 
  178000   0.51121962   -2.4815582    0.7660626   -1.7154956   0.12937786    11388.892     1000 
  180000    0.5371794   -2.4447077   0.80496333   -1.6397443   0.14371462    11346.377     1000 
  182000   0.51259681   -2.4931618   0.76812632   -1.7250355   0.11421273    11530.468     1000 
  184000   0.51234965   -2.4450575   0.76775595   -1.6773016   0.13555265    11382.576     1000 
  186000   0.52464457   -2.5083582   0.78617988   -1.7221783   0.12449499    11469.639     1000 
  188000   0.49624877   -2.3881003   0.74362879   -1.6444715   0.12907002    11312.442     1000 
  190000   0.51530035   -2.4863532   0.77217758   -1.7141757   0.11456644    11530.572     1000 
  192000   0.50822927    -2.449714   0.76158156   -1.6881325   0.12953389    11407.113     1000 
  194000    0.5322866   -2.4672613   0.79763147   -1.6696299   0.12364631     11474.86     1000 
  196000   0.56855281   -2.4653462   0.85197639   -1.6133698   0.13068222    11542.061     1000 
  198000   0.51265885   -2.4787069   0.76821928   -1.7104876   0.13440815    11550.219     1000 
  200000   0.51690911   -2.4483722   0.77458831   -1.6737839   0.13582499    11373.005     1000 
  202000   0.48268885   -2.4069937   0.72330925   -1.6836845   0.13254536    11316.061     1000 
  204000   0.51707239   -2.4843631   0.77483298   -1.7095301   0.14120682    11376.495     1000 
  206000   0.52040526   -2.4431212   0.77982729   -1.6632939   0.13348938    11405.261     1000 
  208000    0.5084568    -2.440577   0.76192252   -1.6786545    0.1187614    11348.652     1000 
  210000   0.54371635   -2.4526078   0.81475895   -1.6378488    0.1362204    11176.468     1000 
  212000   0.53408425   -2.4646234   0.80032525   -1.6642982   0.13059217    11339.493     1000 
  214000   0.53195758   -2.4204003   0.79713843   -1.6232619   0.12718396    11448.571     1000 
  216000   0.52495554   -2.3967039   0.78664588    -1.610058   0.14715031    11286.485     1000 
  218000   0.53432174   -2.4641375   0.80068112   -1.6634563   0.14412772    11391.098     1000 
  220000   0.51326096   -2.4634195   0.76912155   -1.6942979   0.12663279     11461.42     1000 
  222000    0.5289204   -2.4508345   0.79258722   -1.6582473   0.12155038    11533.998     1000 
  224000   0.54211529   -2.4460409   0.81235976   -1.6336811    0.1299623    11388.044     1000 
  226000   0.49596706   -2.4611961   0.74320664   -1.7179895   0.13004771    11250.119     1000 
  228000   0.50813567   -2.4673049   0.76144129   -1.7058636   0.13431695    11424.172     1000 
  230000    0.5131686   -2.4436725   0.76898315   -1.6746893    0.1448881    11249.716     1000 
  232000   0.51345225   -2.4556887   0.76940819   -1.6862805   0.14041513    11410.852     1000 
  234000   0.54328565    -2.448169   0.81411355   -1.6340555   0.14465336    11322.811     1000 
  236000   0.53487997   -2.5000727   0.80151763   -1.6985551   0.13757532    11254.699     1000 
  238000   0.53518326   -2.4994479   0.80197211   -1.6974758   0.12341405    11417.411     1000 
  240000   0.53217434   -2.4988342   0.79746325    -1.701371   0.12136833    11458.984     1000 
  242000   0.52308165   -2.4408173   0.78383786   -1.6569795   0.13361574    11518.828     1000 
  244000   0.54182621   -2.4483892   0.81192658   -1.6364626   0.11461518    11479.845     1000 
  246000   0.51142355   -2.4642449   0.76636818   -1.6978767   0.13492602    11331.358     1000 
  248000   0.52548659    -2.477264   0.78744165   -1.6898224    0.1255074    11527.129     1000 
  250000   0.52813857   -2.4562616   0.79141564    -1.664846   0.11818761    11482.873     1000 
  252000   0.53569193   -2.4540722   0.80273436   -1.6513379   0.14033355    11154.209     1000 
  254000   0.52256931   -2.4088575   0.78307011   -1.6257874   0.12888562    11232.653     1000 
  256000   0.53683602   -2.4654047   0.80444877   -1.6609559   0.13908199    11305.722     1000 
  258000   0.50300767   -2.4271688   0.75375699   -1.6734119   0.12786915    11461.831     1000 
  260000   0.51737368   -2.4821676   0.77528447   -1.7068831     0.123344    11622.877     1000 
  262000   0.51867535   -2.4571669   0.77723501   -1.6799319   0.11420568    11489.881     1000 
  264000   0.52461316   -2.4658234   0.78613282   -1.6796905   0.11662763     11511.33     1000 
  266000   0.50791487   -2.5147945   0.76111044    -1.753684   0.12466184     11537.78     1000 
  268000   0.52696962   -2.4772081   0.78966398   -1.6875441   0.12604824    11586.466     1000 
  270000   0.49726058   -2.4819065   0.74514498   -1.7367615    0.1121571    11455.912     1000 
  272000   0.52352782   -2.4684177   0.78450644   -1.6839112   0.13469575    11430.485     1000 
  274000    0.5407723   -2.4462865   0.81034729   -1.6359392   0.11994985    11554.577     1000 
  276000   0.50357699   -2.4968647   0.75461013   -1.7422545   0.13191989    11389.262     1000 
  278000   0.52205879   -2.4861019    0.7823051   -1.7037968   0.12480654    11369.569     1000 
  280000   0.50845198   -2.4600371   0.76191529   -1.6981218   0.13324431     11473.88     1000 
  282000   0.52736959   -2.4866352   0.79026334   -1.6963719   0.14001745    11508.496     1000 
  284000    0.5401674   -2.4691814   0.80944086   -1.6597406   0.12776208    11370.804     1000 
  286000   0.52426721   -2.4817228   0.78561442   -1.6961084   0.12493635    11548.814     1000 
  288000   0.50463853   -2.4447502   0.75620083   -1.6885494   0.12746361    11374.854     1000 
  290000    0.5426436   -2.4559988   0.81315143   -1.6428473   0.13196467    11527.145     1000 
  292000   0.51064886   -2.5042986   0.76520731   -1.7390913   0.12391866    11568.927     1000 
  294000   0.52155894    -2.416601   0.78155607   -1.6350449   0.14210479     11371.18     1000 
  296000   0.52345871   -2.4733344   0.78440287   -1.6889315   0.12551121      11365.9     1000 
  298000   0.51347807   -2.4795883   0.76944689   -1.7101414   0.12913085    11334.977     1000 
  300000   0.50870879   -2.4630636   0.76230012   -1.7007635   0.12666642    11475.317     1000 
  302000   0.53598392   -2.4594408    0.8031719   -1.6562689   0.14011101    11318.649     1000 
  304000   0.52139687   -2.4671497   0.78131321   -1.6858365   0.13655325    11348.516     1000 
  306000   0.51738165   -2.4800411    0.7752964   -1.7047447   0.12433047    11631.545     1000 
  308000   0.51964187   -2.4150438   0.77868335   -1.6363604   0.13317845    11259.666     1000 
  310000   0.50544353   -2.4251284   0.75740714   -1.6677212   0.14434733     11394.65     1000 
  312000   0.51326368   -2.4541507   0.76912563   -1.6850251   0.12754096    11385.302     1000 
  314000   0.51840653   -2.4517942   0.77683219    -1.674962   0.11957499    11438.255     1000 
  316000   0.52746648   -2.4579314   0.79040851   -1.6675229   0.12765482    11394.857     1000 
  318000    0.5280598   -2.4420098   0.79129761   -1.6507122   0.14161778     11348.27     1000 
  320000   0.54534155   -2.5039509   0.81719431   -1.6867566   0.13895336    11412.873     1000 
  322000   0.50295593    -2.462665   0.75367946   -1.7089855   0.11712005    11355.645     1000 
  324000   0.51923266   -2.4591266   0.77807014   -1.6810565   0.13617303    11412.092     1000 
  326000   0.51598422   -2.4472429   0.77320236   -1.6740406   0.13510023    11347.531     1000 
  328000   0.53000903   -2.4860019   0.79421853   -1.6917834   0.12424739    11446.209     1000 
  330000   0.53341887   -2.3938187   0.79932818   -1.5944905   0.13612628    11187.527     1000 
  332000   0.54948808   -2.4547068   0.82340788   -1.6312989   0.12923737    11392.705     1000 
  334000   0.51433242   -2.4916958   0.77072713   -1.7209686   0.13256282    11309.837     1000 
  336000   0.50731407   -2.4759528   0.76021014   -1.7157427   0.13250563    11433.881     1000 
  338000   0.53501374   -2.4048447   0.80171809   -1.6031266   0.13325816    11293.239     1000 
  340000   0.51993225   -2.4609332   0.77911848   -1.6818147   0.13828411    11275.744     1000 
  342000   0.49924129   -2.4117857   0.74811307   -1.6636726   0.14112336    11305.124     1000 
  344000    0.5386925   -2.4223101   0.80723072   -1.6150794   0.13842994    11243.845     1000 
  346000   0.49171389   -2.4623365   0.73683327   -1.7255032   0.11119545    11511.367     1000 
  348000   0.51472564   -2.5031035   0.77131637   -1.7317871   0.11581697    11571.745     1000 
  350000   0.51883948   -2.4453915   0.77748096   -1.6679105   0.12750839    11507.556     1000 
  352000   0.53183339   -2.4065438   0.79695234   -1.6095915   0.13864092     11340.23     1000 
  354000   0.51917077   -2.4312852    0.7779774   -1.6533078   0.12110997    11419.356     1000 
  356000   0.53139093   -2.4440024   0.79628931   -1.6477131   0.14488258    11274.546     1000 
  358000   0.52327514   -2.5253428   0.78412779    -1.741215   0.12580681    11542.202     1000 
  360000   0.53193562   -2.4839133   0.79710552   -1.6868078   0.13792357    11428.678     1000 
  362000   0.52131401   -2.4697199   0.78118905   -1.6885309   0.12787852    11506.466     1000 
  364000   0.51681588   -2.4878869    0.7744486   -1.7134383   0.11997162    11420.657     1000 
  366000   0.53334611   -2.4486194   0.79921915   -1.6494002   0.14071341    11319.088     1000 
  368000   0.52520836   -2.4591923   0.78702473   -1.6721676    0.1358873    11436.431     1000 
  370000    0.5284031    -2.468273   0.79181204   -1.6764609   0.13600182    11394.601     1000 
  372000   0.52473807   -2.4524558      0.78632   -1.6661358   0.12912836    11337.904     1000 
  374000   0.53797998   -2.4789797   0.80616301   -1.6728167   0.14195182    11418.454     1000 
  376000   0.50847771   -2.4410451   0.76195385   -1.6790913   0.14457735    11332.705     1000 
  378000   0.52705569     -2.41875   0.78979295   -1.6289571   0.14264951    11289.913     1000 
  380000   0.53055151   -2.4425327   0.79503144   -1.6475012   0.13325468    11400.664     1000 
  382000    0.5228791   -2.4618668   0.78353433   -1.6783324   0.12919849    11413.188     1000 
  384000   0.54267238    -2.473296   0.81319456   -1.6601015   0.14699325     11304.44     1000 
  386000   0.49315202   -2.5418891    0.7389883   -1.8029008   0.13052324    11390.459     1000 
  388000   0.52606624   -2.4418538   0.78831026   -1.6535435   0.12216777     11384.14     1000 
  390000   0.52356036   -2.4766255    0.7845552   -1.6920703   0.14030298    11332.649     1000 
  392000   0.51105088   -2.4364376   0.76580974   -1.6706279   0.13907037     11321.41     1000 
  394000   0.53858645   -2.4953121   0.80707179   -1.6882403   0.13410863    11351.623     1000 
  396000   0.49982536   -2.4848219    0.7489883   -1.7358336   0.11975196    11542.102     1000 
  398000   0.52099393    -2.457643    0.7807094   -1.6769336   0.15242713    11244.547     1000 
  400000    0.5282356   -2.4163453   0.79156105   -1.6247842   0.13498162    11379.977     1000 
  402000   0.51518467   -2.5042979   0.77200422   -1.7322937   0.11069612    11594.171     1000 
  404000   0.52052599   -2.4303467    0.7800082   -1.6503385   0.13089769    11454.709     1000 
  406000   0.52620708   -2.4577533   0.78852131    -1.669232   0.14124689    11288.877     1000 
  408000   0.51691563   -2.4592757   0.77459807   -1.6846776   0.11807517    11471.378     1000 
  410000   0.52093533   -2.4939791    0.7806216   -1.7133575    0.1178496    11538.045     1000 
  412000   0.52172027    -2.462054   0.78179782   -1.6802562   0.14299079    11410.586     1000 
  414000   0.51681716   -2.4566185   0.77445052   -1.6821679   0.13088412    11461.196     1000 
  416000    0.5142542   -2.4902006   0.77060992   -1.7195907    0.1203962    11387.977     1000 
  418000   0.52124566    -2.489488   0.78108662   -1.7084013   0.12029574    11567.507     1000 
  420000   0.50456873   -2.5123907   0.75609624   -1.7562944   0.12427723    11633.164     1000 
  422000   0.49673866   -2.4816338   0.74436289    -1.737271   0.12208935    11560.247     1000 
  424000     0.522637   -2.4661562   0.78317154   -1.6829846   0.14077698    11367.328     1000 
  426000   0.50867696   -2.4609326   0.76225243   -1.6986802   0.14360898    11237.275     1000 
  428000    0.4949234   -2.4809718   0.74164271   -1.7393291   0.12597488    11472.013     1000 
  430000   0.52437582   -2.4605647   0.78577716   -1.6747875    0.1122083    11572.891     1000 
  432000   0.51768358   -2.4749144   0.77574885   -1.6991655   0.13562407    11336.832     1000 
  434000   0.53305174   -2.4801936   0.79877803   -1.6814156   0.12304449    11571.329     1000 
  436000   0.52620258   -2.4603691   0.78851457   -1.6718545    0.1399422     11398.72     1000 
  438000   0.52221175   -2.4548854    0.7825343   -1.6723511   0.13666168     11405.74     1000 
  440000   0.51078707   -2.4499898   0.76541443   -1.6845753   0.13275935    11369.714     1000 
  442000    0.5060918   -2.4836491   0.75837856   -1.7252706   0.12732454    11404.737     1000 
  444000   0.51229981   -2.4876599   0.76768127   -1.7199786   0.13668317    11247.787     1000 
  446000   0.53147142   -2.4372306   0.79640993   -1.6408206    0.1321914    11351.078     1000 
  448000   0.51948261   -2.4291328   0.77844469   -1.6506881   0.15255843    11263.602     1000 
  450000   0.51100802   -2.4793316   0.76574552   -1.7135861   0.12874377    11409.507     1000 
  452000   0.51105729   -2.4606859   0.76581935   -1.6948665   0.13712091    11290.596     1000 
  454000   0.53102228   -2.4754735   0.79573689   -1.6797366   0.12561922    11568.586     1000 
  456000   0.54565175   -2.4276338   0.81765915   -1.6099747   0.12674646    11371.261     1000 
  458000    0.5142567   -2.4434865   0.77061367   -1.6728728   0.13095602    11400.432     1000 
  460000   0.53276639    -2.456397   0.79835043   -1.6580466   0.12723602    11576.826     1000 
  462000    0.5459819   -2.4824283   0.81815388   -1.6642744   0.12397487    11398.566     1000 
  464000   0.51773949   -2.4928243   0.77583263   -1.7169917    0.1322675    11427.095     1000 
  466000   0.52969403   -2.5069483    0.7937465   -1.7132018   0.13403405    11433.133     1000 
  468000   0.54220113   -2.4756012    0.8124884   -1.6631128   0.13342422    11464.684     1000 
  470000   0.54557434   -2.4409818   0.81754315   -1.6234386   0.13743894    11344.616     1000 
  472000   0.52355161   -2.4539259   0.78454209   -1.6693838   0.12785178    11380.106     1000 
  474000   0.49808261   -2.4899061   0.74637679   -1.7435293   0.12009958    11560.982     1000 
  476000   0.53369289   -2.5057283   0.79973879   -1.7059896   0.12717596    11393.108     1000 
  478000   0.51907635   -2.4785627   0.77783591   -1.7007268   0.13805316    11440.129     1000 
  480000   0.54956099   -2.4646978   0.82351715   -1.6411806   0.14151098    11327.562     1000 
  482000   0.51983899   -2.4788205   0.77897873   -1.6998418   0.14042026    11376.001     1000 
  484000   0.52286634   -2.4006353   0.78351521   -1.6171201   0.12739387        11278     1000 
  486000    0.5218982   -2.5062752   0.78206446   -1.7242107   0.13994762    11336.606     1000 
  488000   0.51523522    -2.459833   0.77207998    -1.687753   0.14124694    11231.846     1000 
  490000   0.51937337   -2.5228537   0.77828099   -1.7445727   0.13555368     11473.75     1000 
  492000   0.50542096   -2.4853721   0.75737331   -1.7279988   0.13830532    11474.519     1000 
  494000   0.50269974     -2.46891   0.75329555   -1.7156144   0.12353302    11457.254     1000 
  496000   0.54216885   -2.4424844   0.81244003   -1.6300443    0.1339466    11422.805     1000 
  498000   0.52093904    -2.510473   0.78062715   -1.7298458   0.13031708    11621.225     1000 
  500000    0.5285486   -2.5008531   0.79203008    -1.708823    0.1315532    11485.284     1000 
  502000   0.52663512   -2.4340291   0.78916273   -1.6448663   0.13151743     11339.03     1000 
  504000   0.50382536   -2.4763992   0.75498231   -1.7214169   0.11715026    11552.068     1000 
  506000   0.53890437   -2.4523051   0.80754819   -1.6447569   0.12026351    11393.041     1000 
  508000   0.54933275    -2.510143   0.82317512   -1.6869679   0.13016553    11478.759     1000 
  510000   0.52435059   -2.4582179   0.78573936   -1.6724785   0.14299302    11296.718     1000 
  512000   0.51909205   -2.4514241   0.77785943   -1.6735646   0.12820265     11311.25     1000 
  514000   0.54621159   -2.4595937   0.81849807   -1.6410956   0.13711977    11394.657     1000 
  516000   0.50845336   -2.4549448   0.76191736   -1.6930274   0.11452134    11590.899     1000 
  518000   0.49900876   -2.5225174   0.74776463   -1.7747528   0.13570419    11441.202     1000 
  520000   0.53103443   -2.4726153   0.79575509   -1.6768602   0.12929085    11446.039     1000 
  522000   0.50564671   -2.4589893    0.7577116   -1.7012777   0.13358274    11466.412     1000 
  524000   0.52463085   -2.4588142   0.78615933   -1.6726549   0.15139102    11363.146     1000 
  526000    0.5266254   -2.4723585   0.78914817   -1.6832103   0.11999379    11581.786     1000 
  528000   0.54033666   -2.4805209   0.80969449   -1.6708265   0.10932765    11507.413     1000 
  530000   0.51663142   -2.4481522   0.77417218     -1.67398   0.11733558    11574.281     1000 
  532000   0.55318693   -2.5083084   0.82895062   -1.6793578   0.13201858    11405.434     1000 
  534000   0.53376006   -2.4436416   0.79983945   -1.6438022   0.13482433    11351.476     1000 
  536000   0.52660264   -2.4732793   0.78911406   -1.6841652   0.13532235    11364.998     1000 
  538000   0.54797111   -2.4235829   0.82113471   -1.6024482   0.12786549    11432.076     1000 
  540000   0.51614339   -2.4881045   0.77344088   -1.7146637   0.11313127    11628.504     1000 
  542000   0.50624093    -2.452106   0.75860203    -1.693504   0.14147288    11427.934     1000 
  544000   0.50214001   -2.4346067   0.75245681   -1.6821499   0.13442527    11252.827     1000 
  546000   0.52753436   -2.4732117   0.79051024   -1.6827015   0.13400966     11443.37     1000 
  548000   0.53103394   -2.4457028   0.79575436   -1.6499485   0.13001855    11333.078     1000 
  550000   0.49788129   -2.4494402   0.74607511   -1.7033651     0.115241    11468.788     1000 
  552000   0.52860293   -2.4754951   0.79211149   -1.6833836   0.12436179    11379.743     1000 
  554000   0.50947703   -2.4980966   0.76345133   -1.7346452   0.11532293    11511.779     1000 
  556000    0.5063267   -2.5013455   0.75873056   -1.7426149   0.14018973    11462.429     1000 
  558000   0.52246017   -2.4644089   0.78290657   -1.6815023   0.14799819    11255.535     1000 
  560000   0.50962924   -2.4511254   0.76367942    -1.687446   0.12741727    11450.027     1000 
  562000   0.51794313   -2.4706041   0.77613777   -1.6944664   0.12298462     11324.17     1000 
  564000   0.52225425   -2.4089315     0.782598   -1.6263335   0.13323463    11417.592     1000 
  566000   0.51751109   -2.4864901   0.77549037   -1.7109997   0.12228073    11529.845     1000 
  568000   0.53617738   -2.5200543    0.8034618   -1.7165925   0.13346714    11488.512     1000 
  570000   0.52918813   -2.4412086   0.79298841   -1.6482202   0.13074627    11354.906     1000 
  572000   0.55976915   -2.4852854   0.83881407   -1.6464713   0.13492711    11362.138     1000 
  574000   0.52453469   -2.4906314   0.78601523   -1.7046161   0.13759332    11474.493     1000 
  576000    0.5251404   -2.4203823   0.78692289   -1.6334594   0.11132627    11624.109     1000 
  578000    0.5183734   -2.4409712   0.77678254   -1.6641886   0.13530139    11454.494     1000 
  580000   0.53360243   -2.4590303   0.79960325    -1.659427   0.12932552     11430.92     1000 
  582000   0.52135534   -2.4484545   0.78125097   -1.6672035   0.12035045    11490.143     1000 
  584000   0.51440042    -2.467678   0.77082903    -1.696849   0.11033089    11487.615     1000 
  586000   0.51079627   -2.4933323   0.76542822   -1.7279041   0.12690426    11462.884     1000 
  588000   0.50286439   -2.4335768   0.75354228   -1.6800345   0.11470158    11540.351     1000 
  590000   0.51010526   -2.4514139   0.76439274   -1.6870212   0.13152948    11563.224     1000 
  592000   0.53336522   -2.4387348   0.79924779    -1.639487   0.13296888    11394.467     1000 
  594000   0.51406636   -2.4992665   0.77032844   -1.7289381   0.13225147    11481.428     1000 
  596000    0.5207548   -2.4692763   0.78035106   -1.6889253   0.14160391    11343.472     1000 
  598000   0.53980468   -2.4438456   0.80889731   -1.6349483   0.13149933    11424.006     1000 
  600000   0.50471527   -2.4273769   0.75631584    -1.671061   0.13258671    11339.177     1000 
  602000     0.523179   -2.4856252   0.78398373   -1.7016415   0.13335991    11356.818     1000 
  604000   0.52781978   -2.4753356   0.79093793   -1.6843977   0.13648729     11307.99     1000 
  606000    0.5206856   -2.4449043   0.78024737   -1.6646569   0.13561185    11307.078     1000 
  608000     0.523611   -2.4855894   0.78463109   -1.7009583   0.12221123    11471.839     1000 
  610000    0.5226841   -2.4341612   0.78324212   -1.6509191   0.13368588    11425.277     1000 
  612000   0.50632487   -2.4512007   0.75872782   -1.6924729   0.13474907    11473.703     1000 
  614000   0.52794792   -2.4609146   0.79112995   -1.6697846   0.11936808    11539.812     1000 
  616000   0.55639594   -2.4849971   0.83375931   -1.6512378   0.12661853    11462.834     1000 
  618000   0.50525554    -2.376246   0.75712543   -1.6191206   0.13551841    11214.981     1000 
  620000   0.53545572   -2.4612776   0.80238039   -1.6588972   0.13217436     11364.41     1000 
  622000   0.48424596   -2.4606731   0.72564258   -1.7350306   0.12177522     11484.55     1000 
  624000   0.52750095   -2.4425548   0.79046018   -1.6520946   0.12861225    11461.799     1000 
  626000   0.51223308   -2.4615982   0.76758126    -1.694017   0.12321803    11575.943     1000 
  628000   0.51917661    -2.456588   0.77798614   -1.6786019   0.13288962    11341.021     1000 
  630000   0.51239189   -2.4988727   0.76781925   -1.7310534   0.11182357    11496.011     1000 
  632000   0.50503405   -2.4763586   0.75679352   -1.7195651   0.13636368    11446.093     1000 
  634000   0.50697786   -2.4766338   0.75970632   -1.7169275   0.13420027    11254.594     1000 
  636000   0.50248722   -2.4788444    0.7529771   -1.7258673   0.12427304      11494.6     1000 
  638000    0.5123612   -2.4902339   0.76777326   -1.7224606   0.11994789    11523.414     1000 
  640000   0.51954578   -2.4961981   0.77853935   -1.7176588   0.12869457    11285.713     1000 
  642000   0.52742254   -2.4442508   0.79034267   -1.6539082   0.12283091    11437.883     1000 
  644000   0.52263709   -2.4545187   0.78317168    -1.671347   0.13279005    11356.995     1000 
  646000   0.50552151    -2.486223   0.75752399    -1.728699   0.11762517    11526.192     1000 
  648000   0.53742885    -2.436707   0.80533713   -1.6313699   0.13552689    11323.868     1000 
  650000   0.52094924   -2.4645739   0.78064243   -1.6839314   0.15271506    11425.453     1000 
  652000   0.51334281    -2.451379    0.7692442   -1.6821348   0.13836813    11374.963     1000 
  654000   0.50807344   -2.4151623   0.76134805   -1.6538142    0.1384839    11217.661     1000 
  656000   0.53784197   -2.4468851   0.80595619   -1.6409289   0.12145273    11520.196     1000 
  658000   0.50785752   -2.4417327   0.76102449   -1.6807082   0.13391369    11417.715     1000 
  660000   0.49798831   -2.4432674   0.74623549   -1.6970319   0.12900297    11535.495     1000 
  662000   0.49152201   -2.5186215   0.73654573   -1.7820758   0.13096115    11374.913     1000 
  664000   0.50015137   -2.4796058   0.74947683   -1.7301289   0.11351106     11595.24     1000 
  666000   0.51175754   -2.5104505   0.76686867   -1.7435819    0.1443465    11449.855     1000 
  668000   0.52283584    -2.476798    0.7834695   -1.6933285   0.13143416    11377.659     1000 
  670000   0.51418141    -2.451504   0.77050085   -1.6810031   0.12213473    11665.988     1000 
  672000   0.54833678    -2.447506   0.82168267   -1.6258234   0.12693371    11276.598     1000 
  674000   0.53886045   -2.4940418   0.80748238   -1.6865595   0.13519189    11397.588     1000 
  676000   0.50467353   -2.4429773   0.75625328    -1.686724    0.1191254    11391.761     1000 
  678000   0.51342048   -2.4504616   0.76936059    -1.681101   0.13760506    11364.827     1000 
  680000   0.52777725   -2.5033458   0.79087421   -1.7124716   0.12040904    11678.854     1000 
  682000   0.49170765   -2.4759457   0.73682392   -1.7391218   0.13270533    11422.784     1000 
  684000   0.52922247   -2.4688099   0.79303987     -1.67577   0.14392948    11354.758     1000 
  686000    0.5153749   -2.4521578   0.77228929   -1.6798685   0.14401041    11501.577     1000 
  688000   0.52304136   -2.4356223   0.78377748   -1.6518448   0.13040957    11305.804     1000 
  690000   0.52146758   -2.4184529   0.78141917   -1.6370337   0.11984255    11371.008     1000 
  692000   0.51589281   -2.5041871   0.77306538   -1.7311217   0.13114274    11491.873     1000 
  694000   0.53384686   -2.4522016   0.79996953   -1.6522321   0.14293974     11427.71     1000 
  696000   0.51866036   -2.4561391   0.77721256   -1.6789266   0.13471006    11289.344     1000 
  698000   0.51460778   -2.4329469   0.77113975   -1.6618072   0.13603235    11389.961     1000 
  700000   0.52251307   -2.4397868   0.78298583   -1.6568009   0.14068527      11272.4     1000 
  702000   0.52961371   -2.5011322   0.79362614   -1.7075061   0.12619049    11303.369     1000 
  704000   0.52947681   -2.4248596     0.793421   -1.6314386   0.13655354    11350.412     1000 
  706000   0.52793274    -2.476335    0.7911072   -1.6852278   0.10696029    11595.773     1000 
  708000    0.5316379    -2.462045    0.7966594   -1.6653856   0.12259935    11448.445     1000 
  710000   0.52206659   -2.4572045   0.78231679   -1.6748878   0.13432273    11351.662     1000 
  712000   0.52366561   -2.4795258   0.78471291   -1.6948129   0.12063095    11465.883     1000 
  714000   0.51720743   -2.4627003   0.77503534   -1.6876649   0.13426543    11338.024     1000 
  716000    0.5161405   -2.5072713   0.77343654   -1.7338347   0.12227712    11486.805     1000 
  718000   0.51776736    -2.471324    0.7758744   -1.6954496   0.12152604    11401.748     1000 
  720000   0.51959013   -2.4972612   0.77860581   -1.7186554    0.1316309    11319.897     1000 
  722000    0.5145246   -2.4973426   0.77101512   -1.7263275   0.14674841    11383.241     1000 
  724000   0.49993422   -2.4085616   0.74915142   -1.6594102   0.14815721    11352.673     1000 
  726000   0.51319903    -2.466924   0.76902874   -1.6978953    0.1359603    11413.135     1000 
  728000   0.51912553   -2.4940317   0.77790961   -1.7161221    0.1327458    11470.716     1000 
  730000   0.51259323   -2.4274615   0.76812095   -1.6593405   0.13702585     11340.21     1000 
  732000   0.53701278   -2.4754014   0.80471365   -1.6706878    0.1281332    11517.709     1000 
  734000   0.53014506    -2.478102   0.79442238   -1.6836796   0.12732625    11403.259     1000 
  736000   0.50995055    -2.488004   0.76416089   -1.7238431   0.12762676    11577.555     1000 
  738000   0.52862229   -2.4460092    0.7921405   -1.6538687   0.13895655    11337.182     1000 
  740000   0.49135289   -2.4899308   0.73629231   -1.7536385   0.11624778    11636.247     1000 
  742000   0.52681834   -2.4622415   0.78943728   -1.6728042   0.13331187    11486.098     1000 
  744000   0.55095159   -2.4711678   0.82560096   -1.6455668   0.15231722    11347.176     1000 
  746000    0.5424241    -2.466715   0.81282251   -1.6538925   0.13919901    11264.578     1000 
  748000   0.50777717   -2.4298932   0.76090409   -1.6689891   0.12775338    11357.915     1000 
  750000   0.52678804   -2.4721316   0.78939188   -1.6827397   0.13063699    11456.388     1000 
  752000   0.50860775   -2.4986131   0.76214872   -1.7364644   0.12201731    11432.546     1000 
  754000   0.50941935   -2.4049957    0.7633649   -1.6416308   0.11570834    11457.979     1000 
  756000   0.48431618   -2.4720827   0.72574779   -1.7463349   0.12957551    11639.934     1000 
  758000   0.53245549    -2.493347   0.79788455   -1.6954625   0.13100559    11614.474     1000 
  760000   0.50224433   -2.4764627   0.75261313   -1.7238496   0.13886163    11351.242     1000 
  762000    0.4944637   -2.4502734   0.74095386   -1.7093195   0.13132399    11397.948     1000 
  764000    0.5263536   -2.4735902   0.78874086   -1.6848493   0.14517045    11303.909     1000 
  766000   0.53006609   -2.4255817   0.79430404   -1.6312776   0.12047864    11332.746     1000 
  768000   0.49976695   -2.4924157   0.74890077   -1.7435149   0.12009009    11413.026     1000 
  770000   0.53629747   -2.4859797   0.80364176   -1.6823379   0.12246028    11564.335     1000 
  772000    0.5325495   -2.5036667   0.79802543   -1.7056413   0.14143288    11237.888     1000 
  774000   0.52521523   -2.4868786   0.78703502   -1.6998436   0.12941557    11378.858     1000 
  776000   0.50433418   -2.4580761   0.75574476   -1.7023313   0.12372415    11560.768     1000 
  778000   0.54194791   -2.5176678   0.81210894   -1.7055588   0.13027527    11444.167     1000 
  780000   0.52771896   -2.4955389   0.79078686    -1.704752   0.12721542    11599.306     1000 
  782000   0.51727357   -2.4527864   0.77513444    -1.677652   0.12091392    11373.669     1000 
  784000   0.52505379   -2.4325116    0.7867931   -1.6457184   0.12118006    11517.476     1000 
  786000   0.48632313   -2.4422192   0.72875521    -1.713464   0.14011512    11218.239     1000 
  788000   0.51687908   -2.4947827    0.7745433   -1.7202394   0.12839711    11367.056     1000 
  790000   0.53094872   -2.4788757   0.79562665   -1.6832491   0.12703902    11425.519     1000 
  792000   0.53023016   -2.4900122   0.79454989   -1.6954623   0.12964471    11523.749     1000 
  794000   0.49305756   -2.4489977   0.73884675    -1.710151   0.12876181    11426.828     1000 
  796000   0.51693284   -2.4134349   0.77462387    -1.638811   0.13942394    11404.632     1000 
  798000   0.50471839   -2.4244102   0.75632051   -1.6680897   0.11549081    11487.085     1000 
  800000   0.50565546   -2.4525067    0.7577247    -1.694782   0.13359941    11336.707     1000 
  802000   0.51401648   -2.4418241    0.7702537   -1.6715704   0.11487007    11501.689     1000 
  804000   0.50169366   -2.4548489   0.75178795   -1.7030609   0.12690023    11515.193     1000 
  806000   0.52269009   -2.4888529   0.78325109   -1.7056018   0.11783566    11531.805     1000 
  808000   0.49228586   -2.4733165   0.73769036   -1.7356262   0.13950057    11192.702     1000 
  810000   0.51899334   -2.5014666   0.77771151   -1.7237551   0.12615097    11358.913     1000 
  812000   0.49388287   -2.4305661   0.74008348   -1.6904826   0.12814625    11484.883     1000 
  814000   0.51207538   -2.4918245   0.76734496   -1.7244796   0.11241286    11550.237     1000 
  816000   0.51355405   -2.4865549   0.76956075   -1.7169941   0.13432976    11422.699     1000 
  818000   0.50840817   -2.5170034   0.76184964   -1.7551537   0.12455064    11555.657     1000 
  820000   0.54580296   -2.4543765   0.81788574   -1.6364907    0.1269608    11393.034     1000 
  822000   0.53225761   -2.4727643   0.79758802   -1.6751763   0.12682177    11493.472     1000 
  824000   0.53129316   -2.4670036    0.7961428   -1.6708608   0.12487964    11232.462     1000 
  826000   0.53256107   -2.4445118   0.79804276    -1.646469   0.12618986    11437.655     1000 
  828000   0.52087836   -2.4243968   0.78053623   -1.6438606   0.12982337    11350.834     1000 
  830000   0.53244418    -2.457924   0.79786761   -1.6600564   0.11891661    11536.586     1000 
  832000    0.5294285    -2.476205   0.79334861   -1.6828564   0.13011393    11472.557     1000 
  834000   0.52417833   -2.4965816   0.78548123   -1.7111004   0.12048393    11524.373     1000 
  836000   0.51629486   -2.4866116   0.77366785   -1.7129437   0.14688425    11315.612     1000 
  838000   0.52946315   -2.4735418   0.79340053   -1.6801413   0.14010068    11384.465     1000 
  840000   0.52387036   -2.4803815   0.78501974   -1.6953618   0.13718004    11392.178     1000 
  842000   0.51892168   -2.4565983   0.77760414   -1.6789942   0.11959765    11437.327     1000 
  844000   0.52227397   -2.4641636   0.78262754   -1.6815361   0.13391933    11521.838     1000 
  846000   0.50921628   -2.4359202    0.7630606   -1.6728596   0.11955445    11465.086     1000 
  848000   0.51170287   -2.4520527   0.76678674   -1.6852659   0.12180916    11518.741     1000 
  850000   0.53321913    -2.467358   0.79902886   -1.6683291       0.1183    11619.071     1000 
  852000   0.50934482   -2.4635619   0.76325322   -1.7003087    0.1218557    11446.183     1000 
  854000   0.52640959   -2.4639584   0.78882476   -1.6751337   0.11944838     11402.93     1000 
  856000   0.53046255   -2.5145816   0.79489813   -1.7196834   0.13626569    11377.061     1000 
  858000   0.55392329   -2.4565635   0.83005404   -1.6265095   0.13519863    11479.427     1000 
  860000   0.51312711   -2.4745265   0.76892097   -1.7056056   0.14263614    11279.313     1000 
  862000   0.55017426   -2.4724841   0.82443613   -1.6480479   0.13307944    11397.525     1000 
  864000   0.52852976   -2.4909097   0.79200184   -1.6989078    0.1376208    11363.429     1000 
  866000   0.54408469   -2.4881236   0.81531091   -1.6728127   0.12676391     11424.72     1000 
  868000   0.51299206   -2.4831318    0.7687186   -1.7144132   0.11828827    11409.208     1000 
  870000   0.51550212   -2.4563262   0.77247993   -1.6838462    0.1384711    11332.482     1000 
  872000   0.53533955   -2.4507353   0.80220631    -1.648529   0.12975459    11290.522     1000 
  874000   0.50546924   -2.4936086   0.75744566    -1.736163    0.1277724    11427.488     1000 
  876000   0.52286592   -2.4960947   0.78351458   -1.7125801   0.12963487    11399.994     1000 
  878000   0.52156206   -2.4124056   0.78156075   -1.6308448    0.1291427    11373.133     1000 
  880000   0.52831787   -2.4704669   0.79168433   -1.6787826   0.14937341    11239.027     1000 
  882000   0.52245376    -2.424213   0.78289696    -1.641316   0.13405636     11165.16     1000 
  884000   0.53494594   -2.4797533   0.80161649   -1.6781368   0.12909941     11365.45     1000 
  886000    0.5263529   -2.4502386   0.78873983   -1.6614987   0.13525888    11328.999     1000 
  888000    0.5437472   -2.4347024   0.81480518   -1.6198972   0.13269424    11412.852     1000 
  890000   0.54715452   -2.4824195   0.81991105   -1.6625084   0.13822674    11589.753     1000 
  892000   0.51485656   -2.4528371   0.77151256   -1.6813246   0.12570417    11302.766     1000 
  894000   0.53677403   -2.4898532   0.80435589   -1.6854973   0.14107591    11344.682     1000 
  896000   0.50753886   -2.4651969   0.76054699   -1.7046499   0.12630682    11367.483     1000 
  898000   0.52684046   -2.4542293   0.78947043   -1.6647589   0.12605757    11522.917     1000 
  900000   0.54163487   -2.4511967   0.81163985   -1.6395569   0.12630642    11500.038     1000 
  902000   0.50379701   -2.4726122   0.75493982   -1.7176724   0.12858634    11299.669     1000 
  904000   0.53355249    -2.448123    0.7995284   -1.6485946   0.12237506    11529.988     1000 
  906000   0.50308681   -2.4372164   0.75387559   -1.6833408   0.13335662    11475.627     1000 
  908000   0.51230719    -2.499015   0.76769232   -1.7313227   0.13627879    11520.203     1000 
  910000   0.54149791   -2.5136711   0.81143462   -1.7022365   0.12748504    11487.273     1000 
  912000   0.51320565   -2.4871663   0.76903867   -1.7181276   0.13848297    11331.349     1000 
  914000   0.51695914    -2.451122   0.77466327   -1.6764588   0.13775796    11335.347     1000 
  916000    0.4986003   -2.4752546   0.74715256    -1.728102   0.11756313     11407.48     1000 
  918000   0.50540242   -2.4596325   0.75734553    -1.702287   0.14071116    11227.836     1000 
  920000    0.5264452   -2.5320853   0.78887813   -1.7432072   0.13157047     11566.97     1000 
  922000   0.51437452    -2.493389   0.77079022   -1.7225988   0.14903605    11344.892     1000 
  924000    0.4986457    -2.491135   0.74722058   -1.7439145   0.12523233    11390.918     1000 
  926000   0.53253075   -2.4589236   0.79799733   -1.6609263   0.13465628    11407.603     1000 
  928000   0.52213287   -2.4506659    0.7824161   -1.6682498   0.12545412    11451.748     1000 
  930000   0.51835795    -2.454562   0.77675938   -1.6778026   0.14257159    11452.094     1000 
  932000   0.50391969   -2.4622612   0.75512366   -1.7071375   0.12344943    11551.207     1000 
  934000   0.49758419   -2.4431123   0.74562991   -1.6974824   0.13594615    11281.088     1000 
  936000   0.50553062   -2.4684203   0.75753763   -1.7108827   0.12889323    11442.648     1000 
  938000   0.52222701   -2.4602798   0.78255717   -1.6777226   0.12689367    11417.345     1000 
  940000   0.50303666   -2.4852235   0.75380044   -1.7314231   0.11366925    11537.218     1000 
  942000   0.52916024   -2.4389729   0.79294661   -1.6460263   0.12194227    11478.916     1000 
  944000   0.51230637   -2.4228896    0.7676911   -1.6551985   0.13438632    11371.535     1000 
  946000   0.53496275   -2.4703676   0.80164169   -1.6687259   0.14537181    11380.924     1000 
  948000   0.51826142   -2.4597495   0.77661474   -1.6831348   0.13711602    11426.203     1000 
  950000   0.51343325   -2.4375956   0.76937972   -1.6682158   0.12682632    11438.108     1000 
  952000   0.50069573   -2.5026228   0.75029255   -1.7523303   0.12786857    11419.983     1000 
  954000      0.53323    -2.444532   0.79904516   -1.6454868   0.11690509    11512.355     1000 
  956000   0.52254604   -2.4455832   0.78303524    -1.662548   0.12770491    11328.103     1000 
  958000   0.51558117   -2.4594104   0.77259838   -1.6868121   0.11766212    11420.323     1000 
  960000   0.52629732   -2.4703227   0.78865654   -1.6816661   0.12085783     11542.12     1000 
  962000   0.52352159   -2.4006205    0.7844971   -1.6161234   0.13671627    11293.108     1000 
  964000   0.51779315   -2.4529992   0.77591304   -1.6770861   0.12582323    11449.221     1000 
  966000   0.52811262   -2.4836008   0.79137676   -1.6922241    0.1279861    11347.439     1000 
  968000   0.52490904   -2.4723335    0.7865762   -1.6857573   0.14990585    11346.982     1000 
  970000   0.54742113   -2.4516758   0.82031056   -1.6313652   0.12974089    11242.861     1000 
  972000   0.49168918   -2.4710696   0.73679623   -1.7342733    0.1183383    11393.716     1000 
  974000   0.53282784   -2.4433479   0.79844252   -1.6449054   0.12067091    11434.895     1000 
  976000   0.51560464   -2.4131594   0.77263356   -1.6405258   0.12497724    11479.015     1000 
  978000   0.53929046   -2.4694883   0.80812676   -1.6613615   0.13087991    11442.962     1000 
  980000   0.52622448   -2.5041856   0.78854738   -1.7156382   0.13095428    11337.774     1000 
  982000   0.51049877    -2.484234   0.76498241   -1.7192516   0.13119527    11421.463     1000 
  984000   0.53475324   -2.5205781   0.80132773   -1.7192504   0.12818198     11396.72     1000 
  986000   0.53431653   -2.4839726   0.80067332   -1.6832992   0.12782596    11512.008     1000 
  988000   0.52466071   -2.4247817   0.78620408   -1.6385776   0.14355701    11301.067     1000 
  990000      0.52151   -2.4632954   0.78148273   -1.6818127   0.12931935     11353.66     1000 
  992000   0.51928503   -2.4541908   0.77814861   -1.6760422   0.13301375    11512.957     1000 
  994000   0.50005304    -2.489456   0.74932948   -1.7401265   0.12684844    11426.917     1000 
  996000       0.5018   -2.3856294    0.7519473   -1.6336821   0.11678911    11417.157     1000 
  998000   0.51223492   -2.4858677   0.76758403   -1.7182837   0.11511325    11457.423     1000 
 1000000     0.517073   -2.4409616   0.77483389   -1.6661277   0.13418296     11405.04     1000 
 1002000   0.52095051   -2.4342566   0.78064435   -1.6536123   0.13216604    11459.145     1000 
 1004000   0.52493754   -2.4466743   0.78661891   -1.6600554   0.11878089    11539.674     1000 
 1006000   0.49837541   -2.4146365   0.74681555   -1.6678209   0.12385456    11339.391     1000 
 1008000   0.50393984   -2.4283551   0.75515385   -1.6732012   0.12209188    11362.643     1000 
 1010000   0.51616184   -2.4749732   0.77346852   -1.7015047   0.14672513    11242.822     1000 
 1012000   0.50867463    -2.461622   0.76224894   -1.6993731   0.14255559    11274.216     1000 
 1014000   0.50135433   -2.4362389   0.75127947   -1.6849594   0.12287313    11428.832     1000 
 1016000   0.50997951   -2.4536514    0.7642043   -1.6894471   0.13416247    11217.218     1000 
 1018000   0.53881051   -2.4491477   0.80740755   -1.6417402   0.13800797    11353.819     1000 
 1020000   0.53553331   -2.4458062   0.80249666   -1.6433095   0.13393613    11385.547     1000 
 1022000   0.50917178   -2.5153416   0.76299391   -1.7523477   0.14719981    11351.263     1000 
 1024000     0.523956   -2.4953037   0.78514806   -1.7101557   0.13219667     11384.75     1000 
 1026000    0.5214797   -2.4418295   0.78143732   -1.6603922   0.12781376    11527.892     1000 
 1028000   0.52771849   -2.5410495   0.79078616   -1.7502634   0.13059895    11550.654     1000 
 1030000   0.50012359    -2.487357   0.74943521   -1.7379218   0.13822962    11305.608     1000 
 1032000   0.51212136   -2.4516314   0.76741385   -1.6842176   0.12955385    11508.423     1000 
 1034000   0.52347942   -2.4637876   0.78443391   -1.6793537     0.140479    11336.701     1000 
 1036000   0.50416501   -2.4512223   0.75549127    -1.695731   0.12751507    11418.638     1000 
 1038000   0.50946768   -2.4162309   0.76343732   -1.6527936   0.13745628    11391.991     1000 
 1040000   0.54309897   -2.4629598   0.81383381    -1.649126   0.12429712    11590.685     1000 
 1042000   0.52115506   -2.4900866   0.78095086   -1.7091357   0.13482713    11387.072     1000 
 1044000   0.52161566   -2.4417885   0.78164106   -1.6601475   0.12851463    11417.874     1000 
 1046000   0.51232147   -2.4478857   0.76771372    -1.680172   0.13403232    11330.241     1000 
 1048000   0.52617121   -2.4432073   0.78846755   -1.6547397   0.12579138    11457.926     1000 
 1050000   0.52911822   -2.4215323   0.79288366   -1.6286486   0.13481799     11357.59     1000 
 1052000   0.52893589   -2.4584377   0.79261043   -1.6658273   0.12769521    11418.779     1000 
 1054000   0.51119389   -2.4603096   0.76602405   -1.6942856   0.12579726    11420.658     1000 
 1056000   0.49769645   -2.4315437   0.74579813   -1.6857456   0.12229339    11547.311     1000 
 1058000   0.51647266   -2.4585577   0.77393428   -1.6846234   0.13688169    11281.996     1000 
 1060000   0.53107607   -2.5152528   0.79581749   -1.7194353   0.13177783     11278.82     1000 
 1062000   0.55252361   -2.4567066   0.82795663     -1.62875   0.12069847    11480.607     1000 
 1064000   0.54673811   -2.4986304   0.81928705   -1.6793433   0.12887024     11465.17     1000 
 1066000   0.51402146   -2.4764462   0.77026116   -1.7061851   0.13028462    11481.521     1000 
 1068000   0.51563334   -2.4414721   0.77267656   -1.6687956   0.12080335    11630.033     1000 
 1070000   0.52574296   -2.4817114   0.78782583   -1.6938855   0.12357115    11399.097     1000 
 1072000   0.53055946   -2.4995412   0.79504334   -1.7044978   0.13082652     11518.88     1000 
 1074000    0.5376772   -2.5007619   0.80570929   -1.6950526     0.134606     11417.87     1000 
 1076000   0.50128999   -2.4326943   0.75118305   -1.6815113   0.12470165    11332.495     1000 
 1078000    0.5461349   -2.4080286   0.81838314   -1.5896454    0.1387788    11335.966     1000 
 1080000   0.54614501   -2.4580082   0.81839829   -1.6396099   0.12431391    11447.745     1000 
 1082000   0.53035957   -2.4962654   0.79474382   -1.7015216   0.12966724    11344.412     1000 
 1084000   0.51238753   -2.5135083   0.76781272   -1.7456956   0.11986698    11555.227     1000 
 1086000   0.51931133   -2.5030651   0.77818803    -1.724877    0.1266419    11469.218     1000 
 1088000   0.51579927   -2.5036946    0.7729252   -1.7307694   0.13674456    11501.731     1000 
 1090000    0.5351425    -2.433225   0.80191103    -1.631314   0.12828579    11335.273     1000 
 1092000    0.5244671   -2.4853313   0.78591395   -1.6994173   0.14260675    11342.586     1000 
 1094000   0.52771935   -2.4725611   0.79078745   -1.6817736   0.11974604    11526.169     1000 
 1096000   0.50837768   -2.5100772   0.76180395   -1.7482733   0.12118967    11404.445     1000 
 1098000    0.5342192   -2.4925782   0.80052747   -1.6920508    0.1210745    11599.994     1000 
 1100000   0.52916101   -2.4909429   0.79294778   -1.6979951   0.12459385    11537.178     1000 
 1102000   0.51458522   -2.4463564   0.77110595   -1.6752505   0.12855598    11459.938     1000 
 1104000   0.50206195   -2.4580459   0.75233983   -1.7057061   0.12525558    11447.143     1000 
 1106000   0.51513052    -2.478706   0.77192308   -1.7067829    0.1350171     11484.43     1000 
 1108000   0.50758024   -2.4758304   0.76060899   -1.7152214   0.13243608     11373.69     1000 
 1110000   0.50770152   -2.4868531   0.76079073   -1.7260624   0.13002941    11333.367     1000 
 1112000    0.5168485   -2.4671863   0.77449747   -1.6926888   0.12574011    11561.907     1000 
 1114000   0.53104922   -2.4804958   0.79577725   -1.6847185   0.14258818    11489.404     1000 
 1116000   0.51412645    -2.473934   0.77041848   -1.7035156   0.13947055    11331.694     1000 
 1118000   0.51579932   -2.4294459   0.77292528   -1.6565206   0.14806056    11270.995     1000 
 1120000   0.50564213   -2.4332724   0.75770474   -1.6755677   0.11609465    11513.728     1000 
 1122000   0.52030864   -2.4182302    0.7796825   -1.6385477   0.12270825    11502.406     1000 
 1124000   0.51863384   -2.4393952   0.77717281   -1.6622223   0.12647179    11444.492     1000 
 1126000   0.53785234   -2.4775808   0.80597173    -1.671609    0.1235241    11452.415     1000 
 1128000    0.5240868   -2.4723309   0.78534407   -1.6869868   0.13405123    11278.838     1000 
 1130000   0.50518125   -2.5014182    0.7570141   -1.7444041   0.11144054     11619.99     1000 
 1132000   0.55334724   -2.4643931   0.82919084   -1.6352023   0.13984641    11331.546     1000 
 1134000   0.51137265   -2.4398026   0.76629192   -1.6735107   0.12818131    11493.313     1000 
 1136000   0.51494075   -2.4818715   0.77163871   -1.7102328   0.12058669    11469.971     1000 
 1138000    0.4848015   -2.4931752   0.72647504   -1.7667001   0.12502035    11609.663     1000 
 1140000   0.50656555   -2.4797023   0.75908848   -1.7206138   0.13577659    11382.984     1000 
 1142000   0.52697795   -2.5115518   0.78967646   -1.7218753    0.1261106    11599.392     1000 
 1144000   0.52170861   -2.4827574   0.78178035   -1.7009771   0.13472337    11391.848     1000 
 1146000   0.51622671   -2.4557838   0.77356572   -1.6822181    0.1461702    11296.669     1000 
 1148000   0.53660899   -2.4405827   0.80410858   -1.6364741   0.13205844    11352.271     1000 
 1150000   0.53814452   -2.4272408   0.80640957   -1.6208312   0.12976967    11283.799     1000 
 1152000   0.53018017   -2.4879296   0.79447498   -1.6934546    0.1506858    11310.603     1000 
 1154000   0.50510161   -2.4322468   0.75689476    -1.675352   0.14716291     11408.94     1000 
 1156000   0.50714661   -2.4768179   0.75995919   -1.7168588   0.12979239    11534.768     1000 
 1158000   0.51227151   -2.4519964   0.76763886   -1.6843575   0.13659454    11349.143     1000 
 1160000   0.51872915   -2.4927256   0.77731563     -1.71541   0.12280775    11442.593     1000 
 1162000   0.48881216   -2.4229565   0.73248502   -1.6904715   0.12322372    11257.911     1000 
 1164000   0.48709022   -2.4766045    0.7299047   -1.7466998   0.11607679    11407.963     1000 
 1166000   0.53370521   -2.4526057   0.79975726   -1.6528484   0.12852399    11471.544     1000 
 1168000   0.51774674   -2.4763207    0.7758435   -1.7004772   0.13699826    11351.219     1000 
 1170000   0.50593377    -2.485858   0.75814175   -1.7277162   0.12800978    11502.082     1000 
 1172000   0.52109797   -2.4498381   0.78086531   -1.6689728   0.13897334    11354.512     1000 
 1174000   0.53582209   -2.5140739    0.8029294   -1.7111445   0.12677104    11368.383     1000 
 1176000   0.50389337   -2.4871303   0.75508422   -1.7320461   0.12082956     11591.17     1000 
 1178000   0.53743018    -2.476975   0.80533913   -1.6716359    0.1362783    11393.174     1000 
 1180000   0.53702654   -2.4724695   0.80473427   -1.6677352   0.13819724    11428.533     1000 
 1182000   0.51968201   -2.4374691    0.7787435   -1.6587256   0.14168257    11278.026     1000 
 1184000   0.53447407   -2.4456033   0.80090939    -1.644694   0.13494913    11337.463     1000 
 1186000   0.49060313    -2.494332   0.73516879   -1.7591633   0.13043891    11529.272     1000 
 1188000   0.53301166   -2.4543917   0.79871797   -1.6556737   0.11769324    11647.654     1000 
 1190000   0.52488396    -2.421914   0.78653861   -1.6353754   0.12563592    11369.724     1000 
 1192000   0.52450954   -2.4371644   0.78597754   -1.6511869   0.12974653    11435.504     1000 
 1194000   0.53400972   -2.4782852   0.80021357   -1.6780716   0.11850954    11389.369     1000 
 1196000   0.51438543   -2.5027854   0.77080656   -1.7319788   0.12923784    11559.492     1000 
 1198000   0.53548421   -2.4866105   0.80242309   -1.6841875    0.1132981    11675.419     1000 
 1200000   0.51095946   -2.4776698   0.76567276    -1.711997    0.1372247    11371.574     1000 
 1202000   0.53618934   -2.4906494   0.80347973   -1.6871697   0.12603628    11549.657     1000 
 1204000   0.51586078   -2.4583946   0.77301738   -1.6853773   0.13603419    11452.463     1000 
 1206000   0.52543802   -2.4793437   0.78736888   -1.6919748   0.12454748    11463.606     1000 
 1208000   0.53690986   -2.4287942   0.80455943   -1.6242348   0.13347913    11479.468     1000 
 1210000    0.5309201   -2.4793083   0.79558377   -1.6837245   0.12797467    11478.967     1000 
 1212000   0.52509197   -2.4587844   0.78685032   -1.6719341   0.13637746     11254.12     1000 
 1214000   0.52890985   -2.4297541    0.7925714   -1.6371827   0.13177448    11381.185     1000 
 1216000   0.52442234   -2.4353598   0.78584687   -1.6495129   0.14062313    11453.079     1000 
 1218000    0.5048426   -2.4179538   0.75650664   -1.6614472   0.11847478    11497.891     1000 
 1220000   0.53331021   -2.4538074   0.79916535   -1.6546421   0.12646152     11550.74     1000 
 1222000   0.52319555   -2.4689431   0.78400853   -1.6849346   0.13132728    11435.613     1000 
 1224000   0.52076452   -2.4417936   0.78036563    -1.661428   0.15003016    11279.466     1000 
 1226000   0.52635259   -2.4731995   0.78873936   -1.6844601   0.13889549    11342.082     1000 
 1228000   0.52510044   -2.5021123     0.786863   -1.7152493   0.12615654    11623.688     1000 
 1230000   0.51900269   -2.5081492   0.77772554   -1.7304236    0.1151075     11468.36     1000 
 1232000   0.54342441   -2.4713685   0.81432148    -1.657047   0.13450493    11251.708     1000 
 1234000   0.50932151   -2.4209701   0.76321829   -1.6577518   0.12091908     11472.86     1000 
 1236000   0.55199611     -2.41813   0.82716617   -1.5909638   0.15043766    11315.396     1000 
 1238000   0.53197685   -2.4935628    0.7971673   -1.6963955   0.13678156    11356.988     1000 
 1240000   0.54017124   -2.4413866   0.80944661     -1.63194   0.13461005     11308.72     1000 
 1242000   0.50904716   -2.4821654   0.76280716   -1.7193582    0.1383152    11389.404     1000 
 1244000   0.52130173   -2.4536042   0.78117064   -1.6724336   0.11681933    11529.894     1000 
 1246000   0.51288233   -2.4646421   0.76855417   -1.6960879   0.13914785    11353.492     1000 
 1248000   0.55606814   -2.4505913    0.8332681   -1.6173232   0.13776131    11283.751     1000 
 1250000   0.52293024   -2.5126709   0.78361097   -1.7290599   0.13223983    11375.576     1000 
 1252000   0.54097273   -2.5202096   0.81064764    -1.709562   0.12500079     11501.54     1000 
 1254000   0.52537301   -2.5091643   0.78727146   -1.7218928   0.13204747    11565.932     1000 
 1256000   0.51666618   -2.4788208   0.77422428   -1.7045965   0.13000518    11485.317     1000 
 1258000   0.50914593    -2.465218   0.76295518   -1.7022628   0.12998452    11498.754     1000 
 1260000   0.50999124   -2.4505073   0.76422188   -1.6862854   0.14460562    11399.658     1000 
 1262000   0.51765046   -2.4708975   0.77569922   -1.6951982     0.121786    11531.501     1000 
 1264000   0.51163567   -2.4616535   0.76668605   -1.6949675    0.1249914    11599.878     1000 
 1266000   0.53098874   -2.4855777   0.79568663   -1.6898911   0.14059157    11319.814     1000 
 1268000   0.53043812   -2.4626368   0.79486152   -1.6677753   0.14065382    11284.301     1000 
 1270000   0.52246014   -2.4790416   0.78290652   -1.6961351   0.13287463      11536.7     1000 
 1272000   0.52812104   -2.4828959   0.79138938   -1.6915065   0.13249715     11351.22     1000 
 1274000   0.54514402   -2.4307374   0.81689831   -1.6138391   0.13974022    11438.021     1000 
 1276000   0.51781387   -2.4027901   0.77594409    -1.626846   0.14527694    11285.109     1000 
 1278000   0.53948961   -2.4707673   0.80842518   -1.6623421   0.12110138    11393.785     1000 
 1280000   0.53897568   -2.4949314   0.80765506   -1.6872763   0.12779362    11606.363     1000 
 1282000   0.53351593   -2.4866894   0.79947362   -1.6872158   0.11841901    11561.996     1000 
 1284000    0.5300656   -2.4979574    0.7943033   -1.7036541    0.1415376    11208.315     1000 
 1286000   0.51834613   -2.4572108   0.77674167   -1.6804691   0.12891508    11521.719     1000 
 1288000   0.53591891    -2.455587   0.80307449   -1.6525125   0.12799043    11417.512     1000 
 1290000   0.51034164   -2.4381643   0.76474694   -1.6734173   0.12501465    11390.206     1000 
 1292000     0.537994   -2.4258806   0.80618401   -1.6196966   0.13798271    11300.034     1000 
 1294000   0.54032146   -2.4359051   0.80967171   -1.6262334   0.13286272    11382.393     1000 
 1296000   0.50576077   -2.4541619   0.75788252   -1.6962794   0.12498899    11367.671     1000 
 1298000   0.51370092   -2.4841403   0.76978083   -1.7143595   0.11824262    11548.375     1000 
 1300000   0.53489261   -2.4739998   0.80153658   -1.6724633   0.12842734        11433     1000 
 1302000   0.52372632   -2.4931441   0.78480388   -1.7083402   0.12691581      11666.5     1000 
 1304000   0.49908001   -2.4849718    0.7478714   -1.7371004   0.13514149    11344.973     1000 
 1306000    0.5382163   -2.5685323   0.80651712   -1.7620151   0.14044723    11217.501     1000 
 1308000    0.5327632   -2.4475606   0.79834566   -1.6492149   0.12232763    11549.697     1000 
 1310000   0.49188321    -2.480139     0.737087    -1.743052   0.12775663    11459.869     1000 
 1312000   0.53325168   -2.4815342   0.79907765   -1.6824565   0.12662643    11384.375     1000 
 1314000   0.52233346   -2.4367295    0.7827167   -1.6540128   0.12828893    11269.428     1000 
 1316000   0.53961691     -2.43689   0.80861593    -1.628274    0.1223473    11610.568     1000 
 1318000   0.53158474   -2.4347927   0.79657973   -1.6382129   0.13350691    11284.038     1000 
 1320000   0.53311797   -2.4430594   0.79887728   -1.6441821   0.12597045     11418.12     1000 
 1322000   0.53514387   -2.4670275   0.80191309   -1.6651144   0.14440082    11164.882     1000 
 1324000   0.51355765   -2.4371341   0.76956614    -1.667568   0.14968395    11209.318     1000 
 1326000   0.51164902   -2.4470906   0.76670606   -1.6803846   0.12708126    11379.396     1000 
 1328000   0.53512827   -2.4605563   0.80188972   -1.6586665   0.14869316     11325.08     1000 
 1330000   0.54114766   -2.5079343   0.81090977   -1.6970245   0.13701904    11377.258     1000 
 1332000   0.53010225   -2.4904694   0.79435822   -1.6961111   0.11765567    11548.095     1000 
 1334000   0.49214277   -2.4570974   0.73747593   -1.7196214   0.13060967     11502.72     1000 
 1336000   0.51303769   -2.4667354   0.76878697   -1.6979484   0.13091087    11476.762     1000 
 1338000   0.55594101   -2.4653517   0.83307761   -1.6322741   0.13772946    11421.606     1000 
 1340000   0.52682969   -2.4591825   0.78945428   -1.6697282   0.14495115    11257.954     1000 
 1342000   0.54437662   -2.4865206   0.81574836   -1.6707722   0.13153886    11448.924     1000 
 1344000   0.50864272   -2.4539484   0.76220111   -1.6917473   0.12602305    11365.796     1000 
 1346000   0.50652109   -2.5138151   0.75902186   -1.7547932   0.14130011    11374.663     1000 
 1348000   0.49292244   -2.4903964   0.73864427   -1.7517522   0.12908414    11490.454     1000 
 1350000   0.51508264    -2.500016   0.77185134   -1.7281647   0.13324158    11401.042     1000 
 1352000   0.53008241   -2.4766646   0.79432848   -1.6823361   0.13049674    11471.059     1000 
 1354000   0.53788535   -2.4906431   0.80602119   -1.6846219   0.11895274    11467.261     1000 
 1356000   0.52915964   -2.4416038   0.79294572    -1.648658    0.1258302    11387.263     1000 
 1358000   0.49751242    -2.448724   0.74552236   -1.7032017   0.11504354    11567.969     1000 
 1360000   0.53042704   -2.4664188   0.79484491   -1.6715739   0.12609283    11437.716     1000 
 1362000   0.50835831   -2.4181366   0.76177493   -1.6563617   0.14015912     11238.58     1000 
 1364000   0.51020765   -2.4893447   0.76454616   -1.7247986   0.12826401    11273.997     1000 
 1366000    0.4943305    -2.528094   0.74075426   -1.7873398   0.13883414    11461.675     1000 
 1368000   0.53225515   -2.4740553   0.79758434   -1.6764709   0.14941879     11360.15     1000 
 1370000     0.519378   -2.4844807   0.77828793   -1.7061928    0.1418927    11379.051     1000 
 1372000   0.49675048   -2.4351942    0.7443806   -1.6908136    0.1195382    11373.992     1000 
 1374000    0.5038742   -2.4305961   0.75505548   -1.6755406   0.14668905    11193.153     1000 
 1376000    0.5343026   -2.4993712   0.80065245   -1.6987188   0.12625965    11354.141     1000 
 1378000   0.52548642   -2.4563604    0.7874414    -1.668919   0.13324578     11344.16     1000 
 1380000   0.51442948   -2.4504828   0.77087257   -1.6796102   0.12384279    11455.253     1000 
 1382000   0.51702673   -2.4889627   0.77476456   -1.7141981   0.13663906    11531.156     1000 
 1384000    0.4925249   -2.4582907   0.73804856   -1.7202421   0.12898762    11304.059     1000 
 1386000   0.53150999   -2.4417784   0.79646772   -1.6453107   0.12669868    11455.112     1000 
 1388000   0.53222808   -2.4836109   0.79754378   -1.6860671   0.13387229     11363.65     1000 
 1390000   0.53436384   -2.4798078   0.80074421   -1.6790636   0.14741111    11281.125     1000 
 1392000   0.51800962   -2.4428449   0.77623741   -1.6666075   0.13673627    11374.214     1000 
 1394000    0.5091864   -2.4849713   0.76301582   -1.7219554    0.1266026    11493.753     1000 
 1396000   0.52358856   -2.4350979   0.78459745   -1.6505005   0.11869693    11394.079     1000 
 1398000   0.51788897   -2.4767172   0.77605663   -1.7006605   0.12896398    11405.668     1000 
 1400000   0.50045383   -2.4444764   0.74993006   -1.6945463   0.12604344    11520.544     1000 
 1402000   0.53812969    -2.459661   0.80638735   -1.6532737   0.12274473    11624.621     1000 
 1404000   0.51339149   -2.4922468   0.76931716   -1.7229296   0.12803808    11364.841     1000 
 1406000   0.50180262   -2.4806704   0.75195123   -1.7287192   0.12795129    11435.952     1000 
 1408000   0.50776473    -2.506616   0.76088545   -1.7457305    0.1344129     11360.05     1000 
 1410000   0.53104144   -2.5174777    0.7957656   -1.7217121   0.12723548    11406.081     1000 
 1412000   0.54041632   -2.4348877   0.80981386   -1.6250738   0.12540027    11356.242     1000 
 1414000   0.51985444   -2.4956149   0.77900188    -1.716613   0.12067603    11456.723     1000 
 1416000   0.52348274   -2.4770637   0.78443889   -1.6926248   0.11574847    11634.792     1000 
 1418000     0.498548     -2.49582   0.74707418   -1.7487458   0.12978526    11368.615     1000 
 1420000   0.52335297   -2.4686817   0.78424442   -1.6844373   0.13893656    11326.131     1000 
 1422000   0.52107684    -2.472619   0.78083364   -1.6917854   0.12735221    11397.742     1000 
 1424000   0.53078036   -2.4837183   0.79537437   -1.6883439   0.14116981    11508.034     1000 
 1426000   0.51214825   -2.4274772   0.76745416    -1.660023   0.14735198    11276.683     1000 
 1428000   0.52033152   -2.5252162   0.77971678   -1.7454994   0.14140927    11292.926     1000 
 1430000   0.53297742   -2.4163184   0.79866667   -1.6176517   0.13991584    11346.699     1000 
 1432000    0.4980548   -2.4941168   0.74633511   -1.7477817   0.12712654     11363.72     1000 
 1434000    0.5112807   -2.4738852   0.76615413   -1.7077311   0.12089389    11506.074     1000 
 1436000   0.52593007   -2.4754075   0.78810621   -1.6873013   0.13698571    11273.732     1000 
 1438000   0.53353566   -2.4546168   0.79950318   -1.6551136    0.1354169    11402.733     1000 
 1440000   0.52139767    -2.473451    0.7813144   -1.6921366   0.12932398    11538.579     1000 
 1442000   0.50536769   -2.4416421   0.75729349   -1.6843486   0.13623944     11320.82     1000 
 1444000    0.5212242   -2.5365746   0.78105447   -1.7555201   0.13254173    11564.078     1000 
 1446000   0.51197103   -2.4140108   0.76718858   -1.6468222   0.12664431    11379.443     1000 
 1448000   0.52147152   -2.4785994   0.78142508   -1.6971743   0.13078025    11459.756     1000 
 1450000   0.50799627   -2.4292419   0.76123241   -1.6680095   0.11769079    11451.587     1000 
 1452000    0.5161068   -2.4552214   0.77338604   -1.6818353   0.12636192     11377.93     1000 
 1454000   0.51347119   -2.4476738   0.76943658   -1.6782372   0.13980461    11406.698     1000 
 1456000   0.52003871   -2.4451029   0.77927801   -1.6658249   0.13787127    11402.217     1000 
 1458000   0.49983136   -2.4374111   0.74899729   -1.6884138   0.13254878    11298.379     1000 
 1460000   0.51355894   -2.4539019   0.76956808   -1.6843338   0.13385042    11469.007     1000 
 1462000   0.53448013   -2.4341857   0.80091848   -1.6332672   0.14509106     11405.28     1000 
 1464000   0.56024641   -2.4575323   0.83952924    -1.618003   0.13736053    11385.042     1000 
 1466000    0.5165065   -2.5048921   0.77398498   -1.7309072   0.14220383     11263.68     1000 
 1468000   0.52522307   -2.4564124   0.78704677   -1.6693656   0.13480089    11273.116     1000 
 1470000   0.51374814   -2.4631147   0.76985159   -1.6932631   0.13704442    11262.408     1000 
 1472000    0.5197372    -2.495557    0.7788262   -1.7167308    0.1332614    11540.278     1000 
 1474000   0.53831654   -2.5215979   0.80666733   -1.7149306   0.13288435    11386.767     1000 
 1476000   0.50802668   -2.5081968   0.76127798   -1.7469188   0.12518142     11568.56     1000 
 1478000   0.54233058   -2.5364316   0.81268238   -1.7237492   0.13932596    11453.261     1000 
 1480000   0.54693491   -2.4431601   0.81958197   -1.6235781   0.13419182    11411.333     1000 
 1482000   0.50417817   -2.4196936   0.75551099   -1.6641826   0.14222714    11149.795     1000 
 1484000   0.51158975   -2.4498581   0.76661724   -1.6832408   0.12584712    11449.929     1000 
 1486000   0.53415442   -2.4495622   0.80043041   -1.6491318   0.13604184    11282.954     1000 
 1488000   0.52095665   -2.4980894   0.78065355   -1.7174359   0.13785295    11396.827     1000 
 1490000   0.50310289   -2.4326976   0.75389968   -1.6787979   0.11721184    11378.552     1000 
 1492000   0.51545095   -2.4655449   0.77240325   -1.6931416   0.12947119    11532.915     1000 
 1494000   0.52277023   -2.4271391   0.78337119   -1.6437679   0.12447944    11370.204     1000 
 1496000    0.5078041    -2.458979   0.76094445   -1.6980345   0.13399196    11351.352     1000 
 1498000   0.54304459   -2.4714866   0.81375231   -1.6577343   0.11986143    11451.135     1000 
 1500000    0.5066638   -2.4341082    0.7592357   -1.6748725   0.14291029    11289.517     1000 
 1502000   0.53720447   -2.4586804   0.80500089   -1.6536795   0.12598635    11568.296     1000 
 1504000    0.5238426   -2.5048183   0.78497814   -1.7198402   0.13915663    11447.552     1000 
 1506000   0.52937446   -2.4574924   0.79326763   -1.6642247   0.12396771    11454.641     1000 
 1508000   0.50243753   -2.4547698   0.75290264   -1.7018672   0.12888694    11354.134     1000 
 1510000   0.53666776   -2.4334934   0.80419664   -1.6292968   0.14830683     11263.72     1000 
 1512000   0.54559834   -2.4889617   0.81757912   -1.6713826   0.12883976    11374.744     1000 
 1514000   0.51549501   -2.4419639   0.77246928   -1.6694946   0.11610288    11519.116     1000 
 1516000   0.51493981   -2.4944413    0.7716373    -1.722804   0.12795301    11385.046     1000 
 1518000   0.52176769   -2.4675521   0.78186889   -1.6856832   0.12210384      11531.8     1000 
 1520000   0.53415698   -2.4725866   0.80043424   -1.6721524   0.13740038    11331.437     1000 
 1522000   0.54033552    -2.493249   0.80969277   -1.6835563   0.12739281    11531.464     1000 
 1524000   0.52004575    -2.451936   0.77928855   -1.6726474   0.12715138    11340.543     1000 
 1526000    0.5384611   -2.4415065   0.80688396   -1.6346225   0.14504329    11166.829     1000 
 1528000   0.54557743   -2.4509754   0.81754778   -1.6334277   0.12908708    11468.186     1000 
 1530000   0.52397461   -2.4893446   0.78517595   -1.7041686   0.13793799    11315.431     1000 
 1532000   0.53887277   -2.4487134   0.80750085   -1.6412125   0.13746785    11373.286     1000 
 1534000   0.49974961   -2.4415711   0.74887479   -1.6926963   0.12561418    11509.708     1000 
 1536000   0.53505635   -2.4298937   0.80178195   -1.6281118   0.13871081    11238.421     1000 
 1538000   0.51742879   -2.4389222   0.77536704   -1.6635551   0.12664904    11321.125     1000 
 1540000   0.52089034   -2.4527147   0.78055418   -1.6721605   0.12708297    11470.018     1000 
 1542000   0.52465119   -2.4342621    0.7861898   -1.6480723    0.1317701    11438.071     1000 
 1544000   0.52757737   -2.4678435   0.79057469   -1.6772688   0.12998807    11536.977     1000 
 1546000   0.52957539   -2.4366941   0.79356872   -1.6431254   0.11846063    11685.146     1000 
 1548000   0.52986402   -2.5330638   0.79400123   -1.7390625   0.14137929    11365.776     1000 
 1550000   0.52503969   -2.4918384   0.78677197   -1.7050664   0.13162064    11540.344     1000 
 1552000   0.50928793   -2.4746145   0.76316796   -1.7114465    0.1386923    11419.147     1000 
 1554000   0.51446258   -2.4710774   0.77092217   -1.7001552    0.1348061    11474.127     1000 
 1556000   0.53070697   -2.4557005    0.7952644   -1.6604361   0.14161702    11363.616     1000 
 1558000   0.50913812   -2.5054765   0.76294347    -1.742533   0.13789921    11389.128     1000 
 1560000   0.52208729   -2.4964053   0.78234781   -1.7140575   0.12797248    11364.091     1000 
 1562000   0.52113101   -2.5148499   0.78091481   -1.7339351   0.13348712    11598.531     1000 
 1564000   0.51887352   -2.4243855   0.77753197   -1.6468536   0.11503872    11376.756     1000 
 1566000   0.51381944    -2.467852   0.76995844   -1.6978936   0.13544312    11345.078     1000 
 1568000   0.51424279   -2.4634139   0.77059283    -1.692821   0.14694461    11431.668     1000 
 1570000   0.54349368   -2.4526896   0.81442528   -1.6382644   0.13770963    11447.868     1000 
 1572000   0.51987926    -2.497488   0.77903907   -1.7184489   0.14126694    11307.005     1000 
 1574000   0.51294865   -2.4433769   0.76865355   -1.6747234   0.14293887    11308.829     1000 
 1576000   0.53085277   -2.4248383   0.79548287   -1.6293555   0.12582174    11420.893     1000 
 1578000   0.51678432   -2.4813085   0.77440131   -1.7069072   0.12249102    11395.959     1000 
 1580000   0.52722734   -2.4827354   0.79005017   -1.6926853   0.13710379    11188.056     1000 
 1582000   0.53317425   -2.4600693   0.79896162   -1.6611077   0.12301068     11443.86     1000 
 1584000   0.52586365     -2.44601   0.78800669   -1.6580033   0.14321506    11413.447     1000 
 1586000   0.51329011   -2.4716177   0.76916523   -1.7024524   0.12949047    11462.579     1000 
 1588000   0.51132857     -2.46934   0.76622587   -1.7031142   0.13899561    11198.424     1000 
[...]
 2614000   0.54446453   -2.4394032   0.81588009   -1.6235231   0.15688973    11332.219     1000 
 2616000   0.51642564   -2.4307311   0.77386382   -1.6568673   0.14039858    11332.978     1000 
 2618000   0.50384867   -2.3990906   0.75501724   -1.6440733   0.14044499    11146.461     1000 
 2620000    0.5154226   -2.5014522   0.77236077   -1.7290914   0.13438131     11513.81     1000 
 2622000     0.543016   -2.4392181   0.81370948   -1.6255086   0.12635739    11464.885     1000 
 2624000   0.50352586   -2.4416118   0.75453349   -1.6870783   0.14737743    11361.847     1000 
 2626000   0.51201883   -2.4682439   0.76726021   -1.7009837   0.12564182    11555.143     1000 
 2628000   0.51434844   -2.4470159   0.77075114   -1.6762647   0.13606254    11325.148     1000 
 2630000   0.51185678   -2.4517205   0.76701739   -1.6847031   0.12546491    11420.991     1000 
 2632000   0.51684777   -2.4645883   0.77449639   -1.6900919   0.12175068      11490.1     1000 
 2634000   0.52146885   -2.4416458   0.78142108   -1.6602247   0.13502012    11375.878     1000 
 2636000   0.50261443   -2.4832542   0.75316772   -1.7300865   0.12266639    11567.339     1000 
 2638000   0.51002482   -2.4747361   0.76427219   -1.7104639   0.12749132    11461.044     1000 
 2640000   0.50740723   -2.4848775   0.76034974   -1.7245277   0.12250524    11381.529     1000 
 2642000   0.53083116   -2.5342255   0.79545049    -1.738775   0.13532677    11525.084     1000 
 2644000   0.51523688   -2.4554339   0.77208247   -1.6833515   0.11799521    11626.352     1000 
 2646000   0.52968195    -2.441653    0.7937284   -1.6479246   0.13681554     11310.12     1000 
 2648000   0.54472549   -2.5013189   0.81627115   -1.6850478   0.11680625    11585.053     1000 
 2650000   0.49785424   -2.4532737   0.74603458   -1.7072391   0.13196468    11530.113     1000 
 2652000   0.53085419   -2.4537236   0.79548501   -1.6582386   0.11924013    11425.082     1000 
 2654000   0.52313875   -2.5182654   0.78392342   -1.7343419   0.13070267    11533.269     1000 
 2656000   0.53818941   -2.4359011   0.80647683   -1.6294243   0.13893444    11235.415     1000 
 2658000   0.52813939   -2.4414377   0.79141687   -1.6500208   0.13075996    11488.579     1000 
 2660000   0.51606515   -2.4837424   0.77332363   -1.7104188   0.13083779    11564.011     1000 
 2662000   0.51408007    -2.461002   0.77034898    -1.690653   0.14066183      11338.2     1000 
 2664000   0.54496593   -2.4608177   0.81663144   -1.6441862   0.14699016    11403.384     1000 
 2666000   0.52633366   -2.4848233   0.78871099   -1.6961123   0.14309233    11321.439     1000 
 2668000   0.50124738   -2.4436503    0.7511192   -1.6925311   0.12322709    11390.578     1000 
 2670000   0.52301288   -2.4979254   0.78373479   -1.7141907   0.11703064    11533.304     1000 
 2672000   0.53792382   -2.4747096   0.80607884   -1.6686308   0.12356215    11559.466     1000 
 2674000   0.50945277   -2.5351676   0.76341497   -1.7717527   0.13710694    11534.245     1000 
 2676000    0.5164673   -2.4562192   0.77392624   -1.6822929    0.1494119    11337.126     1000 
 2678000   0.51451405    -2.469116   0.77099931   -1.6981167   0.11999227    11518.824     1000 
 2680000   0.52662317   -2.4770592   0.78914483   -1.6879144    0.1335913    11409.321     1000 
 2682000   0.50436779   -2.4939533   0.75579513   -1.7381582   0.11670285    11544.709     1000 
 2684000   0.51300727   -2.4495802   0.76874139   -1.6808388   0.12079518    11412.217     1000 
 2686000    0.5095028   -2.4611277   0.76348994   -1.6976378   0.12032517    11426.874     1000 
 2688000   0.52849352   -2.4841758   0.79194753   -1.6922282      0.12587    11425.135     1000 
 2690000   0.51809548   -2.4496116   0.77636608   -1.6732455   0.13019458    11461.483     1000 
 2692000   0.53391467   -2.4694614   0.80007113   -1.6693903   0.13987379    11375.914     1000 
 2694000   0.51797741   -2.4479774   0.77618916   -1.6717882   0.13512544    11507.248     1000 
 2696000   0.51884899   -2.4542958   0.77749521   -1.6768006   0.13069218    11383.402     1000 
 2698000   0.53947351   -2.4867292   0.80840106   -1.6783282   0.12528005    11621.088     1000 
 2700000   0.53274883   -2.4720345   0.79832412   -1.6737104   0.14041236    11356.125     1000 
 2702000   0.52465925      -2.4564   0.78620188   -1.6701981   0.13432311    11386.403     1000 
 2704000   0.51231838   -2.4951607   0.76770909   -1.7274516   0.12639073    11480.538     1000 
 2706000   0.49989502   -2.4584381   0.74909269   -1.7093454   0.13439909    11422.978     1000 
 2708000   0.52548549   -2.4698751   0.78744001   -1.6824351   0.13501041    11391.923     1000 
 2710000   0.51800991   -2.4382256   0.77623785   -1.6619877   0.12509488    11385.422     1000 
 2712000   0.50755099   -2.4589671   0.76056515   -1.6984019   0.11122341    11414.688     1000 
 2714000   0.52305707   -2.4346756   0.78380102   -1.6508746   0.14676563    11324.153     1000 
 2716000    0.5183583   -2.4415343   0.77675991   -1.6647744   0.12165413    11532.237     1000 
 2718000   0.51071748    -2.482654   0.76531015   -1.7173439   0.13908972    11355.641     1000 
 2720000   0.51393183   -2.4884912   0.77012685   -1.7183644   0.13426316    11418.594     1000 
 2722000   0.52524895   -2.4987296   0.78708555   -1.7116441   0.11584684    11498.962     1000 
 2724000   0.51529241   -2.5003193   0.77216568   -1.7281537    0.1189477    11469.564     1000 
 2726000   0.52680117   -2.4217622   0.78941156   -1.6323507   0.13125952    11271.582     1000 
 2728000   0.53854652   -2.4108703   0.80701197   -1.6038584   0.12620151    11291.821     1000 
 2730000   0.55662493   -2.4650122   0.83410246   -1.6309098   0.13503848    11456.662     1000 
 2732000   0.53232434   -2.4892877   0.79768803   -1.6915997   0.14091063    11347.818     1000 
 2734000   0.51981544   -2.5131362   0.77894344   -1.7341928   0.13257743     11430.04     1000 
 2736000   0.51398535   -2.4613136   0.77020705   -1.6911066   0.13958746    11364.438     1000 
 2738000   0.49456588   -2.4649348   0.74110696   -1.7238278   0.12542524    11587.853     1000 
 2740000   0.50415807   -2.5260405   0.75548086   -1.7705596   0.11939121    11555.048     1000 
 2742000   0.53627644   -2.4943394   0.80361024   -1.6907292   0.14201671     11305.81     1000 
 2744000   0.49762115   -2.4417413   0.74568529    -1.696056   0.13355989    11288.883     1000 
 2746000   0.51488193   -2.4796907   0.77155057   -1.7081401   0.12869704    11410.876     1000 
 2748000    0.5107846   -2.4188915   0.76541073   -1.6534808    0.1240113     11388.83     1000 
 2750000   0.52687032    -2.481676   0.78951517   -1.6921608   0.11381175    11586.243     1000 
 2752000   0.51272271   -2.4695463   0.76831497   -1.7012313   0.13045871     11493.86     1000 
 2754000   0.52772631    -2.446521   0.79079787   -1.6557232   0.13950917    11258.584     1000 
 2756000   0.50327539   -2.4637505   0.75415817   -1.7095923   0.13668153    11343.862     1000 
 2758000   0.52972531   -2.4614749   0.79379337   -1.6676815   0.11985252    11433.661     1000 
 2760000   0.52463893   -2.4452568   0.78617143   -1.6590854   0.12287109    11568.364     1000 
 2762000   0.51454955   -2.4834842   0.77105249   -1.7124317   0.12393758    11530.493     1000 
 2764000   0.52356195   -2.4717459   0.78455759   -1.6871883   0.12032579    11459.535     1000 
 2766000   0.52203443   -2.4456996   0.78226859    -1.663431   0.13248623    11355.621     1000 
 2768000    0.5132381   -2.4383879   0.76908729   -1.6693006   0.12927328    11423.944     1000 
 2770000   0.51611854   -2.4927268   0.77340364   -1.7193231   0.14604982    11357.365     1000 
 2772000     0.515467   -2.4020169    0.7724273   -1.6295896   0.12879428    11349.835     1000 
 2774000   0.51855632   -2.4752572   0.77705664   -1.6982005   0.13015523    11322.847     1000 
 2776000   0.52717639   -2.4721006   0.78997382   -1.6821268   0.12450959    11596.487     1000 
 2778000   0.49076635   -2.4291296   0.73541337   -1.6937162   0.14601702    11340.769     1000 
 2780000   0.54323757   -2.5133591    0.8140415   -1.6993176   0.12096384    11615.782     1000 
 2782000   0.51509693   -2.4821183   0.77187275   -1.7102455   0.13267209    11408.394     1000 
 2784000   0.51514251   -2.4031352   0.77194105   -1.6311942   0.13109829    11445.773     1000 
 2786000   0.50864473   -2.5239377   0.76220413   -1.7617336   0.12211304     11401.75     1000 
 2788000   0.52424647   -2.4991225   0.78558333   -1.7135392   0.14507137    11349.474     1000 
 2790000   0.51713727   -2.4359086   0.77493019   -1.6609784    0.1340676    11347.592     1000 
 2792000   0.52019518   -2.4723208   0.77951248   -1.6928083   0.12155225      11418.8     1000 
 2794000   0.52754696   -2.4543796   0.79052911   -1.6638505    0.1168888    11569.735     1000 
 2796000   0.50985965   -2.5080655   0.76402469   -1.7440408   0.14057705    11392.815     1000 
 2798000   0.53305309   -2.4962334   0.79878005   -1.6974533   0.14115301    11378.618     1000 
 2800000   0.51992059   -2.4843146     0.779101   -1.7052136   0.13288923    11449.757     1000 
 2802000   0.53374871   -2.4799868   0.79982244   -1.6801643   0.13751317    11337.196     1000 
 2804000   0.52977076   -2.5020648   0.79386149   -1.7082033   0.13318911    11504.706     1000 
 2806000   0.52973443   -2.4504209   0.79380704   -1.6566138   0.12898109    11484.193     1000 
 2808000   0.52684473   -2.4516276   0.78947682   -1.6621508   0.12825653    11485.048     1000 
 2810000   0.53571392   -2.4559952   0.80276732   -1.6532279   0.12491811    11346.124     1000 
 2812000   0.51987135   -2.4396802   0.77902721    -1.660653   0.12839206    11519.561     1000 
 2814000   0.51584216   -2.4672752   0.77298948   -1.6942857   0.12149146    11428.881     1000 
 2816000   0.52046686   -2.4478329   0.77991959   -1.6679133   0.13117513    11345.439     1000 
 2818000   0.52598416    -2.454773   0.78818727   -1.6665857   0.12319121    11439.439     1000 
 2820000   0.50974786   -2.4417185   0.76385716   -1.6778614   0.11734606    11560.451     1000 
 2822000   0.51573392   -2.4422242   0.77282727   -1.6693969   0.13828527    11373.171     1000 
 2824000   0.52430737   -2.4734847   0.78567459   -1.6878101   0.12650101      11487.4     1000 
 2826000   0.52662376   -2.4560009   0.78914571   -1.6668552   0.11273278     11515.79     1000 
 2828000   0.50755517   -2.4897177   0.76057142   -1.7291463   0.12440157    11443.957     1000 
 2830000   0.53216348   -2.4446456   0.79744697   -1.6471986   0.13319966    11403.285     1000 
 2832000   0.51683715   -2.5044598   0.77448047   -1.7299794   0.11430903    11577.497     1000 
 2834000   0.53293134   -2.4873101   0.79859761   -1.6887125   0.13655972    11315.723     1000 
 2836000   0.52210843    -2.454924   0.78237948   -1.6725445   0.13026456    11346.521     1000 
 2838000   0.52257949   -2.4815123   0.78308537    -1.698427   0.12598509    11494.695     1000 
 2840000   0.51800057   -2.4449652   0.77622385   -1.6687413   0.12931312    11278.464     1000 
 2842000   0.49635941   -2.5607631   0.74379457   -1.8169686    0.1335623    11298.071     1000 
 2844000   0.49595528    -2.470744   0.74318899    -1.727555   0.14347741    11279.193     1000 
 2846000   0.54061948   -2.4777651   0.81011828   -1.6676468   0.14280848    11369.373     1000 
 2848000   0.49771062   -2.4621288   0.74581936   -1.7163095   0.13288296    11378.496     1000 
 2850000    0.5281896   -2.4354196   0.79149212   -1.6439275   0.12231223    11424.515     1000 
 2852000   0.52617817   -2.5000138   0.78847799   -1.7115358   0.12703879    11606.334     1000 
 2854000   0.51892984   -2.4280205   0.77761636   -1.6504041   0.12756327    11306.764     1000 
 2856000   0.53644159     -2.44416   0.80385772   -1.6403022   0.12932124    11423.611     1000 
 2858000   0.53158896   -2.4305383   0.79658605   -1.6339522   0.12381074    11297.975     1000 
 2860000    0.5031016   -2.4682621   0.75389774   -1.7143644   0.12757143     11464.74     1000 
 2862000   0.53157297   -2.4229132   0.79656209   -1.6263511   0.12830925    11397.748     1000 
 2864000   0.53188021   -2.4686906   0.79702249   -1.6716681    0.1392193    11375.567     1000 
 2866000     0.514743   -2.4539734   0.77134239    -1.682631   0.12761587    11582.494     1000 
 2868000   0.50560837   -2.4544369   0.75765414   -1.6967827   0.12897906    11410.054     1000 
 2870000   0.51008481   -2.4279166   0.76436209   -1.6635545   0.12378964    11390.785     1000 
 2872000    0.5104444   -2.4478924   0.76490093   -1.6829915   0.12664114    11341.666     1000 
 2874000   0.51846908   -2.4609079   0.77692592    -1.683982   0.11770457    11460.714     1000 
 2876000   0.50605121   -2.4573373   0.75831774   -1.6990196   0.12758218    11435.592     1000 
 2878000   0.52811466   -2.4477431   0.79137982   -1.6563633   0.12576838    11456.483     1000 
 2880000   0.50984935   -2.4762143   0.76400925   -1.7122051   0.12951202    11376.239     1000 
 2882000   0.54930666   -2.5363089   0.82313603   -1.7131729   0.13340877    11403.902     1000 
 2884000   0.52138196   -2.4450472   0.78129087   -1.6637563   0.12483229    11363.583     1000 
 2886000   0.53003892   -2.4745054   0.79426332   -1.6802421   0.13545671    11327.691     1000 
 2888000   0.50916546   -2.4645222   0.76298444   -1.7015378   0.12810791    11463.996     1000 
 2890000    0.5267684   -2.4869291   0.78936244   -1.6975667   0.14689531    11424.931     1000 
 2892000   0.52873306   -2.4617457   0.79230649   -1.6694392   0.13625889    11422.128     1000 
 2894000   0.52085208    -2.403364   0.78049684   -1.6228671   0.15476912    11329.748     1000 
 2896000   0.52876061    -2.505203   0.79234777   -1.7128553   0.14682599    11472.393     1000 
 2898000   0.49874919   -2.4709074   0.74737567   -1.7235317   0.12632621     11465.83     1000 
 2900000   0.48981175   -2.4765634    0.7339829   -1.7425805   0.13393333    11417.928     1000 
 2902000   0.51652083   -2.4498656   0.77400646   -1.6758591   0.13131402    11280.186     1000 
 2904000   0.51060735   -2.4927098   0.76514511   -1.7275647   0.11417045    11573.825     1000 
 2906000   0.51515259   -2.5187677   0.77195615   -1.7468115   0.12008045    11420.664     1000 
 2908000   0.52611033   -2.5010878   0.78837634   -1.7127114   0.12853044     11402.56     1000 
 2910000   0.50393889   -2.4763721   0.75515243   -1.7212197   0.12856528    11371.905     1000 
 2912000   0.52470489   -2.4351547   0.78627028   -1.6488844   0.13651392    11369.818     1000 
 2914000   0.52252416   -2.4357039   0.78300245   -1.6527015   0.13162799     11442.84     1000 
 2916000   0.51608594   -2.4775494   0.77335478   -1.7041946   0.12765928    11463.082     1000 
 2918000   0.52283057   -2.4861512   0.78346161   -1.7026896   0.12606085    11298.863     1000 
 2920000   0.51689671   -2.4271861   0.77456972   -1.6526164   0.11981373    11617.083     1000 
 2922000   0.50368829   -2.4425494    0.7547769   -1.6877725   0.13866544     11333.24     1000 
 2924000   0.51023698   -2.4532692   0.76459012   -1.6886791    0.1403775    11372.761     1000 
 2926000   0.48503441   -2.4726862   0.72682407   -1.7458621   0.12361052    11448.379     1000 
 2928000   0.50799798   -2.4380136   0.76123497   -1.6767787   0.13026461    11265.468     1000 
 2930000   0.53013565     -2.48478   0.79440827   -1.6903717   0.11493152    11482.807     1000 
 2932000   0.52213462     -2.51103   0.78241873   -1.7286112   0.13740733    11319.912     1000 
 2934000   0.52362006   -2.4705362   0.78464466   -1.6858915   0.13470533    11434.191     1000 
 2936000   0.52950893   -2.4705334   0.79346914   -1.6770643   0.13695678    11384.493     1000 
 2938000   0.51458317   -2.4785427   0.77110288   -1.7074398    0.1376906    11434.654     1000 
 2940000   0.52286844   -2.4560259   0.78351835   -1.6725075    0.1175525     11412.71     1000 
 2942000   0.50128403   -2.4557568   0.75117413   -1.7045827   0.14604876     11331.83     1000 
 2944000   0.51500194   -2.4628132    0.7717304   -1.6910828   0.13142948    11456.785     1000 
 2946000   0.50102626   -2.4601658   0.75078785   -1.7093779   0.12444154    11387.443     1000 
 2948000   0.49769488   -2.4624359   0.74579578   -1.7166401   0.12116558    11420.173     1000 
 2950000   0.52006649    -2.471478   0.77931964   -1.6921584   0.12892603    11321.015     1000 
 2952000   0.49290294   -2.4854796   0.73861505   -1.7468646   0.12398227      11481.7     1000 
 2954000   0.53109175    -2.469755   0.79584099    -1.673914   0.12365757    11484.203     1000 
 2956000   0.53274781   -2.4546217    0.7983226   -1.6562991   0.12104692    11500.458     1000 
 2958000    0.5202158   -2.4837928   0.77954338   -1.7042494   0.14196393    11426.004     1000 
 2960000   0.52444873    -2.457091   0.78588642   -1.6712046   0.12434404    11496.386     1000 
 2962000   0.54810395   -2.4799829   0.82133378   -1.6586492   0.11954109    11625.782     1000 
 2964000   0.48105045   -2.4923244    0.7208541   -1.7714703   0.12344871    11497.929     1000 
 2966000    0.5002587   -2.4251856   0.74963766   -1.6755479   0.12677877    11133.887     1000 
 2968000   0.54756999   -2.4455111   0.82053364   -1.6249775   0.13317332    11345.413     1000 
 2970000   0.50897952   -2.4883254   0.76270581   -1.7256196   0.12599469    11316.034     1000 
 2972000    0.5119935   -2.4773949   0.76722226   -1.7101726   0.12529861    11430.109     1000 
 2974000   0.52253826   -2.5032958   0.78302358   -1.7202722    0.1397785    11390.449     1000 
 2976000   0.52244225   -2.4209897   0.78287971     -1.63811   0.14364695    11284.697     1000 
 2978000   0.52176254   -2.4646717   0.78186117   -1.6828105   0.13346347    11376.671     1000 
 2980000    0.5318465   -2.4843407   0.79697199   -1.6873687   0.13106533    11563.589     1000 
 2982000    0.5005493   -2.4184713   0.75007312   -1.6683982   0.13775336    11281.156     1000 
 2984000    0.5166433   -2.4355864   0.77418999   -1.6613964   0.12156907    11463.868     1000 
 2986000   0.52270651    -2.457951   0.78327571   -1.6746753   0.13968526    11193.344     1000 
 2988000   0.49903079   -2.4658578   0.74779764   -1.7180601   0.11912143    11485.729     1000 
 2990000   0.52893542   -2.4927964   0.79260972   -1.7001867   0.12405368    11584.514     1000 
 2992000   0.52502511    -2.484188   0.78675012   -1.6974379   0.12513709    11411.428     1000 
 2994000   0.51992715   -2.4275412   0.77911083   -1.6484304   0.11681618    11370.122     1000 
 2996000   0.51309477   -2.4255096   0.76887251   -1.6566371   0.11385241    11566.871     1000 
 2998000   0.51038141   -2.4679205   0.76480654    -1.703114   0.11788309    11463.404     1000 
 3000000   0.51101161    -2.527528    0.7657509   -1.7617771   0.13253999    11447.866     1000 
Loop time of 1159.25 on 1 procs for 3000000 steps with 1000 atoms

Performance: 1117968.809 tau/day, 2587.891 timesteps/s
100.0% CPU use with 1 MPI tasks x 1 OpenMP threads

MPI task timing breakdown:
Section |  min time  |  avg time  |  max time  |%varavg| %total
---------------------------------------------------------------
Pair    | 912.46     | 912.46     | 912.46     |   0.0 | 78.71
Neigh   | 144.44     | 144.44     | 144.44     |   0.0 | 12.46
Comm    | 24.495     | 24.495     | 24.495     |   0.0 |  2.11
Output  | 0.017876   | 0.017876   | 0.017876   |   0.0 |  0.00
Modify  | 72.515     | 72.515     | 72.515     |   0.0 |  6.26
Other   |            | 5.309      |            |       |  0.46

Nlocal:        1000.00 ave        1000 max        1000 min
Histogram: 1 0 0 0 0 0 0 0 0 0
Nghost:        2200.00 ave        2200 max        2200 min
Histogram: 1 0 0 0 0 0 0 0 0 0
Neighs:        27355.0 ave       27355 max       27355 min
Histogram: 1 0 0 0 0 0 0 0 0 0

Total # of neighbors = 27355
Ave neighs/atom = 27.355000
Neighbor list builds = 150000
Dangerous builds not checked

Total wall time: 0:19:19
