LAMMPS (29 Sep 2021 - Update 2)
OMP_NUM_THREADS environment is not set. Defaulting to 1 thread. (src/comm.cpp:98)
  using 1 OpenMP thread(s) per MPI task
# ----------------------- Inicialização -----------------------

units			lj
atom_style 		atomic
dimension 		3
boundary 		p p p

# -------------------- Criação dos Átomos ---------------------

read_data 		topologia.txt
Reading data file ...
  orthogonal box = (0.0000000 0.0000000 0.0000000) to (21.540000 21.540000 21.540000)
  1 by 1 by 1 MPI processor grid
  reading atoms ...
  1000 atoms
  read_data CPU = 0.006 seconds

velocity 		all create ${temp} 87287 rot yes dist gaussian
velocity 		all create 0.37 87287 rot yes dist gaussian

# ------------------ Interação Interatômica -------------------

pair_style		table linear 1000
pair_coeff		1 1 force.table AA 5.0
WARNING: 2 of 1000 force values in table AA are inconsistent with -dE/dr.
WARNING:  Should only be flagged at inflection points (src/pair_table.cpp:465)
pair_coeff		1 2 force.table AB 5.0
WARNING: 1 of 1000 force values in table AB are inconsistent with -dE/dr.
WARNING:  Should only be flagged at inflection points (src/pair_table.cpp:465)
pair_coeff		2 2 force.table BB 5.0
pair_write		1 1 1000 r 0.008 5.0 table.check AA
Appending to table file table.check with DATE: 2023-07-05
Neighbor list info ...
  update every 1 steps, delay 10 steps, check yes
  max neighbors/atom: 2000, page size: 100000
  master list distance cutoff = 5.3
  ghost atom cutoff = 5.3
  binsize = 2.65, bins = 9 9 9
  1 neighbor lists, perpetual/occasional/extra = 1 0 0
  (1) pair table, perpetual
      attributes: half, newton on
      pair build: half/bin/atomonly/newton
      stencil: half/bin/3d
      bin: standard
pair_write		1 2 1000 r 0.008 5.0 table.check AB
Appending to table file table.check with DATE: 2023-07-05
pair_write		2 2 1000 r 0.008 5.0 table.check BB
Appending to table file table.check with DATE: 2023-07-05

neighbor 		0.3 bin
neigh_modify		every 20 delay 0 check no

# ------------------------- Ensemble --------------------------------------

fix 1			all npt temp ${temp} ${temp} 0.5 iso ${press} ${press} 5
fix 1			all npt temp 0.37 ${temp} 0.5 iso ${press} ${press} 5
fix 1			all npt temp 0.37 0.37 0.5 iso ${press} ${press} 5
fix 1			all npt temp 0.37 0.37 0.5 iso 0.13 ${press} 5
fix 1			all npt temp 0.37 0.37 0.5 iso 0.13 0.13 5

# ---------------------- Função de Distribuição Radial -----------------------

#compute RDF 		all rdf 2000 1 1 1 2 2 2
#fix 2 			all ave/time 1 2000 2000 c_RDF[*] file rdf.data mode vector

# ------------------------- Execução ---------------------------

timestep 		0.005
thermo_style		custom step temp pe ke etotal press vol atoms
thermo			2000
run			3000000
Per MPI rank memory allocation (min/avg/max) = 2.670 | 2.670 | 2.670 Mbytes
Step Temp PotEng KinEng TotEng Press Volume Atoms 
       0         0.37    1.5784776     0.554445    2.1329226    1.6602659    9993.9483     1000 
    2000   0.36555308   -2.7796108   0.54778129   -2.2318295   0.12466592    11452.823     1000 
    4000   0.37614655   -2.8099213   0.56365561   -2.2462657   0.12412481    11555.454     1000 
    6000   0.37442924   -2.8909061   0.56108221   -2.3298239   0.12220556    11479.612     1000 
    8000   0.37428182   -2.9008069   0.56086131   -2.3399456   0.12768126    11532.773     1000 
   10000    0.3846046   -2.8719965      0.57633   -2.2956665   0.12977299    11583.346     1000 
   12000   0.37417137   -2.8855475    0.5606958   -2.3248517    0.1292546    11374.069     1000 
   14000   0.36071075   -2.9498324   0.54052505   -2.4093073   0.13633021    11357.452     1000 
   16000   0.37432207   -2.8797346   0.56092162    -2.318813   0.12109141    11451.673     1000 
   18000   0.35633221   -2.9348329   0.53396382   -2.4008691   0.12525069    11434.899     1000 
   20000   0.36088358   -2.9081979   0.54078404   -2.3674139   0.14521711    11291.608     1000 
   22000   0.37182924   -2.9475427   0.55718611   -2.3903566   0.13410924    11404.626     1000 
   24000   0.37283253   -2.9337912   0.55868955   -2.3751016    0.1151653    11592.527     1000 
   26000   0.37702931   -2.9380089   0.56497841   -2.3730305   0.12052022    11480.429     1000 
   28000   0.36240581   -2.9073034    0.5430651   -2.3642383   0.13253346    11429.869     1000 
   30000   0.37702164   -2.9198279   0.56496692    -2.354861   0.12702881    11492.346     1000 
   32000   0.37249109   -2.9312897    0.5581779   -2.3731118   0.12272705    11529.934     1000 
   34000   0.37746037   -2.9653204   0.56562437   -2.3996961   0.13019574    11497.811     1000 
   36000   0.36765104   -2.9932795   0.55092508   -2.4423545   0.11860417    11645.419     1000 
   38000    0.3768538   -2.9726961   0.56471543   -2.4079806   0.13919017     11408.91     1000 
   40000   0.37209086   -2.9832672   0.55757815    -2.425689   0.11765357    11582.796     1000 
   42000   0.38041001   -2.8815567   0.57004441   -2.3115123   0.12807144    11451.254     1000 
   44000   0.37135306   -2.9461734   0.55647256   -2.3897008   0.14040607    11448.152     1000 
   46000   0.37625627   -2.9600192   0.56382002   -2.3961991   0.12461527    11357.045     1000 
   48000   0.37743361   -2.9463387   0.56558426   -2.3807544   0.12852694    11441.194     1000 
   50000    0.3809067   -2.9426047   0.57078869    -2.371816    0.1263648    11515.296     1000 
   52000   0.35881618   -2.9427429   0.53768605   -2.4050568   0.14410841    11290.653     1000 
   54000    0.3790459   -2.9739599   0.56800028   -2.4059597     0.127865    11506.851     1000 
   56000   0.35168882   -2.9713733   0.52700569   -2.4443676   0.12170879    11532.075     1000 
   58000   0.37423401   -2.9407544   0.56078967   -2.3799648   0.13843151    11315.257     1000 
   60000   0.39439423    -2.917898   0.59099975   -2.3268983   0.13370896    11402.736     1000 
   62000   0.37372996   -2.9077667   0.56003434   -2.3477324   0.13462072    11362.236     1000 
   64000   0.36847628   -2.9388456    0.5521617   -2.3866839   0.13430842    11389.115     1000 
   66000    0.3702126   -2.9620068   0.55476358   -2.4072433   0.11769636    11518.589     1000 
   68000    0.3655132   -2.9437408   0.54772152   -2.3960193    0.1391532    11415.152     1000 
   70000   0.36181574   -2.9648705   0.54218088   -2.4226896   0.13466206    11418.784     1000 
   72000    0.3545226   -2.9374692   0.53125212   -2.4062171   0.12863518    11443.508     1000 
   74000   0.37387997   -2.9383086   0.56025914   -2.3780494   0.12592512     11455.01     1000 
   76000   0.36220436   -2.8821997   0.54276324   -2.3394364   0.13923678    11339.094     1000 
   78000   0.36003221   -2.9865158   0.53950826   -2.4470076   0.11817087    11609.416     1000 
   80000   0.36826915   -2.9425042   0.55185132   -2.3906529   0.14036032    11321.652     1000 
   82000   0.37464286   -2.9160282   0.56140233   -2.3546259   0.13280563    11395.307     1000 
   84000   0.37649908   -2.9055762   0.56418386   -2.3413923   0.12423089    11461.399     1000 
   86000    0.3686653   -2.9377331   0.55244495   -2.3852881   0.15129877    11272.621     1000 
   88000   0.38557791    -2.917798    0.5777885   -2.3400095   0.14160339    11344.446     1000 
   90000   0.37398622   -2.8910178   0.56041835   -2.3305995   0.13742058    11270.626     1000 
   92000   0.39634744   -2.9366384   0.59392663   -2.3427118   0.13353156    11493.609     1000 
   94000   0.36817447   -2.9075757   0.55170944   -2.3558663   0.11472093    11451.341     1000 
   96000   0.38379688   -2.9371798   0.57511962   -2.3620602   0.13485058     11406.61     1000 
   98000   0.37472933   -2.9750576    0.5615319   -2.4135257   0.13743016    11480.996     1000 
  100000   0.37696615   -2.9454863   0.56488377   -2.3806025   0.13553216    11365.346     1000 
  102000   0.36085101     -2.95788   0.54073524   -2.4171448   0.12824262    11375.526     1000 
  104000   0.37932638   -2.9580294   0.56842058   -2.3896089   0.12623694    11445.863     1000 
  106000   0.37705896   -2.9329315   0.56502285   -2.3679087   0.12883593    11460.978     1000 
  108000   0.38999169    -2.972473   0.58440255   -2.3880705   0.13309554     11464.32     1000 
  110000   0.37385002   -2.9921275   0.56021425   -2.4319132   0.12746236    11504.563     1000 
  112000    0.3845108   -2.9221548   0.57618943   -2.3459654   0.13052116    11434.419     1000 
  114000   0.36671384   -2.9221559   0.54952069   -2.3726352    0.1276364    11453.352     1000 
  116000   0.37369315   -2.9547058   0.55997919   -2.3947266   0.14469855    11387.656     1000 
  118000   0.35685743   -2.9334563   0.53475085   -2.3987055   0.12959053    11374.897     1000 
  120000   0.35992817   -2.9282891   0.53935236   -2.3889368   0.13100778    11387.384     1000 
  122000   0.36917058   -2.9453279   0.55320212   -2.3921258   0.12471924      11542.2     1000 
  124000   0.38114131   -2.9517939   0.57114025   -2.3806536   0.14013307    11321.472     1000 
  126000    0.3848196     -2.95078   0.57665217   -2.3741278   0.13417861    11456.386     1000 
  128000   0.36524546   -2.9062532   0.54732032   -2.3589329   0.13530092    11384.306     1000 
  130000   0.37201931   -2.9675561   0.55747093   -2.4100852   0.13450575    11362.566     1000 
  132000   0.36840786    -2.977567   0.55205918   -2.4255078   0.13196604     11481.49     1000 
  134000   0.37959963   -2.9829533   0.56883004   -2.4141233   0.13801336    11414.013     1000 
  136000   0.37295506   -2.9453782   0.55887315   -2.3865051   0.13635593    11348.204     1000 
  138000   0.37572374   -2.9442254   0.56302202   -2.3812034   0.12483793    11347.579     1000 
  140000    0.3513384   -2.9575485    0.5264806   -2.4310679    0.1224619     11437.35     1000 
  142000   0.36461217   -2.9436189   0.54637133   -2.3972476   0.12860136    11343.877     1000 
  144000   0.36960367    -2.921367    0.5538511   -2.3675159   0.13559956    11352.341     1000 
  146000   0.36065888   -3.0119184   0.54044733   -2.4714711   0.12888779    11505.784     1000 
  148000   0.36244054    -2.985179   0.54311715   -2.4420618   0.13387383    11395.358     1000 
  150000   0.37191374   -2.9695569   0.55731273   -2.4122442   0.13389774    11449.123     1000 
  152000   0.35783848   -2.8678716   0.53622096   -2.3316506   0.13546347    11298.338     1000 
  154000   0.37178397   -2.9435401   0.55711828   -2.3864218   0.11911712    11459.662     1000 
  156000   0.36302955   -2.9523057   0.54399979   -2.4083059   0.13097784    11347.285     1000 
  158000   0.37785143    -2.925355   0.56621037   -2.3591446   0.11731164    11464.291     1000 
  160000    0.3631334   -2.9201976   0.54415541   -2.3760422   0.11969039    11489.692     1000 
  162000   0.38432209   -2.8922817   0.57590665    -2.316375   0.13286209    11413.257     1000 
  164000   0.36740934   -2.9472615    0.5505629   -2.3966986   0.13100759    11313.181     1000 
  166000    0.3767803   -2.9274697   0.56460528   -2.3628644   0.13284915    11406.964     1000 
  168000   0.37372909   -2.9211861   0.56003304   -2.3611531   0.12305676    11465.575     1000 
  170000   0.36827007   -2.9458865   0.55185269   -2.3940338   0.12834149    11371.744     1000 
  172000   0.37789264   -2.9939245   0.56627211   -2.4276524   0.12832467    11411.799     1000 
  174000   0.37250149   -2.9387201   0.55819349   -2.3805266   0.14194483    11330.646     1000 
  176000   0.36500106    -2.952218   0.54695408   -2.4052639    0.1325825     11431.61     1000 
  178000   0.37011723   -2.9137667   0.55462068   -2.3591461   0.12990983    11355.848     1000 
  180000   0.36445865   -2.9511273   0.54614129    -2.404986   0.13466797    11375.809     1000 
  182000   0.37102934   -2.9449844   0.55598746   -2.3889969   0.13640916    11414.039     1000 
  184000   0.37960795   -2.9442802   0.56884251   -2.3754377   0.12844749    11423.043     1000 
  186000   0.38296965   -2.9564934   0.57388001   -2.3826134   0.14072013    11410.936     1000 
  188000   0.37333213   -2.9331456    0.5594382   -2.3737074   0.13000181     11438.25     1000 
  190000   0.36822385   -2.9726761   0.55178344   -2.4208926     0.128864    11412.618     1000 
  192000   0.38572375   -2.9706404   0.57800704   -2.3926333   0.13055213    11516.827     1000 
  194000   0.37343214   -2.9306894   0.55958806   -2.3711014   0.13656952    11320.566     1000 
  196000   0.36539951   -2.9412116   0.54755116   -2.3936604   0.13274631    11336.942     1000 
  198000   0.37325217   -2.9602934   0.55931837   -2.4009751   0.13364513    11353.643     1000 
  200000   0.37947716   -2.9333821   0.56864652   -2.3647356   0.12863126    11464.699     1000 
  202000   0.35539254   -2.9203339   0.53255573   -2.3877781   0.12658632    11410.372     1000 
  204000   0.37529269   -2.9663009    0.5623761   -2.4039248   0.12751388    11340.238     1000 
  206000   0.35188075   -2.9473716   0.52729331   -2.4200783   0.14560184    11342.807     1000 
  208000    0.3913339   -2.9413913   0.58641386   -2.3549775   0.12302397    11436.459     1000 
  210000   0.38104659    -2.923887   0.57099832   -2.3528887   0.13516252    11281.055     1000 
  212000   0.35845196   -2.9758897   0.53714026   -2.4387495   0.12964178    11479.053     1000 
  214000   0.36435614   -2.9901946   0.54598768   -2.4442069   0.12973405    11389.076     1000 
  216000   0.37799628    -2.973798   0.56642742   -2.4073706   0.13198297    11441.845     1000 
  218000   0.36936363   -2.9125096    0.5534914   -2.3590182   0.13405686    11395.299     1000 
  220000   0.38176515   -2.9346772   0.57207508   -2.3626021   0.13163325     11361.19     1000 
  222000   0.37436632   -2.9431871   0.56098793   -2.3821991   0.13645807    11364.529     1000 
  224000    0.3636367   -2.9609903   0.54490959   -2.4160807    0.1176329    11483.691     1000 
  226000   0.36127832   -2.9528455   0.54137556   -2.4114699   0.13312757    11437.284     1000 
  228000   0.38579305   -2.9300128   0.57811088   -2.3519019   0.13916176    11358.734     1000 
  230000   0.36999536   -2.9590462   0.55443804   -2.4046081   0.12942626    11414.157     1000 
  232000   0.35693075    -2.936127   0.53486073   -2.4012663   0.12296164     11516.88     1000 
  234000   0.36205277   -2.9858285   0.54253608   -2.4432924   0.12639735    11472.018     1000 
  236000    0.3579349   -2.9368662   0.53636545   -2.4005008   0.12159602    11429.182     1000 
  238000   0.37187564   -2.9943648   0.55725565   -2.4371091   0.12717486    11389.276     1000 
  240000   0.38004894   -2.9428679   0.56950334   -2.3733646   0.14307674    11222.495     1000 
  242000   0.37663894   -2.9166323   0.56439344   -2.3522389   0.14259517    11319.296     1000 
  244000   0.36280258   -2.9610436   0.54365967    -2.417384   0.12605258    11444.002     1000 
  246000   0.36184327     -2.97522   0.54222213   -2.4329979    0.1320132    11433.829     1000 
  248000   0.37062611   -2.9841652   0.55538323    -2.428782   0.12081739    11456.269     1000 
  250000   0.36676448   -2.9326437   0.54959657   -2.3830472   0.12726461      11356.2     1000 
  252000   0.36361225   -2.9856892   0.54487296   -2.4408162   0.14087322    11345.473     1000 
  254000    0.3823083   -2.9441863   0.57288899   -2.3712973   0.13431342    11387.234     1000 
  256000   0.36907212   -2.8915458   0.55305458   -2.3384912   0.14003669    11279.805     1000 
  258000    0.3812722    -2.922416   0.57133639   -2.3510796   0.12637533    11392.551     1000 
  260000   0.37844202   -2.9502847   0.56709536   -2.3831894   0.13123704    11488.594     1000 
  262000    0.3754441   -2.9655127   0.56260298   -2.4029097   0.13002651    11453.025     1000 
  264000   0.36729709   -2.9524478    0.5503947   -2.4020531   0.13316764    11449.059     1000 
  266000   0.37197899   -2.9328019   0.55741051   -2.3753914   0.12741741    11382.264     1000 
  268000   0.36371042   -2.9515959   0.54502007   -2.4065758   0.12226274    11456.428     1000 
  270000   0.36294561   -2.9626395     0.543874   -2.4187655   0.14523405     11306.35     1000 
  272000    0.3651561   -2.9510425   0.54718641   -2.4038561   0.13446388    11397.169     1000 
  274000   0.38527785   -2.9090327   0.57733885   -2.3316939   0.12536199    11445.938     1000 
  276000   0.37358889   -2.9906939   0.55982295   -2.4308709   0.13888882    11458.379     1000 
  278000    0.3706139   -2.9552498   0.55536493   -2.3998849   0.12499208    11415.188     1000 
  280000   0.36563343   -2.9940593    0.5479017   -2.4461576   0.12546041    11449.096     1000 
  282000   0.37059151   -2.9692847   0.55533137   -2.4139534   0.12418764    11473.929     1000 
  284000   0.39396756   -2.9374896   0.59036039   -2.3471292   0.13438134     11347.41     1000 
  286000   0.36622865   -2.8904858   0.54879363   -2.3416921    0.1211745    11429.645     1000 
  288000   0.38006645   -2.9217861   0.56952957   -2.3522565   0.12349176    11474.945     1000 
  290000   0.35599357   -2.9329927   0.53345637   -2.3995364   0.12033876    11464.092     1000 
  292000   0.37813229   -2.9549315   0.56663123   -2.3883002   0.14569603    11329.413     1000 
  294000    0.3622748   -2.9592111   0.54286879   -2.4163423   0.12558338    11414.801     1000 
  296000   0.36440871   -2.9330014   0.54606646   -2.3869349   0.13135868    11381.647     1000 
  298000    0.3565481   -2.9474923   0.53428732    -2.413205   0.13050716    11509.788     1000 
  300000   0.37289998   -2.9837303   0.55879062   -2.4249397   0.13450846     11436.48     1000 
  302000   0.36683496   -2.9444792   0.54970219    -2.394777   0.13017363    11415.776     1000 
  304000   0.37371104   -2.9375866     0.560006   -2.3775806   0.12865059    11422.211     1000 
  306000   0.36412784   -2.9511062   0.54564556   -2.4054606    0.1332009     11461.55     1000 
  308000   0.38292232   -2.9603597   0.57380909   -2.3865506    0.1308807    11363.788     1000 
  310000    0.3782238   -2.9117789   0.56676836   -2.3450106   0.12735905    11421.862     1000 
  312000   0.38081022   -2.9290565   0.57064411   -2.3584124   0.13629902    11296.935     1000 
  314000    0.3551645   -2.9676613   0.53221401   -2.4354473   0.13657141    11368.766     1000 
  316000   0.37300875   -2.9337124   0.55895361   -2.3747588   0.13949904    11351.889     1000 
  318000   0.36324685   -2.9313899    0.5443254   -2.3870645   0.13066398    11449.841     1000 
  320000   0.37277096   -2.9410778   0.55859729   -2.3824806   0.13246536    11359.415     1000 
  322000   0.36479705   -2.9933352   0.54664837   -2.4466868   0.13851468    11354.344     1000 
  324000   0.37724129   -2.9592463   0.56529607   -2.3939502    0.1433708    11433.659     1000 
  326000   0.37115818   -2.9324722   0.55618053   -2.3762917   0.13462778    11325.819     1000 
  328000   0.36509472   -2.9501238   0.54709444   -2.4030294   0.13439717    11425.298     1000 
  330000   0.35907323   -2.9767339   0.53807123   -2.4386626   0.12187182    11457.011     1000 
  332000    0.3645563   -2.9133869   0.54628762   -2.3670993    0.1311305    11426.836     1000 
  334000   0.37786988   -2.9773527   0.56623802   -2.4111146   0.13063398    11497.702     1000 
  336000   0.38656285   -2.9497363   0.57926443   -2.3704718   0.14187779    11335.515     1000 
  338000   0.37902177   -2.9259202   0.56796413   -2.3579561   0.13942085    11366.722     1000 
  340000   0.35615087   -2.9334746   0.53369208   -2.3997825   0.12746441    11450.579     1000 
  342000   0.38501608   -2.9952895    0.5769466   -2.4183429   0.11471803    11520.096     1000 
  344000   0.35333371   -2.9324764   0.52947057   -2.4030059    0.1286382    11494.467     1000 
  346000   0.35889092   -2.9497994   0.53779804   -2.4120014   0.13760139    11315.159     1000 
  348000   0.37607407   -2.9611996   0.56354699   -2.3976526   0.12511232    11424.578     1000 
  350000   0.36211808   -2.9563345   0.54263395   -2.4137006   0.12311955    11472.875     1000 
  352000   0.37934841   -2.9692891   0.56845359   -2.4008355   0.12423733    11483.355     1000 
  354000   0.36171639   -2.8996447   0.54203201   -2.3576127   0.15931555    11210.718     1000 
  356000   0.38090866   -2.9496454   0.57079163   -2.3788537   0.11949313    11488.157     1000 
  358000    0.3795105   -2.9509308   0.56869649   -2.3822343   0.12307187    11581.273     1000 
  360000   0.38363495   -2.9102557   0.57487697   -2.3353788   0.14711211    11332.836     1000 
  362000    0.3662435   -2.9517495   0.54881589   -2.4029337    0.1354333    11328.877     1000 
  364000   0.37436187    -2.919969   0.56098126   -2.3589877   0.12767317    11400.018     1000 
  366000   0.36559605   -2.9344887   0.54784568    -2.386643   0.12700139    11530.806     1000 
  368000   0.37927197   -2.8941704   0.56833904   -2.3258313   0.13056998    11300.308     1000 
  370000   0.36629941   -2.9655954   0.54889967   -2.4166957   0.13743606    11366.351     1000 
  372000    0.3698194   -2.9825714   0.55417437   -2.4283971     0.124577    11518.111     1000 
  374000   0.38237168   -2.9691009   0.57298397    -2.396117   0.11470273    11491.086     1000 
  376000   0.36935969    -2.948944    0.5534855   -2.3954585   0.15060885    11319.072     1000 
  378000   0.36809107   -2.9700282   0.55158447   -2.4184437   0.13725709    11340.544     1000 
  380000   0.37970179   -2.9600768   0.56898314   -2.3910936   0.12923242    11477.404     1000 
  382000   0.37633127   -2.9556279   0.56393241   -2.3916955   0.13932563    11316.441     1000 
  384000   0.35145156   -2.9512001   0.52665016   -2.4245499   0.11546093    11454.383     1000 
  386000   0.37875072   -2.9855659   0.56755795    -2.418008   0.14330178    11449.671     1000 
  388000   0.37799674    -2.964476   0.56642811   -2.3980479     0.152506    11408.795     1000 
  390000   0.38743203   -2.9735261   0.58056689   -2.3929592   0.13833522    11347.274     1000 
  392000   0.35484056   -2.9616339   0.53172859   -2.4299053    0.1239187    11437.144     1000 
  394000   0.35542452   -2.9744894   0.53260364   -2.4418858   0.13204542    11467.257     1000 
  396000   0.36184342    -2.948189   0.54222236   -2.4059666    0.1125469    11525.494     1000 
  398000   0.36583691   -2.9735595   0.54820661   -2.4253529   0.12846491    11425.008     1000 
  400000   0.36555446    -2.926605   0.54778335   -2.3788216   0.14293722    11243.885     1000 
  402000   0.35778879   -2.9536671   0.53614651   -2.4175206    0.1236806    11497.702     1000 
  404000   0.37439933   -2.9495001   0.56103739   -2.3884627   0.12522628    11347.646     1000 
  406000   0.36334124   -2.9707391   0.54446685   -2.4262723   0.11990919    11425.139     1000 
  408000    0.3757986   -2.9520162    0.5631342    -2.388882   0.12490094    11410.066     1000 
  410000   0.36539846   -3.0043144   0.54754959   -2.4567648   0.13326456    11472.413     1000 
  412000    0.3582612    -2.974967   0.53685442   -2.4381125   0.12579497     11503.47     1000 
  414000   0.35491361   -2.9721347   0.53183805   -2.4402966   0.13726063    11388.953     1000 
  416000   0.34669483   -2.9480291    0.5195222   -2.4285069   0.11631255    11510.699     1000 
  418000    0.3819624   -2.9496796   0.57237065    -2.377309   0.13663914    11267.692     1000 
  420000   0.35874775   -2.9762072    0.5375835   -2.4386237   0.13071847    11364.952     1000 
  422000   0.36320915     -2.94194   0.54426891   -2.3976711    0.1324808    11394.044     1000 
  424000   0.35914065   -2.9456573   0.53817226    -2.407485   0.12532953    11502.189     1000 
  426000   0.37353601   -2.9465288    0.5597437   -2.3867851    0.1315711    11394.092     1000 
  428000   0.39137369   -2.9311397   0.58647348   -2.3446662   0.11975042     11461.72     1000 
  430000   0.37689835   -2.9621491   0.56478217    -2.397367    0.1437969    11386.496     1000 
  432000   0.36295752   -2.9443457   0.54389184   -2.4004539    0.1222352    11391.874     1000 
  434000   0.37719171   -2.9599487   0.56522178   -2.3947269   0.12685557    11383.891     1000 
  436000   0.35919354   -2.9385294   0.53825152   -2.4002779   0.12279007     11400.37     1000 
  438000   0.36667748   -2.9643168    0.5494662   -2.4148506   0.14002601     11421.31     1000 
  440000   0.36397862    -2.969362   0.54542197   -2.4239401   0.12702223    11489.794     1000 
  442000   0.37564332   -2.9453821   0.56290151   -2.3824806   0.12854453    11349.734     1000 
  444000    0.3648737   -2.9418646   0.54676324   -2.3951014   0.12796716    11463.633     1000 
  446000   0.35886694   -2.9528824   0.53776211   -2.4151203   0.12003877    11471.763     1000 
  448000   0.37291368   -2.9594256   0.55881116   -2.4006145   0.12659788    11487.312     1000 
  450000   0.36791258   -2.9641345     0.551317   -2.4128175   0.12907012    11468.583     1000 
  452000   0.36414337   -2.9586253   0.54566884   -2.4129564   0.13283452    11315.688     1000 
  454000   0.36002743   -2.9307048    0.5395011   -2.3912037   0.11785907    11544.046     1000 
  456000   0.36223929    -2.960023   0.54281558   -2.4172074   0.12802845    11406.631     1000 
  458000   0.35567368   -2.9800668   0.53297701   -2.4470898   0.12652445     11492.98     1000 
  460000   0.36683639   -2.9858624   0.54970433   -2.4361581   0.12881492    11393.237     1000 
  462000   0.36071072   -2.9626407   0.54052501   -2.4221157   0.11337023    11530.126     1000 
  464000   0.36938249    -2.970585   0.55351967   -2.4170653   0.13931505    11425.823     1000 
  466000   0.37684367    -2.955738   0.56470024   -2.3910377   0.12177948    11530.494     1000 
  468000   0.38656712    -2.937431   0.57927082   -2.3581601   0.13954254    11314.501     1000 
  470000   0.36390511   -2.9675723   0.54531181   -2.4222605   0.12611869    11453.922     1000 
  472000   0.39247951   -2.9480713   0.58813055   -2.3599407   0.13202363    11326.685     1000 
  474000   0.38066592    -2.934926   0.57042788   -2.3644981   0.12469119    11386.502     1000 
  476000   0.37281083   -2.9561402   0.55865703   -2.3974831   0.13293384    11480.809     1000 
  478000   0.40429238   -2.9320692   0.60583213   -2.3262371   0.13210243    11486.454     1000 
  480000   0.35722703   -2.9794265   0.53530471   -2.4441218   0.13262623    11447.891     1000 
  482000   0.37232482   -2.9391292   0.55792874   -2.3812004   0.13706193    11459.435     1000 
  484000   0.35434126   -2.9632161   0.53098038   -2.4322357   0.13100152    11441.507     1000 
  486000   0.35352599   -2.9443982    0.5297587   -2.4146395   0.13279219    11372.331     1000 
  488000   0.36750754   -2.8989706   0.55071004   -2.3482606   0.12142246    11464.621     1000 
  490000   0.36323921   -2.9409695   0.54431395   -2.3966555   0.13778417    11398.938     1000 
  492000   0.37929568   -2.9613706   0.56837457    -2.392996   0.13122658    11369.392     1000 
  494000   0.36612136   -2.9285556   0.54863286   -2.3799228   0.13375345    11340.097     1000 
  496000   0.37483951   -2.9507483   0.56169701   -2.3890513   0.12593298    11470.791     1000 
  498000   0.35916943   -2.9376295   0.53821539   -2.3994141   0.12576137    11352.697     1000 
  500000   0.38795874    -2.910691   0.58135617   -2.3293349   0.15330207    11236.878     1000 
  502000   0.36526011   -2.9481865   0.54734227   -2.4008443   0.14343877    11297.459     1000 
  504000   0.37524666   -2.9167943   0.56230712   -2.3544871   0.13636337    11278.195     1000 
  506000   0.37807106   -3.0001961   0.56653948   -2.4336566   0.11957135    11536.751     1000 
  508000   0.38626107   -2.9700205   0.57881221   -2.3912083   0.12651595    11423.439     1000 
  510000   0.34617419    -2.932853   0.51874202   -2.4141109   0.13371376    11300.607     1000 
  512000    0.3700218   -2.9431097   0.55447767    -2.388632   0.12018196    11520.084     1000 
  514000   0.36659122   -2.9445893   0.54933695   -2.3952524   0.13358697    11435.112     1000 
  516000   0.38535193   -2.9095638   0.57744987   -2.3321139   0.13859544    11348.618     1000 
  518000   0.37139795   -2.9679514   0.55653983   -2.4114116   0.12678709    11431.926     1000 
  520000   0.38363045   -2.9408475   0.57487023   -2.3659773   0.13620461    11291.526     1000 
  522000   0.37182025   -2.8982805   0.55717265   -2.3411079   0.13151927    11438.229     1000 
  524000   0.37478921   -2.9297987   0.56162162    -2.368177   0.12464972    11537.134     1000 
  526000   0.36719282   -2.9320391   0.55023843   -2.3818006   0.11648176    11480.299     1000 
  528000   0.38054136   -2.9399139   0.57024123   -2.3696726   0.13951401    11360.008     1000 
  530000   0.37338845   -2.9525806   0.55952259    -2.393058   0.13081282    11358.003     1000 
  532000   0.39671629   -2.8794178   0.59447936   -2.2849385   0.13538557    11325.775     1000 
  534000   0.36943544   -2.9573264     0.553599   -2.4037274   0.11694082    11506.459     1000 
  536000   0.35608953   -2.9262586   0.53360016   -2.3926584   0.13472769     11376.56     1000 
  538000    0.3950337    -2.965348   0.59195799   -2.3733901   0.14132511    11431.365     1000 
  540000   0.36957142   -2.9504549   0.55380277   -2.3966522   0.12831849    11347.254     1000 
  542000   0.37834799   -2.9873158   0.56695446   -2.4203614   0.13358513    11420.855     1000 
  544000   0.36895951   -2.9801676   0.55288582   -2.4272817    0.1278485    11452.529     1000 
  546000   0.38174242   -2.9808708   0.57204101   -2.4088298   0.13411679    11367.917     1000 
  548000   0.37187104   -2.9736406   0.55724875   -2.4163918   0.13700443    11397.074     1000 
  550000   0.37883337    -2.967552   0.56768181   -2.3998702   0.11921841     11408.07     1000 
  552000   0.36448516   -2.9370907   0.54618102   -2.3909097   0.14226298    11371.163     1000 
  554000    0.3589729   -2.9733378   0.53792088   -2.4354169   0.12484014    11520.878     1000 
  556000   0.37016616   -2.9736102   0.55469399   -2.4189162    0.1259475    11468.268     1000 
  558000   0.36740261   -2.9554195   0.55055281   -2.4048667   0.13400666    11382.099     1000 
  560000   0.36319541   -2.9530168   0.54424831   -2.4087685   0.11960999    11421.104     1000 
  562000    0.3689334   -2.9175162    0.5528467   -2.3646695   0.13860715     11335.38     1000 
  564000    0.3772377   -2.9507713   0.56529069   -2.3854806   0.13636425    11328.229     1000 
  566000   0.36691582   -2.9398933   0.54982335     -2.39007   0.12704686    11401.229     1000 
  568000   0.37772908   -2.9280255   0.56602703   -2.3619985   0.11839378    11489.978     1000 
  570000   0.35211624   -2.9654802   0.52764619    -2.437834   0.13510671    11436.181     1000 
  572000   0.37895471   -2.9516353   0.56786363   -2.3837717   0.13039703    11433.977     1000 
  574000   0.36424488   -2.9899762   0.54582096   -2.4441553   0.13193852    11429.994     1000 
  576000   0.37673896   -2.9879313   0.56454334   -2.4233879   0.14315797    11357.377     1000 
  578000   0.37926721   -2.9449333   0.56833192   -2.3766014   0.12128186    11425.338     1000 
  580000   0.37305826   -2.9747714   0.55902781   -2.4157436   0.12723383    11388.349     1000 
  582000   0.35983625   -2.9347074   0.53921463   -2.3954927   0.12614033     11385.49     1000 
  584000   0.35590838   -2.9431576   0.53332871   -2.4098288   0.10745692    11459.072     1000 
  586000   0.36728214   -2.9062435   0.55037228   -2.3558712    0.1322062    11421.678     1000 
  588000   0.36024455   -2.9116418   0.53982646   -2.3718154   0.12843355    11326.373     1000 
  590000   0.37673336   -2.9065859   0.56453493   -2.3420509   0.11957009    11475.588     1000 
  592000   0.35478107   -2.9161664   0.53163943    -2.384527   0.13717622     11287.52     1000 
  594000   0.38338327   -2.9129426   0.57449982   -2.3384428   0.12367176    11509.279     1000 
  596000    0.3587693   -2.9115814    0.5376158   -2.3739656   0.12016298    11423.421     1000 
  598000   0.37729002   -2.9792915   0.56536909   -2.4139224     0.128469    11391.674     1000 
  600000   0.35688922   -2.9860431   0.53479849   -2.4512446   0.12664548    11562.386     1000 
  602000   0.36601355   -2.9843921    0.5484713   -2.4359208   0.12550932    11415.615     1000 
  604000   0.37279482   -2.9264517   0.55863303   -2.3678187   0.13383162    11299.719     1000 
  606000   0.36832174   -2.9238135   0.55193013   -2.3718834   0.13718766     11384.75     1000 
  608000   0.37812768   -2.8950378   0.56662433   -2.3284135    0.1279861    11385.377     1000 
  610000   0.36182513   -2.9580403   0.54219495   -2.4158453   0.12672371    11501.044     1000 
  612000   0.35371095   -2.9578457   0.53003586   -2.4278098   0.13557214    11440.273     1000 
  614000    0.3710167   -2.9061973   0.55596852   -2.3502288   0.13090121    11378.898     1000 
  616000   0.37834285   -2.9281146   0.56694676   -2.3611678   0.13478213    11291.939     1000 
  618000   0.35915139   -2.9317988   0.53818836   -2.3936104   0.11756763    11475.141     1000 
  620000   0.39024664   -2.9500152   0.58478459   -2.3652306   0.13759499    11478.611     1000 
  622000   0.37594591   -2.9292073   0.56335495   -2.3658523   0.12200358    11495.611     1000 
  624000   0.36831525   -2.9311168    0.5519204   -2.3791964   0.12352887    11479.477     1000 
  626000   0.37884774     -2.93259   0.56770334   -2.3648867   0.12419183    11449.893     1000 
  628000   0.36097044   -2.9479431   0.54091421   -2.4070289   0.13443215     11375.84     1000 
  630000   0.39029081   -2.9802388   0.58485077    -2.395388   0.13754508    11359.561     1000 
  632000   0.36650133   -2.9450412   0.54920225   -2.3958389   0.12197642    11362.183     1000 
  634000   0.36184039   -2.9560812   0.54221782   -2.4138634   0.13499091    11417.039     1000 
  636000   0.35718836   -2.9714097   0.53524676    -2.436163   0.12343577      11441.2     1000 
  638000   0.37924352   -2.9250615   0.56829642   -2.3567651   0.12819081    11420.328     1000 
  640000   0.38244275   -2.9562167   0.57309046   -2.3831262   0.11510626    11536.349     1000 
  642000   0.36749351   -2.9383176   0.55068902   -2.3876286   0.12834628    11404.667     1000 
  644000   0.36642754   -2.9817878   0.54909167   -2.4326961   0.13963624    11485.651     1000 
  646000   0.36619058   -2.9756773   0.54873658   -2.4269407   0.12705663    11454.821     1000 
  648000   0.36132208   -2.9718884   0.54144113   -2.4304472   0.14016258    11420.727     1000 
  650000   0.37077774   -2.9265766   0.55561044   -2.3709662   0.13123739    11434.865     1000 
  652000   0.34746266   -2.9113089   0.52067279   -2.3906361   0.14052206    11239.308     1000 
  654000   0.37837159   -2.9611543   0.56698983   -2.3941645   0.11971477    11402.114     1000 
  656000   0.36575249   -2.9412937   0.54808011   -2.3932136   0.12299015    11530.402     1000 
  658000   0.36260517   -2.9307897   0.54336385   -2.3874258   0.12561551    11465.969     1000 
  660000   0.36834885   -2.9280115   0.55197075   -2.3760407   0.12394044    11452.013     1000 
  662000   0.37253591   -2.9581066   0.55824506   -2.3998615   0.13330109    11430.483     1000 
  664000   0.38185946   -2.9065885   0.57221641   -2.3343721   0.14558416    11263.747     1000 
  666000   0.36429863   -2.9596235   0.54590149    -2.413722   0.11756473    11533.406     1000 
  668000     0.372408   -2.9453558   0.55805339   -2.3873024   0.12721017        11348     1000 
  670000   0.37727055   -2.9753028   0.56533991   -2.4099629   0.13406103     11425.38     1000 
  672000   0.37891734   -2.9409444   0.56780764   -2.3731367   0.13853461    11403.997     1000 
  674000   0.36252517   -2.9416527   0.54324396   -2.3984087   0.14162425    11391.522     1000 
  676000   0.37157797   -2.9293514   0.55680958   -2.3725418   0.13206219    11424.668     1000 
  678000    0.3545155   -2.9198771   0.53124148   -2.3886356   0.13527602    11362.926     1000 
  680000    0.3686059   -2.9649599   0.55235595    -2.412604   0.11980066    11445.186     1000 
  682000   0.37051067   -2.9346601   0.55521023   -2.3794499   0.13179699    11497.043     1000 
  684000   0.39524354   -2.9291361   0.59227244   -2.3368636   0.10933986    11420.946     1000 
  686000   0.37987253   -2.9853912   0.56923899   -2.4161522   0.12927138    11435.995     1000 
  688000   0.37985179   -2.9848464   0.56920791   -2.4156385    0.1253423    11466.373     1000 
  690000   0.36686034   -2.9389592   0.54974022    -2.389219   0.13079161    11366.417     1000 
  692000   0.38825515   -2.9435365   0.58180034   -2.3617362   0.11609572    11564.063     1000 
  694000   0.35771047   -2.9703392   0.53602914   -2.4343101   0.13652527    11358.305     1000 
  696000   0.34812923   -2.9717221   0.52167165   -2.4500505   0.13211644    11433.416     1000 
  698000   0.35481055   -2.9287544    0.5316836   -2.3970708   0.13129614    11494.586     1000 
  700000   0.37242287   -2.9161587   0.55807567    -2.358083   0.14512173    11294.325     1000 
  702000   0.38416749    -2.960036   0.57567498    -2.384361   0.12350867     11437.38     1000 
  704000   0.36209008   -2.9793486   0.54259198   -2.4367567   0.12902224    11525.503     1000 
  706000   0.36987686   -2.9541838   0.55426047   -2.3999233   0.12669829    11388.892     1000 
  708000   0.36444575   -2.9751427   0.54612195   -2.4290207   0.13232649    11422.982     1000 
  710000   0.37060896   -2.9295246   0.55535752   -2.3741671   0.12575779    11431.425     1000 
  712000   0.36767526   -2.9770915   0.55096138   -2.4261302   0.12476273    11511.483     1000 
  714000   0.36013147   -2.9528846     0.539657   -2.4132276   0.13746435     11449.19     1000 
  716000    0.3826372   -2.9369314   0.57338184   -2.3635496   0.12095876    11580.735     1000 
  718000   0.37275319   -2.9149289   0.55857066   -2.3563583    0.1146424    11492.013     1000 
  720000     0.377615   -2.9242923   0.56585607   -2.3584362   0.13105462    11364.157     1000 
  722000   0.36739652   -2.9680537   0.55054368     -2.41751   0.13849683     11481.54     1000 
  724000   0.37358457   -2.9224297   0.55981649   -2.3626132   0.12019555    11514.819     1000 
  726000   0.37349808    -2.964663   0.55968687   -2.4049762   0.12964418    11480.933     1000 
  728000   0.36839284    -2.946065   0.55203666   -2.3940284   0.14439635    11372.168     1000 
  730000   0.37648547   -2.9309723   0.56416347   -2.3668088    0.1356707    11467.709     1000 
  732000   0.35270304   -2.9714467    0.5285255   -2.4429212   0.13096252    11395.976     1000 
  734000   0.36623961    -2.888822   0.54881005   -2.3400119   0.13741678    11398.193     1000 
  736000   0.36668318   -2.9251491   0.54947475   -2.3756744   0.13128444    11399.305     1000 
  738000   0.36828268   -2.9728456    0.5518716    -2.420974   0.14100139     11370.77     1000 
  740000   0.36448457   -2.9379715   0.54618013   -2.3917914   0.13496062    11428.936     1000 
  742000   0.37007817   -2.9534667   0.55456214   -2.3989046   0.12724192    11476.579     1000 
  744000   0.35755278   -2.9598544   0.53579284   -2.4240615   0.13683697    11322.971     1000 
  746000   0.36159183   -2.9707461   0.54184535   -2.4289008   0.12717655    11432.462     1000 
  748000   0.38174863   -2.9664994   0.57205033    -2.394449    0.1242774    11478.688     1000 
  750000   0.36319906   -2.9320696   0.54425379   -2.3878158   0.13620885    11427.145     1000 
  752000   0.36453617   -2.9185347   0.54625746   -2.3722772   0.13512248    11398.355     1000 
  754000   0.36972241   -2.9615839   0.55402904   -2.4075549   0.13373514    11408.991     1000 
  756000   0.39325532   -2.9345915    0.5892931   -2.3452984   0.12486638    11406.184     1000 
  758000   0.37393197    -2.926149   0.56033705    -2.365812   0.13879599    11356.223     1000 
  760000   0.37467636   -2.8971561   0.56145253   -2.3357035    0.1263831    11267.084     1000 
  762000    0.3645065   -2.9179024   0.54621298   -2.3716894   0.12521104    11382.781     1000 
  764000   0.36899668   -2.9382678   0.55294153   -2.3853263   0.11801111    11413.416     1000 
  766000   0.36211868   -2.9205763   0.54263484   -2.3779414   0.12452476    11355.188     1000 
  768000   0.37009366   -2.9437349   0.55458534   -2.3891496   0.13462671    11340.939     1000 
  770000   0.37468794   -2.9684929   0.56146988    -2.407023    0.1233585    11503.752     1000 
  772000   0.36354747   -2.9597199   0.54477589    -2.414944   0.12909881    11384.302     1000 
  774000   0.35951391   -2.9800273   0.53873159   -2.4412957   0.12748746    11472.393     1000 
  776000   0.38390068   -2.9611304   0.57527516   -2.3858552   0.13227817    11423.284     1000 
  778000   0.35732701   -2.9311837   0.53545453   -2.3957291   0.12326019    11473.863     1000 
  780000   0.37110027   -2.9584502   0.55609375   -2.4023564   0.13354529    11421.221     1000 
  782000   0.37652568   -2.9235048   0.56422373   -2.3592811   0.13516722    11348.689     1000 
  784000   0.36716932   -2.9351839   0.55020323   -2.3849807   0.13821946    11339.989     1000 
  786000   0.37166889   -2.9379653   0.55694584   -2.3810194    0.1169828    11518.937     1000 
  788000   0.36823628   -2.9695457   0.55180206   -2.4177437   0.11910187    11541.232     1000 
  790000   0.37983647   -2.9582277   0.56918496   -2.3890427    0.1289066    11339.039     1000 
  792000   0.35641667   -2.9281417   0.53409037   -2.3940514   0.13174686    11393.736     1000 
  794000   0.37929422   -2.9390772   0.56837239   -2.3707048   0.13819479    11338.663     1000 
  796000   0.37257021   -2.9423884   0.55829646    -2.384092   0.13497148    11412.206     1000 
  798000   0.39486845     -2.94434   0.59171037   -2.3526296   0.13611618      11320.5     1000 
  800000   0.37890299   -2.9047458   0.56778613   -2.3369597    0.1395933    11299.397     1000 
  802000   0.36811484    -2.889664   0.55162009   -2.3380439   0.13774584    11379.481     1000 
  804000   0.38420889   -2.9909913   0.57573702   -2.4152543    0.1377953    11402.827     1000 
  806000   0.35485061   -2.9447805   0.53174365   -2.4130368   0.14159939     11311.41     1000 
  808000   0.36643971   -2.9791134   0.54910991   -2.4300035      0.13567    11407.524     1000 
  810000   0.36691302   -2.9530595   0.54981916   -2.4032403   0.13433772    11409.157     1000 
  812000   0.35878297    -2.946647   0.53763628   -2.4090107    0.1290274    11410.474     1000 
  814000   0.35513412   -2.9611375   0.53216848    -2.428969   0.12049495    11490.928     1000 
  816000   0.37042584    -2.931672   0.55508312   -2.3765888     0.122456     11403.53     1000 
  818000   0.36888736   -2.9077755   0.55277771   -2.3549978   0.12727458    11405.438     1000 
  820000   0.36319389   -2.9775198   0.54424605   -2.4332737    0.1264633    11468.118     1000 
  822000   0.36818334   -2.9842877   0.55172274    -2.432565    0.1199485     11535.33     1000 
  824000   0.37848672   -2.9270801   0.56716235   -2.3599178   0.13192218    11402.064     1000 
  826000   0.36765922   -2.9380872   0.55093734   -2.3871499   0.12634714    11455.575     1000 
  828000   0.35898361   -2.9700486   0.53793695   -2.4321117   0.13026892    11385.761     1000 
  830000   0.36351567   -2.9590562   0.54472822    -2.414328   0.11743635    11449.085     1000 
  832000   0.35891984   -2.9124989   0.53784138   -2.3746576    0.1435827    11360.386     1000 
  834000   0.36271564   -2.9129615   0.54352939   -2.3694322   0.13571262    11420.639     1000 
  836000   0.37404186   -2.9503849   0.56050172   -2.3898831   0.14281054    11411.786     1000 
  838000    0.3787515   -2.9472633   0.56755913   -2.3797042   0.11976488    11532.498     1000 
  840000   0.37315715   -2.9235135   0.55917599   -2.3643375   0.13413711    11395.782     1000 
  842000   0.38179834   -2.9342416   0.57212482   -2.3621168   0.12452229    11520.056     1000 
  844000   0.38212151   -2.9768984   0.57260908   -2.4042893   0.14746107    11444.539     1000 
  846000   0.37907178   -2.9818687   0.56803907   -2.4138297   0.14160298    11320.082     1000 
  848000   0.37078634    -2.916009   0.55562334   -2.3603857   0.13954809    11323.801     1000 
  850000    0.3726492   -2.9594733   0.55841482   -2.4010584   0.13224134    11410.136     1000 
  852000    0.3891268   -2.9626669   0.58310651   -2.3795604   0.13721859    11360.285     1000 
  854000   0.37346196   -2.9601921   0.55963275   -2.4005594   0.12368618    11402.474     1000 
  856000    0.3701423   -2.9486438   0.55465824   -2.3939855   0.12398057    11416.802     1000 
  858000    0.3694407   -2.9627845    0.5536069   -2.4091776   0.13396102    11359.687     1000 
  860000   0.37225269   -2.9659284   0.55782066   -2.4081078   0.12123232    11468.832     1000 
  862000   0.36143135   -2.9647087   0.54160487   -2.4231038   0.12426845    11396.084     1000 
  864000   0.38070419   -2.8954492   0.57048523    -2.324964   0.13040895    11385.345     1000 
  866000     0.360784   -2.9395665   0.54063482   -2.3989317   0.12461268    11450.489     1000 
  868000   0.36746899    -2.932489   0.55065228   -2.3818368   0.13192694    11357.701     1000 
  870000   0.37750535   -2.9316215   0.56569177   -2.3659297   0.14638878    11267.508     1000 
  872000    0.3806414   -2.9274587   0.57039113   -2.3570676   0.13451826    11425.612     1000 
  874000   0.37770523   -2.9678315   0.56599129   -2.4018402   0.14111223    11418.303     1000 
  876000   0.37660435   -2.9698163   0.56434162   -2.4054747    0.1342574    11385.414     1000 
  878000   0.38313124   -2.9663995   0.57412217   -2.3922773   0.14015192    11340.847     1000 
  880000   0.36800015   -2.9526661   0.55144822   -2.4012179   0.13207684    11364.031     1000 
  882000   0.36046309   -2.9476609   0.54015395    -2.407507    0.1355145    11417.902     1000 
  884000   0.36271892   -2.9600965    0.5435343   -2.4165622    0.1313715    11334.312     1000 
  886000   0.37430557   -2.9679327   0.56089689   -2.4070358   0.13065336    11432.556     1000 
  888000   0.36888229   -2.9196844   0.55277011   -2.3669143     0.132594    11407.834     1000 
  890000    0.3756422   -2.9263964   0.56289983   -2.3634966   0.13354815    11341.759     1000 
  892000   0.37029054   -2.9176376   0.55488037   -2.3627572   0.13161685    11363.417     1000 
  894000    0.3806672   -2.9484735   0.57042979   -2.3780437   0.13565339    11338.849     1000 
  896000   0.38488534   -2.9457964   0.57675068   -2.3690457   0.13166042    11343.641     1000 
  898000   0.35143302   -2.9383208   0.52662237   -2.4116985   0.13277159    11362.112     1000 
  900000   0.36559341   -2.9413267   0.54784173   -2.3934849   0.12333609    11516.841     1000 
  902000   0.36333846   -2.9479003   0.54446268   -2.4034376   0.11880161    11516.743     1000 
  904000   0.38231041    -2.959464   0.57289215   -2.3865718   0.12897792    11460.804     1000 
  906000    0.3747695   -2.9816648    0.5615921   -2.4200727   0.11993902    11462.889     1000 
  908000   0.37938283   -2.9538861   0.56850518    -2.385381   0.14128748    11393.412     1000 
  910000   0.36403945   -2.9866917   0.54551312   -2.4411786   0.13347019    11467.625     1000 
  912000   0.37022061     -2.95256   0.55477558   -2.3977844   0.13994406    11370.432     1000 
  914000   0.35403256   -2.9858745    0.5305178   -2.4553567   0.11682801    11596.029     1000 
  916000   0.36612309   -2.9640433   0.54863546   -2.4154078   0.13350205    11445.475     1000 
  918000   0.35934642   -2.9675037   0.53848061   -2.4290231   0.13963735    11408.579     1000 
  920000    0.3518949    -2.961774   0.52731451   -2.4344595   0.13280196    11344.509     1000 
  922000    0.3783488   -2.9350325   0.56695568   -2.3680768    0.1348224    11364.031     1000 
  924000   0.36622188   -2.9202383   0.54878349   -2.3714548   0.12939566    11360.907     1000 
  926000   0.38045824   -2.9222072   0.57011667   -2.3520905     0.121834    11381.358     1000 
  928000   0.37962618   -2.9707828   0.56886984    -2.401913   0.13760131    11371.627     1000 
  930000   0.37780329   -2.9506877   0.56613823   -2.3845494   0.12437523    11486.295     1000 
  932000   0.36324531   -2.9224689   0.54432309   -2.3781458   0.10935715    11536.834     1000 
  934000   0.36242578   -2.9665978   0.54309503   -2.4235028   0.13112863    11426.491     1000 
  936000   0.35680352   -2.9319157   0.53467008   -2.3972456   0.13160551    11459.808     1000 
  938000   0.37549824   -2.9494115   0.56268411   -2.3867274   0.13849395     11383.18     1000 
  940000   0.37798656   -2.9746806   0.56641286   -2.4082678   0.12441471    11397.343     1000 
  942000    0.3651769   -2.9662712   0.54721758   -2.4190536   0.14733083    11352.735     1000 
  944000   0.37565776   -2.9553746   0.56292315   -2.3924514   0.12033402    11386.471     1000 
  946000   0.35756166   -2.9627141   0.53580615    -2.426908   0.10944045    11513.762     1000 
  948000   0.36416561   -2.9850484   0.54570216   -2.4393462   0.12470698    11416.112     1000 
  950000   0.36149039   -2.9940042   0.54169335   -2.4523108   0.11294861    11495.446     1000 
  952000   0.37003084   -2.9617287   0.55449121   -2.4072375    0.1430067    11403.491     1000 
  954000   0.38063137   -2.9125085   0.57037611   -2.3421324   0.13767381    11374.148     1000 
  956000   0.37742162   -2.8876096    0.5655663   -2.3220433   0.13115018    11495.778     1000 
  958000   0.37451722   -2.9480005   0.56121406   -2.3867864   0.13283159    11439.643     1000 
  960000   0.36633762   -2.9314092   0.54895693   -2.3824523   0.12950864    11396.828     1000 
  962000   0.38442449   -2.9916092   0.57606011   -2.4155491   0.13122328    11440.691     1000 
  964000   0.37434661    -2.977041   0.56095839   -2.4160826   0.12756735    11479.515     1000 
  966000   0.37771971   -2.9417531   0.56601298   -2.3757401   0.12589931    11405.056     1000 
  968000   0.37621549   -2.9624505   0.56375891   -2.3986916   0.12960886    11444.833     1000 
  970000   0.37398521    -2.973678   0.56041684   -2.4132611   0.13376938    11372.756     1000 
  972000   0.37446905   -2.9565267   0.56114187   -2.3953849   0.10868533    11614.738     1000 
  974000    0.3620171   -2.9808592   0.54248262   -2.4383766   0.12837668     11477.08     1000 
  976000   0.37240852   -2.9208587   0.55805416   -2.3628046   0.13554517    11351.634     1000 
  978000   0.36479284   -2.9758881   0.54664207    -2.429246   0.12232218    11480.856     1000 
  980000    0.3734218   -2.9425915   0.55957257    -2.383019   0.13629445    11334.173     1000 
  982000   0.36255984   -2.8958772   0.54329592   -2.3525813   0.14205999    11366.146     1000 
  984000   0.37362059   -2.9461865   0.55987045    -2.386316   0.11856097    11568.356     1000 
  986000   0.36319019   -2.9340144   0.54424051   -2.3897739   0.13490365    11441.378     1000 
  988000   0.38158944   -2.9311939   0.57181178   -2.3593821   0.13440035    11380.566     1000 
  990000   0.38793197   -2.9673122   0.58131606   -2.3859961   0.13388046    11497.787     1000 
  992000   0.35355099   -3.0022417   0.52979616   -2.4724455   0.12117277    11508.259     1000 
  994000    0.3672028   -2.9377011    0.5502534   -2.3874477   0.12111793    11491.998     1000 
  996000   0.35900234   -2.9489103   0.53796501   -2.4109453   0.11942467    11446.574     1000 
  998000   0.36238523   -2.9316571   0.54303427   -2.3886228   0.11564112    11537.907     1000 
 1000000   0.36502927   -2.9282076   0.54699636   -2.3812113   0.14116021    11314.802     1000 
 1002000   0.35689466   -2.9339596   0.53480664    -2.399153   0.12743039    11414.547     1000 
 1004000   0.37413035   -2.9594974   0.56063433    -2.398863   0.12103045    11447.407     1000 
 1006000   0.37059251   -2.9591041   0.55533288   -2.4037712   0.13973256    11419.514     1000 
 1008000   0.35499046   -2.9684311    0.5319532   -2.4364779   0.13277076    11400.582     1000 
 1010000   0.37412908   -2.9463072   0.56063242   -2.3856748    0.1223951    11455.301     1000 
 1012000   0.36920015   -2.9207769   0.55324643   -2.3675305   0.13164044    11325.875     1000 
 1014000   0.37735277   -2.9642659   0.56546312   -2.3988027   0.13190486    11381.562     1000 
 1016000   0.35934572   -2.9098067   0.53847956   -2.3713271   0.12843056    11417.994     1000 
 1018000   0.36646222   -2.9207131   0.54914363   -2.3715695   0.12550013    11415.228     1000 
 1020000   0.37815039   -2.9753377   0.56665837   -2.4086793   0.11905384    11514.166     1000 
 1022000   0.36856291   -2.9502394   0.55229151   -2.3979479   0.13273005    11446.162     1000 
 1024000    0.3763014   -3.0058707   0.56388765    -2.441983   0.13445063    11578.688     1000 
 1026000   0.37072519   -2.9568836   0.55553169   -2.4013519   0.12040434    11524.122     1000 
 1028000   0.37608159   -2.9471052   0.56355827    -2.383547   0.13416602    11425.267     1000 
 1030000   0.38467068   -2.9564707   0.57642901   -2.3800417   0.11508992    11541.851     1000 
 1032000   0.36402752   -2.9889682   0.54549523    -2.443473   0.11778923    11385.476     1000 
 1034000   0.37973945   -2.9156918   0.56903957   -2.3466522   0.13384581    11433.471     1000 
 1036000   0.36288992   -2.9789629   0.54379054   -2.4351723   0.11915417     11444.22     1000 
 1038000    0.3766641   -2.9433314   0.56443115   -2.3789003   0.12797165      11364.1     1000 
 1040000   0.37599276   -2.9369083   0.56342516   -2.3734832   0.14636555    11362.037     1000 
 1042000   0.37376115    -2.965942   0.56008109   -2.4058609   0.14423691    11403.532     1000 
 1044000   0.37006561   -2.9107021   0.55454332   -2.3561588   0.13243007    11359.362     1000 
 1046000   0.37888391   -2.9693841   0.56775754   -2.4016266   0.14286901    11406.525     1000 
 1048000   0.37989922   -2.9287295   0.56927897   -2.3594505   0.12599829    11394.242     1000 
 1050000     0.382312   -2.9925387   0.57289454   -2.4196441   0.13003216    11513.755     1000 
 1052000   0.37388133   -2.9524861   0.56026117    -2.392225   0.11510224    11621.772     1000 
 1054000   0.39319417   -2.9509681   0.58920146   -2.3617666   0.12587209    11355.548     1000 
 1056000   0.36985864   -2.9046797   0.55423317   -2.3504465   0.13590921    11265.732     1000 
 1058000   0.37725026   -2.9514217   0.56530951   -2.3861122   0.13827717    11380.065     1000 
 1060000   0.37972723   -2.9242519   0.56902125   -2.3552307   0.13392789    11332.469     1000 
 1062000   0.36468006    -2.891612   0.54647306   -2.3451389   0.12508884    11325.008     1000 
 1064000   0.35689737   -2.9517607   0.53481071     -2.41695   0.13055919     11384.92     1000 
 1066000    0.3728572   -2.9435545   0.55872651    -2.384828   0.14506392    11337.547     1000 
 1068000   0.35553367    -2.960755    0.5327672   -2.4279878   0.12319209    11475.274     1000 
 1070000   0.36838912   -2.9073917    0.5520311   -2.3553606   0.15107712    11211.288     1000 
 1072000   0.37282937   -2.9274949   0.55868481   -2.3688101    0.1367213    11373.333     1000 
 1074000   0.35450644    -2.921135   0.53122791   -2.3899071    0.1276322     11436.04     1000 
 1076000   0.36613881   -2.9360271   0.54865901   -2.3873681   0.11933288    11445.571     1000 
 1078000   0.35072509   -2.9704617   0.52556155   -2.4449001   0.12928753      11470.4     1000 
 1080000   0.36727848   -2.9130424    0.5503668   -2.3626756   0.13134071    11461.092     1000 
 1082000   0.38764771   -2.9348192   0.58089009   -2.3539291   0.14726682    11371.753     1000 
 1084000   0.36463088   -2.9472828   0.54639937   -2.4008834   0.12164541    11536.026     1000 
 1086000   0.38556803   -2.9054076    0.5777737   -2.3276339   0.15360344    11222.447     1000 
 1088000   0.36669014   -2.9121512   0.54948518    -2.362666   0.14276322    11247.571     1000 
 1090000   0.38314097   -2.9333261   0.57413674   -2.3591893   0.12461218    11428.209     1000 
 1092000   0.36736279   -2.9537456   0.55049314   -2.4032525   0.12509914    11458.564     1000 
 1094000   0.35499759   -2.9408789   0.53196389    -2.408915   0.12195265     11503.73     1000 
 1096000   0.36660572    -2.948042   0.54935867   -2.3986834   0.13486938    11317.579     1000 
 1098000   0.39123857    -2.960838   0.58627099    -2.374567   0.13058746    11379.318     1000 
 1100000   0.36885611   -2.9685664   0.55273088   -2.4158356   0.12401346    11450.391     1000 
 1102000   0.35809703   -3.0028481   0.53660841   -2.4662397   0.12772939    11430.567     1000 
 1104000   0.36196728   -2.9744703   0.54240797   -2.4320623    0.1318835    11348.178     1000 
 1106000   0.37486181   -2.9980993   0.56173042   -2.4363689   0.11171519     11656.78     1000 
 1108000   0.35961393   -2.9486456   0.53888148   -2.4097641   0.12666213    11480.611     1000 
 1110000    0.3768663   -2.9380239   0.56473416   -2.3732897   0.12891468    11341.831     1000 
 1112000   0.38503849   -3.0116878   0.57698017   -2.4347076   0.11869658    11575.206     1000 
 1114000   0.36798461   -2.9411089   0.55142493    -2.389684   0.12856732    11395.374     1000 
 1116000   0.37740596   -2.9802002   0.56554283   -2.4146574   0.12874356    11410.502     1000 
 1118000    0.3842386   -2.9177499   0.57578154   -2.3419684   0.13892506    11380.192     1000 
 1120000   0.36354158    -2.884036   0.54476706    -2.339269   0.12965384    11337.776     1000 
 1122000   0.36813408   -2.9684019   0.55164892    -2.416753   0.13001801    11335.286     1000 
 1124000   0.35522385   -2.9572177   0.53230294   -2.4249148   0.13802297    11389.133     1000 
 1126000   0.36079518   -2.9619603   0.54065158   -2.4213088   0.11488329    11526.979     1000 
 1128000   0.36690951   -2.9394551   0.54981389   -2.3896412   0.13643769    11415.082     1000 
 1130000    0.3747713   -2.9468635   0.56159479   -2.3852687   0.13595224    11364.629     1000 
 1132000    0.3693354   -2.9570494   0.55344909   -2.4036003   0.12930654    11466.741     1000 
 1134000   0.37251578   -2.9814841   0.55821489   -2.4232692   0.12193403     11443.73     1000 
 1136000   0.36433677   -2.9471389   0.54595865   -2.4011803   0.12757049    11474.853     1000 
 1138000   0.36580058    -2.958254   0.54815217   -2.4101018   0.12524417     11477.18     1000 
 1140000   0.37105293   -2.9697848   0.55602282    -2.413762   0.13053876    11436.353     1000 
 1142000   0.37686339   -2.9616229   0.56472978   -2.3968932    0.1260054    11469.885     1000 
 1144000   0.37491276   -2.9309187   0.56180676    -2.369112   0.12266518    11518.746     1000 
 1146000   0.37678146   -2.9379918   0.56460702   -2.3733848   0.15201509    11244.674     1000 
 1148000    0.3739736   -2.9452589   0.56039944   -2.3848595   0.12529444    11391.876     1000 
 1150000    0.3594206   -2.9512187   0.53859177   -2.4126269   0.12666682    11462.733     1000 
 1152000    0.3877275   -2.9450424   0.58100966   -2.3640327   0.13148822    11359.981     1000 
 1154000   0.38178948   -2.9365559   0.57211154   -2.3644444   0.12887915    11409.163     1000 
 1156000   0.37614299    -2.954041   0.56365027   -2.3903907   0.13537938     11454.31     1000 
 1158000   0.34816996   -2.9362093   0.52173269   -2.4144766   0.12530875    11334.848     1000 
 1160000   0.38232707   -2.9396868   0.57291712   -2.3667697   0.14000052    11337.861     1000 
 1162000   0.36142155   -2.9236389   0.54159019   -2.3820487   0.12541217    11442.522     1000 
 1164000    0.3748691   -2.9787932   0.56174135   -2.4170519   0.13240635    11455.111     1000 
 1166000   0.37692879   -2.9440117   0.56482779   -2.3791839   0.13485707    11397.646     1000 
 1168000   0.38197789   -2.9949918   0.57239387   -2.4225979   0.11672006     11630.37     1000 
 1170000   0.36147776   -2.9291657   0.54167442   -2.3874913   0.13497363    11334.459     1000 
 1172000   0.36266924   -2.9897304   0.54345985   -2.4462705   0.11117728    11696.268     1000 
 1174000   0.36675752   -2.9279708   0.54958614   -2.3783847   0.13290589    11371.891     1000 
 1176000   0.37319248   -2.9564512   0.55922893   -2.3972222     0.121141     11505.33     1000 
 1178000   0.38622364   -2.9738505   0.57875613   -2.3950944   0.12056287    11502.575     1000 
 1180000   0.38368052   -2.9842344   0.57494526   -2.4092892   0.13038001    11405.062     1000 
 1182000   0.36889865   -2.9202355   0.55279463   -2.3674409   0.12734209    11416.465     1000 
 1184000   0.36597958   -2.9498335   0.54842041   -2.4014131   0.13314779    11455.517     1000 
 1186000   0.37201984   -2.9448098   0.55747173   -2.3873381   0.13247928    11420.971     1000 
 1188000   0.34292503   -2.9099406   0.51387316   -2.3960674    0.1452498    11310.971     1000 
 1190000   0.39032275   -2.9286204   0.58489865   -2.3437218   0.12640328    11399.061     1000 
 1192000   0.37438373   -2.9671404   0.56101401   -2.4061264   0.12796756    11443.872     1000 
 1194000   0.35975689   -2.9589971    0.5390957   -2.4199014    0.1221136    11430.886     1000 
 1196000   0.38191728   -2.9845506   0.57230305   -2.4122475   0.13990158     11385.92     1000 
 1198000   0.37495543    -2.965902   0.56187071   -2.4040313   0.12293155    11430.826     1000 
 1200000    0.3639364   -2.9369032    0.5453587   -2.3915445   0.12777252    11418.915     1000 
 1202000   0.38785477   -2.9579015   0.58120037   -2.3767012   0.13090488    11357.223     1000 
 1204000   0.37233429   -2.9503793   0.55794293   -2.3924364    0.1283553    11434.598     1000 
 1206000   0.36990315    -2.945197   0.55429986   -2.3908972   0.12195466    11334.385     1000 
 1208000   0.37350132   -2.9511747   0.55969173    -2.391483   0.13372021    11455.381     1000 
 1210000   0.37553957   -2.9672277   0.56274605   -2.4044817   0.13014857    11413.197     1000 
 1212000   0.37317733    -2.935694   0.55920623   -2.3764878   0.12112369    11426.347     1000 
 1214000    0.3783061   -2.9405922   0.56689169   -2.3737005   0.12511984    11479.343     1000 
 1216000   0.36557385   -2.9255355   0.54781241   -2.3777231   0.12530537     11368.66     1000 
 1218000   0.36596171   -2.9424512   0.54839363   -2.3940576   0.11177097    11398.425     1000 
 1220000   0.37772579   -2.9280666   0.56602209   -2.3620445   0.13853841    11384.586     1000 
 1222000   0.36777586   -2.9146345   0.55111212   -2.3635224   0.13074194     11422.25     1000 
 1224000   0.36861604   -2.9622418   0.55237114   -2.4098707   0.13734051    11365.981     1000 
 1226000   0.35876746   -2.9791898   0.53761304   -2.4415767   0.12203704    11500.119     1000 
 1228000   0.36189433     -2.93784   0.54229866   -2.3955414   0.13001889    11447.429     1000 
 1230000   0.37376093   -2.9398597   0.56008075   -2.3797789   0.12892918    11375.291     1000 
 1232000   0.36890297   -2.9778745    0.5528011   -2.4250734   0.12308378    11519.964     1000 
 1234000   0.36799244   -2.9485935   0.55143667   -2.3971569   0.13649424    11423.558     1000 
 1236000   0.35944072   -2.9344182   0.53862192   -2.3957962   0.12952005     11447.47     1000 
 1238000   0.37635582   -2.9474089    0.5639692   -2.3834397   0.12739434    11432.152     1000 
 1240000   0.37805741   -2.9598777   0.56651903   -2.3933587   0.13347206     11397.66     1000 
 1242000   0.36457855   -2.9690842   0.54632095   -2.4227632   0.11628944     11540.52     1000 
 1244000   0.35902103   -2.9648929   0.53799301   -2.4268999    0.1108768    11619.256     1000 
 1246000   0.36902233   -2.9383537   0.55297997   -2.3853738   0.12981845    11402.987     1000 
 1248000    0.3795951    -2.904286   0.56882325   -2.3354628   0.10324712    11486.574     1000 
 1250000   0.37179271   -2.9541756   0.55713137   -2.3970442   0.12305287    11477.705     1000 
 1252000   0.37168863   -2.9371075   0.55697542    -2.380132    0.1234824    11499.035     1000 
 1254000   0.38381075   -2.9413903   0.57514041   -2.3662499   0.13562958    11380.893     1000 
 1256000   0.35802549   -2.9655382    0.5365012    -2.429037   0.13437666    11375.959     1000 
 1258000   0.36771669   -2.9656294   0.55102346    -2.414606   0.12798801    11402.368     1000 
 1260000   0.35852875    -2.943863   0.53725534   -2.4066077   0.12513723    11445.594     1000 
 1262000    0.3906845   -2.9146061   0.58544072   -2.3291653   0.13488558    11403.931     1000 
 1264000   0.36515045   -2.9605504   0.54717795   -2.4133725   0.13202936    11369.963     1000 
 1266000   0.37366929   -2.9305216   0.55994344   -2.3705782   0.12824991    11463.056     1000 
 1268000   0.39190441   -2.9521101   0.58726876   -2.3648413   0.12929151    11510.906     1000 
 1270000   0.36641426   -2.9642161   0.54907177   -2.4151443   0.12530064    11450.385     1000 
 1272000   0.37131432   -2.9173379   0.55641451   -2.3609234   0.14146264    11395.534     1000 
 1274000   0.37253095   -2.9517042   0.55823764   -2.3934666   0.14282193    11316.166     1000 
 1276000   0.37793334   -2.9851196   0.56633312   -2.4187865   0.11922203    11420.284     1000 
 1278000   0.36642785   -2.9518131   0.54909213   -2.4027209   0.12134424    11458.125     1000 
 1280000   0.36229404   -2.9555302   0.54289761   -2.4126326   0.12857152    11446.745     1000 
 1282000   0.35636082   -2.9497708   0.53400668   -2.4157641   0.12970399    11430.018     1000 
 1284000   0.37543125   -2.9257425   0.56258373   -2.3631588   0.13080111    11424.809     1000 
 1286000   0.35948576   -2.9377024    0.5386894    -2.399013   0.14247049    11190.511     1000 
 1288000   0.36282227   -2.9475233   0.54368918   -2.4038342   0.12200424    11378.242     1000 
 1290000   0.35447877    -2.987386   0.53118643   -2.4561996   0.13909214    11341.164     1000 
 1292000   0.37567457   -2.9260594   0.56294834   -2.3631111   0.11651692    11643.717     1000 
 1294000   0.38778488   -3.0090548   0.58109564   -2.4279592   0.14022652    11371.212     1000 
 1296000   0.38269286   -2.9586722   0.57346525    -2.385207   0.12904596    11473.441     1000 
 1298000    0.3667458   -2.9167219   0.54956859   -2.3671533   0.13461113    11484.328     1000 
 1300000   0.36770418   -2.9522992   0.55100471   -2.4012944   0.12068259    11559.233     1000 
 1302000   0.35176902   -2.9369844   0.52712588   -2.4098586   0.14056774    11366.841     1000 
 1304000   0.37169043   -2.9557893   0.55697811   -2.3988112   0.12867474    11410.982     1000 
 1306000   0.35416963   -2.9530585    0.5307232   -2.4223353   0.13759343    11371.362     1000 
 1308000    0.3625502   -2.9239958   0.54328147   -2.3807143   0.12734664    11346.964     1000 
 1310000   0.36455952   -2.8870412   0.54629245   -2.3407488   0.12154477    11418.745     1000 
 1312000   0.38272195   -2.9174856   0.57350884   -2.3439768   0.12522096    11458.096     1000 
 1314000   0.38603025   -2.9986363   0.57846632     -2.42017   0.12136954    11491.589     1000 
 1316000   0.38092487   -2.9515325   0.57081592   -2.3807165   0.12188035    11467.427     1000 
 1318000   0.37783383   -2.9287759     0.566184   -2.3625919   0.12380283    11408.256     1000 
 1320000   0.35467009   -2.9363992   0.53147313    -2.404926   0.12145282      11480.2     1000 
 1322000   0.36899212   -2.9461133    0.5529347   -2.3931786   0.11823963    11432.284     1000 
 1324000   0.37043802   -2.9896154   0.55510138    -2.434514   0.12969165    11506.043     1000 
 1326000   0.37831413   -2.9238006   0.56690373   -2.3568968   0.12539974    11336.048     1000 
 1328000   0.38788782   -2.9481916    0.5812499   -2.3669417   0.13711127    11376.902     1000 
 1330000   0.36938291    -2.924633   0.55352029   -2.3711127   0.12192592    11511.003     1000 
 1332000   0.38077842   -2.9738965   0.57059646      -2.4033   0.12271037    11467.458     1000 
 1334000   0.37129356   -2.9458694   0.55638339   -2.3894861   0.13454354    11370.041     1000 
 1336000   0.36281601   -2.9767432   0.54367979   -2.4330634   0.11452149    11504.977     1000 
 1338000   0.38393139   -2.9856752   0.57532118    -2.410354   0.12926058    11417.099     1000 
 1340000   0.37463173   -2.9174567   0.56138565   -2.3560711   0.13244956     11324.97     1000 
 1342000   0.36054208   -2.9440231    0.5402723   -2.4037508    0.1167365    11514.656     1000 
 1344000   0.36806849   -2.9716874   0.55155064   -2.4201368   0.12744926    11498.753     1000 
 1346000   0.36664987    -2.880735   0.54942483   -2.3313101   0.13134708    11410.971     1000 
 1348000   0.36955554   -2.9010343   0.55377898   -2.3472553   0.11751046    11530.164     1000 
 1350000   0.36762649   -2.9133548   0.55088829   -2.3624665   0.13190252    11413.309     1000 
 1352000   0.36165837   -2.9825016   0.54194506   -2.4405565   0.12717651    11477.587     1000 
 1354000   0.35720664   -2.9673585   0.53527415   -2.4320843   0.11979008     11494.02     1000 
 1356000   0.37952033    -2.943457   0.56871122   -2.3747457   0.13406809    11388.115     1000 
 1358000   0.36671956   -2.9155543   0.54952927   -2.3660251   0.13842984    11432.279     1000 
 1360000    0.3793995    -2.910646   0.56853015   -2.3421159   0.11177695    11450.262     1000 
 1362000   0.37170246    -2.977503   0.55699613   -2.4205069   0.11770852    11522.317     1000 
 1364000   0.38300075   -2.9554362   0.57392663   -2.3815096   0.12702999    11452.099     1000 
 1366000   0.35666992   -2.9540648   0.53446988   -2.4195949    0.1415859     11390.92     1000 
 1368000   0.36775231   -2.9792148   0.55107684    -2.428138    0.1308956    11387.804     1000 
 1370000   0.36248531   -2.9569353   0.54318423    -2.413751   0.12628695    11413.974     1000 
 1372000   0.38006362   -2.9488983   0.56952534    -2.379373   0.14203666    11465.566     1000 
 1374000   0.38151526   -2.9492106   0.57170062     -2.37751     0.131181    11337.272     1000 
 1376000    0.3706126   -2.9338144   0.55536298   -2.3784514   0.13952729    11317.914     1000 
 1378000    0.3668287    -2.920253   0.54969281   -2.3705602   0.14477813    11248.191     1000 
 1380000   0.35956791   -2.9686443   0.53881251   -2.4298318   0.12831857    11414.402     1000 
 1382000   0.37440404   -2.9576009   0.56104445   -2.3965564   0.13189855    11416.582     1000 
 1384000   0.36189635   -2.9277182   0.54230168   -2.3854165    0.1377921    11274.163     1000 
 1386000   0.37639755   -2.9973674   0.56403173   -2.4333356   0.12681582     11436.38     1000 
 1388000   0.38339534   -2.9572905   0.57451792   -2.3827726   0.13386144    11454.232     1000 
 1390000   0.37189695   -2.9064429   0.55728758   -2.3491553   0.12707202    11413.866     1000 
 1392000   0.37638917   -2.9278548   0.56401918   -2.3638357   0.13062096    11402.521     1000 
 1394000    0.3633048   -2.9905401   0.54441225   -2.4461279   0.12751621    11461.918     1000 
 1396000   0.37098025   -2.9407517   0.55591391   -2.3848378   0.12979676    11401.061     1000 
 1398000   0.36191948   -2.9299626   0.54233634   -2.3876262    0.1233734    11379.607     1000 
 1400000   0.34589952   -2.9127585   0.51833042    -2.394428   0.12122754    11421.974     1000 
 1402000    0.3785589   -2.9787898   0.56727051   -2.4115193   0.12759179    11582.569     1000 
 1404000   0.37587449   -2.9392473   0.56324793   -2.3759994   0.13248478    11441.522     1000 
 1406000   0.35319717    -2.945203   0.52926595   -2.4159371   0.12381211    11383.517     1000 
 1408000   0.37967543   -2.8877532   0.56894363   -2.3188095   0.14056667    11293.801     1000 
 1410000   0.36090299   -2.9520135   0.54081313   -2.4112004   0.14261317    11386.352     1000 
 1412000   0.38062527   -2.9575041   0.57036697   -2.3871371   0.10536429    11563.282     1000 
 1414000   0.36401584   -2.9685264   0.54547774   -2.4230486   0.12349418    11416.593     1000 
 1416000   0.37468566   -2.9679782   0.56146646   -2.4065118   0.13286843    11451.593     1000 
 1418000   0.37156238   -2.9336813   0.55678623    -2.376895   0.13925536    11391.718     1000 
 1420000   0.36874241    -2.956897   0.55256051   -2.4043365   0.13987538    11386.603     1000 
 1422000   0.36607295   -2.9246592   0.54856031   -2.3760989   0.12686633    11453.486     1000 
 1424000   0.35658666   -2.9508177   0.53434511   -2.4164726   0.12562828    11384.079     1000 
 1426000   0.36226444   -2.8882479   0.54285327   -2.3453947   0.11887043    11416.719     1000 
 1428000   0.36324689   -2.9447358   0.54432547   -2.4004104   0.12327182    11536.099     1000 
 1430000   0.36342904   -2.9829319   0.54459841   -2.4383335   0.12746497     11542.87     1000 
 1432000   0.37391622   -2.9820274   0.56031346   -2.4217139   0.13740889    11458.314     1000 
 1434000   0.37065419   -2.9423826    0.5554253   -2.3869573   0.13152038    11402.656     1000 
 1436000   0.38833625   -2.9623342   0.58192187   -2.3804123   0.13639829    11418.322     1000 
 1438000   0.38314676   -2.9508699   0.57414542   -2.3767245   0.12938731    11461.212     1000 
 1440000   0.38326108   -2.9816749   0.57431673   -2.4073582   0.12994754    11462.739     1000 
 1442000   0.37491142   -2.9586684   0.56180476   -2.3968636   0.12649019    11421.323     1000 
 1444000   0.36799909   -2.9924927   0.55144664    -2.441046   0.11785657    11542.127     1000 
 1446000   0.36040186   -2.9368827   0.54006219   -2.3968205   0.12814042    11453.396     1000 
 1448000   0.35304782   -2.9390579   0.52904216   -2.4100158   0.11942409    11442.418     1000 
 1450000   0.37524809   -2.9793172   0.56230926   -2.4170079   0.11828948    11444.076     1000 
 1452000   0.37401229   -2.9958809   0.56045741   -2.4354235   0.12148586    11422.042     1000 
 1454000   0.38290047   -2.9798521   0.57377635   -2.4060758   0.12227954    11441.142     1000 
 1456000   0.35937723   -2.9772612   0.53852678   -2.4387345     0.133726    11482.555     1000 
 1458000   0.38086972   -2.9999121   0.57073328   -2.4291788   0.13435799    11459.031     1000 
 1460000   0.37381755   -2.9402233   0.56016561   -2.3800577   0.12342406    11529.425     1000 
 1462000   0.36371324   -2.9352352   0.54502429   -2.3902109   0.13551086    11448.523     1000 
 1464000   0.36253137   -2.9679931   0.54325326   -2.4247398   0.12973906     11499.79     1000 
 1466000   0.37359953   -2.9221423   0.55983889   -2.3623034   0.12805065    11344.429     1000 
 1468000   0.38559624   -2.9407177   0.57781597   -2.3629018   0.12625653    11430.487     1000 
 1470000   0.36072665   -2.9502464   0.54054889   -2.4096975   0.13255487    11385.742     1000 
 1472000   0.37357482    -2.963609   0.55980186   -2.4038071   0.13394094    11426.401     1000 
 1474000   0.36625365   -2.9556367   0.54883109   -2.4068056   0.12194336    11413.988     1000 
 1476000   0.36394767   -2.9651866   0.54537558    -2.419811    0.1331737    11501.722     1000 
 1478000    0.3648672   -2.9351586   0.54675349   -2.3884051   0.12750893    11319.615     1000 
 1480000   0.37833991   -2.9714123   0.56694235   -2.4044699   0.12969145    11536.591     1000 
 1482000    0.3874516   -2.9977486   0.58059622   -2.4171523    0.1131985     11466.03     1000 
 1484000   0.38002924    -2.955257   0.56947382   -2.3857832   0.12859323     11406.47     1000 
 1486000   0.37306145   -2.9496799   0.55903258   -2.3906473   0.12569029    11484.878     1000 
 1488000   0.37562814   -2.9385642   0.56287876   -2.3756855   0.14096069    11258.755     1000 
 1490000     0.366156   -2.9431435   0.54868477   -2.3944587     0.121762    11442.897     1000 
 1492000   0.36812103   -2.9287416   0.55162937   -2.3771122   0.13663683    11388.651     1000 
 1494000   0.36031023   -2.9368725   0.53992487   -2.3969476    0.1306564    11421.325     1000 
 1496000   0.37300433    -2.927996   0.55894699    -2.369049   0.13310262    11318.723     1000 
 1498000   0.35633145   -2.9513082   0.53396268   -2.4173455   0.12743337    11449.026     1000 
 1500000   0.37827746   -2.9741093   0.56684877   -2.4072606   0.14183679    11399.822     1000 
 1502000   0.37158601   -2.9408631   0.55682163   -2.3840414   0.12871062    11314.657     1000 
 1504000   0.35544525   -2.9559709   0.53263471   -2.4233362   0.12462541    11504.633     1000 
 1506000   0.35635417   -2.9877662   0.53399672   -2.4537694   0.12213869    11423.747     1000 
 1508000   0.36564921   -2.9616482   0.54792534   -2.4137228   0.12858378    11386.075     1000 
 1510000   0.35510515   -2.9751322   0.53212506   -2.4430072   0.13084043    11449.079     1000 
 1512000   0.38986446   -2.8899668   0.58421189   -2.3057549   0.14041227    11340.705     1000 
 1514000   0.37798844   -2.9067766   0.56641568   -2.3403609   0.13725676    11327.208     1000 
 1516000   0.36438506   -2.9950086   0.54603101   -2.4489776   0.12673107    11512.128     1000 
 1518000     0.355797   -2.9653468   0.53316181    -2.432185   0.12121417    11452.381     1000 
 1520000   0.35787879   -2.9534774   0.53628137   -2.4171961    0.1239413    11440.776     1000 
 1522000   0.37819187    -2.930948   0.56672052   -2.3642275   0.13149337    11235.303     1000 
 1524000   0.36803266   -2.9427959   0.55149694   -2.3912989   0.11932935    11558.941     1000 
 1526000   0.35153699    -2.929382   0.52677818   -2.4026039   0.12840916    11511.747     1000 
 1528000   0.36744113   -2.9404864   0.55061053   -2.3898759   0.13668982    11370.408     1000 
 1530000   0.37801147   -2.9330451   0.56645019   -2.3665949   0.14961984    11402.496     1000 
 1532000   0.36014799    -2.941478   0.53968177   -2.4017963   0.12670793     11377.56     1000 
 1534000   0.37115142   -2.9288593    0.5561704   -2.3726889   0.12280342    11393.867     1000 
 1536000   0.37958266   -2.9699446   0.56880461     -2.40114   0.13246538    11458.042     1000 
 1538000   0.36531238   -2.9556151   0.54742061   -2.4081945   0.13529687    11369.764     1000 
 1540000   0.37139874   -2.8951192   0.55654101   -2.3385782   0.13611878     11377.05     1000 
 1542000   0.37784344   -2.9523686   0.56619839   -2.3861702   0.12919926    11399.684     1000 
 1544000    0.3800651   -2.9596747   0.56952755   -2.3901472   0.12835395    11490.078     1000 
 1546000   0.37365944    -2.963687   0.55992868   -2.4037583    0.1238912    11425.336     1000 
 1548000   0.36860394   -2.9429811     0.552353   -2.3906281     0.135358    11380.591     1000 
 1550000   0.35993437   -2.9262155   0.53936166   -2.3868539    0.1301971    11435.308     1000 
 1552000    0.3548127   -2.9177107   0.53168683   -2.3860239   0.13015315    11402.741     1000 
 1554000   0.36768228   -2.9494404    0.5509719   -2.3984685   0.11744863    11391.893     1000 
 1556000   0.35479797   -2.9600514   0.53166475   -2.4283867   0.14036957    11341.251     1000 
 1558000   0.38606368   -2.9290268   0.57851643   -2.3505104   0.13124756    11372.083     1000 
 1560000   0.37310047   -2.9433292   0.55909105   -2.3842381   0.11541046     11536.48     1000 
 1562000   0.37393986   -2.9252764   0.56034888   -2.3649275   0.12363808    11391.859     1000 
 1564000   0.35690239     -2.95428   0.53481822   -2.4194618   0.12220815    11466.214     1000 
 1566000   0.37015742   -2.9420767   0.55468089   -2.3873958   0.13840565    11301.262     1000 
 1568000   0.37143315   -2.9275791   0.55659258   -2.3709865    0.1211941     11467.03     1000 
 1570000    0.3739065   -2.9659865   0.56029889   -2.4056876   0.12685215    11524.118     1000 
 1572000   0.37509308   -2.9820635   0.56207699   -2.4199865   0.13363807    11324.926     1000 
 1574000   0.36964949   -2.9462433   0.55391976   -2.3923235   0.13900619    11370.859     1000 
 1576000   0.37752684   -2.9299973   0.56572397   -2.3642733   0.12184616    11477.105     1000 
 1578000   0.37545602   -3.0174244   0.56262085   -2.4548035    0.1411488    11455.041     1000 
 1580000   0.36708766   -2.9478817   0.55008086   -2.3978008   0.11969344    11432.219     1000 
 1582000   0.36482412   -2.9567858   0.54668895   -2.4100968   0.12258868    11550.886     1000 
 1584000   0.36533849   -2.9699937   0.54745972    -2.422534   0.12438697    11389.446     1000 
 1586000   0.35684334   -2.9392314   0.53472975   -2.4045017   0.12699845    11458.222     1000 
 1588000   0.37401926    -2.988307   0.56046785   -2.4278392   0.12973338    11540.565     1000 
[...]
 2614000   0.37562897   -2.9270344   0.56288001   -2.3641543    0.1305986    11494.354     1000 
 2616000   0.36719439   -2.9472236   0.55024079   -2.3969828   0.12838641    11427.049     1000 
 2618000   0.37958272   -2.9316283   0.56880471   -2.3628236   0.14662449    11367.074     1000 
 2620000   0.38219357   -2.9713528   0.57271707   -2.3986357   0.13241687    11466.921     1000 
 2622000   0.37254004   -2.9343916   0.55825125   -2.3761404   0.13396538    11383.204     1000 
 2624000   0.36403262   -2.9343838   0.54550288    -2.388881   0.13053106    11420.297     1000 
 2626000   0.37403442   -2.9405337   0.56049058   -2.3800431   0.12241582    11472.246     1000 
 2628000   0.35124222   -2.9570351   0.52633646   -2.4306987   0.13707595    11424.023     1000 
 2630000   0.34937092   -2.9453425   0.52353233   -2.4218102   0.11528614    11486.602     1000 
 2632000   0.37003664   -2.9409883    0.5544999   -2.3864884   0.13416583    11425.662     1000 
 2634000   0.38024485   -2.9549236   0.56979691   -2.3851267   0.11589408    11508.069     1000 
 2636000   0.36376666   -2.9397073   0.54510434   -2.3946029   0.13399799    11420.071     1000 
 2638000    0.3668594   -2.9004046   0.54973882   -2.3506658   0.11882465    11381.562     1000 
 2640000   0.37219117   -2.9593177   0.55772847   -2.4015893   0.14343513    11270.878     1000 
 2642000   0.35906787    -2.916465   0.53806321   -2.3784018   0.13833883    11312.675     1000 
 2644000     0.355377   -2.9367031   0.53253244   -2.4041707   0.11897728    11547.552     1000 
 2646000   0.36822619   -2.9018731   0.55178695   -2.3500861   0.11836425    11466.745     1000 
 2648000   0.36921342   -2.9264064   0.55326631   -2.3731401    0.1370728    11376.388     1000 
 2650000   0.36730908   -2.9381621   0.55041265   -2.3877495   0.13453185    11434.641     1000 
 2652000    0.3804217   -2.9311751   0.57006191   -2.3611132   0.12769461    11412.281     1000 
 2654000   0.35477873   -2.9416487   0.53163593   -2.4100128   0.13253769    11416.649     1000 
 2656000   0.36497085   -2.9675438   0.54690881    -2.420635   0.12851846    11467.386     1000 
 2658000   0.39073133   -2.9525472   0.58551089   -2.3670363   0.12254242    11483.583     1000 
 2660000   0.38583106   -2.9381112   0.57816785   -2.3599434   0.13039533     11468.91     1000 
 2662000   0.38700361   -2.9603834   0.57992491   -2.3804585   0.12680016    11478.133     1000 
 2664000   0.37537029   -2.9541155   0.56249238   -2.3916231   0.13692953    11439.604     1000 
 2666000   0.36106444   -2.9555626   0.54105507   -2.4145075   0.12980092    11357.139     1000 
 2668000   0.36922318   -2.9906616   0.55328094   -2.4373806   0.12610536    11487.034     1000 
 2670000   0.37360326   -2.9259066   0.55984449   -2.3660621   0.14292831     11403.94     1000 
 2672000   0.36752473   -2.9092087    0.5507358   -2.3584729   0.12846967    11429.957     1000 
 2674000   0.36998011   -2.9142803    0.5544152   -2.3598651   0.13919753    11374.217     1000 
 2676000   0.35688179   -2.9772253   0.53478736   -2.4424379   0.13765842    11366.345     1000 
 2678000    0.3639938   -2.9597955    0.5454447   -2.4143508   0.12506364    11539.463     1000 
 2680000   0.38718157   -2.9586076   0.58019159    -2.378416   0.13748295    11423.909     1000 
 2682000   0.37927933   -2.9656108   0.56835007   -2.3972607   0.13720821    11416.491     1000 
 2684000   0.37894818   -2.8952959   0.56785384   -2.3274421   0.13869568    11322.639     1000 
 2686000   0.38274224   -2.8964945   0.57353925   -2.3229552   0.12376022    11479.387     1000 
 2688000     0.366738    -2.940852   0.54955689   -2.3912951    0.1289705    11455.253     1000 
 2690000   0.37705976   -2.9112299   0.56502405   -2.3462058   0.13374941    11363.506     1000 
 2692000   0.36583706   -2.9283656   0.54820684   -2.3801587    0.1372758    11450.271     1000 
 2694000   0.35403505   -2.9300477   0.53052152   -2.3995262   0.14626278    11296.555     1000 
 2696000   0.36118323   -2.9947987   0.54123307   -2.4535657   0.11705606    11606.488     1000 
 2698000   0.37530884   -2.9607644   0.56240029   -2.3983641   0.12279641    11464.182     1000 
 2700000   0.37580063   -2.8949716   0.56313724   -2.3318344   0.13033619    11356.165     1000 
 2702000   0.36322801   -2.9628706   0.54429717   -2.4185734   0.12221674    11518.313     1000 
 2704000   0.36365855   -2.9739066   0.54494234   -2.4289643   0.12839569    11446.458     1000 
 2706000     0.379357   -2.9459496   0.56846646   -2.3774831   0.12547421    11410.783     1000 
 2708000   0.36756207   -2.9435503   0.55079175   -2.3927586   0.13227201    11335.493     1000 
 2710000   0.36564108   -2.9464953   0.54791316   -2.3985822   0.12645773    11452.721     1000 
 2712000   0.37991938   -2.9473409   0.56930918   -2.3780317   0.13202491    11361.465     1000 
 2714000   0.36630351   -2.9494361   0.54890581   -2.4005303   0.12567194    11438.785     1000 
 2716000   0.35912675    -2.953497   0.53815144   -2.4153456   0.12192372    11483.761     1000 
 2718000   0.36611028   -2.9376263   0.54861625     -2.38901   0.12876433     11529.84     1000 
 2720000   0.36151291   -2.9410775    0.5417271   -2.3993504   0.12551141    11368.885     1000 
 2722000   0.38129733   -2.9645446   0.57137405   -2.3931706   0.12097204    11390.924     1000 
 2724000   0.36220332   -2.9419955   0.54276168   -2.3992338    0.1247072    11453.036     1000 
 2726000   0.37501977   -2.9261374   0.56196713   -2.3641703   0.13152864    11410.735     1000 
 2728000   0.35280352   -2.9800058   0.52867608   -2.4513297   0.13061464    11379.684     1000 
 2730000   0.36289018   -2.9455194   0.54379093   -2.4017285   0.13209449    11446.809     1000 
 2732000   0.37015446   -2.9159525   0.55467646    -2.361276   0.11925834    11375.268     1000 
 2734000   0.36741831   -2.9359605   0.55057633   -2.3853842   0.11734836     11590.75     1000 
 2736000   0.37093186   -2.9505674   0.55584139    -2.394726   0.13430274    11430.303     1000 
 2738000   0.35844539   -2.9606304   0.53713042      -2.4235   0.11849591    11409.246     1000 
 2740000   0.37241226   -2.9408522   0.55805977   -2.3827925   0.13968902    11317.675     1000 
 2742000    0.3656818   -2.9361674   0.54797417   -2.3881933   0.12463381    11439.976     1000 
 2744000   0.35495937   -2.9100321   0.53190661   -2.3781255   0.12105354    11423.961     1000 
 2746000   0.38361844   -2.9726345   0.57485224   -2.3977822   0.14573456    11308.013     1000 
 2748000   0.36774393    -2.968028   0.55106428   -2.4169637   0.11844878    11516.518     1000 
 2750000   0.36639189   -2.9096329   0.54903825   -2.3605947   0.12039018    11491.932     1000 
 2752000   0.35453093   -2.9540853    0.5312646   -2.4228207    0.1187062    11480.842     1000 
 2754000   0.37530365   -2.9125286   0.56239252    -2.350136   0.14614718    11317.254     1000 
 2756000   0.37878892   -2.9475891   0.56761519   -2.3799739   0.12932666    11389.507     1000 
 2758000   0.34714713    -2.891116   0.52019997   -2.3709161   0.11466053    11485.789     1000 
 2760000   0.35162056   -2.9453189   0.52690342   -2.4184155   0.13248355    11375.407     1000 
 2762000   0.36387812   -2.9708858   0.54527137   -2.4256144   0.13065692    11461.713     1000 
 2764000   0.36604607   -2.9900497   0.54852004   -2.4415297   0.12994559    11380.675     1000 
 2766000   0.38371294   -2.9125733   0.57499384   -2.3375795    0.1285544    11393.494     1000 
 2768000   0.36943257   -2.9455292   0.55359471   -2.3919345   0.13561707    11344.334     1000 
 2770000   0.36661018   -2.9224533   0.54936535   -2.3730879   0.12737044    11450.052     1000 
 2772000   0.37162914   -2.9293633   0.55688627    -2.372477   0.12828248    11398.189     1000 
 2774000   0.38203757   -2.9077006    0.5724833   -2.3352173    0.1282804    11323.615     1000 
 2776000   0.39275217   -2.9430192   0.58853913     -2.35448   0.12671063    11552.606     1000 
 2778000   0.37139818   -2.9578408   0.55654017   -2.4013006   0.13515998    11408.345     1000 
 2780000   0.37343544   -2.9582199     0.559593   -2.3986269   0.12499289    11336.315     1000 
 2782000    0.3658773   -2.9919752   0.54826713    -2.443708     0.128356     11544.73     1000 
 2784000   0.36605583   -2.9704633   0.54853466   -2.4219287    0.1318427    11470.241     1000 
 2786000   0.36145465   -2.9157376   0.54163979   -2.3740979   0.12907707    11342.768     1000 
 2788000    0.3791098   -2.9429824   0.56809603   -2.3748863   0.12371764    11382.547     1000 
 2790000   0.37638351   -2.9565056   0.56401068   -2.3924949   0.13634453    11344.923     1000 
 2792000   0.37074452     -2.94586   0.55556067   -2.3902993   0.12930914    11429.475     1000 
 2794000    0.3802482   -2.9499805   0.56980193   -2.3801785    0.1269786    11496.752     1000 
 2796000   0.36353032   -2.9232694   0.54475019   -2.3785192   0.12842203    11407.423     1000 
 2798000   0.36058735   -2.9469269   0.54034014   -2.4065867   0.12734495    11401.885     1000 
 2800000   0.37795871   -2.9861246   0.56637113   -2.4197535   0.13754144    11372.943     1000 
 2802000   0.37037149   -3.0071273   0.55500168   -2.4521257   0.13431677    11428.232     1000 
 2804000   0.35206425   -2.9371579   0.52756828   -2.4095897   0.14189127     11277.68     1000 
 2806000   0.37526405   -2.9385301   0.56233318   -2.3761969   0.13221662     11319.08     1000 
 2808000   0.37420384   -2.9421334   0.56074446   -2.3813889   0.13651047    11409.297     1000 
 2810000   0.36287743   -2.9417244   0.54377183   -2.3979526   0.11977421    11492.552     1000 
 2812000   0.35824312   -2.9455653   0.53682732    -2.408738   0.13848872    11298.595     1000 
 2814000   0.36443882   -2.9324965   0.54611157   -2.3863849   0.12267849    11383.688     1000 
 2816000   0.36531152    -2.919017   0.54741931   -2.3715977   0.13093971    11397.961     1000 
 2818000    0.3661298   -2.9457482   0.54864551   -2.3971027   0.12065678    11414.922     1000 
 2820000   0.35704394     -2.93149   0.53503034   -2.3964597   0.12893135    11334.172     1000 
 2822000   0.37021772   -2.9394116   0.55477125   -2.3846404   0.13581833    11440.641     1000 
 2824000   0.37140129    -2.937044   0.55654484   -2.3804991   0.11924939    11468.559     1000 
 2826000    0.3741205   -2.9476881   0.56061957   -2.3870685   0.12006405    11472.911     1000 
 2828000   0.37968849   -2.9611279    0.5689632   -2.3921647   0.13144442    11476.738     1000 
 2830000   0.37234531   -2.9738959   0.55795945   -2.4159364   0.11988247     11510.33     1000 
 2832000   0.35365684   -2.9248755   0.52995478   -2.3949207   0.11754951    11527.165     1000 
 2834000   0.36355893   -2.9410625   0.54479306   -2.3962694   0.13153068     11426.87     1000 
 2836000   0.37450553   -2.9572592   0.56119654   -2.3960626   0.11595721    11537.119     1000 
 2838000   0.37327763   -2.9624098   0.55935653   -2.4030533   0.13195946    11431.471     1000 
 2840000   0.35945836   -2.9669505   0.53864835   -2.4283022   0.13140737    11454.802     1000 
 2842000   0.35158221   -2.9989218   0.52684594   -2.4720759   0.13216641    11396.374     1000 
 2844000   0.37326323   -2.9585919   0.55933495    -2.399257    0.1257982    11507.577     1000 
 2846000   0.36437235   -2.9519499   0.54601196   -2.4059379   0.13310966    11382.954     1000 
 2848000   0.36255285   -2.9450353   0.54328544   -2.4017499   0.12761418    11386.151     1000 
 2850000   0.35791541     -2.95496   0.53633624   -2.4186238   0.11895501    11540.949     1000 
 2852000   0.37109293   -2.9496363   0.55608275   -2.3935536    0.1274201     11410.08     1000 
 2854000   0.37242618   -2.9195673   0.55808062   -2.3614867   0.12220034    11491.514     1000 
 2856000   0.37331595   -2.9142823   0.55941395   -2.3548683   0.14304897    11333.277     1000 
 2858000   0.38437265   -3.0043939   0.57598242   -2.4284115   0.13330342    11490.798     1000 
 2860000   0.35930785   -2.9959655   0.53842281   -2.4575427   0.12408501    11451.007     1000 
 2862000   0.35574235   -2.9565955   0.53307992   -2.4235156   0.13805566    11379.894     1000 
 2864000   0.37629693   -3.0051672   0.56388094   -2.4412863   0.13793313     11365.53     1000 
 2866000   0.36911419    -3.002354   0.55311761   -2.4492364   0.12322122    11518.245     1000 
 2868000   0.35147179   -2.9618469   0.52668048   -2.4351664   0.14058111     11371.24     1000 
 2870000   0.36754149     -2.94043   0.55076092   -2.3896691    0.1318036    11391.295     1000 
 2872000   0.36852252   -2.9250011   0.55223099   -2.3727701   0.12806058    11357.795     1000 
 2874000   0.36409921   -2.9436893   0.54560266   -2.3980866   0.14758805    11291.496     1000 
 2876000   0.37436568   -2.9349735   0.56098697   -2.3739865   0.14920294    11294.688     1000 
 2878000   0.38227053   -2.9578809   0.57283239   -2.3850485   0.12103008    11492.772     1000 
 2880000    0.3676239   -2.9355489   0.55088441   -2.3846645   0.12736027    11500.402     1000 
 2882000   0.36748992   -2.9488005   0.55068365   -2.3981168   0.12774173    11485.864     1000 
 2884000   0.36443796   -2.9447841   0.54611029   -2.3986738   0.11706345    11511.042     1000 
 2886000   0.36300284   -2.9113875   0.54395976   -2.3674277   0.12343838     11483.92     1000 
 2888000    0.3749398   -2.9373698    0.5618473   -2.3755225   0.12501285    11423.069     1000 
 2890000   0.36098438   -2.9168042    0.5409351   -2.3758691   0.12653775    11413.198     1000 
 2892000   0.36238248   -2.9546037   0.54303015   -2.4115736   0.13036747    11503.621     1000 
 2894000    0.3864599    -2.944417   0.57911016   -2.3653069   0.13710138    11347.271     1000 
 2896000   0.38575269   -2.9190188    0.5780504   -2.3409684   0.13020805     11317.57     1000 
 2898000   0.35795034   -2.9271525   0.53638858    -2.390764   0.14410859    11278.294     1000 
 2900000   0.37503703   -2.9485346   0.56199299   -2.3865416    0.1403626    11435.163     1000 
 2902000   0.34997945   -2.9234447    0.5244442   -2.3990005   0.12276259    11426.699     1000 
 2904000    0.3727524   -2.9965454   0.55856946   -2.4379759   0.12285646    11444.683     1000 
 2906000   0.35552969   -2.9534375   0.53276124   -2.4206763   0.14992247    11361.454     1000 
 2908000   0.37681475   -2.9474939   0.56465691    -2.382837   0.13296854    11368.165     1000 
 2910000   0.36098653    -2.923971   0.54093831   -2.3830327   0.12255877    11366.527     1000 
 2912000   0.35631724   -2.9145285   0.53394138   -2.3805871   0.12891678    11354.658     1000 
 2914000   0.36824336   -2.9395232   0.55181267   -2.3877105   0.11774818    11493.805     1000 
 2916000   0.38455238   -2.9356712   0.57625174   -2.3594195   0.13655233    11433.975     1000 
 2918000   0.36920418   -2.9475544   0.55325247   -2.3943019   0.13416759    11395.307     1000 
 2920000   0.38904647   -2.9523951   0.58298613    -2.369409   0.13456617    11373.002     1000 
 2922000   0.37104925   -2.9610033   0.55601731    -2.404986   0.13444377    11416.092     1000 
 2924000   0.38140639   -2.9281816   0.57153747   -2.3566441    0.1372318    11376.286     1000 
 2926000   0.36559795   -2.9619715   0.54784852   -2.4141229   0.14015649    11225.952     1000 
 2928000   0.36293582   -2.9549345   0.54385932   -2.4110752   0.12514205    11438.362     1000 
 2930000   0.34718228   -2.9430949   0.52025265   -2.4228422   0.13466346    11327.288     1000 
 2932000   0.38589083   -2.9614421   0.57825741   -2.3831847   0.11632025    11512.813     1000 
 2934000   0.37673816   -2.9314807   0.56454213   -2.3669386   0.13146805    11379.821     1000 
 2936000   0.37524157   -2.9392249   0.56229949   -2.3769254   0.13185093    11443.141     1000 
 2938000   0.36436428     -2.97914   0.54599988   -2.4331401   0.11978266    11400.716     1000 
 2940000   0.36021121   -2.9423533    0.5397765   -2.4025768   0.11444874      11511.9     1000 
 2942000   0.35764311    -2.941546   0.53592821   -2.4056178   0.12693911    11400.154     1000 
 2944000   0.37164975   -2.9173839   0.55691715   -2.3604667   0.13036105    11392.223     1000 
 2946000   0.36738163   -2.9434506   0.55052137   -2.3929292   0.13289126    11425.709     1000 
 2948000   0.38228844   -2.9721411   0.57285922   -2.3992819   0.12528692    11516.749     1000 
 2950000   0.36094468   -2.9618078   0.54087561   -2.4209321   0.12803566     11447.36     1000 
 2952000   0.37728299   -2.9641944   0.56535857   -2.3988359   0.12664743    11431.472     1000 
 2954000   0.37079957   -2.9670028   0.55564316   -2.4113597   0.12220826    11458.572     1000 
 2956000   0.38063211   -2.9518784   0.57037722   -2.3815012   0.13416926    11326.248     1000 
 2958000   0.37794344    -2.922303   0.56634824   -2.3559548   0.13899602    11345.781     1000 
 2960000   0.36159794   -2.9619558   0.54185452   -2.4201013   0.12541863    11491.811     1000 
 2962000   0.37609193    -2.941287   0.56357376   -2.3777132   0.13511226    11473.164     1000 
 2964000   0.35478772   -2.9506036   0.53164939   -2.4189542   0.13094732    11489.312     1000 
 2966000     0.361986   -2.9182303   0.54243602   -2.3757943   0.12812369    11411.615     1000 
 2968000   0.37524278   -2.9424779   0.56230131   -2.3801766   0.13410927    11430.038     1000 
 2970000   0.36608954   -2.9472835   0.54858518   -2.3986984   0.12962457    11514.807     1000 
 2972000    0.3722903   -2.9631031   0.55787701   -2.4052261   0.12250612    11401.668     1000 
 2974000   0.36350196   -2.9563078   0.54470768   -2.4116001   0.12061986    11506.517     1000 
 2976000   0.36449116   -2.9641172      0.54619   -2.4179272   0.13200353    11359.306     1000 
 2978000   0.39030474   -2.9478205   0.58487165   -2.3629488     0.116572    11512.602     1000 
 2980000   0.36887943    -2.970867   0.55276582   -2.4181011   0.12856134    11475.611     1000 
 2982000   0.35276035   -2.9368979   0.52861139   -2.4082865   0.13858405    11314.532     1000 
 2984000    0.3600217   -2.9532404   0.53949252   -2.4137479   0.12775182    11487.267     1000 
 2986000   0.35735707   -2.9531369   0.53549956   -2.4176374   0.11564049    11485.973     1000 
 2988000   0.36686798   -2.9685667   0.54975167    -2.418815   0.13017592    11366.262     1000 
 2990000    0.3713594   -2.9377874   0.55648206   -2.3813054   0.14166283    11312.138     1000 
 2992000   0.37322344   -2.9225723   0.55927533   -2.3632969   0.12928895    11436.413     1000 
 2994000   0.37359354   -2.9478511   0.55982992   -2.3880212   0.11641245    11554.811     1000 
 2996000    0.3419036   -2.9556268   0.51234255   -2.4432843   0.13085589     11503.62     1000 
 2998000   0.37897507   -2.9542215   0.56789415   -2.3863274   0.11921442    11460.056     1000 
 3000000   0.37929688    -2.969095   0.56837637   -2.4007187   0.13391783    11392.439     1000 
Loop time of 1165.19 on 1 procs for 3000000 steps with 1000 atoms

Performance: 1112263.536 tau/day, 2574.684 timesteps/s
100.0% CPU use with 1 MPI tasks x 1 OpenMP threads

MPI task timing breakdown:
Section |  min time  |  avg time  |  max time  |%varavg| %total
---------------------------------------------------------------
Pair    | 919.61     | 919.61     | 919.61     |   0.0 | 78.92
Neigh   | 143.68     | 143.68     | 143.68     |   0.0 | 12.33
Comm    | 24.022     | 24.022     | 24.022     |   0.0 |  2.06
Output  | 0.01825    | 0.01825    | 0.01825    |   0.0 |  0.00
Modify  | 72.442     | 72.442     | 72.442     |   0.0 |  6.22
Other   |            | 5.417      |            |       |  0.46

Nlocal:        1000.00 ave        1000 max        1000 min
Histogram: 1 0 0 0 0 0 0 0 0 0
Nghost:        2213.00 ave        2213 max        2213 min
Histogram: 1 0 0 0 0 0 0 0 0 0
Neighs:        27579.0 ave       27579 max       27579 min
Histogram: 1 0 0 0 0 0 0 0 0 0

Total # of neighbors = 27579
Ave neighs/atom = 27.579000
Neighbor list builds = 150000
Dangerous builds not checked

Total wall time: 0:19:25
