LAMMPS (29 Sep 2021 - Update 2)
OMP_NUM_THREADS environment is not set. Defaulting to 1 thread. (src/comm.cpp:98)
  using 1 OpenMP thread(s) per MPI task
# ----------------------- Inicialização -----------------------

units			lj
atom_style 		atomic
dimension 		3
boundary 		p p p

# -------------------- Criação dos Átomos ---------------------

read_data 		topologia.txt
Reading data file ...
  orthogonal box = (0.0000000 0.0000000 0.0000000) to (21.540000 21.540000 21.540000)
  1 by 1 by 1 MPI processor grid
  reading atoms ...
  1000 atoms
  read_data CPU = 0.001 seconds

velocity 		all create ${temp} 87287 rot yes dist gaussian
velocity 		all create 0.75 87287 rot yes dist gaussian

# ------------------ Interação Interatômica -------------------

pair_style		table linear 1000
pair_coeff		1 1 force.table AA 5.0
WARNING: 2 of 1000 force values in table AA are inconsistent with -dE/dr.
WARNING:  Should only be flagged at inflection points (src/pair_table.cpp:465)
pair_coeff		1 2 force.table AB 5.0
WARNING: 1 of 1000 force values in table AB are inconsistent with -dE/dr.
WARNING:  Should only be flagged at inflection points (src/pair_table.cpp:465)
pair_coeff		2 2 force.table BB 5.0
pair_write		1 1 1000 r 0.008 5.0 table.check AA
Appending to table file table.check with DATE: 2023-07-05
Neighbor list info ...
  update every 1 steps, delay 10 steps, check yes
  max neighbors/atom: 2000, page size: 100000
  master list distance cutoff = 5.3
  ghost atom cutoff = 5.3
  binsize = 2.65, bins = 9 9 9
  1 neighbor lists, perpetual/occasional/extra = 1 0 0
  (1) pair table, perpetual
      attributes: half, newton on
      pair build: half/bin/atomonly/newton
      stencil: half/bin/3d
      bin: standard
pair_write		1 2 1000 r 0.008 5.0 table.check AB
Appending to table file table.check with DATE: 2023-07-05
pair_write		2 2 1000 r 0.008 5.0 table.check BB
Appending to table file table.check with DATE: 2023-07-05

neighbor 		0.3 bin
neigh_modify		every 20 delay 0 check no

# ------------------------- Ensemble --------------------------------------

fix 1			all npt temp ${temp} ${temp} 0.5 iso ${press} ${press} 5
fix 1			all npt temp 0.75 ${temp} 0.5 iso ${press} ${press} 5
fix 1			all npt temp 0.75 0.75 0.5 iso ${press} ${press} 5
fix 1			all npt temp 0.75 0.75 0.5 iso 0.13 ${press} 5
fix 1			all npt temp 0.75 0.75 0.5 iso 0.13 0.13 5

# ---------------------- Função de Distribuição Radial -----------------------

#compute RDF 		all rdf 2000 1 1 1 2 2 2
#fix 2 			all ave/time 1 2000 2000 c_RDF[*] file rdf.data mode vector

# ------------------------- Execução ---------------------------

timestep 		0.005
thermo_style		custom step temp pe ke etotal press vol atoms
thermo			2000
run			3000000
Per MPI rank memory allocation (min/avg/max) = 2.670 | 2.670 | 2.670 Mbytes
Step Temp PotEng KinEng TotEng Press Volume Atoms 
       0         0.75    1.5784776     1.123875    2.7023526    1.6982509    9993.9483     1000 
    2000   0.75534167   -1.9264753    1.1318795  -0.79459584   0.13360209    12031.105     1000 
    4000   0.75522694   -1.9064997    1.1317076  -0.77479214   0.12604086    12025.347     1000 
    6000   0.74437849    -1.963448    1.1154512  -0.84799687   0.13485898    11697.223     1000 
    8000   0.75221083   -2.0097389    1.1271879  -0.88255096   0.12651488    11987.313     1000 
   10000   0.71619373   -1.9954492    1.0732163  -0.92223287   0.11625173    12227.414     1000 
   12000   0.76046883   -1.9420548    1.1395625  -0.80249221   0.11888506    12101.516     1000 
   14000   0.76605482   -1.9562445    1.1479331  -0.80831133   0.12848069    11851.934     1000 
   16000   0.76519874   -1.9950273    1.1466503  -0.84837696   0.12461474    12167.633     1000 
   18000   0.75702414   -1.9763037    1.1344007  -0.84190304   0.12949955    11709.111     1000 
   20000   0.74935941   -1.9967778    1.1229151  -0.87386267   0.13937974    11978.417     1000 
   22000   0.71132338    -2.002576    1.0659181   -0.9366579   0.12787275    11808.273     1000 
   24000   0.74613341   -1.9668692    1.1180809  -0.84878829   0.12775629    11941.225     1000 
   26000   0.74024015   -1.9837843    1.1092499  -0.87453442   0.12466976     11870.96     1000 
   28000   0.76209008   -1.9555626     1.141992  -0.81357064   0.14869493    11634.523     1000 
   30000   0.75580507   -2.0393475    1.1325739   -0.9067736   0.12935886    11861.106     1000 
   32000   0.74630757   -1.9098686    1.1183419  -0.79152675   0.11979938    12034.412     1000 
   34000   0.77298815    -1.958073    1.1583227  -0.79975021   0.13833038    11730.365     1000 
   36000   0.75402837   -1.9651329    1.1299115  -0.83522137   0.13093602    12200.634     1000 
   38000   0.76784357   -2.0046636    1.1506136  -0.85405001   0.14438846    11668.564     1000 
   40000   0.75688543   -2.0240807    1.1341928   -0.8898879   0.12750961    11877.291     1000 
   42000   0.75787911   -1.9757009    1.1356818  -0.84001902   0.15185586     11989.55     1000 
   44000   0.76632356   -2.0545819    1.1483359  -0.90624605   0.12795657    11852.001     1000 
   46000    0.7454713    -2.022029    1.1170887  -0.90494024   0.13085785    11749.444     1000 
   48000   0.72392448   -1.9990821    1.0848008  -0.91428127   0.13398048    11834.414     1000 
   50000   0.76466637   -2.0509564    1.1458526  -0.90510379    0.1227272    11976.183     1000 
   52000   0.75571641   -2.0253805     1.132441  -0.89293948   0.13102434    12049.312     1000 
   54000   0.74873276   -1.9944081     1.121976  -0.87243201   0.13364193    11855.582     1000 
   56000    0.7726651   -1.9714205    1.1578387   -0.8135818   0.13678722    11829.045     1000 
   58000   0.75188761   -2.0030736    1.1267036  -0.87637004   0.14202167    11671.997     1000 
   60000   0.76810715   -2.0127082    1.1510086  -0.86169966   0.12528445    11923.924     1000 
   62000   0.72767476   -2.0439785    1.0904206  -0.95355789   0.12230455    11838.857     1000 
   64000   0.69868686      -1.9643    1.0469823  -0.91731778   0.12268351    11846.957     1000 
   66000   0.75744443   -1.9798435    1.1350305  -0.84481307   0.13279983    11684.729     1000 
   68000   0.75213881   -1.9793904      1.12708  -0.85231036   0.12754838    11842.716     1000 
   70000   0.75620252   -1.9723514    1.1331695  -0.83918194   0.11845792    11875.459     1000 
   72000    0.7525144   -1.9721392    1.1276428   -0.8444964   0.12549219    11898.582     1000 
   74000   0.75273885   -1.9969521    1.1279792  -0.86897294   0.12172768    11946.897     1000 
   76000   0.75590401    -1.948161    1.1327222  -0.81543882   0.15351455    11607.276     1000 
   78000   0.76697218   -1.9850795    1.1493078   -0.8357717   0.11638294    12147.209     1000 
   80000   0.75476789   -2.0334082    1.1310197   -0.9023885   0.14720999    11856.567     1000 
   82000   0.73975194   -2.0145773    1.1085183  -0.90605898    0.1476648    11665.991     1000 
   84000   0.74922715    -1.960065    1.1227169  -0.83734816   0.12841222    11889.493     1000 
   86000   0.73080731   -2.0017882    1.0951147   -0.9066735   0.14202387    11620.814     1000 
   88000   0.77491215   -1.9717709    1.1612059  -0.81056505   0.13813554    11674.209     1000 
   90000    0.7787058   -1.9923229    1.1668906  -0.82543223   0.12903085    11929.179     1000 
   92000   0.73110271   -1.9891527    1.0955574  -0.89359533   0.12977643    11862.589     1000 
   94000   0.76649004   -1.9872255    1.1485853  -0.83864016   0.13689936    11775.186     1000 
   96000   0.78657903   -1.9737517    1.1786887  -0.79506307   0.12918219    11906.239     1000 
   98000   0.71667916   -1.9783536    1.0739437  -0.90440988   0.11935452    11660.726     1000 
  100000   0.70481638   -2.0263888    1.0561673  -0.97022148   0.12463085    11717.797     1000 
  102000   0.72339616    -1.993761    1.0840091  -0.90975184   0.12225373    12007.786     1000 
  104000   0.76892315   -1.9372418    1.1522313  -0.78501049   0.14837807      11763.1     1000 
  106000    0.7893871   -2.0249396    1.1828966  -0.84204308   0.12957366    12060.466     1000 
  108000   0.75046579   -1.9739809     1.124573  -0.84940787   0.13024515    11931.577     1000 
  110000   0.77170119     -2.04799    1.1563942  -0.89159578   0.14422861    11784.203     1000 
  112000   0.72527768   -1.9797465    1.0868286  -0.89291786   0.12157023    11818.168     1000 
  114000   0.72539864   -1.9709957    1.0870099  -0.88398589   0.11984245    12040.754     1000 
  116000   0.74134148    -1.980504    1.1109002  -0.86960376   0.13336723    11928.785     1000 
  118000   0.74799631   -1.9761843    1.1208725  -0.85531185   0.11640608    11778.281     1000 
  120000   0.72853699   -1.9549222    1.0917127  -0.86320955   0.11681901    11945.952     1000 
  122000    0.7512034   -1.9542709    1.1256783  -0.82859262   0.14370593    11672.107     1000 
  124000   0.75921291   -1.9592555    1.1376805  -0.82157492   0.13519446    11914.732     1000 
  126000   0.74904894   -1.9888987    1.1224498  -0.86644886   0.12678582    11779.455     1000 
  128000   0.74935634    -2.009069    1.1229105  -0.88615854   0.13180324    11786.323     1000 
  130000   0.75982219   -1.9818877    1.1385936  -0.84329418   0.13111292    12007.241     1000 
  132000   0.75065011   -2.0175598    1.1248492  -0.89271065   0.12997424    12048.246     1000 
  134000   0.79025557   -1.9606092     1.184198  -0.77641118   0.13235037    11837.313     1000 
  136000   0.74464505   -1.9711803    1.1158506  -0.85532967   0.12300433    12009.915     1000 
  138000   0.76840326   -2.0140553    1.1514523  -0.86260301   0.13240467    11828.035     1000 
  140000   0.73857936   -1.9805428    1.1067612  -0.87378168   0.13193312    11934.219     1000 
  142000   0.74508375   -2.0931518     1.116508  -0.97664378   0.14128052    11706.022     1000 
  144000   0.71491009   -1.9705371    1.0712928  -0.89924429    0.1328153    11831.805     1000 
  146000   0.77654704   -1.9808067    1.1636557  -0.81715101   0.12895551     12135.83     1000 
  148000   0.73171394   -1.9662568    1.0964733  -0.86978349   0.10432076    12106.972     1000 
  150000    0.7552731    -1.952112    1.1317767  -0.82033523   0.11284271    11976.811     1000 
  152000   0.73642006   -2.0229769    1.1035255  -0.91945139   0.12140892    11909.216     1000 
  154000   0.74265226   -1.9976457    1.1128644  -0.88478133   0.13622975    11750.913     1000 
  156000   0.77208702   -2.0395416    1.1569724  -0.88256919   0.15480822    11794.665     1000 
  158000   0.73567074   -1.9395384    1.1024026  -0.83713584   0.14351595    11718.335     1000 
  160000   0.75699026   -1.9418435    1.1343499  -0.80749364   0.12767308    11958.009     1000 
  162000   0.74681695   -1.9784882    1.1191052  -0.85938301   0.11481087    11860.312     1000 
  164000   0.72611375   -1.9229609    1.0880815  -0.83487945   0.13717089    11751.675     1000 
  166000   0.75077639   -1.9690725    1.1250384  -0.84403408   0.12488349    11957.508     1000 
  168000   0.75889445   -2.0056814    1.1372033  -0.86847806   0.13562774    11900.883     1000 
  170000    0.7551171   -2.0420289     1.131543   -0.9104859    0.1328615    11708.871     1000 
  172000   0.76291266   -1.9382196    1.1432246  -0.79499502   0.12942145    12066.698     1000 
  174000   0.74514744   -1.9805536    1.1166034  -0.86395016   0.13035692    11968.606     1000 
  176000    0.7269015   -1.9517085    1.0892619  -0.86244662    0.1387961    11792.729     1000 
  178000   0.76703734   -1.9906744    1.1494055  -0.84126895   0.13621016    11669.655     1000 
  180000   0.72563464   -1.9694123    1.0873635  -0.88204875   0.12053167    11872.233     1000 
  182000   0.75565697   -1.9341967     1.132352  -0.80184469   0.14525752    11713.943     1000 
  184000   0.77132699   -1.9885992    1.1558335  -0.83276575   0.13233297    11985.845     1000 
  186000   0.73700115    -1.988819    1.1043962  -0.88442279   0.12305706     12044.33     1000 
  188000   0.75164998   -1.9499687    1.1263475  -0.82362119   0.13378681    11809.326     1000 
  190000   0.73834431   -2.0049106    1.1064089  -0.89850162   0.12174212    12095.766     1000 
  192000   0.77353662    -2.000189    1.1591446  -0.84104442   0.13770833    11882.285     1000 
  194000   0.71919553   -1.9727009    1.0777145  -0.89498642   0.11564008     11908.59     1000 
  196000   0.71112398   -1.9469875    1.0656193  -0.88136826    0.1349098    11797.251     1000 
  198000   0.73889589   -1.9726638    1.1072355  -0.86542833   0.13026565    11817.333     1000 
  200000   0.73178685    -1.927914    1.0965826  -0.83133139   0.11817885    11922.384     1000 
  202000   0.75697195    -1.962874    1.1343225  -0.82855154   0.13522079    11802.681     1000 
  204000   0.71315264   -1.9621229    1.0686592  -0.89346369   0.12739641    11990.735     1000 
  206000   0.73743153   -1.9897359    1.1050411  -0.88469478   0.15083886     11348.14     1000 
  208000   0.73420337   -2.0037434    1.1002038  -0.90353965   0.12074705    11932.778     1000 
  210000   0.73604234   -2.0133852    1.1029594  -0.91042571   0.15026744    11686.537     1000 
  212000   0.70511613   -1.9918611    1.0566165  -0.93524454   0.12478378    11764.949     1000 
  214000   0.78070957   -1.9166279    1.1698933  -0.74673462   0.13381925    11921.164     1000 
  216000   0.76221447   -2.0588222    1.1421784  -0.91664386   0.13780066    11619.779     1000 
  218000   0.74396544   -1.9864041    1.1148322  -0.87157193   0.13930495    11822.395     1000 
  220000   0.71566904   -1.9644454    1.0724301  -0.89201537   0.12609494    11784.708     1000 
  222000      0.73709    -2.011865    1.1045294  -0.90733566   0.13546223    11894.193     1000 
  224000   0.75642993   -1.9900294    1.1335102  -0.85651918   0.13935434    11642.255     1000 
  226000   0.75064387   -2.0464253    1.1248398  -0.92158543   0.12337441    12152.009     1000 
  228000   0.76924324   -2.0234103     1.152711  -0.87069933   0.11381007    11872.142     1000 
  230000   0.77411118   -1.9800974    1.1600056  -0.82009183   0.14410315    11873.911     1000 
  232000   0.76663318   -1.9759292    1.1487998  -0.82712943   0.14320214    11838.724     1000 
  234000    0.7512937   -1.9419321    1.1258136   -0.8161185   0.12393015     11968.47     1000 
  236000   0.74542696   -2.0095529    1.1170223  -0.89253055   0.12653484    11893.402     1000 
  238000   0.73637874   -1.9958943    1.1034635  -0.89243079    0.1343296    11902.745     1000 
  240000   0.71688566   -1.9707785    1.0742532  -0.89652533   0.13158124    11734.359     1000 
  242000   0.74294584   -1.9559148    1.1133043  -0.84261048   0.12746598    11856.371     1000 
  244000   0.76764784    -1.977377    1.1503203  -0.82705675   0.12912871     11917.42     1000 
  246000   0.75881625   -1.9378441    1.1370862  -0.80075794    0.1396754    11862.154     1000 
  248000    0.7517879   -1.9428177    1.1265542  -0.81626349   0.14055889    11537.262     1000 
  250000   0.77473269   -1.9516332    1.1609369  -0.79069623   0.13658277    11957.106     1000 
  252000   0.75176681   -1.9541657    1.1265226  -0.82764313   0.14764562    11749.314     1000 
  254000    0.7397187    -1.913591    1.1084685  -0.80512254   0.12686088    11763.697     1000 
  256000   0.73633751   -1.9809971    1.1034018   -0.8775953   0.12685612    11897.153     1000 
  258000   0.72191675   -1.9507088    1.0817923  -0.86891654   0.10898613    11998.391     1000 
  260000   0.77071333   -1.9779949    1.1549139  -0.82308102   0.14625844    11653.167     1000 
  262000   0.75274235    -1.971158    1.1279844  -0.84317362    0.1346703    11746.097     1000 
  264000   0.79633717   -1.9541723    1.1933113  -0.76086105   0.12730622    11858.438     1000 
  266000   0.75458067   -1.9907985    1.1307391  -0.86005933   0.12478192    12078.082     1000 
  268000   0.72516341   -1.9529357    1.0866574   -0.8662783   0.14566564    11714.094     1000 
  270000   0.75889163   -2.0004845    1.1371991  -0.86328536   0.13886865    12041.977     1000 
  272000   0.72980002    -2.027388    1.0936053   -0.9337827   0.13030348    11892.056     1000 
  274000   0.71874109   -1.9978138    1.0770335  -0.92078024     0.137753    11872.875     1000 
  276000   0.78771185   -1.9961863    1.1803862  -0.81580011   0.12825377    11831.334     1000 
  278000   0.72826977   -1.9833501    1.0913123  -0.89203786   0.11593855    12079.817     1000 
  280000   0.73499276   -1.9478658    1.1013867  -0.84647911    0.1180913    11911.207     1000 
  282000   0.76918236   -1.9603407    1.1526198  -0.80772097   0.13890234    11733.007     1000 
  284000   0.74392803   -1.9944073    1.1147762  -0.87963113   0.12982129    11947.631     1000 
  286000   0.76233617   -1.9768164    1.1423607  -0.83445569   0.13273939    11933.767     1000 
  288000   0.74384241   -2.0000473    1.1146479  -0.88539943   0.12930714    11915.225     1000 
  290000    0.7359583   -1.9671948    1.1028335   -0.8643613   0.11984912    12118.831     1000 
  292000   0.74183009   -1.9857282    1.1116324  -0.87409586   0.12151187    11877.021     1000 
  294000   0.79173243   -1.9396279    1.1864111  -0.75321684   0.14134068    11765.595     1000 
  296000   0.74566672   -1.9523641    1.1173816  -0.83498255   0.13150977    11992.544     1000 
  298000   0.72728211    -1.988767    1.0898322  -0.89893476   0.11914487    12047.952     1000 
  300000   0.77840972   -2.0140145     1.166447  -0.84756753   0.13045356    11954.118     1000 
  302000    0.7486881   -1.9881417    1.1219091  -0.86623263   0.12158701    11905.398     1000 
  304000   0.73554708   -1.9330704    1.1022173  -0.83085311   0.12881956    12013.784     1000 
  306000   0.76194466   -2.0032346    1.1417741  -0.86146049    0.1251231    12201.783     1000 
  308000   0.76662895     -1.96156    1.1487935  -0.81276656   0.12848814    11891.209     1000 
  310000   0.74765773   -1.9600568    1.1203651  -0.83969172   0.12037283    11902.288     1000 
  312000   0.72460105    -1.946422    1.0858147  -0.86060736   0.11372386    12029.602     1000 
  314000   0.73555495   -2.0002906    1.1022291  -0.89806153   0.14627413    11832.339     1000 
  316000   0.75288061   -1.9591863    1.1281916  -0.83099475   0.12702893    11948.292     1000 
  318000   0.73890737   -1.9954368    1.1072527  -0.88818413    0.1343165    11726.645     1000 
  320000   0.77680278    -1.980695     1.164039  -0.81665601   0.12380909    11943.119     1000 
  322000   0.73153768   -1.9385159    1.0962092  -0.84230665   0.14279614    11754.519     1000 
  324000   0.73643796   -1.9685212    1.1035523  -0.86496893    0.1195455    11893.555     1000 
  326000   0.73550338    -1.919734    1.1021518  -0.81758218   0.13547728    11655.696     1000 
  328000    0.7650126   -1.9640869    1.1463714  -0.81771548   0.13154988    11937.247     1000 
  330000    0.7553747   -1.9866188     1.131929   -0.8546898   0.13589399    11933.049     1000 
  332000   0.76658798   -1.9354722    1.1487321  -0.78674008   0.13376721    11961.492     1000 
  334000   0.73617478   -1.9562506    1.1031579  -0.85309272   0.11262094    11999.692     1000 
  336000   0.76297379   -1.9645805    1.1433162  -0.82126426    0.1460595    11658.245     1000 
  338000   0.71729226   -2.0275376    1.0748625  -0.95267516     0.124773    11774.509     1000 
  340000    0.7362868   -1.9882344    1.1033258  -0.88490862   0.14011013    11900.646     1000 
  342000   0.76161004   -1.9951311    1.1412727  -0.85385847   0.12918338    11603.948     1000 
  344000    0.7606793   -1.9945034    1.1398779  -0.85462543   0.13532616     11861.03     1000 
  346000   0.77519118   -1.9332163     1.161624   -0.7715923   0.12104759    11957.991     1000 
  348000   0.75828907   -1.9920035    1.1362962  -0.85570732   0.12743801    11942.521     1000 
  350000   0.75674365   -1.9787459    1.1339804  -0.84476551   0.14587761    11811.706     1000 
  352000   0.76307388   -2.0241279    1.1434662  -0.88066167   0.12820457    11795.205     1000 
  354000    0.7470538   -2.0196796    1.1194601  -0.90021945   0.12432781     11959.39     1000 
  356000   0.73663647   -1.9964705    1.1038498  -0.89262078   0.12366389    11879.222     1000 
  358000   0.73998579   -1.9935634    1.1088687  -0.88469471   0.12214923    12045.222     1000 
  360000   0.74909606   -1.9668936    1.1225204   -0.8443732   0.12981304    11753.101     1000 
  362000   0.72947845   -2.0222302    1.0931235  -0.92910675   0.12651736    11852.146     1000 
  364000   0.77322352    -1.971511    1.1586754  -0.81283553   0.13683468    11841.745     1000 
  366000   0.71928587   -1.9239602    1.0778499  -0.84611029   0.13738424    11768.842     1000 
  368000   0.75011327   -1.9982112    1.1240447   -0.8741665    0.1288773    12145.959     1000 
  370000   0.77874758   -1.9318938    1.1669533  -0.76494056   0.13884755    11916.884     1000 
  372000   0.74177586    -2.031474    1.1115511  -0.91992288   0.14456141    11742.126     1000 
  374000   0.75481474   -1.9642179    1.1310899  -0.83312802   0.13869166    11783.164     1000 
  376000   0.73060151   -1.9704019    1.0948064  -0.87559552   0.11886317    11866.172     1000 
  378000   0.74434815   -1.9644146    1.1154057  -0.84900891   0.12346001    11738.789     1000 
  380000   0.76114202   -1.9764161    1.1405713   -0.8358448   0.13459522    12025.076     1000 
  382000   0.73498441    -1.983596    1.1013741  -0.88222182   0.12450002    11869.086     1000 
  384000   0.72778517   -1.9384691    1.0905861  -0.84788299   0.11894094    12155.502     1000 
  386000   0.76027507   -1.9915092    1.1392722  -0.85223699   0.13778614    11727.951     1000 
  388000   0.71568005    -1.970277    1.0724466  -0.89783043   0.14484275    11723.398     1000 
  390000   0.78998595   -1.9933582    1.1837939   -0.8095643    0.1267494    11814.832     1000 
  392000   0.77289832   -2.0401861    1.1581881  -0.88199799   0.12350372    11898.764     1000 
  394000   0.73287226   -1.9807381    1.0982091  -0.88252902   0.11719927    11860.715     1000 
  396000   0.75433158   -1.9867923    1.1303659  -0.85642646   0.12028736    11912.796     1000 
  398000   0.75676429   -2.0163275    1.1340113   -0.8823162     0.130756    11971.475     1000 
  400000   0.77211686   -1.9713025    1.1570171  -0.81428534   0.12822566    11954.903     1000 
  402000   0.74671465    -1.994207    1.1189519  -0.87525512   0.12792449    11682.631     1000 
  404000   0.74354681   -2.0061474    1.1142049  -0.89194254   0.12471698    11977.942     1000 
  406000   0.73596463   -1.9640835     1.102843  -0.86124054   0.13769502    11816.004     1000 
  408000   0.75535778   -2.0164565    1.1319036  -0.88455286   0.13134261    12070.458     1000 
  410000   0.73573003   -1.9407639    1.1024915  -0.83827243    0.1225588    11869.973     1000 
  412000   0.74746639   -1.9750222    1.1200784  -0.85494385   0.12985641    11935.983     1000 
  414000   0.73586903   -1.9826314    1.1026997  -0.87993169   0.12328086    12042.147     1000 
  416000    0.7824228   -1.9998377    1.1724606  -0.82737714   0.15526035    11741.973     1000 
  418000   0.76073047    -2.026334    1.1399546  -0.88637944   0.13820759    11728.242     1000 
  420000   0.73067255   -1.9857295    1.0949128  -0.89081672   0.13945135    11714.448     1000 
  422000   0.77262192   -1.9956879     1.157774  -0.83791399   0.12946415    11723.748     1000 
  424000   0.76032416   -1.9523542    1.1393458  -0.81300847   0.12298694    11904.064     1000 
  426000   0.73644449   -2.0012386    1.1035621  -0.89767652   0.11332303    12151.961     1000 
  428000   0.73315183   -1.9561615     1.098628  -0.85753348   0.12852029    11934.175     1000 
  430000    0.7491862    -2.039869    1.1226555  -0.91721345   0.13569362    11678.987     1000 
  432000   0.75185626   -1.9949111    1.1266566  -0.86825453   0.13882378     11860.62     1000 
  434000   0.76516138   -1.9924874    1.1465943  -0.84589308    0.1268053    12216.511     1000 
  436000   0.74984837    -2.046154    1.1236478   -0.9225062   0.14273993    11862.768     1000 
  438000   0.75156828   -1.9461434    1.1262251  -0.81991832   0.13406604    11777.714     1000 
  440000   0.75635013   -1.9797247    1.1333907  -0.84633402    0.1248907    11832.671     1000 
  442000   0.75758086   -1.9706047    1.1352349  -0.83536977   0.13424829    11645.993     1000 
  444000   0.73486354   -1.9678229     1.101193   -0.8666299   0.10680963    12051.502     1000 
  446000   0.74528743    -1.988999    1.1168132  -0.87218577   0.14428941    11685.917     1000 
  448000   0.73672538    -1.998241     1.103983  -0.89425799   0.12944032    11856.468     1000 
  450000   0.76732758   -1.9900041    1.1498404   -0.8401637   0.13349647    11676.659     1000 
  452000   0.76774838    -1.989118     1.150471  -0.83864707   0.12261474    12057.784     1000 
  454000   0.73085032   -2.0123017    1.0951792  -0.91712248   0.14265772    11668.038     1000 
  456000   0.74236832   -1.9705597    1.1124389  -0.85812074   0.13260137     11933.83     1000 
  458000    0.7256267   -1.9736786    1.0873516    -0.886327   0.13371014    11668.116     1000 
  460000    0.7224086   -1.9636654    1.0825293  -0.88113615   0.11348497    12040.552     1000 
  462000   0.77483074   -1.9657498    1.1610839  -0.80466593   0.12527047    12023.209     1000 
  464000   0.74918876   -1.9788696    1.1226594  -0.85621023   0.14114405    11776.633     1000 
  466000   0.75823536   -1.9623695    1.1362157   -0.8261538   0.13781393    11783.951     1000 
  468000   0.74413328     -2.03133    1.1150837  -0.91624625   0.12622078    12011.234     1000 
  470000   0.77616332   -2.0783287    1.1630807  -0.91524793   0.13439956    11953.909     1000 
  472000   0.74544919   -1.9651003    1.1170556  -0.84804465    0.1247557    12054.223     1000 
  474000   0.73230264   -1.9377291    1.0973555   -0.8403736   0.11158653    11990.293     1000 
  476000   0.75376597   -2.0203105    1.1295183  -0.89079221    0.1136059    12022.832     1000 
  478000    0.7403011   -1.9703641    1.1093412  -0.86102294   0.11524852    12038.634     1000 
  480000    0.7454165    -2.010849    1.1170066  -0.89384234   0.12597722    11680.177     1000 
  482000   0.75613483   -1.9701651     1.133068  -0.83709705   0.13902848    11885.517     1000 
  484000   0.77133757   -1.9648639    1.1558494  -0.80901453   0.12656646     11847.08     1000 
  486000   0.77853454   -1.9331659     1.166634  -0.76653192   0.14561808    11763.323     1000 
  488000   0.74825887   -1.9706922    1.1212659  -0.84942631   0.11750127    12122.198     1000 
  490000   0.74390368     -1.98479    1.1147397  -0.87005038   0.14321053     11770.42     1000 
  492000   0.70978609   -1.9746869    1.0636145  -0.91107245   0.13828744    11764.754     1000 
  494000   0.75317571   -2.0112174    1.1286338   -0.8825836   0.13717363    11866.233     1000 
  496000   0.75156227   -2.0061188    1.1262161  -0.87990272   0.12904077    11758.536     1000 
  498000   0.73003201   -1.9927426     1.093953  -0.89878964    0.1236917    11826.414     1000 
  500000   0.75546718    -1.957429    1.1320676  -0.82536139   0.14554231    11542.573     1000 
  502000   0.73513041   -1.9973257    1.1015929  -0.89573277   0.13751513    11899.218     1000 
  504000   0.75129566   -2.0186876    1.1258165  -0.89287108   0.13577687    12152.523     1000 
  506000   0.74395592   -1.9892284     1.114818  -0.87441048   0.13115104    11786.863     1000 
  508000   0.76818934   -1.9153613    1.1511317  -0.76422953    0.1280815    12077.863     1000 
  510000   0.73738442    -1.941083    1.1049706  -0.83611247   0.14858282    11673.605     1000 
  512000   0.76418416   -2.0554238      1.14513  -0.91029382   0.12163697    12044.147     1000 
  514000   0.73071554   -1.9870146    1.0949772  -0.89203735   0.12158532    11838.681     1000 
  516000   0.76137651   -1.9458341    1.1409227  -0.80491138   0.12020591    12117.709     1000 
  518000   0.76457225   -1.9751055    1.1457115  -0.82939398    0.1324647    11954.438     1000 
  520000   0.80011731   -1.9715045    1.1989758  -0.77252875   0.13074843    12053.198     1000 
  522000   0.78200756   -2.0349787    1.1718383  -0.86314032   0.12830051    11896.313     1000 
  524000   0.75327924   -1.9309543    1.1287889  -0.80216539   0.14682221    11974.594     1000 
  526000    0.7615186   -1.9621956    1.1411356     -0.82106   0.13029597     11611.67     1000 
  528000    0.7314878   -1.9814782    1.0961345  -0.88534374   0.13556265     11668.35     1000 
  530000   0.76280033   -1.9685459    1.1430563  -0.82548961   0.12915254    11857.304     1000 
  532000   0.73611713   -2.0036908    1.1030715  -0.90061932   0.12535984    11782.214     1000 
  534000   0.75221389   -1.9736813    1.1271925  -0.84648879   0.12123099    12066.398     1000 
  536000   0.77889441   -2.0307058    1.1671733  -0.86353253   0.12765979     11943.49     1000 
  538000    0.7528663   -1.9887396    1.1281702   -0.8605694   0.14243767    11991.914     1000 
  540000   0.73974981   -1.9491122    1.1085151  -0.84059712   0.13759985    11808.034     1000 
  542000   0.70773713   -1.9963683    1.0605441  -0.93582417   0.12567463    11692.144     1000 
  544000   0.76686552   -2.0206633     1.149148  -0.87151534   0.12934276    11872.227     1000 
  546000   0.74922785   -1.9821168    1.1227179  -0.85939884   0.12801038    11916.303     1000 
  548000   0.73313073   -1.9782136    1.0985964  -0.87961715    0.1213858    11972.327     1000 
  550000    0.7664509   -2.0044224    1.1485267   -0.8558957    0.1139371    11867.148     1000 
  552000   0.71610768   -2.0352985    1.0730874  -0.96221119   0.14204681    11676.742     1000 
  554000   0.72600548   -2.0257737    1.0879192  -0.93785446   0.12679024    12035.339     1000 
  556000   0.73379695   -1.9703154    1.0995947  -0.87072063   0.14787742    11763.684     1000 
  558000   0.77308484   -2.0174818    1.1584676  -0.85901421   0.14191985     11702.69     1000 
  560000   0.74357378   -1.9625925    1.1142453  -0.84834716    0.1355888    11562.549     1000 
  562000   0.74126489    -2.024263    1.1107854  -0.91347759   0.12057267    11955.438     1000 
  564000   0.74858785   -1.9654253    1.1217589  -0.84366644   0.13036478    11727.438     1000 
  566000   0.78977871    -1.981134    1.1834834  -0.79765063   0.13097719    12038.203     1000 
  568000   0.70269082   -1.9136971    1.0529822  -0.86071496   0.12222408    11674.199     1000 
  570000   0.75174246   -1.9955113    1.1264861  -0.86902518   0.14081484    11810.556     1000 
  572000   0.74867061   -1.9442449    1.1218829  -0.82236197   0.12563391    11720.937     1000 
  574000    0.7328647   -1.9889412    1.0981978  -0.89074346   0.12435085    11935.649     1000 
  576000   0.75633382   -1.9705263    1.1333662  -0.83716006   0.13188294    11839.406     1000 
  578000   0.74834503   -1.9801156     1.121395  -0.85872057   0.12024414    11935.483     1000 
  580000   0.74815552   -1.9790326     1.121111  -0.85792152   0.11111377    11888.377     1000 
  582000   0.78045763   -1.9955145    1.1695158  -0.82599876   0.13629114    11794.718     1000 
  584000   0.72083239   -1.9684301    1.0801673   -0.8882628   0.13943721    11768.169     1000 
  586000   0.76092111   -2.0082047    1.1402403  -0.86796445   0.13569798    11924.351     1000 
  588000   0.78320666    -1.994499    1.1736352  -0.82086384   0.12713447    11822.341     1000 
  590000   0.73602422   -2.0122712    1.1029323  -0.90933892   0.12049079    11970.775     1000 
  592000   0.76206536   -1.9881966    1.1419549  -0.84624163   0.13408567    11844.316     1000 
  594000   0.73636552   -2.0038036    1.1034437  -0.90035988   0.12063806    11789.699     1000 
  596000   0.76229965   -1.9567891     1.142306   -0.8144831   0.13445104    11954.151     1000 
  598000   0.74781043   -1.9543363    1.1205939  -0.83374233   0.13303746     11976.55     1000 
  600000   0.73893431    -1.903853    1.1072931  -0.79655993     0.135534    11725.885     1000 
  602000   0.71306109   -1.9581362     1.068522  -0.88961411   0.13097695    11854.953     1000 
  604000   0.76832315   -1.9949681    1.1513322  -0.84363589   0.12508565    11959.683     1000 
  606000   0.75809612   -1.9469432     1.136007  -0.81093621   0.13968091     11776.34     1000 
  608000   0.75314229   -1.9819853    1.1285837  -0.85340155   0.12250259     11856.58     1000 
  610000   0.73539553   -2.0082684    1.1019902  -0.90627822   0.13357194    11705.836     1000 
  612000    0.7362408   -1.9680326    1.1032568  -0.86477576   0.12171698    11914.188     1000 
  614000   0.71757608   -1.9825252    1.0752878  -0.90723748     0.130858    11833.463     1000 
  616000   0.74692021   -2.0294455    1.1192599  -0.91018557   0.13801011    11891.835     1000 
  618000   0.74327402    -2.004147    1.1137961  -0.89035091   0.12541885    11589.444     1000 
  620000   0.73315809   -1.9715086    1.0986374  -0.87287122   0.14160107    11711.524     1000 
  622000   0.73507775   -1.9758467     1.101514   -0.8743327   0.15534536    11571.276     1000 
  624000   0.73901114   -1.9104366    1.1074082  -0.80302839   0.11285653    11840.148     1000 
  626000   0.74596396   -1.9693924     1.117827  -0.85156542   0.12932527    12102.216     1000 
  628000   0.77331334    -1.963166      1.15881  -0.80435594   0.14141671    11820.971     1000 
  630000   0.70444225   -1.9210183    1.0556067  -0.86541163   0.11153299    11916.169     1000 
  632000   0.77944938   -1.9741057    1.1680049  -0.80610077   0.12621396    11951.505     1000 
  634000   0.71768758   -1.9794759    1.0754548  -0.90402106   0.11963474    11869.863     1000 
  636000   0.73402667    -2.004545     1.099939  -0.90460601   0.12281347    11751.749     1000 
  638000   0.73681331   -2.0115764    1.1041148  -0.90746168   0.13507569    11718.593     1000 
  640000   0.77473562   -1.9601505    1.1609413  -0.79920923   0.12951601    11770.898     1000 
  642000   0.77859164   -2.0139149    1.1667196  -0.84719531   0.13029725    11908.833     1000 
  644000   0.74610649   -2.0406407    1.1180406  -0.92260012   0.10834176    12139.376     1000 
  646000   0.71600185    -2.028465    1.0729288  -0.95553618   0.11606773    11976.466     1000 
  648000   0.74307666   -1.9640542    1.1135004  -0.85055385   0.14136766    11592.291     1000 
  650000   0.75756674   -1.9903627    1.1352138  -0.85514899   0.12697322    11889.747     1000 
  652000   0.73822023   -1.9977542     1.106223  -0.89153121   0.12043726    12200.503     1000 
  654000   0.75464117   -2.0092443    1.1308298  -0.87841447   0.14249967    11742.713     1000 
  656000   0.72349091   -1.9859107    1.0841511  -0.90175954   0.11136777    12002.648     1000 
  658000   0.74591453   -1.9198418    1.1177529  -0.80208885   0.13494264    11753.996     1000 
  660000   0.73883696   -1.9082611    1.1071472  -0.80111396   0.12931223    11896.608     1000 
  662000   0.74512571   -1.9679945    1.1165709  -0.85142366   0.13659502    11703.535     1000 
  664000   0.73843952   -1.9719438    1.1065516  -0.86539216   0.14183257    11795.746     1000 
  666000   0.77299366   -2.0131841     1.158331  -0.85485312   0.12739122    12059.621     1000 
  668000    0.7875265   -2.0039698    1.1801085  -0.82386137   0.13688947    12045.501     1000 
  670000    0.7475739   -2.0014121    1.1202395  -0.88117263   0.13156831    11673.179     1000 
  672000   0.77602608   -2.0342062    1.1628751  -0.87133113   0.14014614    11825.586     1000 
  674000   0.77358605    -1.990536    1.1592187  -0.83131728   0.11371602    12059.229     1000 
  676000   0.73547403    -1.966909    1.1021078  -0.86480117   0.13010239    11860.674     1000 
  678000   0.77195735   -2.0044286    1.1567781  -0.84765055   0.12348701    11836.486     1000 
  680000   0.75237214    -1.936105    1.1274296  -0.80867539   0.13665876    11874.791     1000 
  682000   0.75229678   -1.9935941    1.1273167  -0.86627741   0.12867747    11809.387     1000 
  684000    0.7762563   -2.0071989    1.1632201  -0.84397888   0.12875432    12095.396     1000 
  686000   0.75393777   -1.9435775    1.1297758  -0.81380176   0.12682883    11955.947     1000 
  688000   0.77603587    -2.036417    1.1628897  -0.87352727   0.12625201    11873.066     1000 
  690000   0.73474779   -1.9660675    1.1010196  -0.86504793   0.12432558    11804.006     1000 
  692000   0.78248269   -1.9428695    1.1725503  -0.77031917   0.13601926    11865.083     1000 
  694000   0.70606105   -1.9729075    1.0580325  -0.91487499   0.13750863    11613.261     1000 
  696000   0.75579418   -2.0211719    1.1325576  -0.88861431   0.13876883    11841.314     1000 
  698000   0.77301396   -2.0250502    1.1583614  -0.86668881   0.14682765    11738.577     1000 
  700000   0.76383215   -2.0036813    1.1446025   -0.8590788   0.13628472    11630.482     1000 
  702000   0.71816482   -1.9526523      1.07617  -0.87648234   0.12858902     11999.33     1000 
  704000   0.72300085   -2.0357011    1.0834168  -0.95228434   0.12156971    11933.283     1000 
  706000   0.73846136   -1.9708301    1.1065843  -0.86424579   0.13681275    11984.478     1000 
  708000   0.72990106   -1.9396503    1.0937567   -0.8458936   0.13363172    11784.156     1000 
  710000   0.76222001   -2.0040724    1.1421867  -0.86188568   0.13540907    11780.082     1000 
  712000   0.75959545   -1.9941867    1.1382538  -0.85593289   0.12509809    12074.111     1000 
  714000   0.78462461   -2.0573205      1.17576  -0.88156054    0.1323127    11945.992     1000 
  716000   0.77678758   -2.0074818    1.1640162  -0.84346564   0.12257349    12244.876     1000 
  718000   0.73965277   -2.0116582    1.1083697  -0.90328856   0.12743348    11869.159     1000 
  720000   0.71151254   -1.9560248    1.0662015   -0.8898233   0.12473553    11888.094     1000 
  722000   0.74242758    -2.008136    1.1125277  -0.89560827   0.14120797     11801.73     1000 
  724000   0.74597638    -1.979643    1.1178456  -0.86179738   0.13455328    11902.597     1000 
  726000   0.73754259   -1.9758766    1.1052076    -0.870669    0.1320497    11743.472     1000 
  728000   0.74815329    -1.969158    1.1211077  -0.84805029   0.12859408    12089.546     1000 
  730000   0.73613058   -1.9882798    1.1030917   -0.8851881   0.12228942     12002.25     1000 
  732000   0.75377445   -2.0082138     1.129531  -0.87868279   0.14625501    11868.924     1000 
  734000   0.74521861   -1.9833813    1.1167101  -0.86667126   0.10873871    12075.123     1000 
  736000   0.76288376    -2.039072    1.1431813  -0.89589066   0.14105196    11837.654     1000 
  738000   0.75980569   -1.9690538    1.1385688  -0.83048498   0.12749954    11962.671     1000 
  740000   0.76802361   -2.0132507    1.1508834  -0.86236734   0.12761367    11779.214     1000 
  742000   0.73140451    -1.999932    1.0960097  -0.90392237   0.13385283    11958.398     1000 
  744000   0.72944617   -1.9772439    1.0930751  -0.88416878   0.13108341    11791.958     1000 
  746000    0.7563235   -2.0159345    1.1333508  -0.88258373   0.12947503    11954.644     1000 
  748000   0.77428574   -1.9844822    1.1602672  -0.82421504   0.13257547    11879.988     1000 
  750000   0.73365969    -1.978836     1.099389  -0.87944698   0.14376389    11738.942     1000 
  752000   0.73047349   -2.0157228    1.0946145  -0.92110829   0.11211064    12037.518     1000 
  754000   0.76278099   -1.9872366    1.1430273  -0.84420927   0.14793468    11633.308     1000 
  756000   0.73738491    -2.045498    1.1049713  -0.94052667   0.11256205    12004.787     1000 
  758000   0.75766388   -1.9489612    1.1353593  -0.81360188   0.13196692    11734.732     1000 
  760000   0.75093027   -2.0214476     1.125269  -0.89617859   0.14600306    11877.625     1000 
  762000   0.77437005   -1.9582105    1.1603935  -0.79781701   0.13338516    11821.106     1000 
  764000   0.74998086    -1.975519    1.1238463  -0.85167273   0.14492204     11620.42     1000 
  766000   0.74226524   -1.9681063    1.1122845  -0.85582184   0.12113955     11907.92     1000 
  768000   0.75828692   -2.0112758    1.1362929  -0.87498289   0.12147013    11977.789     1000 
  770000   0.75436844   -1.9763134    1.1304211  -0.84589233   0.13576716     11768.18     1000 
  772000    0.7226158   -1.9866449    1.0828398  -0.90380508    0.1178951    11792.306     1000 
  774000   0.72804775   -1.9807893    1.0909796  -0.88980973   0.12235507    11920.421     1000 
  776000   0.77673484   -1.9898593    1.1639372  -0.82592217   0.12694129    11691.259     1000 
  778000   0.73483325   -1.9877651    1.1011476  -0.88661752   0.11837808    12052.039     1000 
  780000   0.76187506   -2.0336466    1.1416698  -0.89197684   0.12266548    11950.755     1000 
  782000   0.74983429     -1.95311    1.1236267  -0.82948328   0.12528669    11993.906     1000 
  784000   0.78003771   -1.9294903    1.1688865   -0.7606038   0.13341447    11710.157     1000 
  786000   0.75998873   -1.9907023    1.1388431  -0.85185917   0.14499306    11615.003     1000 
  788000   0.75258502   -1.9549004    1.1277487   -0.8271517   0.12092523    11917.947     1000 
  790000   0.75726534   -1.9544136    1.1347621  -0.81965148   0.13312943    11902.526     1000 
  792000   0.77408696   -1.9443194    1.1599693   -0.7843501   0.14421102    11480.467     1000 
  794000   0.74887746   -2.0037491    1.1221929  -0.88155619   0.13236662    11842.452     1000 
  796000   0.74820766   -1.9646641    1.1211892  -0.84347492   0.12534467     12085.11     1000 
  798000   0.74151962   -1.9636349    1.1111672  -0.85246779   0.13106044    11700.982     1000 
  800000   0.74116838   -1.9956177    1.1106408   -0.8849769   0.11345433    12006.655     1000 
  802000   0.74769617   -1.9948344    1.1204227  -0.87441166   0.11463587    12069.188     1000 
  804000   0.70853048   -1.9777357    1.0617329  -0.91600273   0.12363315    11825.873     1000 
  806000   0.75164023    -1.943813    1.1263329  -0.81748007   0.13665217     11718.02     1000 
  808000   0.73488376   -2.0181238    1.1012233  -0.91690052   0.12741245    11843.698     1000 
  810000   0.72219644   -2.0031521    1.0822114  -0.92094075   0.14697196    11814.763     1000 
  812000   0.74511893   -1.9663138    1.1165607  -0.84975307   0.11844889    12168.703     1000 
  814000   0.72183911   -1.9793199    1.0816759    -0.897644    0.1242668    11989.026     1000 
  816000   0.73312746   -1.9885406    1.0985915  -0.88994912   0.12147985      11975.3     1000 
  818000   0.74253509   -1.9566618    1.1126888  -0.84397294   0.12761196    11870.859     1000 
  820000   0.76739924   -1.9612662    1.1499478  -0.81131844   0.14313965    11674.811     1000 
  822000   0.77054504   -2.0364841    1.1546617  -0.88182237   0.13491846    12049.698     1000 
  824000   0.76556264   -1.9829226    1.1471956  -0.83572702   0.12444792    11993.983     1000 
  826000   0.78343056   -2.0012123    1.1739707   -0.8272416   0.14103955    11774.387     1000 
  828000   0.75760396   -1.9110746    1.1352695  -0.77580504   0.11910818    11848.745     1000 
  830000   0.74940579   -2.0312468    1.1229846  -0.90826225   0.13028388    12071.578     1000 
  832000   0.75292957   -1.9673745     1.128265  -0.83910953   0.12958407    11945.395     1000 
  834000   0.76387451   -2.0184639     1.144666  -0.87379789   0.12079341    11958.845     1000 
  836000   0.71310087    -1.996972    1.0685817  -0.92839034   0.12767158    11742.106     1000 
  838000   0.74140897    -1.891117    1.1110013  -0.78011563   0.11980864     12041.75     1000 
  840000   0.75615664   -1.9899871    1.1331007  -0.85688633   0.13999115    11929.353     1000 
  842000   0.73470734   -2.0038989    1.1009589  -0.90293994   0.14754941    11746.652     1000 
  844000   0.79415241   -1.9554559    1.1900374  -0.76541855   0.14194169    11761.387     1000 
  846000   0.76002743   -2.0051649    1.1389011   -0.8662638    0.1253239    12089.218     1000 
  848000   0.73223716   -2.0020508    1.0972574  -0.90479339   0.13608734    11731.191     1000 
  850000    0.7677227   -2.0089298    1.1504325  -0.85849736   0.12735856    11945.679     1000 
  852000   0.79458499   -1.9845292    1.1906856  -0.79384361   0.13770221    11833.947     1000 
  854000   0.72361053   -1.9602562    1.0843304  -0.87592586   0.13720604    11721.132     1000 
  856000   0.72105712   -1.9349629    1.0805041  -0.85445879   0.12360866    12020.621     1000 
  858000   0.76917338   -2.0181991    1.1526063  -0.86559284   0.11311792    11943.577     1000 
  860000   0.73300023   -1.9671026    1.0984009  -0.86870175   0.13783099    11827.397     1000 
  862000   0.76646853   -1.9813924    1.1485531  -0.83283928   0.13851657    11821.772     1000 
  864000   0.74209126   -2.0204844    1.1120238  -0.90846064   0.11497522    12088.778     1000 
  866000   0.76128051   -2.0559913    1.1407788  -0.91521247   0.12402654    11960.306     1000 
  868000   0.77304369   -2.0141024     1.158406  -0.85569645   0.12809646    11798.412     1000 
  870000   0.75587914   -1.9398123    1.1326849  -0.80712742   0.12648552    11823.306     1000 
  872000   0.73129678   -1.9807887    1.0958482  -0.88494048    0.1260406    11785.695     1000 
  874000   0.74650028   -1.9545352    1.1186307  -0.83590452   0.12650667    12059.978     1000 
  876000   0.74055192   -1.9937185    1.1097171  -0.88400147    0.1389845    11787.978     1000 
  878000   0.72013565   -1.9684996    1.0791233  -0.88937632   0.14633681    11567.444     1000 
  880000   0.72986625   -1.9802257    1.0937046  -0.88652114   0.13048919    11733.931     1000 
  882000   0.77396428   -1.9556254    1.1597855  -0.79583987   0.13512073    11788.631     1000 
  884000   0.76730883   -1.9800349    1.1498123  -0.83022261   0.12240466    12010.014     1000 
  886000   0.76996837   -1.9037287    1.1537976   -0.7499311   0.12743532    11850.139     1000 
  888000   0.78116032   -2.0168414    1.1705687  -0.84627263   0.12790345    11973.259     1000 
  890000   0.76978662   -2.0000213    1.1535253  -0.84649606    0.1230451    12037.905     1000 
  892000   0.75721974    -2.012104    1.1346938  -0.87741021    0.1203262    12025.681     1000 
  894000   0.77788649   -1.9421668    1.1656629  -0.77650395   0.13740193    11652.931     1000 
  896000   0.75061744    -2.024129    1.1248002  -0.89932877   0.12670611    11978.148     1000 
  898000   0.71792291   -1.9529442    1.0758075  -0.87713676   0.13003363    12026.152     1000 
  900000   0.71955095   -1.9931707    1.0782471  -0.91492356   0.12795246    11775.041     1000 
  902000   0.75459105   -2.0049575    1.1307547  -0.87420285   0.13946936    11615.613     1000 
  904000   0.78289995   -1.9819507    1.1731756  -0.80877508   0.14234304     11784.64     1000 
  906000   0.72697036   -2.0724244    1.0893651  -0.98305927   0.12395343    11904.161     1000 
  908000   0.75811803   -1.9135685    1.1360399  -0.77752862   0.14342343    11696.584     1000 
  910000   0.76147814    -2.068468     1.141075  -0.92739298   0.13460561    12018.604     1000 
  912000   0.74651229   -1.9828437    1.1186487  -0.86419502   0.10683028    12306.955     1000 
  914000    0.7700502   -1.9860168    1.1539202  -0.83209655   0.14086322    11649.383     1000 
  916000   0.76065195     -1.97205    1.1398369  -0.83221309   0.12552709     11953.21     1000 
  918000   0.73163124   -1.9393557    1.0963494  -0.84300633   0.14219821    11923.115     1000 
  920000    0.7830755   -2.0001191    1.1734386  -0.82668042   0.13375323    11887.407     1000 
  922000   0.75322921   -1.9507608     1.128714  -0.82204684   0.13967986    11715.763     1000 
  924000   0.74000175   -1.9517349    1.1088926  -0.84284223   0.13274077    12012.253     1000 
  926000   0.71677514   -1.9630916    1.0740875  -0.88900407   0.12405279    11905.763     1000 
  928000   0.72681085   -1.9661109    1.0891261  -0.87698486   0.12755143    11849.997     1000 
  930000   0.75132234   -1.9961411    1.1258565  -0.87028455   0.13327417    12023.744     1000 
  932000   0.81734496   -1.9862854    1.2247914  -0.76149393   0.14028845    11907.974     1000 
  934000    0.7541249   -1.9239387    1.1300562  -0.79388253   0.13784181    11679.443     1000 
  936000   0.74860505   -2.0153126    1.1217847  -0.89352793   0.11826373    11940.723     1000 
  938000   0.76522629   -2.0243925    1.1466916  -0.87770091   0.12829717    11990.925     1000 
  940000   0.73399926   -1.9994471    1.0998979   -0.8995492   0.12433014    11778.877     1000 
  942000   0.75090243    -2.017751    1.1252273  -0.89252367   0.12232664    12046.171     1000 
  944000   0.74002612    -1.941533    1.1089291  -0.83260384   0.12914934    11854.788     1000 
  946000   0.75493124    -1.967756    1.1312645  -0.83649157   0.14513881    11756.144     1000 
  948000   0.73001761   -1.9944988    1.0939314  -0.90056745   0.11587688    12060.555     1000 
  950000   0.73062611   -2.0193712    1.0948432  -0.92452795   0.12445575    11890.664     1000 
  952000   0.75991011   -1.9672991    1.1387253  -0.82857384   0.14992206    11887.127     1000 
  954000   0.76558255   -1.9952287    1.1472254  -0.84800324   0.13752355    11853.693     1000 
  956000    0.7588978   -2.0025769    1.1372084  -0.86536854   0.14035194     11824.98     1000 
  958000   0.76461199   -1.9864575    1.1457711  -0.84068643    0.1242024    11888.218     1000 
  960000    0.7343376   -1.9460459    1.1004049  -0.84564102    0.1186512    11913.679     1000 
  962000   0.71739076   -1.9378398    1.0750101  -0.86282974   0.11966166    12145.509     1000 
  964000   0.72833914   -2.0057169    1.0914162   -0.9143007   0.13909026    11870.571     1000 
  966000   0.73898283   -1.9581217    1.1073658  -0.85075597   0.13919445    11670.256     1000 
  968000   0.76069904   -1.9966542    1.1399075  -0.85674665   0.11515507    11974.099     1000 
  970000   0.78396618   -1.9850714    1.1747733   -0.8102981   0.12519141    11834.789     1000 
  972000   0.76201507   -1.9827363    1.1418796   -0.8408567   0.12942768    11822.613     1000 
  974000   0.75094735    -2.008801    1.1252946  -0.88350643    0.1318167    11909.832     1000 
  976000    0.7334227   -2.0121273    1.0990339  -0.91309342   0.13425633     11836.82     1000 
  978000   0.73589272   -1.9824926    1.1027352  -0.87975733   0.11870342    11919.478     1000 
  980000   0.72591096   -1.9988657    1.0877776  -0.91108811   0.12612255    11844.854     1000 
  982000    0.7695822    -1.923436    1.1532189  -0.77021712   0.14090815    11873.799     1000 
  984000   0.75258593   -1.9707124      1.12775  -0.84296242    0.1347165    11699.863     1000 
  986000   0.72290723    -1.971212    1.0832765   -0.8879355   0.12193449    11829.511     1000 
  988000   0.72141773   -1.9603992    1.0810445  -0.87935473   0.13443826    11868.772     1000 
  990000   0.75128216   -1.9881151    1.1257963  -0.86231881   0.13405744    11847.505     1000 
  992000   0.73279054   -1.9684118    1.0980866  -0.87032521   0.12634572    11767.023     1000 
  994000   0.76281927    -1.909401    1.1430847  -0.76631632   0.14084815    11558.599     1000 
  996000   0.74459422   -1.9692338    1.1157744  -0.85345933   0.12286674    11942.612     1000 
  998000   0.74909297   -1.9787902    1.1225158  -0.85627436   0.11230799    12116.949     1000 
 1000000   0.74185255   -1.9569135     1.111666  -0.84524742   0.12669976     11781.81     1000 
 1002000   0.74285201   -1.9662443    1.1131637  -0.85308059   0.11760635    11990.581     1000 
 1004000   0.71681165   -2.0275092    1.0741423  -0.95336697   0.12129345    12011.416     1000 
 1006000   0.75945346   -1.9548318     1.138041   -0.8167908   0.12737176    11887.268     1000 
 1008000   0.72999658   -1.9757768    1.0938999  -0.88187698   0.12462406    11877.991     1000 
 1010000    0.7443707   -1.9806033    1.1154395  -0.86516383   0.13103829    11829.351     1000 
 1012000   0.70753028   -1.9666347    1.0602341  -0.90640057   0.14267705    11823.439     1000 
 1014000    0.7362944   -1.9615076    1.1033372  -0.85817042   0.12075955    12078.282     1000 
 1016000   0.74774046   -1.9600086    1.1204891  -0.83951954   0.13484788    11753.867     1000 
 1018000   0.73089661   -1.9735752    1.0952486  -0.87832666   0.11329517    11990.845     1000 
 1020000   0.76223761   -1.9870196    1.1422131  -0.84480654   0.14264366    11793.519     1000 
 1022000   0.74169984   -1.9652278    1.1114372  -0.85379062   0.13611058    11947.092     1000 
 1024000   0.70713093   -1.9394211    1.0596357  -0.87978542      0.11204    11666.848     1000 
 1026000   0.71615733   -2.0357101    1.0731618  -0.96254834   0.12697891    11852.857     1000 
 1028000   0.78602215   -1.9578353    1.1778542   -0.7799811   0.11512427    12105.553     1000 
 1030000   0.76607113   -1.9572737    1.1479576  -0.80931611   0.14785171    11797.916     1000 
 1032000   0.74879656   -1.9645596    1.1220716  -0.84248796   0.12866541    11882.615     1000 
 1034000   0.78215534   -2.0293787    1.1720598  -0.85731889   0.13625445    11809.036     1000 
 1036000   0.72021798   -1.9614755    1.0792466  -0.88222888   0.15260551    11593.725     1000 
 1038000   0.78181213   -2.0269893    1.1715455  -0.85544379   0.12083543    11849.561     1000 
 1040000    0.7220049     -1.95803    1.0819243  -0.87610563   0.12956313     12029.76     1000 
 1042000   0.75771758   -2.0650501    1.1354398  -0.92961028   0.12942997    11731.317     1000 
 1044000   0.78268488   -1.9559739    1.1728533  -0.78312059   0.12369268    12059.501     1000 
 1046000   0.76464325   -1.9851029    1.1458179  -0.83928496   0.14619893     11761.75     1000 
 1048000   0.75601618   -1.9895851    1.1328902  -0.85669489   0.12879013     11885.42     1000 
 1050000   0.77210289   -1.9523449    1.1569962  -0.79534877   0.11630733    11700.425     1000 
 1052000   0.71698477   -1.9948182    1.0744017  -0.92041653   0.11887269    11891.628     1000 
 1054000   0.72579569   -1.9418635    1.0876048  -0.85425867   0.13526154    11733.628     1000 
 1056000   0.75757334   -1.9654944    1.1352237  -0.83027076   0.13743817    11837.397     1000 
 1058000    0.7464299   -1.9215907    1.1185252  -0.80306546    0.1553175    11600.993     1000 
 1060000   0.77281971   -1.9181572    1.1580703  -0.76008686     0.148458    11807.935     1000 
 1062000   0.76299429    -1.989555    1.1433469   -0.8462081   0.11541422    12134.913     1000 
 1064000   0.76042437   -1.9889536    1.1394959  -0.84945764   0.13967334     11693.29     1000 
 1066000   0.75385858   -1.9677406    1.1296571  -0.83808351   0.13028927    11916.824     1000 
 1068000   0.72295766   -1.9887219     1.083352  -0.90536988   0.11246849    12008.722     1000 
 1070000   0.73030244   -2.0230268    1.0943582  -0.92866858   0.13364813     11695.04     1000 
 1072000   0.75619434   -2.0304865    1.1331572  -0.89732934   0.12380939    11954.213     1000 
 1074000   0.78595319    -2.000439    1.1777509  -0.82268811    0.1443909    11816.962     1000 
 1076000   0.76795188   -1.9732912    1.1507759  -0.82251532   0.13628123    11780.937     1000 
 1078000    0.7441511   -2.0149948    1.1151104  -0.89988436     0.133521    11839.947     1000 
 1080000   0.78352089      -2.0106    1.1741061  -0.83649394   0.13125617    11958.545     1000 
 1082000   0.73348481   -2.0192147     1.099127  -0.92008773   0.12580909    11925.223     1000 
 1084000   0.71229903   -1.9477202    1.0673801  -0.88034009   0.12549388     11754.85     1000 
 1086000   0.72320851   -1.9343892     1.083728  -0.85066122   0.13447054    11755.477     1000 
 1088000   0.75619802   -1.9450705    1.1331627   -0.8119078   0.11734126    12122.002     1000 
 1090000   0.77491772   -1.9976101    1.1612142   -0.8363959    0.1313568    11870.019     1000 
 1092000   0.71741994   -1.9672778    1.0750538  -0.89222407   0.13365375    11664.148     1000 
 1094000   0.72790651   -1.9900682    1.0907679  -0.89930026   0.14400289    11832.521     1000 
 1096000   0.69666162    -1.958198    1.0439474  -0.91425056   0.13353451    11838.845     1000 
 1098000   0.73068699   -2.0138375    1.0949344  -0.91890303   0.13369254    11839.916     1000 
 1100000   0.73215886   -1.9785433    1.0971401  -0.88140323   0.12610997    11854.082     1000 
 1102000   0.72810558   -1.9795794    1.0910662   -0.8885132   0.13697051     12001.34     1000 
 1104000   0.78881718   -1.9366352    1.1820425  -0.75459268   0.11696531    12143.819     1000 
 1106000   0.75614398   -1.9636892    1.1330818  -0.83060744   0.13597646    11738.989     1000 
 1108000   0.75150832   -1.9372338    1.1261352  -0.81109861   0.12114291     11950.88     1000 
 1110000   0.74428037   -1.9951657    1.1153041  -0.87986159   0.13426798    11897.483     1000 
 1112000   0.71864306   -1.9375405    1.0768866  -0.86065391   0.11755582    11752.962     1000 
 1114000    0.7193151    -1.934644    1.0778937  -0.85675028   0.12133414    12001.075     1000 
 1116000   0.74899753   -1.9880697    1.1223728  -0.86569689   0.13228034    11886.761     1000 
 1118000   0.73983134   -1.9864615    1.1086373  -0.87782422    0.1405109    11686.512     1000 
 1120000   0.72222148   -1.9677824    1.0822489  -0.88553351    0.1168693     12080.89     1000 
 1122000   0.71830348   -1.9665086    1.0763778  -0.89013085   0.13579202     11697.62     1000 
 1124000   0.73602133   -1.9350941     1.102928  -0.83216619   0.13497071    11756.778     1000 
 1126000   0.76247432   -1.9713632    1.1425678  -0.82879545   0.14717622    11832.379     1000 
 1128000   0.72763695     -2.04337     1.090364  -0.95300602   0.12889372    11953.241     1000 
 1130000   0.72586368   -1.9549923    1.0877067  -0.86728555   0.14756528     11698.92     1000 
 1132000   0.74628972    -1.979147    1.1183151   -0.8608319   0.13467683    11974.377     1000 
 1134000   0.76483902   -1.9846409    1.1461113  -0.83852967   0.13546649    11714.583     1000 
 1136000   0.75803827    -1.983235    1.1359204  -0.84731467   0.14315108    11623.655     1000 
 1138000   0.72980693   -1.9637703    1.0936157  -0.87015459   0.11713413    11916.781     1000 
 1140000   0.74602314   -1.9603702    1.1179157  -0.84245455   0.12925508    11960.605     1000 
 1142000   0.78098199   -2.0291331    1.1703015  -0.85883156    0.1187144    12229.559     1000 
 1144000   0.73559084   -1.9878004    1.1022829  -0.88551753   0.12392679     11856.53     1000 
 1146000   0.77378522   -2.0182379    1.1595171   -0.8587208   0.13539691    11800.043     1000 
 1148000   0.77586522   -1.9785688     1.162634  -0.81593479   0.12733816    12140.335     1000 
 1150000   0.72624505   -1.9127641    1.0882782  -0.82448589   0.12936498    11839.437     1000 
 1152000   0.75594005   -2.0226712    1.1327762  -0.88989505   0.12736828    11861.862     1000 
 1154000   0.74595935   -1.9758757    1.1178201  -0.85805557   0.12118249    12049.477     1000 
 1156000   0.74653027   -1.9768124    1.1186756  -0.85813675   0.11893124    11939.785     1000 
 1158000   0.74292113   -1.9976576    1.1132673  -0.88439029   0.12206538    12030.438     1000 
 1160000   0.71700826   -1.9866455    1.0744369  -0.91220867   0.13843324    11727.648     1000 
 1162000   0.76327677   -2.0611888    1.1437702  -0.91741857   0.12710647    11930.698     1000 
 1164000   0.72539443   -1.9635246    1.0870036  -0.87652102   0.14617876    11739.642     1000 
 1166000   0.74317116   -1.9684749     1.113642  -0.85483288   0.12045475    12030.233     1000 
 1168000   0.74502748   -1.9844285    1.1164237  -0.86800479   0.14189493    11428.843     1000 
 1170000    0.7093452   -1.9409511    1.0629538  -0.87799735   0.13018906    11875.751     1000 
 1172000   0.76740193     -2.02781    1.1499518  -0.87785816   0.12798814    11829.544     1000 
 1174000    0.7543015   -1.9695583    1.1303208  -0.83923747   0.13064512    11815.159     1000 
 1176000   0.76748525    -2.013401    1.1500766   -0.8633244   0.13571949    11698.659     1000 
 1178000   0.71295181   -2.0148154    1.0683583  -0.94645717   0.11194016    12247.937     1000 
 1180000   0.74394485   -1.9269121    1.1148014  -0.81211077   0.12846401    11773.271     1000 
 1182000   0.73108144   -1.9913006    1.0955255  -0.89577505   0.12361459     11897.34     1000 
 1184000   0.73947835    -2.001059    1.1081083  -0.89295069   0.14420831    11730.869     1000 
 1186000   0.75607059   -1.9803548    1.1329718  -0.84738304   0.12741899    11815.347     1000 
 1188000   0.75539705   -1.9972091    1.1319625  -0.86524665   0.13213854    11902.033     1000 
 1190000   0.73403062   -1.9734352    1.0999449  -0.87349029   0.13883273    11828.909     1000 
 1192000   0.76582996   -1.8948425    1.1475962  -0.74724631   0.12221137    12146.713     1000 
 1194000   0.76212329   -1.9634657    1.1420417  -0.82142395    0.1413102    11711.702     1000 
 1196000   0.73633685   -2.0253164    1.1034008  -0.92191567   0.11974557    11947.166     1000 
 1198000   0.74294263   -1.9663628    1.1132995  -0.85306327   0.11157939    12100.946     1000 
 1200000   0.81097775   -1.9882382    1.2152502    -0.772988   0.13344193    11940.897     1000 
 1202000   0.74502635   -1.9443074     1.116422  -0.82788544   0.13104314    12152.531     1000 
 1204000   0.71276206   -2.0311488    1.0680739  -0.96307484   0.12466402     11712.33     1000 
 1206000   0.73177739   -1.9840322    1.0965684  -0.88746381   0.11348693    11934.758     1000 
 1208000   0.74064187   -2.0028928    1.1098518  -0.89304094   0.13299957    11804.101     1000 
 1210000   0.75658865   -2.0049938    1.1337481  -0.87124567   0.11744665    12102.875     1000 
 1212000   0.76091223   -2.0081091     1.140227  -0.86788216   0.12232765    11959.822     1000 
 1214000   0.72635036   -1.9166329     1.088436  -0.82819691   0.13101731    11695.476     1000 
 1216000   0.73831636   -2.0160649    1.1063671  -0.90969783    0.1343642    11685.989     1000 
 1218000   0.76756977   -1.9528473    1.1502033  -0.80264399   0.15079167    11603.937     1000 
 1220000   0.74418156   -1.9514174    1.1151561  -0.83626135   0.13296517    11796.145     1000 
 1222000   0.74527725   -2.0236234     1.116798  -0.90682544   0.14443726    11576.629     1000 
 1224000    0.7604299   -1.9565424    1.1395042  -0.81703819   0.14897696    11647.934     1000 
 1226000   0.76727518   -1.9788906    1.1497619  -0.82912877   0.13406825     11849.29     1000 
 1228000   0.74574607   -1.9577606    1.1175005  -0.84026011   0.13832126     11664.32     1000 
 1230000   0.70971646   -1.9553959    1.0635101  -0.89188583   0.12130453    12060.409     1000 
 1232000   0.78102346   -2.0009406    1.1703637  -0.83057692   0.11976444     11943.03     1000 
 1234000   0.73530476   -1.9305626    1.1018542  -0.82870841   0.12802132    11897.091     1000 
 1236000    0.7417089   -1.9809921    1.1114508  -0.86954132   0.14321301    11691.762     1000 
 1238000   0.77405795   -1.9416028    1.1599258  -0.78167698   0.12222909    11905.464     1000 
 1240000   0.74956956   -1.9595201      1.12323  -0.83629008   0.13511264     11842.89     1000 
 1242000   0.72076232   -1.9742888    1.0800623  -0.89422643   0.13514753     11920.01     1000 
 1244000   0.75586126   -2.0112706    1.1326581  -0.87861249   0.12482172     11994.31     1000 
 1246000    0.7464265   -2.0163427    1.1185201   -0.8978226   0.12347129    11739.195     1000 
 1248000   0.72506484   -1.9717146    1.0865097   -0.8852049   0.12470845     11857.21     1000 
 1250000   0.78908082   -1.9064529    1.1824376  -0.72401529   0.11787398    12218.322     1000 
 1252000   0.76324783    -2.009569    1.1437269  -0.86584215   0.12733827    12044.009     1000 
 1254000   0.76791136   -1.9788153    1.1507152  -0.82810008   0.12639155    11770.946     1000 
 1256000   0.73692858   -1.9912747    1.1042875   -0.8869872   0.12838883    12108.739     1000 
 1258000   0.76568458   -1.9777891    1.1473783  -0.83041078   0.13532075    11723.784     1000 
 1260000   0.74016684   -1.9240213      1.10914  -0.81488124   0.13507661    11768.451     1000 
 1262000   0.73607829   -2.0563294    1.1030133   -0.9533161   0.12744586    11934.451     1000 
 1264000   0.76209464   -1.9973967    1.1419988   -0.8553979   0.12470357    11733.467     1000 
 1266000   0.75591964   -1.9934866    1.1327456  -0.86074107   0.13581035    11749.817     1000 
 1268000   0.74389446    -1.912538    1.1147259  -0.79781217    0.1287787    11868.638     1000 
 1270000   0.74983927   -1.9485615    1.1236341  -0.82492735   0.15183338    11557.044     1000 
 1272000   0.76199479   -1.9625453    1.1418492  -0.82069609   0.11194891    12136.572     1000 
 1274000   0.75821634   -2.0160338    1.1361872  -0.87984664   0.12060371    11901.048     1000 
 1276000   0.72820253   -2.0184488    1.0912115  -0.92723727   0.12727284    11744.889     1000 
 1278000   0.73667564   -1.9929528    1.1039084  -0.88904439   0.14522968    11641.199     1000 
 1280000   0.76182904   -2.0072291    1.1416008  -0.86562833   0.10476253    12180.867     1000 
 1282000   0.78002213   -1.9206671    1.1688632  -0.75180394   0.14662251    11848.738     1000 
 1284000   0.74812198   -1.9747402    1.1210608  -0.85367941   0.13959978    11797.243     1000 
 1286000   0.75808266   -1.9427694    1.1359869  -0.80678257   0.14875993     11693.72     1000 
 1288000   0.75790258   -1.9688847     1.135717  -0.83316773   0.11004144    12093.443     1000 
 1290000   0.75703116   -1.9423365    1.1344112  -0.80792526   0.11667409    12044.046     1000 
 1292000    0.7662436   -1.9982359     1.148216   -0.8500199   0.12976305    11722.009     1000 
 1294000   0.74301346   -2.0020263    1.1134057  -0.88862068   0.12407404    12096.732     1000 
 1296000    0.7148674    -1.997077    1.0712288  -0.92584826   0.13994297    11866.222     1000 
 1298000   0.77643656   -1.9970355    1.1634902  -0.83354528   0.13248732     11846.95     1000 
 1300000   0.73816488   -1.9350699    1.1061401  -0.82892986   0.12421088     12025.29     1000 
 1302000   0.74741111   -1.9446149    1.1199956  -0.82461939   0.14039693    11904.347     1000 
 1304000   0.73107668   -2.0824631    1.0955184  -0.98694466    0.1265359    11875.718     1000 
 1306000   0.73561998   -2.0000501    1.1023265  -0.89772359   0.12752432    11741.599     1000 
 1308000    0.7419515   -1.9284885    1.1118143   -0.8166742   0.13989691    12012.951     1000 
 1310000   0.75608468   -2.0003658    1.1329929   -0.8673729   0.12225923    12101.393     1000 
 1312000    0.7397366   -1.9901398    1.1084953  -0.88164448   0.12848535    11833.485     1000 
 1314000   0.75846936   -1.9636158    1.1365663  -0.82704947   0.11629015    12166.939     1000 
 1316000   0.76681022   -1.9751646    1.1490651  -0.82609949   0.11975612    11985.243     1000 
 1318000   0.74607961   -1.9687906    1.1180003  -0.85079031   0.14596918     11769.75     1000 
 1320000   0.75301896   -2.0166425    1.1283989  -0.88824357   0.13079268    11729.385     1000 
 1322000   0.72443768   -2.0067368    1.0855699  -0.92116694   0.12799529    11825.406     1000 
 1324000   0.73859082   -2.0088129    1.1067783  -0.90203454   0.12032888    11996.653     1000 
 1326000   0.76643508    -2.011001     1.148503  -0.86249801   0.12125739    11935.007     1000 
 1328000   0.76166733   -2.0182458    1.1413585  -0.87688733   0.14434701    11615.717     1000 
 1330000   0.78601093   -1.9537177    1.1778374  -0.77588035   0.14083205    11879.092     1000 
 1332000   0.72277665   -2.0121135    1.0830808  -0.92903267   0.13172301    11925.957     1000 
 1334000   0.75199312   -2.0358031    1.1268617   -0.9089414   0.11972405    11952.215     1000 
 1336000   0.72014371    -1.985147    1.0791353  -0.90601166   0.12760802    11940.188     1000 
 1338000   0.77861976   -1.9449769    1.1667617  -0.77821516   0.12515873     11978.02     1000 
 1340000    0.7536619   -1.9378382    1.1293624   -0.8084758   0.13688702    11895.278     1000 
 1342000   0.77369917    -1.972744    1.1593882  -0.81335583   0.14243372    11653.701     1000 
 1344000   0.77225712   -1.9898764    1.1572273  -0.83264915   0.13056221    11942.829     1000 
 1346000   0.75807134   -1.9995464    1.1359699  -0.86357648   0.13729006     11817.31     1000 
 1348000   0.74967334   -1.9804149    1.1233855  -0.85702939   0.12220879    11908.365     1000 
 1350000   0.71238964   -1.9985663    1.0675159   -0.9310504    0.1340128    11982.582     1000 
 1352000   0.72909238   -1.9983637    1.0925449  -0.90581874   0.12494324    12020.342     1000 
 1354000   0.76625602   -1.9953727    1.1482347  -0.84713802   0.13315715    11903.459     1000 
 1356000   0.74817618    -1.948992     1.121142  -0.82785001   0.11869743    11988.152     1000 
 1358000   0.73849811   -2.0022078    1.1066394  -0.89556837   0.12517104    11880.013     1000 
 1360000   0.76530857   -1.9998831    1.1468149  -0.85306823   0.12938746    11873.228     1000 
 1362000   0.78035925   -2.0310488    1.1693683  -0.86168048   0.11479812    12076.729     1000 
 1364000   0.74006312   -1.9711478    1.1089846  -0.86216327   0.13974243    11852.334     1000 
 1366000   0.76510448   -1.9518553    1.1465091  -0.80534625   0.14864917    11665.911     1000 
 1368000   0.73377022   -1.9537927    1.0995547  -0.85423806   0.13756333     11859.41     1000 
 1370000   0.72242864   -2.0260206    1.0825593   -0.9434613   0.14212401    11599.554     1000 
 1372000   0.73186849   -2.0362718    1.0967049  -0.93956689   0.11347573    11856.723     1000 
 1374000   0.73117365   -2.0319156    1.0956637  -0.93625189   0.11446951    12049.851     1000 
 1376000    0.7377761   -1.9855585    1.1055575  -0.88000106   0.13359528     11771.76     1000 
 1378000    0.7447562   -1.9958465    1.1160172  -0.87982929   0.11484767    12047.743     1000 
 1380000   0.70680916    -1.998183    1.0591535  -0.93902942   0.11337845    11891.413     1000 
 1382000   0.74059174   -1.9696663    1.1097767  -0.85988962   0.12477267    11831.165     1000 
 1384000   0.74915278   -1.9750311    1.1226054  -0.85242565   0.12973536    11739.995     1000 
 1386000   0.78387797   -2.0624558    1.1746411  -0.88781461   0.11581144    11900.861     1000 
 1388000   0.76553979   -2.0708998    1.1471614   -0.9237384   0.11837169     12207.12     1000 
 1390000   0.74222603   -1.9467656    1.1122257  -0.83453985   0.14606921    11619.128     1000 
 1392000   0.77642186   -1.8903354    1.1634682  -0.72686722   0.13794975    11858.739     1000 
 1394000   0.73331389   -1.9883953    1.0988709  -0.88952439   0.11874761    12216.975     1000 
 1396000   0.73456492   -1.9985782    1.1007455   -0.8978327   0.12170104    11930.232     1000 
 1398000   0.75016501   -2.0336977    1.1241223   -0.9095754   0.12656837    11769.596     1000 
 1400000   0.74986804   -2.0602522    1.1236773  -0.93657494   0.11663187    12093.232     1000 
 1402000   0.78917304   -1.9325064    1.1825758  -0.74993057   0.13549133    11927.772     1000 
 1404000   0.77717997   -1.9658418    1.1646042   -0.8012376   0.12771151     11701.01     1000 
 1406000    0.7556057   -1.9906386    1.1322751  -0.85836346   0.13802855    11580.723     1000 
 1408000   0.77118946    -1.970369    1.1556274  -0.81474156   0.11807509    12301.268     1000 
 1410000   0.75666873   -2.0223679    1.1338681  -0.88849983   0.12481217    11841.474     1000 
 1412000   0.73961819   -2.0107807    1.1083179  -0.90246289   0.12730745    11810.973     1000 
 1414000   0.75519177   -2.0208334    1.1316549  -0.88917855   0.13538844    11882.212     1000 
 1416000   0.72588618   -2.0098049    1.0877404  -0.92206443   0.13357151    11971.418     1000 
 1418000   0.72458761   -1.9776006    1.0857945  -0.89180607   0.14565354    11670.645     1000 
 1420000   0.75507839   -1.9881178     1.131485  -0.85663289   0.12631496    12030.279     1000 
 1422000   0.75968109   -1.9750735    1.1383821  -0.83669137   0.13075997    11781.961     1000 
 1424000    0.7182965   -1.9675089    1.0763673  -0.89114159   0.11678859    12126.413     1000 
 1426000   0.72916683   -2.0687636    1.0926565  -0.97610708   0.13150231    12034.684     1000 
 1428000   0.72583842   -1.9378643    1.0876689  -0.85019541   0.12843709    11910.136     1000 
 1430000   0.72055915   -1.9125469    1.0797579  -0.83278904   0.13540627    11841.413     1000 
 1432000   0.72075537   -1.9730567    1.0800519   -0.8930048   0.12954783    11749.037     1000 
 1434000    0.7519859   -2.0150823    1.1268509  -0.88823141    0.1296774    11905.696     1000 
 1436000   0.76284804   -1.9775321    1.1431278  -0.83440435   0.14758415    11701.937     1000 
 1438000    0.7324423   -1.9813357    1.0975648  -0.88377093   0.11991951    11835.419     1000 
 1440000   0.72354927   -1.9648995    1.0842386  -0.88066089   0.13226916    11797.296     1000 
 1442000   0.72243808   -2.0048348    1.0825735   -0.9222613   0.14096449    11735.602     1000 
 1444000   0.74660732   -1.9282467    1.1187911  -0.80945564   0.13849836    11751.756     1000 
 1446000   0.76312266   -2.0004643    1.1435393  -0.85692497   0.12206226    12087.217     1000 
 1448000   0.73459901    -1.991532    1.1007966  -0.89073537   0.12438854    12027.935     1000 
 1450000   0.74995046   -2.0160213    1.1238008  -0.89222057   0.12975678    11806.255     1000 
 1452000   0.73361276   -1.9436119    1.0993187  -0.84429321   0.12800575    12156.771     1000 
 1454000   0.74795855   -2.0519909    1.1208159  -0.93117499   0.13019704    11761.791     1000 
 1456000   0.77819601   -2.0031004    1.1661267  -0.83697367    0.1358983    11824.282     1000 
 1458000   0.74915474   -1.9945805    1.1226084  -0.87197209   0.11617548    11803.271     1000 
 1460000   0.75871513   -1.9930745    1.1369346  -0.85613993   0.12231476    12022.201     1000 
 1462000   0.72742571   -1.9643404    1.0900474  -0.87429295   0.11506869    11918.348     1000 
 1464000   0.72814236   -2.0265757    1.0911213   -0.9354544   0.12458769    11906.623     1000 
 1466000   0.72762848   -1.9890086    1.0903513  -0.89865736   0.11656862    11940.341     1000 
 1468000   0.74001341   -2.0253682    1.1089101  -0.91645809   0.13923531     11579.05     1000 
 1470000   0.75845805   -1.9851214    1.1365494    -0.848572    0.1277555    11655.484     1000 
 1472000   0.76427604   -2.0560054    1.1452677  -0.91073778   0.13871662    11900.585     1000 
 1474000   0.73159326   -1.9730377    1.0962925  -0.87674519   0.13111518     11854.52     1000 
 1476000   0.73970162   -1.9835422    1.1084429  -0.87509934   0.11810935    11969.458     1000 
 1478000   0.74791803   -1.9483252    1.1207552  -0.82757003   0.13304969    11688.083     1000 
 1480000   0.77443492   -2.0090236    1.1604907  -0.84853283   0.12875894    11778.221     1000 
 1482000   0.74983306    -1.959435    1.1236248   -0.8358102   0.12923672    11876.007     1000 
 1484000   0.76514441   -2.0343451    1.1465689   -0.8877762   0.12822774    12015.575     1000 
 1486000     0.723245   -1.9704853    1.0837826  -0.88670263   0.12708453    11783.193     1000 
 1488000   0.75069118   -2.0096046    1.1249107  -0.88469389   0.11511145    12122.148     1000 
 1490000   0.73957023   -1.9537996     1.108246  -0.84555362   0.12529458    11833.371     1000 
 1492000   0.75079814   -1.9930719     1.125071  -0.86800091   0.13977149    11742.747     1000 
 1494000   0.74274261   -1.9297805    1.1129998  -0.81678072   0.14288614    11923.615     1000 
 1496000   0.75843831   -1.9926119    1.1365198   -0.8560921   0.13901139    11757.334     1000 
 1498000   0.80648106   -1.9911605    1.2085119  -0.78264861   0.13910631    11788.889     1000 
 1500000   0.75528842    -1.998104    1.1317997  -0.86630433   0.13274387    11858.307     1000 
 1502000    0.7728886   -2.0109581    1.1581736  -0.85278453   0.13093006    12051.016     1000 
 1504000   0.76144864   -1.9774699    1.1410308   -0.8364391   0.13849598    11982.027     1000 
 1506000   0.74544808   -1.9825751     1.117054  -0.86552111   0.13303746    11597.206     1000 
 1508000   0.77367074   -2.0125555    1.1593456  -0.85320985   0.13321496    12022.646     1000 
 1510000   0.74801518   -1.9789285    1.1209007   -0.8580278   0.12732721    11981.004     1000 
 1512000   0.71050733   -1.9666938    1.0646952   -0.9019986   0.13425163    11683.556     1000 
 1514000   0.76846672   -1.9785578    1.1515474  -0.82701041   0.12402909    11905.051     1000 
 1516000    0.7610289    -2.006719    1.1404018  -0.86631718   0.14240477    11830.508     1000 
 1518000   0.74833786   -2.0298347    1.1213843  -0.90845041   0.14609611    11859.959     1000 
 1520000   0.76060379   -2.0207091    1.1397648  -0.88094434   0.13005731    11837.577     1000 
 1522000    0.8001523    -2.000959    1.1990282  -0.80193082   0.14824661    11636.131     1000 
 1524000   0.75360508   -1.9938738    1.1292772   -0.8645966   0.12535909    12090.182     1000 
 1526000   0.75169754   -1.9932891    1.1264188  -0.86687038   0.11098817    12147.337     1000 
 1528000   0.77668865   -2.0022917    1.1638679  -0.83842376   0.12802537    11828.103     1000 
 1530000   0.74842601   -1.9621856    1.1215164   -0.8406692   0.12331205    11808.313     1000 
 1532000   0.75968452   -1.9593755    1.1383872  -0.82098828   0.12289364    11980.135     1000 
 1534000   0.76079679   -1.9868201     1.140054  -0.84676607   0.12228399    11938.909     1000 
 1536000    0.7427367   -1.9765083     1.112991  -0.86351733   0.15116945    11706.319     1000 
 1538000    0.7175545   -1.9366242    1.0752554  -0.86136881   0.14633396    11874.438     1000 
 1540000   0.75914032   -1.9873037    1.1375718  -0.84973193   0.13627302    11697.089     1000 
 1542000   0.74503312   -1.9388617    1.1164321  -0.82242956   0.11683836    12035.589     1000 
 1544000    0.7515384   -1.9770624    1.1261803  -0.85088216   0.12091437    12030.685     1000 
 1546000   0.73219018   -1.9725838     1.097187   -0.8753968   0.12203779    11900.161     1000 
 1548000   0.71990531   -1.9944882    1.0787781   -0.9157101   0.12398917    11860.051     1000 
 1550000   0.74507395   -1.9496331    1.1164933  -0.83313975   0.12794971    11849.795     1000 
 1552000   0.73904718   -1.9664114    1.1074622  -0.85894925   0.12516803    11681.523     1000 
 1554000   0.76072057   -1.9823716    1.1399398  -0.84243178   0.11264503    12026.096     1000 
 1556000   0.75513015   -1.9952542    1.1315625  -0.86369165    0.1379121    11826.132     1000 
 1558000   0.77588289   -1.9572045    1.1626605  -0.79454403   0.13171519    11847.219     1000 
 1560000   0.73686614   -1.9375996    1.1041939  -0.83340568   0.12228142    11955.447     1000 
 1562000   0.74933911   -2.0031879    1.1228847  -0.88030322   0.12827795    11837.799     1000 
 1564000   0.72974708   -1.9557671     1.093526  -0.86224113   0.12798929    11816.369     1000 
 1566000   0.71391037   -1.9956443    1.0697947  -0.92584966   0.12360151    11852.008     1000 
 1568000   0.78374496   -1.9797506    1.1744418  -0.80530878    0.1321473    11867.991     1000 
 1570000   0.78991041   -1.9785013    1.1836808  -0.79482057   0.11620345    11778.339     1000 
 1572000   0.74465642    -1.956191    1.1158676  -0.84032331   0.13933919    11665.293     1000 
 1574000   0.75747549   -1.9519406     1.135077  -0.81686359   0.12641441    11968.609     1000 
 1576000   0.76869899   -1.9640304    1.1518954  -0.81213495   0.13181558    11837.532     1000 
 1578000   0.75063896   -1.9518906    1.1248325  -0.82705808   0.13921124    11671.095     1000 
 1580000   0.79617937   -1.9590178    1.1930748  -0.76594299   0.14460824    11561.915     1000 
 1582000   0.72734033   -1.9893838    1.0899195   -0.8994643   0.14906586    11646.866     1000 
 1584000    0.7276804   -1.9941412    1.0904291  -0.90371208   0.12872042    11930.449     1000 
 1586000   0.71948279   -1.9830459     1.078145  -0.90490097   0.14726781    11699.834     1000 
 1588000   0.73211971   -1.9601606    1.0970814  -0.86307919   0.11566406    11978.365     1000 
[...]
 2614000   0.75566105   -1.9586027    1.1323581  -0.82624463   0.13631969    11835.473     1000 
 2616000   0.73723794   -1.9834855     1.104751   -0.8787345   0.12596179    11691.175     1000 
 2618000    0.7135018    -2.031387    1.0691825  -0.96220457   0.12514125    11799.912     1000 
 2620000   0.75116647   -1.9733618     1.125623  -0.84773888   0.11553916    11874.806     1000 
 2622000   0.71827981     -1.91887    1.0763423   -0.8425277   0.13333747    11743.569     1000 
 2624000    0.7428745   -1.9187421    1.1131974  -0.80554467   0.13280898    11859.152     1000 
 2626000   0.75650485   -2.0008203    1.1336225  -0.86719776   0.13185406    11887.453     1000 
 2628000   0.76598537   -2.0028721    1.1478291    -0.855043   0.14449838    11730.421     1000 
 2630000   0.76858262   -1.9781496    1.1517211   -0.8264285   0.13607437    11807.765     1000 
 2632000   0.75870131   -1.9820359    1.1369139  -0.84512199   0.11978409    11721.633     1000 
 2634000   0.75415563   -2.0099001    1.1301022  -0.87979788   0.13277611    11871.197     1000 
 2636000   0.74932282   -1.9963956    1.1228602  -0.87353532   0.11984669     11950.08     1000 
 2638000   0.74531709   -2.0161862    1.1168577  -0.89932856   0.13748674     11651.07     1000 
 2640000   0.77061543   -1.9370068    1.1547672  -0.78223954   0.14826751    11511.172     1000 
 2642000   0.74071186   -1.9901336    1.1099567  -0.88017691   0.12817681    11889.354     1000 
 2644000   0.78414708   -2.0337609    1.1750444  -0.85871651   0.13904001    11882.146     1000 
 2646000   0.76261998   -1.9428002     1.142786  -0.80001417   0.12765862    11911.905     1000 
 2648000   0.76061877   -1.9410855    1.1397872   -0.8012983   0.13017675    11732.192     1000 
 2650000   0.75436816   -1.9832025    1.1304207  -0.85278177   0.11465985    12078.604     1000 
 2652000   0.78195368   -1.9746285    1.1717576  -0.80287087   0.14356904    11671.995     1000 
 2654000   0.77671259    -1.946715    1.1639038  -0.78281117   0.12593585    12023.858     1000 
 2656000   0.73569897   -1.9812623    1.1024449  -0.87881742   0.12761583    11795.385     1000 
 2658000   0.75830621   -2.0032761    1.1363218  -0.86695422    0.1292467    11983.525     1000 
 2660000   0.73346493   -2.0054598    1.0990972  -0.90636256   0.13166004    11777.429     1000 
 2662000   0.78116954   -1.9519164    1.1705826  -0.78133382     0.140686    11796.383     1000 
 2664000   0.78188165   -2.0270101    1.1716497  -0.85536048   0.11120639    12100.778     1000 
 2666000   0.75554711    -1.987094    1.1321873  -0.85490669   0.12955478    11907.309     1000 
 2668000   0.73588945   -1.9940829    1.1027303  -0.89135255   0.13349464    11871.356     1000 
 2670000   0.74552717   -1.9953015    1.1171725  -0.87812903   0.12466139    11863.489     1000 
 2672000   0.73813901   -1.9301686    1.1061013  -0.82406729    0.1367171    11837.822     1000 
 2674000    0.7465519   -2.0461938     1.118708  -0.92748574   0.12391691    11795.963     1000 
 2676000   0.78007229   -1.9846418    1.1689383  -0.81570348   0.13006549    12040.509     1000 
 2678000   0.75518471   -1.9144222    1.1316443  -0.78277794   0.14164638    11714.471     1000 
 2680000   0.76648849   -1.9995438     1.148583  -0.85096084    0.1278364    11931.383     1000 
 2682000    0.7277934    -1.946288    1.0905984  -0.85568955   0.12197401    11776.965     1000 
 2684000   0.78619683   -1.9360313     1.178116  -0.75791536   0.13640918    11809.634     1000 
 2686000   0.73879744   -2.0123252     1.107088  -0.90523721   0.13347314    11879.524     1000 
 2688000   0.76967342    -2.055264    1.1533556  -0.90190834   0.11708896    12087.075     1000 
 2690000   0.76413664   -2.0626583    1.1450588  -0.91759951   0.13146619    11925.239     1000 
 2692000    0.7495329    -1.951297    1.1231751  -0.82812194   0.13418711    11826.004     1000 
 2694000   0.75941461   -1.9847015    1.1379828  -0.84671866   0.12270624     11989.96     1000 
 2696000   0.74252807   -1.9128559    1.1126783  -0.80017754   0.13235474    11697.842     1000 
 2698000   0.72912453    -1.966918    1.0925931  -0.87432485   0.12855507    11874.589     1000 
 2700000   0.72953083   -1.9562784    1.0932019  -0.86307645   0.12865303    11821.101     1000 
 2702000   0.74949589   -2.0005186    1.1231196  -0.87739904   0.11836609    11975.939     1000 
 2704000   0.74291286   -1.9391744    1.1132549  -0.82591944   0.14352079    11773.923     1000 
 2706000   0.75619565   -1.9783455    1.1331592  -0.84518634   0.13687051    11505.481     1000 
 2708000   0.73014427   -1.9573212    1.0941212  -0.86320006   0.13440762    11958.932     1000 
 2710000   0.72557318   -1.9903896    1.0872714  -0.90311821   0.12529091    11842.217     1000 
 2712000   0.77619479   -1.9951165    1.1631279  -0.83198861    0.1333455     11875.19     1000 
 2714000   0.71672241   -1.9726236    1.0740085  -0.89861502   0.13008413    11814.369     1000 
 2716000   0.74608505   -2.0439722    1.1180084  -0.92596373   0.11545723    12079.809     1000 
 2718000    0.7546771   -1.9700041    1.1308836  -0.83912041   0.11710176    11901.145     1000 
 2720000   0.73177573   -1.9748854    1.0965659  -0.87831949   0.13285402    12098.232     1000 
 2722000   0.76459198    -1.964379    1.1457411  -0.81863791   0.12045911    12218.627     1000 
 2724000   0.74612047   -1.9933927    1.1180615  -0.87533122   0.13007437    11741.581     1000 
 2726000   0.74011352   -1.9868873    1.1090601  -0.87782718   0.13199495     11884.71     1000 
 2728000   0.75426672    -2.013728    1.1302687  -0.88345937   0.13045548      11832.6     1000 
 2730000   0.72444034   -1.9906999    1.0855738   -0.9051261   0.13095953    11838.065     1000 
 2732000   0.74678614    -1.977434     1.119059  -0.85837495   0.12948241    11968.491     1000 
 2734000   0.77923003   -1.9905887    1.1676762  -0.82291248   0.13669082    11809.921     1000 
 2736000   0.75760462   -2.0398113    1.1352705  -0.90454074   0.13764083     11923.12     1000 
 2738000    0.7219856   -2.0069224    1.0818954  -0.92502694   0.12411743    11783.725     1000 
 2740000   0.78370157   -2.0049224    1.1743768  -0.83054555   0.13110191    11817.431     1000 
 2742000   0.74124118   -1.9594505    1.1107499   -0.8487006   0.13831528    11796.455     1000 
 2744000    0.7486738   -1.9867382    1.1218877  -0.86485048   0.13615064    11658.302     1000 
 2746000   0.74525789   -1.9272115     1.116769  -0.81044259   0.13521081    12027.307     1000 
 2748000   0.74930599   -1.9855218     1.122835  -0.86268675   0.11689455    11973.334     1000 
 2750000   0.72714682   -1.9251168    1.0896295  -0.83548725   0.12395602    11973.985     1000 
 2752000   0.75635703   -2.0343713     1.133401  -0.90097029   0.12330074    11894.682     1000 
 2754000   0.73549529   -1.9860087    1.1021397  -0.88386899   0.12504494    12027.749     1000 
 2756000   0.72491873   -1.9875949    1.0862907  -0.90130422   0.13164874    11724.974     1000 
 2758000   0.73825633   -1.9923327    1.1062771   -0.8860556   0.11741795    12196.344     1000 
 2760000   0.75397952   -2.0233303    1.1298383  -0.89349195   0.12564648    12034.788     1000 
 2762000   0.74220101   -1.9705867    1.1121882  -0.85839847   0.14392556    11790.642     1000 
 2764000    0.7273286   -1.9512554    1.0899019   -0.8613535   0.12969311    11986.943     1000 
 2766000   0.74758984   -1.9646992    1.1202634  -0.84443583   0.13533016    11829.848     1000 
 2768000   0.73719985   -1.9334186     1.104694  -0.82872464   0.14305741    11692.257     1000 
 2770000   0.74170064   -1.9960996    1.1114384  -0.88466116   0.13462974    11873.988     1000 
 2772000   0.73265902   -2.0053586    1.0978895  -0.90746906   0.12533864    11939.603     1000 
 2774000   0.77870846   -1.9510776    1.1668946  -0.78418295   0.11947646    11898.798     1000 
 2776000   0.74858887   -2.0243826    1.1217604  -0.90262222    0.1348391    11790.394     1000 
 2778000   0.76292394   -1.9861876    1.1432415  -0.84294608    0.1256753    11866.177     1000 
 2780000   0.77044772   -2.0093681    1.1545159  -0.85485216   0.12529789     12105.64     1000 
 2782000   0.73312594   -2.0020507    1.0985892  -0.90346146   0.12984236    11857.074     1000 
 2784000    0.7122771   -1.9230139    1.0673472   -0.8556667   0.13051389    11786.753     1000 
 2786000   0.76965032   -2.0003635     1.153321  -0.84704247   0.13581366    12038.462     1000 
 2788000   0.74652562   -1.9506158    1.1186686  -0.83194713   0.13385305     11713.98     1000 
 2790000   0.73685757   -2.0050142    1.1041811  -0.90083314   0.12799812     11981.94     1000 
 2792000   0.72081914   -2.0301615    1.0801475    -0.950014   0.12980814    11915.226     1000 
 2794000    0.7513361    -1.984299    1.1258771  -0.85842181   0.14873206    11618.113     1000 
 2796000   0.76254239    -2.012267    1.1426698  -0.86959726   0.13310564    11699.318     1000 
 2798000   0.73227918   -1.9735109    1.0973204  -0.87619054   0.14528568    11937.856     1000 
 2800000   0.76140332    -2.045727    1.1409629  -0.90476415   0.13618563    11909.684     1000 
 2802000   0.78643742   -2.0125558    1.1784765  -0.83407934   0.13522013    11972.299     1000 
 2804000   0.74205054   -1.9854451    1.1119627  -0.87348237    0.1266375      11844.7     1000 
 2806000   0.72620807   -1.9832405    1.0882228  -0.89501773   0.12043531     11770.81     1000 
 2808000   0.77189876    -2.035935    1.1566903  -0.87924469   0.12745579    11826.555     1000 
 2810000   0.73441531   -2.0318992    1.1005213  -0.93137786   0.12639116    11759.018     1000 
 2812000   0.77161272   -1.9865682    1.1562617  -0.83030657   0.13624867    11910.863     1000 
 2814000   0.74511631   -1.9633192    1.1165568  -0.84676242   0.14816142    11648.624     1000 
 2816000   0.72111904   -2.0109822    1.0805969   -0.9303853   0.11731672    11800.193     1000 
 2818000   0.75829378   -2.0680427    1.1363032  -0.93173947   0.11850936    11936.243     1000 
 2820000   0.74020653    -1.980923    1.1091995  -0.87172356   0.14010417    11745.644     1000 
 2822000   0.74062995   -2.0271946     1.109834  -0.91736063    0.1290031    12087.635     1000 
 2824000   0.73791254   -2.0065832    1.1057619  -0.90082125   0.13288263    11946.963     1000 
 2826000   0.73389614    -1.978057    1.0997434  -0.87831361   0.12816383    11869.234     1000 
 2828000   0.77315634     -1.96886    1.1585748  -0.81028526   0.12472775     11863.65     1000 
 2830000   0.75610101   -1.9952465    1.1330174  -0.86222915   0.13308968    11806.749     1000 
 2832000   0.76145013   -1.9997359     1.141033  -0.85870284   0.13899115    11715.851     1000 
 2834000   0.75483022   -1.9910097    1.1311131  -0.85989662   0.12666227    12005.739     1000 
 2836000   0.74824651   -2.0336815    1.1212474   -0.9124341   0.11636668    11981.117     1000 
 2838000   0.70247807   -2.0070578    1.0526634  -0.95439443   0.13125068     11660.24     1000 
 2840000   0.74884917   -1.9753671    1.1221505  -0.85321662   0.11291468    11893.441     1000 
 2842000   0.76989331   -1.9724917    1.1536851  -0.81880656   0.14341506    11796.676     1000 
 2844000   0.77184112   -1.9870102    1.1566039  -0.83040625   0.12605144    11944.413     1000 
 2846000   0.73144928    -1.955059    1.0960768  -0.85898228   0.13449167    12015.936     1000 
 2848000   0.76424443   -1.9900589    1.1452203  -0.84483865    0.1453552    11838.815     1000 
 2850000    0.7403743   -2.0634506    1.1094509  -0.95399971   0.12032363    12021.976     1000 
 2852000   0.73949612   -1.9588229    1.1081349  -0.85068799   0.12958858    11765.412     1000 
 2854000   0.75834536   -1.9866711    1.1363805  -0.85029053   0.12625169    12051.782     1000 
 2856000   0.76715548   -1.9959204    1.1495825  -0.84633794   0.14602601    11837.645     1000 
 2858000   0.72077268   -1.9968439    1.0800779  -0.91676607   0.12696414    11966.228     1000 
 2860000   0.76488434   -1.9427535    1.1461792  -0.79657427   0.13988017    11870.274     1000 
 2862000    0.7501588   -2.0170313     1.124113  -0.89291829   0.13983977    11989.903     1000 
 2864000   0.77338231   -1.9791284    1.1589134  -0.82021498   0.13319752      11663.7     1000 
 2866000   0.74945265   -1.9409047    1.1230548  -0.81784988   0.13911083    11954.718     1000 
 2868000   0.76410948   -1.9416005     1.145018  -0.79658243   0.12170469    11910.216     1000 
 2870000   0.75885672   -1.9424148    1.1371468  -0.80526802   0.13579158    11765.855     1000 
 2872000   0.75591865   -1.9657536    1.1327441  -0.83300954   0.15010543     11692.22     1000 
 2874000   0.73667417   -2.0052612    1.1039062  -0.90135491   0.12780031    11848.628     1000 
 2876000   0.72429054   -1.9825298    1.0853494  -0.89718044    0.1329943    11838.536     1000 
 2878000   0.74631995   -1.9888995    1.1183604  -0.87053908     0.107624     11962.29     1000 
 2880000   0.76024741   -2.0093308    1.1392307   -0.8701001   0.13350054    11835.862     1000 
 2882000   0.76043521   -2.0037999    1.1395122  -0.86428775   0.14235408    11646.473     1000 
 2884000   0.73854831   -1.9893616    1.1067146  -0.88264693   0.14154922     11730.29     1000 
 2886000   0.74313715   -1.9905961     1.113591  -0.87700513   0.13094053    11780.852     1000 
 2888000     0.750096   -1.9832097    1.1240189  -0.85919085    0.1297352    11844.452     1000 
 2890000   0.78420635   -2.0193564    1.1751332  -0.84422317   0.12365155    11970.441     1000 
 2892000   0.70337946   -1.9955063    1.0540141  -0.94149217   0.12893328    12060.959     1000 
 2894000   0.71003205    -1.963968     1.063983    -0.899985   0.12519985    11693.953     1000 
 2896000   0.77816124   -1.9665326    1.1660746  -0.80045796   0.13745415    11857.917     1000 
 2898000   0.74037601   -1.9673381    1.1094534  -0.85788468   0.12249363    12064.029     1000 
 2900000   0.78252006   -2.0079374    1.1726063  -0.83533107   0.13498438    12050.801     1000 
 2902000   0.76821922   -1.9873699    1.1511765  -0.83619337   0.14418759    11460.399     1000 
 2904000   0.73836418   -1.9816785    1.1064387  -0.87523977   0.13688844    11818.043     1000 
 2906000   0.73480984   -1.9390266    1.1011125  -0.83791403   0.12842363    11837.758     1000 
 2908000   0.75392305   -1.9490194    1.1297537  -0.81926569   0.13518498    11737.978     1000 
 2910000   0.74214703   -2.0311669    1.1121073  -0.91905954   0.12868057    11974.279     1000 
 2912000   0.74572137   -1.9746052    1.1174635  -0.85714176   0.12903753     11778.94     1000 
 2914000   0.74096933   -1.9973579    1.1103425  -0.88701541   0.12799244    11777.122     1000 
 2916000   0.74891995   -1.9464364    1.1222565  -0.82417981   0.13745266    11819.332     1000 
 2918000   0.79328553   -2.0611685    1.1887384  -0.87243012   0.12974481    11918.412     1000 
 2920000   0.74529357   -1.9273734    1.1168224  -0.81055104    0.1357182     11885.65     1000 
 2922000   0.74135047   -1.9232812    1.1109137  -0.81236753   0.13228799    11902.238     1000 
 2924000   0.75001888   -2.0157264    1.1239033  -0.89182314   0.12548602    11777.405     1000 
 2926000    0.7528808   -2.0070223    1.1281919  -0.87883037   0.12543664    11756.548     1000 
 2928000   0.73568977   -2.0027475    1.1024311  -0.90031635   0.13850778     11820.59     1000 
 2930000   0.73811212   -1.9111153     1.106061  -0.80505433   0.12955825    11832.444     1000 
 2932000   0.74463409   -2.0200114    1.1158342  -0.90417721   0.13674203    11659.265     1000 
 2934000   0.76131747   -1.9902042    1.1408342  -0.84936996   0.15028612    11877.784     1000 
 2936000   0.76081396   -1.9264412    1.1400797  -0.78636147   0.12243806    12002.683     1000 
 2938000   0.75821329   -1.9508167    1.1361826  -0.81463404   0.13632364    11992.365     1000 
 2940000    0.7714526   -1.9414187    1.1560217  -0.78539699   0.12354667    12012.998     1000 
 2942000   0.78285893   -1.9631401    1.1731141  -0.79002604   0.12971285    12003.604     1000 
 2944000   0.77412993   -1.9376622    1.1600337  -0.77762849   0.13216142    11685.123     1000 
 2946000   0.76695077   -1.9641752    1.1492757   -0.8148995     0.118058    11783.942     1000 
 2948000   0.75621738   -2.0245969    1.1331917   -0.8914052   0.11605048    12060.162     1000 
 2950000   0.73452686   -1.9338051    1.1006885  -0.83311657   0.12451389    11764.283     1000 
 2952000   0.74879413   -1.9904551     1.122068  -0.86838715   0.13477924    11859.909     1000 
 2954000   0.72878271   -1.9718398    1.0920809  -0.87975888   0.13494164    11706.709     1000 
 2956000   0.76426769   -1.9770185    1.1452551  -0.83176341   0.13393022     11886.21     1000 
 2958000   0.73098972   -2.0007296    1.0953881  -0.90534153   0.13649101    11743.474     1000 
 2960000   0.75829769   -1.9942866    1.1363091  -0.85797754   0.12874687    11847.333     1000 
 2962000   0.73215815   -1.9904158     1.097139  -0.89327679   0.12732414    11930.474     1000 
 2964000    0.7363633   -1.9885314    1.1034404  -0.88509101   0.12021054    11845.005     1000 
 2966000   0.75440044   -2.0146137    1.1304691  -0.88414469   0.11534303    12055.536     1000 
 2968000   0.75891139   -1.9438616    1.1372287  -0.80663286    0.1448684    11808.654     1000 
 2970000    0.7469361   -1.9853167    1.1192838  -0.86603298   0.11896776    11821.812     1000 
 2972000   0.72942995   -1.9910461    1.0930508  -0.89799527   0.13150343    11768.737     1000 
 2974000    0.7670552   -2.0002552    1.1494322  -0.85082296   0.14192014     11675.57     1000 
 2976000   0.73248284   -1.9797922    1.0976255  -0.88216661   0.11736686    11967.104     1000 
 2978000   0.76835503   -2.0148416      1.15138  -0.86346157   0.13648677    11739.494     1000 
 2980000   0.73705832   -2.0060511    1.1044819  -0.90156922   0.12642475    11936.525     1000 
 2982000   0.72653616   -1.9746115    1.0887144  -0.88589709   0.11840486    11916.675     1000 
 2984000   0.79900037   -1.9901282    1.1973021  -0.79282613   0.11916071    12078.327     1000 
 2986000   0.75998285   -1.9540033    1.1388343  -0.81516901   0.14452779    11729.525     1000 
 2988000   0.73144344   -2.0116372     1.096068  -0.91556923    0.1398303    11718.478     1000 
 2990000   0.71038702   -1.9515072    1.0645149  -0.88699229   0.13261071    11777.441     1000 
 2992000   0.72508233    -1.938171    1.0865359  -0.85163508   0.12468059    11819.551     1000 
 2994000   0.72707776   -2.0124821     1.089526  -0.92295604   0.12756168    11773.772     1000 
 2996000   0.77012422   -2.0196896    1.1540311  -0.86565843   0.13053745    11736.861     1000 
 2998000   0.73474366   -1.9774858    1.1010134  -0.87647246   0.12566326    11656.152     1000 
 3000000   0.72279769   -1.9274726    1.0831123  -0.84436025   0.13371598    11788.188     1000 
Loop time of 1144.24 on 1 procs for 3000000 steps with 1000 atoms

Performance: 1132627.872 tau/day, 2621.824 timesteps/s
100.0% CPU use with 1 MPI tasks x 1 OpenMP threads

MPI task timing breakdown:
Section |  min time  |  avg time  |  max time  |%varavg| %total
---------------------------------------------------------------
Pair    | 896.94     | 896.94     | 896.94     |   0.0 | 78.39
Neigh   | 145        | 145        | 145        |   0.0 | 12.67
Comm    | 24.526     | 24.526     | 24.526     |   0.0 |  2.14
Output  | 0.017376   | 0.017376   | 0.017376   |   0.0 |  0.00
Modify  | 72.471     | 72.471     | 72.471     |   0.0 |  6.33
Other   |            | 5.289      |            |       |  0.46

Nlocal:        1000.00 ave        1000 max        1000 min
Histogram: 1 0 0 0 0 0 0 0 0 0
Nghost:        2160.00 ave        2160 max        2160 min
Histogram: 1 0 0 0 0 0 0 0 0 0
Neighs:        26217.0 ave       26217 max       26217 min
Histogram: 1 0 0 0 0 0 0 0 0 0

Total # of neighbors = 26217
Ave neighs/atom = 26.217000
Neighbor list builds = 150000
Dangerous builds not checked

Total wall time: 0:19:04
