LAMMPS (3 Mar 2020)
# ----------------------- Inicialização -----------------------

units			lj
atom_style 		atomic
dimension 		3
boundary 		p p p

# -------------------- Criação dos Átomos ---------------------

read_data 		topologia.txt
  orthogonal box = (0 0 0) to (21.54 21.54 21.54)
  1 by 2 by 2 MPI processor grid
  reading atoms ...
  1000 atoms
  read_data CPU = 0.00136943 secs

velocity 		all create ${temp} 87287 rot yes dist gaussian
velocity 		all create 0.45 87287 rot yes dist gaussian

# ------------------ Interação Interatômica -------------------

pair_style		table linear 1300
pair_coeff		1 1 force.table AA 6.5
WARNING: 2 of 1300 force values in table are inconsistent with -dE/dr.
  Should only be flagged at inflection points (src/pair_table.cpp:483)
pair_coeff		1 2 force.table AB 6.5
WARNING: 1 of 1300 force values in table are inconsistent with -dE/dr.
  Should only be flagged at inflection points (src/pair_table.cpp:483)
pair_coeff		2 2 force.table BB 6.5
pair_write		1 1 1600 r 0.008 6.5 table.check AA
Neighbor list info ...
  update every 1 steps, delay 10 steps, check yes
  max neighbors/atom: 2000, page size: 100000
  master list distance cutoff = 6.8
  ghost atom cutoff = 6.8
  binsize = 3.4, bins = 7 7 7
  1 neighbor lists, perpetual/occasional/extra = 1 0 0
  (1) pair table, perpetual
      attributes: half, newton on
      pair build: half/bin/atomonly/newton
      stencil: half/bin/3d/newton
      bin: standard
pair_write		1 2 1600 r 0.008 6.5 table.check AB
pair_write		2 2 1600 r 0.008 6.5 table.check BB

neighbor 		0.3 bin
neigh_modify	every 20 delay 0 check no

# ------------------------- Ensemble --------------------------------------

fix 1			all npt temp ${temp} ${temp} 0.5 iso ${press} ${press} 5
fix 1			all npt temp 0.45 ${temp} 0.5 iso ${press} ${press} 5
fix 1			all npt temp 0.45 0.45 0.5 iso ${press} ${press} 5
fix 1			all npt temp 0.45 0.45 0.5 iso 0.13 ${press} 5
fix 1			all npt temp 0.45 0.45 0.5 iso 0.13 0.13 5

# ---------------------- Função de Distribuição Radial -----------------------

#compute RDF 	all rdf 2000 1 1 1 2 2 2
#fix 2 			all ave/time 1 2000 2000 c_RDF[*] file rdf.data mode vector

# ------------------------- Execução ---------------------------

timestep 		0.005
thermo_style	custom step temp pe ke etotal press vol atoms
thermo			2000
run				3000000
Per MPI rank memory allocation (min/avg/max) = 2.675 | 2.675 | 2.675 Mbytes
Step Temp PotEng KinEng TotEng Press Volume Atoms 
       0         0.45   0.75769533     0.674325    1.4320203    1.1807321    9993.9483     1000 
    2000   0.45411488   -2.4297558   0.68049114   -1.7492647    0.1276255    11446.587     1000 
    4000    0.4572811   -2.4095302   0.68523572   -1.7242944   0.13705295    11264.459     1000 
    6000   0.45592801   -2.4220508   0.68320813   -1.7388427   0.12650958     11347.49     1000 
    8000    0.4390549   -2.4355096   0.65792377   -1.7775858   0.13436555    11434.907     1000 
   10000   0.44265726   -2.4090101    0.6633219   -1.7456881   0.13304089    11288.244     1000 
   12000    0.4609888   -2.4310456   0.69079172   -1.7402539   0.12700279    11481.569     1000 
   14000   0.46446757   -2.4458228   0.69600466   -1.7498182   0.12910407    11355.286     1000 
   16000   0.43717354   -2.4059266   0.65510455   -1.7508221   0.12998118    11317.014     1000 
   18000    0.4641921   -2.4123049   0.69559186    -1.716713   0.14543766     11179.63     1000 
   20000   0.44556608   -2.4777758   0.66768077    -1.810095   0.12906603    11474.601     1000 
   22000   0.44679198   -2.4415499   0.66951779   -1.7720321   0.13046666    11334.022     1000 
   24000    0.4614201   -2.4487783   0.69143802   -1.7573402   0.13447595    11337.514     1000 
   26000   0.45989004   -2.4687607   0.68914523   -1.7796154     0.135504    11304.556     1000 
   28000   0.45278418   -2.4129425   0.67849709   -1.7344455   0.12036204    11349.419     1000 
   30000   0.44986749   -2.3872349   0.67412644   -1.7131084    0.1210899    11362.139     1000 
   32000   0.44632463   -2.4409454   0.66881745    -1.772128     0.128211    11384.682     1000 
   34000   0.46211181   -2.4247909   0.69247454   -1.7323164   0.13299171    11348.682     1000 
   36000     0.464807   -2.4299585   0.69651329   -1.7334452   0.13879438    11338.114     1000 
   38000   0.44605109   -2.4748934   0.66840756   -1.8064859   0.11861507    11468.124     1000 
   40000   0.46556392   -2.4756886   0.69764753   -1.7780411    0.1222306    11499.911     1000 
   42000   0.42967288   -2.4644907   0.64386482   -1.8206259   0.12745825    11230.994     1000 
   44000   0.44024834   -2.4311479   0.65971214   -1.7714358   0.13241391    11365.762     1000 
   46000   0.44339415   -2.4676532   0.66442614   -1.8032271   0.13223878    11343.039     1000 
   48000   0.45695346   -2.4375086   0.68474476   -1.7527638   0.13395681    11303.051     1000 
   50000   0.45974712   -2.4642919   0.68893106   -1.7753609   0.14349382     11306.45     1000 
   52000   0.45104375    -2.475585   0.67588906   -1.7996959   0.12321502    11352.115     1000 
   54000   0.43130103   -2.4590345   0.64630459   -1.8127299   0.13695949    11359.844     1000 
   56000   0.44925029    -2.468183   0.67320156   -1.7949814   0.12961466    11354.526     1000 
   58000     0.459757   -2.4495829   0.68894586    -1.760637    0.1357414    11331.761     1000 
   60000   0.45782806   -2.4676467   0.68605534   -1.7815914   0.11970175    11493.071     1000 
   62000   0.42117339   -2.4171826   0.63112832   -1.7860542   0.12220426    11237.438     1000 
   64000   0.44555508   -2.4092871   0.66766429   -1.7416228    0.1301342    11305.758     1000 
   66000   0.41814661   -2.4149815    0.6265927   -1.7883887   0.12514914    11317.687     1000 
   68000   0.47314425   -2.4730226   0.70900666   -1.7640159   0.12951974    11530.835     1000 
   70000   0.47240045   -2.4354112   0.70789207   -1.7275191   0.12956741     11333.07     1000 
   72000   0.45741891    -2.427563   0.68544224   -1.7421207   0.13514806    11290.794     1000 
   74000   0.44784026   -2.4452494   0.67108863   -1.7741608   0.11710176    11524.032     1000 
   76000   0.45006686   -2.4506791    0.6744252   -1.7762539   0.12656239     11306.33     1000 
   78000    0.4491922   -2.4528192   0.67311452   -1.7797046    0.1117206    11511.266     1000 
   80000   0.42758292   -2.4080959     0.640733   -1.7673629   0.12951263    11207.234     1000 
   82000   0.43667244   -2.4800396   0.65435365    -1.825686   0.13942482    11378.627     1000 
   84000   0.44261938   -2.4047283   0.66326515   -1.7414632   0.12337959    11387.203     1000 
   86000   0.44189726   -2.4833089   0.66218305   -1.8211259    0.1091086    11533.854     1000 
   88000   0.45475614   -2.4384808   0.68145207   -1.7570288   0.12876104    11382.651     1000 
   90000   0.45190139   -2.4823925   0.67717424   -1.8052183   0.12658715    11442.183     1000 
   92000   0.44710759   -2.4184986   0.66999073   -1.7485078   0.12516833    11309.618     1000 
   94000   0.44069787   -2.4546982   0.66038576   -1.7943125   0.11937095    11392.175     1000 
   96000   0.45349185   -2.4573349   0.67955754   -1.7777773   0.12368406     11399.63     1000 
   98000   0.42983572   -2.4188513   0.64410883   -1.7747425   0.14288356    11251.184     1000 
  100000   0.44346392   -2.4357306   0.66453069   -1.7711999   0.13724236    11307.989     1000 
  102000   0.44237299   -2.4851887   0.66289592   -1.8222928   0.12367807    11334.857     1000 
  104000   0.45860662    -2.457027   0.68722202    -1.769805   0.12996839    11329.103     1000 
  106000   0.44574861   -2.4651526    0.6679543   -1.7971983   0.13340189    11356.058     1000 
  108000   0.43762406   -2.4531991   0.65577965   -1.7974194   0.12512155     11452.57     1000 
  110000   0.44767003   -2.4384982   0.67083354   -1.7676646   0.13200612    11370.678     1000 
  112000   0.44272914   -2.3905563   0.66342961   -1.7271267   0.13945152    11249.233     1000 
  114000     0.435215    -2.445973   0.65216968   -1.7938033   0.12420032    11389.875     1000 
  116000   0.44765417    -2.483889   0.67080978   -1.8130793   0.13147154    11376.418     1000 
  118000   0.43442156    -2.429973    0.6509807   -1.7789923   0.13771229    11232.959     1000 
  120000   0.45234536   -2.4133619   0.67783952   -1.7355224    0.1229998    11462.051     1000 
  122000   0.43624896   -2.4375565   0.65371907   -1.7838374   0.13427674    11317.379     1000 
  124000   0.43576441   -2.4362958   0.65299297   -1.7833028   0.12879097    11311.395     1000 
  126000   0.43312783   -2.4579175   0.64904205   -1.8088754   0.15110281    11168.929     1000 
  128000   0.47006451   -2.5099581   0.70439166   -1.8055664   0.14026839    11331.113     1000 
  130000   0.44726682   -2.4287014   0.67022933    -1.758472   0.13084877    11342.451     1000 
  132000   0.45099351   -2.4409427   0.67581377   -1.7651289    0.1298701    11321.989     1000 
  134000    0.4581387   -2.4744485   0.68652085   -1.7879277   0.13591053    11274.984     1000 
  136000   0.45459469   -2.4645043   0.68121015   -1.7832942   0.14301444     11376.04     1000 
  138000      0.44157   -2.3950426   0.66169264     -1.73335   0.12234259    11366.273     1000 
  140000    0.4378762   -2.4295227   0.65615749   -1.7733652   0.13023423    11347.953     1000 
  142000   0.42617125   -2.4386835   0.63861762   -1.8000659   0.13927701    11267.836     1000 
  144000   0.45679146   -2.4311419     0.684502   -1.7466399   0.14173771    11302.004     1000 
  146000    0.4527286   -2.4915457   0.67841381   -1.8131318    0.1176976    11510.276     1000 
  148000   0.44728202   -2.4212029   0.67025211   -1.7509508   0.13630894     11274.73     1000 
  150000    0.4668254    -2.436629   0.69953786   -1.7370911   0.14446702    11288.347     1000 
  152000   0.46388025   -2.4314637   0.69512455   -1.7363392   0.13496632    11288.131     1000 
  154000   0.43460288   -2.4448594   0.65125242    -1.793607   0.12260407     11435.75     1000 
  156000   0.43351603   -2.4507731   0.64962376   -1.8011494   0.12194368    11362.667     1000 
  158000   0.44790933   -2.4510034   0.67119214   -1.7798112   0.12228898    11520.439     1000 
  160000   0.46168533   -2.4632063   0.69183547   -1.7713709    0.1362163    11378.656     1000 
  162000   0.43918685   -2.4188034   0.65812149   -1.7606819   0.13018359    11296.542     1000 
  164000   0.45074242   -2.4182267   0.67543751   -1.7427891   0.13031202    11263.044     1000 
  166000   0.43488585   -2.4641902   0.65167644   -1.8125137   0.12957478    11337.732     1000 
  168000   0.45948848   -2.4216482   0.68854348   -1.7331048   0.14532125     11160.94     1000 
  170000   0.46475436   -2.4537256   0.69643441   -1.7572912   0.13228997    11403.448     1000 
  172000   0.45740205   -2.4663788   0.68541697   -1.7809618   0.12292068    11452.637     1000 
  174000   0.44264847   -2.3851007   0.66330873    -1.721792   0.13215173    11246.953     1000 
  176000   0.43092976   -2.5036711   0.64574824   -1.8579228    0.1200086    11469.316     1000 
  178000   0.44328818   -2.4389825   0.66426734   -1.7747152   0.11582999    11338.202     1000 
  180000     0.440625   -2.4422429   0.66027656   -1.7819663   0.12623921    11317.343     1000 
  182000    0.4266445   -2.4026327   0.63932679   -1.7633059    0.1211854    11302.946     1000 
  184000   0.45991153   -2.4423661   0.68917743   -1.7531886   0.12837423     11393.19     1000 
  186000   0.43572234   -2.4257129   0.65292993   -1.7727829   0.12723249    11347.861     1000 
  188000   0.45053485   -2.4246381   0.67512647   -1.7495116   0.13751899    11213.533     1000 
  190000   0.45417533   -2.4618553   0.68058173   -1.7812736     0.128237    11399.003     1000 
  192000   0.43983026   -2.4258019   0.65908565   -1.7667162   0.12573221    11211.501     1000 
  194000   0.43760485   -2.4241042   0.65575086   -1.7683534   0.12868874    11264.211     1000 
  196000   0.45483367   -2.4323427   0.68156826   -1.7507745   0.13269488    11347.484     1000 
  198000   0.44608773   -2.4684497   0.66846246   -1.7999873   0.12844267    11393.435     1000 
  200000   0.46260909   -2.4426282   0.69321972   -1.7494085   0.15311942    11246.328     1000 
  202000   0.46215003   -2.4271679   0.69253183   -1.7346361   0.14600644    11274.995     1000 
  204000   0.43022594   -2.4424335   0.64469357   -1.7977399   0.13732436    11230.462     1000 
  206000   0.45721705   -2.4836167   0.68513974    -1.798477   0.12908149    11421.674     1000 
  208000   0.46157687   -2.5070681   0.69167294   -1.8153952   0.12447784     11404.43     1000 
  210000   0.44350322   -2.4510787   0.66458957   -1.7864891   0.13925347    11296.106     1000 
  212000   0.44711929   -2.4047744   0.67000826   -1.7347661   0.14710424    11195.199     1000 
  214000   0.45207816   -2.4867814   0.67743912   -1.8093422   0.12838939    11491.516     1000 
  216000   0.44800785    -2.435254   0.67133977   -1.7639142   0.13734262    11319.584     1000 
  218000   0.44405357   -2.4160861   0.66541427   -1.7506719   0.13912086    11238.084     1000 
  220000   0.43779791   -2.4609949   0.65604017   -1.8049548   0.13112704    11285.254     1000 
  222000   0.44219777   -2.4522141   0.66263337   -1.7895807   0.12519125    11316.154     1000 
  224000   0.45598987   -2.4268708   0.68330082   -1.7435699   0.13194889    11258.374     1000 
  226000    0.4667522   -2.4197599   0.69942817   -1.7203317   0.14039518      11329.1     1000 
  228000   0.45323734   -2.4654781   0.67917616    -1.786302   0.12404679    11303.395     1000 
  230000   0.44546161   -2.4499471   0.66752422   -1.7824229   0.12568046    11310.299     1000 
  232000   0.45090462   -2.4565117   0.67568058   -1.7808311   0.12280552    11392.068     1000 
  234000   0.43266814   -2.4421741   0.64835321   -1.7938209   0.14347413    11192.624     1000 
  236000   0.46105681     -2.42041   0.69089363   -1.7295164   0.13097522    11302.526     1000 
  238000   0.44579351   -2.4420654   0.66802157   -1.7740439    0.1122561    11514.429     1000 
  240000   0.45537303    -2.419305   0.68237649   -1.7369285   0.15256668    11081.392     1000 
  242000    0.4515148   -2.3948106   0.67659493   -1.7182157   0.12474522    11277.242     1000 
  244000    0.4684868   -2.4883498   0.70202747   -1.7863223   0.13632345    11368.712     1000 
  246000    0.4513498   -2.4527152   0.67634768   -1.7763675   0.12671023    11338.115     1000 
  248000   0.45093454   -2.4590456   0.67572541   -1.7833202   0.11718067    11539.699     1000 
  250000   0.45455745   -2.4692324   0.68115434   -1.7880781   0.13313125    11367.849     1000 
  252000   0.45177523   -2.4568492   0.67698519    -1.779864   0.13773521    11319.608     1000 
  254000   0.44539671   -2.4440183   0.66742697   -1.7765913   0.13035443    11346.471     1000 
  256000   0.45315272   -2.4115198   0.67904936   -1.7324705   0.13065823     11355.83     1000 
  258000   0.45657433   -2.4905704   0.68417663   -1.8063938   0.12722484    11461.656     1000 
  260000   0.43929954   -2.4718334   0.65829036   -1.8135431   0.13200827    11340.804     1000 
  262000   0.45521548   -2.4187738   0.68214039   -1.7366334   0.13749109    11295.396     1000 
  264000   0.44967954   -2.4337632    0.6738448   -1.7599184   0.12100342    11317.571     1000 
  266000    0.4426322   -2.4611655   0.66328435   -1.7978812   0.12608497    11408.215     1000 
  268000   0.42670295   -2.4628693   0.63941437    -1.823455   0.12927894    11327.097     1000 
  270000   0.44973793   -2.4679632   0.67393228   -1.7940309   0.13204133     11322.62     1000 
  272000   0.44170989   -2.4741671   0.66190227   -1.8122648   0.13368779    11374.438     1000 
  274000   0.45955097   -2.4222713   0.68863713   -1.7336342   0.12500264    11321.015     1000 
  276000   0.45228667   -2.4249828   0.67775158   -1.7472312   0.12871657    11366.936     1000 
  278000   0.44471284   -2.4532213   0.66640219   -1.7868192     0.125182    11404.381     1000 
  280000   0.46049216   -2.4196768    0.6900475   -1.7296293   0.12677306    11433.841     1000 
  282000   0.43668623   -2.4449662   0.65437431   -1.7905919    0.1417601    11301.757     1000 
  284000   0.45760927   -2.4303423   0.68572749   -1.7446148   0.13476228    11239.183     1000 
  286000   0.46585651   -2.4147294   0.69808598   -1.7166434   0.13436865    11300.767     1000 
  288000   0.43745878   -2.4779109   0.65553199    -1.822379   0.12861677    11400.585     1000 
  290000   0.45317423   -2.4423142   0.67908158   -1.7632326   0.10935187     11526.94     1000 
  292000   0.44529741   -2.4645994   0.66727817   -1.7973212   0.13193423     11369.96     1000 
  294000   0.44847017   -2.5035595   0.67203256   -1.8315269   0.11869967    11489.709     1000 
  296000   0.45985646   -2.4626667   0.68909491   -1.7735718   0.13068806     11341.14     1000 
  298000   0.44395242   -2.4456934    0.6652627   -1.7804307   0.11814884     11466.32     1000 
  300000   0.45192097   -2.4658352   0.67720358   -1.7886317   0.13375625    11410.068     1000 
  302000   0.44582121   -2.4988677   0.66806309   -1.8308047   0.13005448    11396.916     1000 
  304000   0.44762981   -2.4578291   0.67077326   -1.7870559   0.12771124    11278.641     1000 
  306000   0.46710679   -2.4683188   0.69995953   -1.7683592   0.14647818    11264.849     1000 
  308000   0.44687998   -2.4799629   0.66964964   -1.8103133   0.12427317    11397.822     1000 
  310000   0.45412579   -2.4357457    0.6805075   -1.7552382   0.13783495    11363.284     1000 
  312000   0.44373542   -2.4780266   0.66493752   -1.8130891   0.12911657    11403.372     1000 
  314000    0.4341892   -2.4505275   0.65063252   -1.7998949   0.12943851     11436.57     1000 
  316000   0.43725885   -2.4392468   0.65523239   -1.7840144   0.13102028    11301.976     1000 
  318000   0.44323728   -2.4509396   0.66419106   -1.7867485   0.13519321    11325.293     1000 
  320000   0.44930828   -2.4729461   0.67328846   -1.7996576   0.12615487    11283.615     1000 
  322000   0.46039648   -2.4933031   0.68990412    -1.803399   0.12482596    11513.762     1000 
  324000   0.44570431   -2.4516782   0.66788791   -1.7837903   0.13118742    11446.716     1000 
  326000   0.44860415    -2.437216   0.67223332   -1.7649827   0.12605888    11411.708     1000 
  328000   0.44246136   -2.4816939   0.66302835   -1.8186655   0.12132994    11442.292     1000 
  330000   0.42757859   -2.4108571   0.64072651   -1.7701306   0.13680014    11202.421     1000 
  332000   0.44549353    -2.470192   0.66757206   -1.8026199   0.12901186    11370.993     1000 
  334000   0.43812557   -2.4419973   0.65653116   -1.7854661   0.13022584     11363.71     1000 
  336000   0.45327583   -2.4521415   0.67923383   -1.7729077   0.12128044    11516.733     1000 
  338000   0.47878484   -2.4460686   0.71745908   -1.7286095   0.13959798    11294.267     1000 
  340000   0.44224233   -2.4471567   0.66270013   -1.7844566    0.1498502    11187.056     1000 
  342000   0.42196176   -2.4820968    0.6323097   -1.8497871   0.14182941    11298.405     1000 
  344000   0.47343813   -2.4428699   0.70944704   -1.7334228   0.13705818    11288.531     1000 
  346000   0.44637737   -2.4801094    0.6688965   -1.8112129   0.14490558    11232.875     1000 
  348000   0.42923923    -2.446832   0.64321499    -1.803617   0.12828369    11308.605     1000 
  350000   0.45024479   -2.5113732   0.67469181   -1.8366814   0.12436534     11430.98     1000 
  352000   0.44870489   -2.4489918   0.67238428   -1.7766075     0.129336    11478.066     1000 
  354000   0.45338875   -2.4872419   0.67940304   -1.8078389   0.11767265    11390.818     1000 
  356000   0.43916574   -2.4641645   0.65808986   -1.8060747   0.11239168    11450.977     1000 
  358000    0.4467873   -2.4973857   0.66951076   -1.8278749   0.11350335    11387.255     1000 
  360000   0.43867089   -2.4276632   0.65734832   -1.7703148   0.13362575    11265.805     1000 
  362000   0.45800367   -2.4695084    0.6863185   -1.7831899    0.1372642    11420.343     1000 
  364000   0.43147474   -2.4941809   0.64656491    -1.847616   0.13640501    11261.409     1000 
  366000    0.4414896    -2.490245   0.66157216   -1.8286728   0.12973957    11486.275     1000 
  368000    0.4416691   -2.4198229   0.66184114   -1.7579817   0.12644797    11476.989     1000 
  370000   0.47454662   -2.4559914    0.7111081   -1.7448833   0.14099466    11440.965     1000 
  372000     0.440154   -2.4498346   0.65957078   -1.7902638   0.14070713    11272.624     1000 
  374000   0.45798527    -2.400719   0.68629093   -1.7144281   0.13965789    11269.442     1000 
  376000   0.44129703   -2.4478522    0.6612836   -1.7865686   0.11719634    11382.349     1000 
  378000   0.46329181   -2.4392224   0.69424277   -1.7449796   0.12762795    11364.644     1000 
  380000   0.46149236   -2.4169854    0.6915463   -1.7254391   0.13019993    11316.418     1000 
  382000   0.45617785   -2.4475126   0.68358251   -1.7639301   0.15016655    11142.486     1000 
  384000   0.44686217   -2.4645664   0.66962296   -1.7949434    0.1249465    11407.479     1000 
  386000   0.42993115   -2.4339816   0.64425183   -1.7897298   0.11256403    11402.105     1000 
  388000   0.44601938   -2.4210533   0.66836005   -1.7526932   0.12397655    11375.403     1000 
  390000     0.440237   -2.4384972   0.65969515    -1.778802   0.13671573     11325.61     1000 
  392000   0.43925928   -2.4405669   0.65823004   -1.7823369   0.13421011    11378.224     1000 
  394000    0.4496767   -2.4702796   0.67384054   -1.7964391   0.13207711    11347.292     1000 
  396000   0.43611006   -2.4484609   0.65351092   -1.7949499   0.10650052    11607.983     1000 
  398000    0.4238226   -2.4281263   0.63509817   -1.7930282   0.12669273    11385.802     1000 
  400000    0.4390335   -2.4433197    0.6578917    -1.785428   0.12388006    11274.742     1000 
  402000   0.46362678   -2.4875877   0.69474472    -1.792843   0.14917689     11269.84     1000 
  404000   0.44410324   -2.4911071   0.66548871   -1.8256184    0.1321205    11427.681     1000 
  406000   0.44999918   -2.3995279   0.67432377   -1.7252041   0.14554434    11132.821     1000 
  408000   0.45840088   -2.4013456   0.68691371   -1.7144319   0.12304572    11364.565     1000 
  410000   0.46739475   -2.4798459   0.70039104   -1.7794549   0.11881708     11585.73     1000 
  412000   0.46033449   -2.4122332   0.68981124    -1.722422   0.13812839    11323.224     1000 
  414000    0.4685652   -2.4014054   0.70214495   -1.6992605   0.14110999    11270.587     1000 
  416000   0.43870506   -2.4805276   0.65739953   -1.8231281   0.12363187    11439.469     1000 
  418000   0.44062798   -2.4681244   0.66028103   -1.8078434   0.12270729    11298.892     1000 
  420000   0.46792482   -2.4862714   0.70118535    -1.785086   0.14586207    11385.904     1000 
  422000   0.44371423   -2.4337713   0.66490577   -1.7688655   0.14178321     11124.37     1000 
  424000   0.42823257   -2.4280979   0.64170651   -1.7863914   0.11132808    11496.742     1000 
  426000   0.46906994   -2.3487754   0.70290131   -1.6458741   0.13985631    11251.718     1000 
  428000   0.45730867   -2.4626726   0.68527704   -1.7773955   0.12633977     11441.21     1000 
  430000   0.46076076    -2.458293      0.69045    -1.767843   0.13045646    11292.802     1000 
  432000   0.46146352   -2.4641919   0.69150309   -1.7726888   0.13248667    11306.321     1000 
  434000   0.44978909   -2.4385924   0.67400894   -1.7645835   0.13324371    11284.965     1000 
  436000   0.44306833   -2.4704657    0.6639379   -1.8065278   0.13109613    11355.057     1000 
  438000   0.43901494   -2.3991927   0.65786388   -1.7413288   0.13973318    11359.029     1000 
  440000   0.46430403    -2.443063    0.6957596   -1.7473034   0.11795032    11538.565     1000 
  442000   0.45125511    -2.441478   0.67620578   -1.7652722   0.13062425    11253.659     1000 
  444000   0.45016796   -2.4757165   0.67457669   -1.8011398   0.13309462    11379.623     1000 
  446000   0.46977452   -2.4404143   0.70395712   -1.7364572      0.11914    11411.786     1000 
  448000   0.45738647   -2.4165853   0.68539362   -1.7311917   0.13460196    11193.581     1000 
  450000   0.44955526   -2.4375407   0.67365856   -1.7638821   0.12829129    11330.029     1000 
  452000   0.44488404    -2.449214   0.66665874   -1.7825553   0.13860267    11202.724     1000 
  454000   0.46735537   -2.4187611   0.70033202   -1.7184291   0.13396454    11285.141     1000 
  456000   0.44113432   -2.4945541   0.66103979   -1.8335144   0.12800226    11452.056     1000 
  458000   0.44132703   -2.3877356   0.66132856   -1.7264071   0.12910147    11337.524     1000 
  460000   0.46755774   -2.5037803   0.70063527    -1.803145   0.13166139    11340.004     1000 
  462000   0.43260233    -2.425559   0.64825459   -1.7773044   0.11474045    11528.459     1000 
  464000   0.45516306     -2.45396   0.68206184   -1.7718982   0.10928214     11445.66     1000 
  466000   0.45225109   -2.4388432   0.67769826    -1.761145   0.12916631    11314.518     1000 
  468000   0.46365555   -2.4232286   0.69478784   -1.7284407   0.13183859    11321.357     1000 
  470000   0.45642332   -2.4130473   0.68395035    -1.729097   0.13206459    11193.897     1000 
  472000   0.44341389   -2.4585046   0.66445572   -1.7940489   0.12923556    11361.065     1000 
  474000   0.45943622   -2.3769306   0.68846518   -1.6884655   0.15961081    10952.501     1000 
  476000   0.45242445   -2.4356695   0.67795804   -1.7577115   0.12163272    11372.233     1000 
  478000   0.44217981   -2.4535957   0.66260644   -1.7909892   0.12881005    11285.324     1000 
  480000   0.46164448   -2.4391431   0.69177426   -1.7473688   0.13703326    11354.289     1000 
  482000   0.44962845   -2.4810477   0.67376823   -1.8072795   0.11739467    11466.006     1000 
  484000   0.44654383   -2.4601787   0.66914593   -1.7910328   0.12426237    11284.003     1000 
  486000   0.45093169   -2.5006815   0.67572114   -1.8249603   0.13560139    11402.759     1000 
  488000   0.43808665    -2.480588   0.65647284   -1.8241152   0.13295527    11368.091     1000 
  490000    0.4555194   -2.4879356   0.68259582   -1.8053398   0.13546907     11398.13     1000 
  492000   0.44515242   -2.4979205    0.6670609   -1.8308596   0.13599601    11428.332     1000 
  494000    0.4330838   -2.4634582   0.64897608   -1.8144821   0.14513588    11284.427     1000 
  496000    0.4605774   -2.4155871   0.69017524   -1.7254118   0.12220803    11342.587     1000 
  498000    0.4639434   -2.4063852   0.69521919    -1.711166   0.14143062    11230.622     1000 
  500000   0.43048852   -2.4022738   0.64508704   -1.7571868   0.11977404    11548.868     1000 
  502000     0.449906   -2.4301246   0.67418414   -1.7559404   0.12652625    11333.842     1000 
  504000   0.44875079    -2.482379   0.67245306   -1.8099259   0.11899193    11419.773     1000 
  506000   0.46785994   -2.4178692   0.70108811   -1.7167811    0.1335401    11485.248     1000 
  508000    0.4369597   -2.4335147   0.65478411   -1.7787306   0.12932386    11352.516     1000 
  510000   0.42157894   -2.4329081   0.63173605   -1.8011721   0.13037659    11406.947     1000 
  512000   0.45785897   -2.5015887   0.68610167   -1.8154871   0.13546445    11334.534     1000 
  514000   0.47077378   -2.4333964   0.70545451   -1.7279419   0.12088667     11407.02     1000 
  516000   0.44232115   -2.4405446   0.66281824   -1.7777264   0.12880562     11401.58     1000 
  518000   0.44267975   -2.4583267    0.6633556   -1.7949711   0.13695924    11279.355     1000 
  520000   0.44656646   -2.4600209   0.66917984   -1.7908411   0.13476874    11289.281     1000 
  522000   0.42479147   -2.4776433   0.63655002   -1.8410932   0.12457032    11354.288     1000 
  524000   0.43917511   -2.4557964    0.6581039   -1.7976925   0.12670823    11490.323     1000 
  526000   0.45830626   -2.3920271   0.68677193   -1.7052552   0.14507296    11168.679     1000 
  528000   0.44349766   -2.4403084   0.66458125   -1.7757272   0.13936805    11323.353     1000 
  530000   0.47741768   -2.4290853   0.71541039   -1.7136749   0.13246257    11252.096     1000 
  532000   0.46231129   -2.4263074   0.69277347    -1.733534    0.1222762    11370.085     1000 
  534000   0.47447229   -2.4462314   0.71099672   -1.7352346   0.13984311    11240.337     1000 
  536000    0.4754359   -2.4235302   0.71244069   -1.7110895   0.12666561    11351.096     1000 
  538000   0.45194642    -2.446176   0.67724171   -1.7689343   0.12334304    11376.466     1000 
  540000   0.42989822   -2.4648535   0.64420249    -1.820651   0.13308745    11232.418     1000 
  542000   0.46113787   -2.4508149   0.69101509   -1.7597998   0.13044788    11469.961     1000 
  544000   0.44459761    -2.475897   0.66622952   -1.8096674     0.121931    11534.842     1000 
  546000   0.44772907   -2.4200806   0.67092201   -1.7491586   0.12815164    11350.506     1000 
  548000   0.43940933   -2.3850408   0.65845488   -1.7265859   0.14502227      11161.1     1000 
  550000   0.44958545   -2.4420954   0.67370379   -1.7683916    0.1306154    11384.456     1000 
  552000   0.43266144   -2.4472221   0.64834317   -1.7988789    0.1260518    11447.568     1000 
  554000   0.44351804   -2.4492558   0.66461178    -1.784644   0.13620879    11420.374     1000 
  556000   0.46802905   -2.4521262   0.70134153   -1.7507847   0.13864381    11395.584     1000 
  558000   0.44786356   -2.4298303   0.67112355   -1.7587067   0.11527743    11514.178     1000 
  560000   0.44266682   -2.4171848   0.66333624   -1.7538486   0.13005338    11227.924     1000 
  562000   0.44820059    -2.451063   0.67162858   -1.7794344   0.13518493    11283.852     1000 
  564000   0.43515439   -2.4145442   0.65207885   -1.7624653   0.12005391    11468.971     1000 
  566000   0.44464552   -2.4222964   0.66630131   -1.7559951   0.12021762    11276.191     1000 
  568000    0.4632357   -2.4366123    0.6941587   -1.7424536   0.14150892    11279.488     1000 
  570000   0.45396628   -2.4723337   0.68026847   -1.7920652   0.12684209    11377.829     1000 
  572000   0.46957069   -2.4137939   0.70365168   -1.7101422   0.13604499    11377.175     1000 
  574000   0.47039989   -2.4285475   0.70489423   -1.7236532   0.13235029    11307.316     1000 
  576000   0.45458358    -2.481831   0.68119349   -1.8006376   0.13692092    11324.306     1000 
  578000   0.44841351   -2.4269577   0.67194764     -1.75501    0.1304014    11372.076     1000 
  580000   0.45392089   -2.4345122   0.68020046   -1.7543117   0.12925101    11408.971     1000 
  582000   0.45131126   -2.4556377   0.67628993   -1.7793478   0.12541458    11320.894     1000 
  584000    0.4607176   -2.4474305   0.69038533   -1.7570452   0.14546168    11221.592     1000 
  586000   0.44989408   -2.4736464   0.67416628   -1.7994801   0.13250319    11422.686     1000 
  588000   0.43307332    -2.447867   0.64896037   -1.7989066      0.13379    11226.148     1000 
  590000   0.44310323   -2.4263428   0.66399019   -1.7623526   0.12665493    11362.237     1000 
  592000   0.45488042   -2.4737463   0.68163831    -1.792108   0.12030155    11537.772     1000 
  594000   0.44113978   -2.4860289   0.66104796   -1.8249809   0.13308686    11358.505     1000 
  596000    0.4690166    -2.492321   0.70282138   -1.7894996    0.1316275    11451.518     1000 
  598000   0.42557898   -2.4476911    0.6377301    -1.809961   0.12541404    11289.548     1000 
  600000   0.44517468   -2.4413476   0.66709426   -1.7742534   0.12962284    11308.567     1000 
  602000   0.44536854   -2.4210785   0.66738475   -1.7536937   0.12755502    11318.925     1000 
  604000   0.45373465   -2.4820292   0.67992138   -1.8021078   0.13518761    11363.843     1000 
  606000   0.46347734   -2.4512951   0.69452079   -1.7567744   0.13242024    11274.864     1000 
  608000   0.45571799    -2.402643   0.68289341   -1.7197496   0.12630667    11362.732     1000 
  610000   0.43758021   -2.4519904   0.65571394   -1.7962764   0.12175338    11379.379     1000 
  612000   0.44672132   -2.4728416   0.66941189   -1.8034297   0.12179295    11443.087     1000 
  614000   0.45140417   -2.4633698   0.67642915   -1.7869407   0.13495889    11376.922     1000 
  616000   0.44578747    -2.490433   0.66801252   -1.8224205   0.13237268    11422.638     1000 
  618000   0.44515341   -2.4618733   0.66706239   -1.7948109   0.12585474     11375.77     1000 
  620000   0.46018608   -2.4996697   0.68958884   -1.8100809   0.12408526    11383.966     1000 
  622000   0.45295543    -2.499024   0.67875372   -1.8202702   0.12733555     11326.94     1000 
  624000   0.44961103   -2.5028069   0.67374213   -1.8290648   0.11894673    11474.576     1000 
  626000   0.43112217   -2.4592428   0.64603658   -1.8132062   0.12001821    11429.098     1000 
  628000   0.44101994   -2.4558555   0.66086838   -1.7949872   0.11832121     11447.67     1000 
  630000   0.44232095   -2.3939251   0.66281794   -1.7311071   0.13756277    11317.935     1000 
  632000   0.45810979   -2.4320691   0.68647751   -1.7455916   0.13267637    11208.033     1000 
  634000   0.47508751   -2.4653682   0.71191863   -1.7534496   0.13167333    11262.612     1000 
  636000   0.43394319   -2.4994549   0.65026387   -1.8491911   0.12147439    11556.441     1000 
  638000    0.4580049   -2.5232304   0.68632035   -1.8369101   0.11352525    11556.979     1000 
  640000   0.45419686   -2.4154682   0.68061399   -1.7348542   0.12745053    11337.518     1000 
  642000   0.42755508   -2.4727832   0.64069128   -1.8320919   0.11608895    11354.797     1000 
  644000   0.45250934   -2.4334259   0.67808525   -1.7553407   0.12892965    11270.109     1000 
  646000   0.45298525   -2.3777095    0.6787984   -1.6989111   0.12430832    11309.076     1000 
  648000   0.46021504   -2.3918727   0.68963224   -1.7022404   0.14230108    11285.197     1000 
  650000   0.45019994   -2.5128498   0.67462461   -1.8382252   0.12414403    11436.327     1000 
  652000   0.43769617   -2.3652737   0.65588771    -1.709386   0.13959513    11169.921     1000 
  654000   0.44373286   -2.4487026    0.6649337   -1.7837689   0.12376039    11426.399     1000 
  656000   0.45740795   -2.4648636   0.68542581   -1.7794377    0.1264112    11406.981     1000 
  658000   0.44853345    -2.466865   0.67212738   -1.7947376   0.13587789    11258.898     1000 
  660000   0.45873726   -2.4672179   0.68741778   -1.7798001   0.12972783    11366.036     1000 
  662000   0.44998076   -2.4327271   0.67429617   -1.7584309    0.1204185    11418.333     1000 
  664000   0.44559563   -2.4098201   0.66772506   -1.7420951   0.13957601    11306.625     1000 
  666000   0.45828936   -2.4249043   0.68674661   -1.7381577   0.12618642    11260.056     1000 
  668000   0.46549473   -2.4147664   0.69754385   -1.7172225   0.13048221    11278.754     1000 
  670000   0.48244212   -2.4769953   0.72293951   -1.7540558   0.14816842    11213.581     1000 
  672000   0.45428152   -2.4168345   0.68074086   -1.7360936   0.12660954      11306.8     1000 
  674000   0.44096896   -2.4513983   0.66079199   -1.7906063   0.14048337    11301.544     1000 
  676000   0.44399994   -2.4420352   0.66533391   -1.7767013   0.12807273    11330.628     1000 
  678000   0.45176647   -2.4334331   0.67697206   -1.7564611   0.13304733    11170.464     1000 
  680000    0.4492332   -2.4605924   0.67317594   -1.7874164   0.13071784    11404.272     1000 
  682000   0.44952599   -2.4277709   0.67361469   -1.7541562   0.13001757    11290.704     1000 
  684000   0.44338819   -2.4445137   0.66441721   -1.7800965   0.13190375    11214.298     1000 
  686000   0.43910282   -2.4087339   0.65799557   -1.7507383   0.13310859    11298.425     1000 
  688000   0.44935999    -2.465187   0.67336594    -1.791821   0.11845556    11463.648     1000 
  690000   0.44048086   -2.4471036   0.66006056   -1.7870431   0.13007534    11357.717     1000 
  692000   0.43444396   -2.4388172   0.65101427   -1.7878029   0.13046792    11395.426     1000 
  694000   0.45871244   -2.4192805   0.68738059   -1.7318999   0.12535321    11270.549     1000 
  696000   0.43184372   -2.3937039   0.64711781   -1.7465861   0.12242454    11244.553     1000 
  698000   0.41853643   -2.4576967   0.62717685   -1.8305198   0.11543803    11296.026     1000 
  700000   0.43523559   -2.5086817   0.65220053   -1.8564812    0.1255921    11532.025     1000 
  702000   0.44706028    -2.483291   0.66991983   -1.8133711   0.11023642    11468.912     1000 
  704000    0.4330172   -2.4339385   0.64887628   -1.7850622   0.13380197    11292.817     1000 
  706000   0.44713185    -2.440269   0.67002707   -1.7702419   0.13055953    11323.694     1000 
  708000   0.45975977   -2.4648088   0.68895002   -1.7758588   0.13293397    11366.823     1000 
  710000   0.45721378   -2.4462516   0.68513484   -1.7611168   0.12867136     11281.64     1000 
  712000   0.45122423   -2.4637775   0.67615951    -1.787618   0.14139059    11301.005     1000 
  714000   0.45981744   -2.5086669   0.68903644   -1.8196305    0.1276739    11563.008     1000 
  716000   0.45306287   -2.4507428   0.67891472   -1.7718281   0.14015905    11233.882     1000 
  718000   0.46221007   -2.4676881   0.69262179   -1.7750663   0.13070054    11318.716     1000 
  720000   0.45758718   -2.4667791   0.68569439   -1.7810847   0.14094073    11266.766     1000 
  722000   0.46645446   -2.4523986   0.69898201   -1.7534166   0.11788311    11468.528     1000 
  724000   0.44429355   -2.4391744   0.66577388   -1.7734005   0.12945132    11364.994     1000 
  726000   0.45922006   -2.4601818   0.68814126   -1.7720406   0.12645302    11410.386     1000 
  728000   0.46188979   -2.4208963   0.69214184   -1.7287545   0.12568693    11296.978     1000 
  730000   0.47401155   -2.4440799   0.71030631   -1.7337736   0.12566874    11442.203     1000 
  732000    0.4397789   -2.4111895   0.65900868   -1.7521808     0.132526     11344.54     1000 
  734000   0.47004931   -2.4962986    0.7043689   -1.7919297   0.13730863    11443.658     1000 
  736000   0.44539948   -2.4432107   0.66743112   -1.7757796    0.1334717    11358.132     1000 
  738000   0.45256898   -2.4570181   0.67817461   -1.7788434   0.13424787    11348.656     1000 
  740000   0.46612058   -2.4328131   0.69848169   -1.7343314   0.12828934    11318.072     1000 
  742000   0.43863446   -2.4751115   0.65729374   -1.8178177   0.11955234    11422.217     1000 
  744000   0.44369456    -2.440415    0.6648763   -1.7755387   0.11659094    11355.529     1000 
  746000   0.44876746    -2.423571   0.67247804   -1.7510929   0.12607392    11433.339     1000 
  748000   0.45492665   -2.4599301   0.68170759   -1.7782225   0.12458073    11422.752     1000 
  750000   0.47367586   -2.4619531   0.70980328   -1.7521498   0.13618633    11295.118     1000 
  752000   0.43868314   -2.4692495   0.65736668   -1.8118828   0.12789118     11285.46     1000 
  754000     0.463563   -2.4173387   0.69464915   -1.7226896   0.14968848    11176.073     1000 
  756000   0.45938185    -2.433094    0.6883837   -1.7447103   0.12376938    11358.583     1000 
  758000   0.44469608   -2.4877747   0.66637708   -1.8213976   0.13581746    11298.688     1000 
  760000   0.44978587   -2.3884962   0.67400413   -1.7144921   0.12217438    11334.877     1000 
  762000   0.45598382   -2.4707734   0.68329175   -1.7874816   0.13080175    11280.347     1000 
  764000   0.45500079   -2.4339131   0.68181868   -1.7520944   0.12784159    11302.125     1000 
  766000    0.4546195   -2.5006479   0.68124731   -1.8194006   0.12022749    11509.733     1000 
  768000   0.44931415   -2.4747884   0.67329726   -1.8014911   0.13354313    11409.251     1000 
  770000   0.45432496   -2.4450354   0.68080595   -1.7642295   0.13314473    11268.138     1000 
  772000   0.45147089   -2.4585305   0.67652914   -1.7820014    0.1300102    11410.044     1000 
  774000   0.43675486    -2.443005   0.65447715   -1.7885278   0.13321611    11309.144     1000 
  776000   0.43936715   -2.4348072   0.65839168   -1.7764155   0.12641589    11293.464     1000 
  778000    0.4549205   -2.4331102   0.68169837   -1.7514119    0.1337944    11255.473     1000 
  780000   0.44361186   -2.4456717   0.66475238   -1.7809193   0.13017714    11441.027     1000 
  782000   0.43853195   -2.4589349   0.65714013   -1.8017948   0.14154081    11346.816     1000 
  784000   0.45866337   -2.4531484   0.68730706   -1.7658414   0.15279826    11143.032     1000 
  786000   0.43294406   -2.4642177   0.64876668    -1.815451   0.12751585    11380.082     1000 
  788000   0.45620158   -2.4503465   0.68361806   -1.7667284   0.10902913    11580.878     1000 
  790000    0.4259757   -2.4032776   0.63832458    -1.764953   0.13254945    11262.866     1000 
  792000   0.46503167   -2.4568959   0.69684996   -1.7600459   0.11823985    11406.351     1000 
  794000   0.45680807   -2.4370725   0.68452689   -1.7525456   0.13212602    11343.306     1000 
  796000   0.46163332   -2.4297607   0.69175753   -1.7380032    0.1204395    11402.581     1000 
  798000   0.43612534   -2.4401055   0.65353383   -1.7865717   0.13634023    11332.099     1000 
  800000   0.46106775   -2.3952716   0.69091002   -1.7043616   0.12860068     11259.18     1000 
  802000   0.44294432   -2.4627314   0.66375206   -1.7989794   0.14183449    11232.286     1000 
  804000   0.47646012   -2.4603213   0.71397549   -1.7463458   0.11944471     11380.44     1000 
  806000   0.44358118   -2.4667911    0.6647064   -1.8020847   0.12622702    11382.208     1000 
  808000   0.43503891   -2.4911186    0.6519058   -1.8392128   0.12411857    11419.062     1000 
  810000    0.4591127   -2.4508984   0.68798038   -1.7629181   0.13734172    11323.585     1000 
  812000   0.44768743   -2.4340059   0.67085962   -1.7631463   0.13415122    11290.597     1000 
  814000   0.43385457   -2.4351623   0.65013107   -1.7850313    0.1292524    11539.272     1000 
  816000   0.44030075    -2.436916   0.65979067   -1.7771253   0.13652704    11322.012     1000 
  818000   0.45416081   -2.4756593   0.68055997   -1.7950994   0.13635023     11372.27     1000 
  820000   0.44145766   -2.4110122    0.6615243   -1.7494879   0.13144361    11210.327     1000 
  822000   0.43324386   -2.4513652   0.64921593   -1.8021492   0.12011277    11420.788     1000 
  824000   0.45266573   -2.4555783   0.67831959   -1.7772587   0.12617968    11444.388     1000 
  826000   0.43939218   -2.4213157   0.65842918   -1.7628865   0.13585338    11272.541     1000 
  828000    0.4412196    -2.446301   0.66116757   -1.7851334   0.13462333    11320.019     1000 
  830000   0.45748136   -2.4804643   0.68553581   -1.7949285   0.13959655    11344.811     1000 
  832000   0.45294373   -2.3911811   0.67873618   -1.7124449   0.12960879    11281.596     1000 
  834000   0.44529415   -2.4645922   0.66727328   -1.7973189   0.10819939    11503.937     1000 
  836000    0.4729151   -2.4229345   0.70866328   -1.7142713   0.11871829    11388.338     1000 
  838000   0.46177934   -2.4506248   0.69197635   -1.7586484   0.12410434    11354.153     1000 
  840000   0.45907906   -2.4944957   0.68792997   -1.8065657   0.13033986    11353.268     1000 
  842000   0.45033532   -2.4213748   0.67482748   -1.7465473   0.14684449      11158.3     1000 
  844000   0.46058428   -2.4301247   0.69018555   -1.7399392   0.13269535    11259.222     1000 
  846000   0.45662158    -2.476303   0.68424743   -1.7920555   0.12715487    11233.448     1000 
  848000   0.47511588   -2.5046442   0.71196115   -1.7926831   0.12801908      11537.2     1000 
  850000   0.43680909   -2.4726948   0.65455842   -1.8181364   0.12579223    11388.058     1000 
  852000   0.45816564   -2.4188172   0.68656122    -1.732256   0.12973205    11290.004     1000 
  854000    0.4538688   -2.4689485   0.68012239   -1.7888261   0.13379942    11453.586     1000 
  856000   0.45065034   -2.4376842   0.67529953   -1.7623847   0.13035092    11380.678     1000 
  858000   0.45436203   -2.4467604    0.6808615   -1.7658989    0.1182833    11368.939     1000 
  860000   0.44892694    -2.479503   0.67271701    -1.806786   0.13640055    11327.247     1000 
  862000   0.43809221   -2.4252777   0.65648118   -1.7687965   0.13647453    11408.551     1000 
  864000   0.45519599    -2.433207   0.68211119   -1.7510959   0.13709346    11243.113     1000 
  866000   0.45448596   -2.4405441   0.68104721   -1.7594969   0.12706471    11365.628     1000 
  868000   0.44582566   -2.4263427   0.66806975   -1.7582729   0.12817016    11338.678     1000 
  870000   0.44696577   -2.4576723   0.66977821   -1.7878941   0.14115361    11338.049     1000 
  872000   0.44333591   -2.4786245   0.66433886   -1.8142857   0.12788201     11365.34     1000 
  874000   0.44459095    -2.485409   0.66621954   -1.8191894   0.13330452     11421.55     1000 
  876000   0.44704931   -2.4648478   0.66990339   -1.7949444   0.11400971    11449.552     1000 
  878000   0.45543192   -2.4418868   0.68246473    -1.759422   0.12939429    11412.481     1000 
  880000   0.45818736   -2.4725323   0.68659376   -1.7859385    0.1332195    11318.049     1000 
  882000   0.47058928    -2.473642   0.70517804    -1.768464   0.13462534    11347.305     1000 
  884000   0.43007869   -2.4304593   0.64447292   -1.7859864   0.12134711    11422.577     1000 
  886000   0.46523813   -2.4396742   0.69715934   -1.7425149   0.13765038    11313.228     1000 
  888000   0.45120524   -2.5086083   0.67613105   -1.8324773   0.11739105    11575.699     1000 
  890000   0.45942698    -2.475247   0.68845133   -1.7867957   0.12341601    11397.738     1000 
  892000   0.43714322   -2.4554755   0.65505911   -1.8004164   0.13103797    11425.934     1000 
  894000   0.43513234   -2.4316161   0.65204582   -1.7795703   0.13902596    11325.316     1000 
  896000    0.4835116   -2.4451877   0.72454213   -1.7206455   0.13389411    11207.223     1000 
  898000   0.45892234   -2.4653168   0.68769512   -1.7776217   0.13802351    11435.116     1000 
  900000   0.46907849    -2.471382   0.70291412   -1.7684679   0.12973434    11381.856     1000 
  902000   0.43720872   -2.4456297   0.65515726   -1.7904725   0.12798252    11333.824     1000 
  904000   0.45670644   -2.4763561    0.6843746   -1.7919816    0.1206039    11490.084     1000 
  906000     0.445687   -2.4186107   0.66786197   -1.7507487   0.14355879    11371.694     1000 
  908000    0.4376245   -2.4505436   0.65578031   -1.7947633   0.13483025    11294.265     1000 
  910000   0.46002926   -2.4501017   0.68935384   -1.7607479   0.13139218    11300.827     1000 
  912000   0.45849055   -2.4328105   0.68704809   -1.7457624   0.13115955    11383.738     1000 
  914000   0.45876705   -2.4857512   0.68746243   -1.7982887   0.13019514    11415.502     1000 
  916000   0.46195539   -2.4636092   0.69224015    -1.771369   0.14124357    11420.154     1000 
  918000   0.45754617   -2.4643321   0.68563293   -1.7786992   0.13157038    11212.236     1000 
  920000   0.43859516   -2.4132358   0.65723485    -1.756001   0.13756482    11207.314     1000 
  922000   0.45452214   -2.4867017   0.68110143   -1.8056003    0.1268134    11443.039     1000 
  924000   0.44389144   -2.4035137   0.66517132   -1.7383424    0.1221305    11277.993     1000 
  926000   0.46313051   -2.4691953   0.69400107   -1.7751942   0.13075495      11402.9     1000 
  928000   0.45434345   -2.4539316   0.68083366   -1.7730979   0.12717267     11451.11     1000 
  930000   0.44612775    -2.465033   0.66852243   -1.7965106   0.12092067    11415.063     1000 
  932000   0.43960191    -2.446847   0.65874346   -1.7881036   0.13660063    11247.414     1000 
  934000   0.44500203   -2.4421874   0.66683554   -1.7753519   0.13110527     11332.75     1000 
  936000     0.459051   -2.4739718   0.68788793   -1.7860839   0.13831762    11397.722     1000 
  938000   0.44987237   -2.4420128   0.67413374   -1.7678791   0.13704612    11243.333     1000 
  940000   0.46795779   -2.4551896   0.70123475   -1.7539548   0.13288178    11360.325     1000 
  942000   0.44815019   -2.4916141   0.67155307    -1.820061   0.13187502    11393.338     1000 
  944000    0.4463204   -2.4684515   0.66881111   -1.7996404   0.14106401    11359.334     1000 
  946000   0.43311609   -2.4627988   0.64902446   -1.8137744   0.12260231    11396.161     1000 
  948000   0.45092137   -2.4347348   0.67570567   -1.7590291   0.13378557    11371.913     1000 
  950000   0.43161728   -2.4923666   0.64677849   -1.8455881   0.13234018    11335.601     1000 
  952000   0.46477412   -2.4291413   0.69646402   -1.7326773   0.13104706    11351.457     1000 
  954000   0.43537352    -2.426547   0.65240722   -1.7741398   0.14792864    11176.791     1000 
  956000   0.44772331   -2.4643543   0.67091338   -1.7934409    0.1275777    11355.248     1000 
  958000   0.44739283   -2.4297635   0.67041815   -1.7593453   0.12602229    11521.836     1000 
  960000   0.47100943   -2.4712066   0.70580763    -1.765399   0.12782079    11418.697     1000 
  962000   0.44469328   -2.4863205   0.66637288   -1.8199476   0.13234246    11373.452     1000 
  964000   0.46138388   -2.4053627   0.69138374   -1.7139789    0.1338286    11329.064     1000 
  966000   0.43545326   -2.4757037   0.65252671    -1.823177   0.12974346    11383.908     1000 
  968000   0.43865202   -2.4485868   0.65732005   -1.7912667   0.13321361     11361.74     1000 
  970000   0.45687407   -2.3971728    0.6846258    -1.712547   0.13571535    11259.057     1000 
  972000   0.44453777   -2.4537199   0.66613985     -1.78758   0.13621107    11277.923     1000 
  974000   0.44552549   -2.4698076   0.66761995   -1.8021877   0.11784251     11466.06     1000 
  976000   0.45825527   -2.4359866   0.68669552   -1.7492911   0.13405976    11308.949     1000 
  978000   0.44869742    -2.402408   0.67237309   -1.7300349   0.14543882     11130.11     1000 
  980000   0.45556737   -2.4112226    0.6826677   -1.7285549   0.12410955    11335.831     1000 
  982000   0.46959346   -2.4263606    0.7036858   -1.7226748   0.13317411     11290.31     1000 
  984000    0.4535654   -2.3481682   0.67966775   -1.6685005   0.14889042    11137.684     1000 
  986000   0.44831597   -2.4019625   0.67180148    -1.730161   0.13088537    11365.449     1000 
  988000   0.46067386   -2.4495566   0.69031978   -1.7592369   0.14811241    11211.952     1000 
  990000   0.46177746   -2.4654572   0.69197352   -1.7734837   0.12430017    11431.434     1000 
  992000   0.45388412   -2.4845543   0.68014535    -1.804409   0.12380329    11413.213     1000 
  994000     0.449108   -2.4179338   0.67298834   -1.7449454   0.12450478    11367.926     1000 
  996000   0.45493161   -2.4374119   0.68171502   -1.7556969   0.11208523    11487.997     1000 
  998000    0.4311205   -2.4702979   0.64603407   -1.8242638    0.1274045    11513.054     1000 
 1000000   0.44765544   -2.4633388   0.67081168   -1.7925271   0.12622804    11382.695     1000 
 1002000   0.46142714   -2.4373048   0.69144858   -1.7458562   0.12648113    11436.305     1000 
 1004000   0.43689772   -2.4575841   0.65469124   -1.8028928   0.12815231    11335.906     1000 
 1006000   0.45505359    -2.482467    0.6818978   -1.8005692   0.12877102    11275.789     1000 
 1008000   0.44970878     -2.45821    0.6738886   -1.7843214   0.13190475    11402.492     1000 
 1010000   0.46080133   -2.4327402    0.6905108   -1.7422294   0.12487158    11349.765     1000 
 1012000   0.45496917   -2.3681241    0.6817713   -1.6863528   0.14794771    11115.501     1000 
 1014000   0.44508956   -2.4650993   0.66696671   -1.7981326   0.12354181    11426.004     1000 
 1016000   0.44882922   -2.4187943   0.67257059   -1.7462237   0.14746717    11134.398     1000 
 1018000    0.4448055   -2.4062876   0.66654104   -1.7397466   0.13703838    11221.425     1000 
 1020000   0.44504887   -2.4460525   0.66690572   -1.7791467   0.11689526     11371.81     1000 
 1022000   0.46131634   -2.4042562   0.69128254   -1.7129737   0.13588353    11210.439     1000 
 1024000   0.44258448   -2.4399706   0.66321285   -1.7767577   0.13344628    11213.621     1000 
 1026000   0.44700943   -2.4094182   0.66984363   -1.7395746    0.1329332    11272.093     1000 
 1028000   0.44205261   -2.4843782   0.66241583   -1.8219624   0.12102264    11405.839     1000 
 1030000   0.44835172    -2.477326   0.67185505   -1.8054709   0.12527543    11443.816     1000 
 1032000   0.44582443   -2.4338639   0.66806791    -1.765796   0.11460539    11413.128     1000 
 1034000   0.44269397   -2.4112236   0.66337691   -1.7478467    0.1317766    11199.735     1000 
 1036000   0.46217819   -2.4816582   0.69257402   -1.7890842   0.12845381    11308.473     1000 
 1038000    0.4472853   -2.4156582   0.67025703   -1.7454012   0.13119966    11359.674     1000 
 1040000    0.4416153   -2.4345245   0.66176053    -1.772764   0.12319473    11318.303     1000 
 1042000   0.45273154   -2.4263379   0.67841821   -1.7479197   0.12160874    11306.988     1000 
 1044000   0.45975869   -2.4436262   0.68894839   -1.7546778   0.11984433    11438.901     1000 
 1046000   0.45529719   -2.4465371   0.68226284   -1.7642743   0.12711158    11389.556     1000 
 1048000   0.44405044   -2.4811784   0.66540958   -1.8157688   0.12662039     11449.97     1000 
 1050000   0.44995445   -2.4550622   0.67425674   -1.7808054    0.1347486    11478.392     1000 
 1052000   0.45392177   -2.3927803   0.68020177   -1.7125785   0.13527194    11280.046     1000 
 1054000   0.44257728   -2.4370748   0.66320205   -1.7738728   0.14587779    11218.755     1000 
 1056000   0.43517888   -2.4541655   0.65211556   -1.8020499   0.14328186    11389.825     1000 
 1058000    0.4251013   -2.4622937   0.63701429   -1.8252795   0.13150761    11311.805     1000 
 1060000   0.44221212   -2.5040658   0.66265486   -1.8414109   0.12384411    11491.511     1000 
 1062000   0.45051018   -2.5105623   0.67508951   -1.8354728    0.1364788    11393.323     1000 
 1064000   0.44010229   -2.4634326   0.65949328   -1.8039393   0.14045347      11350.3     1000 
 1066000   0.46919457   -2.4511031   0.70308806    -1.748015   0.13604906    11366.808     1000 
 1068000    0.4529616   -2.4270633   0.67876296   -1.7483004   0.12000595    11367.808     1000 
 1070000   0.47147632    -2.461607   0.70650726   -1.7550998   0.12313362    11458.787     1000 
 1072000   0.43563979   -2.4766001   0.65280622   -1.8237939   0.12859818    11381.691     1000 
 1074000   0.42578002   -2.4853977   0.63803137   -1.8473664   0.12632843    11425.851     1000 
 1076000   0.43816695   -2.4290774   0.65659317   -1.7724843   0.13683842    11194.318     1000 
 1078000   0.42354445   -2.5471901   0.63468136   -1.9125088   0.11462108    11570.123     1000 
 1080000   0.46600252   -2.4058892   0.69830478   -1.7075844   0.12566807    11319.269     1000 
 1082000   0.44610398   -2.4678601   0.66848681   -1.7993733   0.12874523    11321.756     1000 
 1084000   0.46392714   -2.4602354   0.69519481   -1.7650405   0.13117786     11333.49     1000 
 1086000   0.43385221   -2.5187638   0.65012753   -1.8686363   0.12379085    11403.033     1000 
 1088000   0.44231296   -2.4177105   0.66280597   -1.7549045   0.12726878    11360.405     1000 
 1090000   0.44696863   -2.4353965    0.6697825    -1.765614   0.13496371    11280.809     1000 
 1092000   0.44746551   -2.4300091   0.67052707    -1.759482   0.12029975    11395.237     1000 
 1094000   0.45648956    -2.419929    0.6840496   -1.7358794   0.12702144    11391.293     1000 
 1096000    0.4559366   -2.4409898   0.68322099   -1.7577688     0.113035    11462.987     1000 
 1098000    0.4465461   -2.4872196   0.66914934   -1.8180703   0.13058122    11417.051     1000 
 1100000   0.46222629   -2.3950527   0.69264609   -1.7024066   0.14394332    11270.591     1000 
 1102000   0.42941119   -2.4461958   0.64347267   -1.8027231   0.11911333    11451.782     1000 
 1104000   0.44739978   -2.4334604   0.67042857   -1.7630318    0.1368437     11199.47     1000 
 1106000   0.45158702   -2.4199898   0.67670315   -1.7432866   0.13477522    11309.132     1000 
 1108000   0.43960224   -2.4429986   0.65874396   -1.7842547   0.12237188     11490.41     1000 
 1110000   0.45283255   -2.4538155   0.67856958   -1.7752459   0.12400738    11483.945     1000 
 1112000   0.45809306   -2.4496152   0.68645246   -1.7631627   0.12000465    11406.538     1000 
 1114000   0.45707239   -2.4541138   0.68492297   -1.7691909   0.13724698    11316.063     1000 
 1116000   0.45275002   -2.4697524   0.67844591   -1.7913065   0.12959856    11404.147     1000 
 1118000   0.47994503   -2.4711612   0.71919763   -1.7519635   0.13486052    11216.066     1000 
 1120000   0.45074228   -2.4471241   0.67543731   -1.7716868   0.15024218    11291.466     1000 
 1122000   0.44124074   -2.4435126   0.66119925   -1.7823134   0.12651445    11316.914     1000 
 1124000   0.45277727   -2.4379737   0.67848674    -1.759487   0.13281317     11239.35     1000 
 1126000   0.44537363   -2.4569213   0.66739238   -1.7895289   0.13398108    11380.806     1000 
 1128000    0.4254086   -2.4332254   0.63747478   -1.7957507   0.11983903     11327.05     1000 
 1130000   0.44994194   -2.4685125   0.67423799   -1.7942745   0.11794044     11394.59     1000 
 1132000   0.44204669   -2.4351169   0.66240697   -1.7727099   0.12348388    11361.019     1000 
 1134000   0.44895178   -2.4673165   0.67275424   -1.7945623   0.12296072    11455.552     1000 
 1136000   0.46167988   -2.3889345    0.6918273   -1.6971072   0.13874095     11264.98     1000 
 1138000   0.46380626   -2.4600998   0.69501368   -1.7650861   0.12581412    11302.937     1000 
 1140000   0.45771553   -2.4469443   0.68588672   -1.7610576    0.1097958     11586.81     1000 
 1142000    0.4478573   -2.4282564   0.67111416   -1.7571423   0.13032488    11346.728     1000 
 1144000   0.46358051   -2.4895551    0.6946754   -1.7948797   0.13101178    11445.015     1000 
 1146000   0.41860345   -2.4529345   0.62727726   -1.8256572   0.11751563    11400.437     1000 
 1148000   0.44739578   -2.4010772   0.67042257   -1.7306546   0.15262743    11072.294     1000 
 1150000   0.43890648   -2.3867136   0.65770137   -1.7290122   0.13147053    11231.909     1000 
 1152000   0.43829887   -2.4515285   0.65679086   -1.7947376    0.1224842    11343.536     1000 
 1154000   0.46728284   -2.4371495   0.70022334   -1.7369262   0.13314465    11318.865     1000 
 1156000   0.44529069    -2.459017   0.66726809   -1.7917489   0.12791941    11393.346     1000 
 1158000   0.44047984   -2.4475237   0.66005904   -1.7874646   0.13983961    11268.855     1000 
 1160000   0.49287811   -2.4249777   0.73857784   -1.6863998   0.13066559    11378.142     1000 
 1162000   0.43050751   -2.4539479    0.6451155   -1.8088324   0.13136995    11266.056     1000 
 1164000   0.45812739   -2.4513849    0.6865039    -1.764881    0.1291511    11358.207     1000 
 1166000   0.45740467   -2.4415242    0.6854209   -1.7561033   0.13496701    11278.317     1000 
 1168000   0.45969476   -2.4071201    0.6888526   -1.7182675   0.12161622    11330.598     1000 
 1170000   0.44837713   -2.4775448   0.67189313   -1.8056516   0.13458266    11323.655     1000 
 1172000   0.46113692   -2.4151715   0.69101367   -1.7241578   0.13285424    11322.604     1000 
 1174000   0.43709063   -2.3935978   0.65498031   -1.7386174   0.12593633    11351.785     1000 
 1176000   0.42105719   -2.4297054    0.6309542   -1.7987512   0.12607738     11379.03     1000 
 1178000    0.4383543    -2.432302   0.65687392    -1.775428   0.13498031    11290.815     1000 
 1180000   0.48153966    -2.480667   0.72158717   -1.7590798   0.14077896    11312.712     1000 
 1182000   0.45782358   -2.4470303   0.68604863   -1.7609817   0.13539215    11331.882     1000 
 1184000   0.42893767   -2.4287554   0.64276309   -1.7859923   0.13322975    11267.893     1000 
 1186000   0.46136063   -2.4144374    0.6913489   -1.7230885   0.12822552    11374.202     1000 
 1188000   0.43952713   -2.4343819   0.65863141   -1.7757505   0.13353513    11437.858     1000 
 1190000   0.45695832     -2.46111   0.68475204   -1.7763579   0.12111107    11457.975     1000 
 1192000   0.45340291   -2.4691039   0.67942425   -1.7896796   0.12472817    11376.912     1000 
 1194000   0.43696626    -2.485803   0.65479395   -1.8310091   0.12775494    11379.121     1000 
 1196000   0.46693258   -2.4876863   0.69969847   -1.7879878   0.12996861     11417.35     1000 
 1198000    0.4410422   -2.4961727   0.66090174   -1.8352709   0.12009873    11413.702     1000 
 1200000   0.44037398   -2.4329533   0.65990041   -1.7730529   0.12138522    11366.083     1000 
 1202000   0.45782075   -2.4515378    0.6860444   -1.7654934   0.13877416    11280.685     1000 
 1204000   0.46502416   -2.4583928   0.69683871   -1.7615541   0.13563181    11472.982     1000 
 1206000   0.44406893   -2.4300528   0.66543729   -1.7646155   0.13734355    11305.508     1000 
 1208000   0.46526032   -2.4471903   0.69719259   -1.7499977   0.13817509    11245.301     1000 
 1210000   0.45269646   -2.4317761   0.67836565   -1.7534105   0.12440014    11289.734     1000 
 1212000   0.44696528     -2.45838   0.66977748   -1.7886026     0.128664    11221.459     1000 
 1214000   0.46114532   -2.4008723   0.69102627   -1.7098461   0.11878369    11444.443     1000 
 1216000   0.42938446   -2.4142497   0.64343262   -1.7708171   0.12096258     11344.01     1000 
 1218000   0.43623064   -2.5301697   0.65369161    -1.876478   0.13168977     11371.14     1000 
 1220000   0.46873983   -2.4818229   0.70240664   -1.7794162   0.13648127    11392.468     1000 
 1222000   0.45173795   -2.4615791   0.67692932   -1.7846498   0.12861808    11411.455     1000 
 1224000   0.45334663   -2.4196625   0.67933993   -1.7403226   0.12376039     11331.23     1000 
 1226000   0.45427201   -2.4610993    0.6807266   -1.7803727   0.12376946    11414.725     1000 
 1228000   0.46718546   -2.4227985   0.70007741   -1.7227211   0.13543069    11360.463     1000 
 1230000   0.44862775   -2.4022431   0.67226869   -1.7299744    0.1288079    11428.334     1000 
 1232000   0.45040761   -2.4567295    0.6749358   -1.7817937   0.14009521    11323.491     1000 
 1234000   0.43984133   -2.4077231   0.65910223   -1.7486208   0.13101332    11287.116     1000 
 1236000   0.46263635   -2.4411729   0.69326056   -1.7479123    0.1343072    11368.889     1000 
 1238000   0.47467173   -2.4241409   0.71129559   -1.7128453   0.13315227    11302.601     1000 
 1240000   0.42959681   -2.4527215   0.64375081   -1.8089707   0.12938229    11382.322     1000 
 1242000   0.47229107   -2.4641092   0.70772816   -1.7563811   0.12068015    11315.864     1000 
 1244000   0.44483951   -2.4447469     0.666592   -1.7781549   0.12895144    11203.452     1000 
 1246000   0.45174314   -2.4214432   0.67693709   -1.7445061   0.12413425     11415.77     1000 
 1248000   0.44819152   -2.4373165   0.67161499   -1.7657015   0.11709064    11500.185     1000 
 1250000    0.4476984   -2.4604632   0.67087606   -1.7895871   0.12800663    11515.316     1000 
 1252000    0.4607036   -2.4518113   0.69036435    -1.761447   0.13891529    11327.528     1000 
 1254000    0.4328254   -2.4020102   0.64858886   -1.7534213   0.13487433    11289.368     1000 
 1256000   0.43505384   -2.4607132   0.65192819    -1.808785   0.12690149    11393.785     1000 
 1258000   0.46916872   -2.4375636   0.70304933   -1.7345143   0.14216023    11302.564     1000 
 1260000   0.45989109   -2.4476876   0.68914681   -1.7585408   0.14063522    11255.793     1000 
 1262000   0.45106644   -2.4705161   0.67592306    -1.794593   0.13000483    11424.656     1000 
 1264000   0.44889858   -2.4365713   0.67267453   -1.7638967   0.12306625    11378.188     1000 
 1266000   0.43596599   -2.3776937   0.65329504   -1.7243986   0.14921602    11225.828     1000 
 1268000   0.46783156   -2.4321717    0.7010456   -1.7311261   0.13762861    11235.401     1000 
 1270000   0.44940829   -2.4613948   0.67343832   -1.7879565   0.12977529    11422.595     1000 
 1272000   0.44102905    -2.460043   0.66088203    -1.799161   0.11548733    11432.438     1000 
 1274000   0.44185715    -2.454924   0.66212295    -1.792801   0.12011948    11446.883     1000 
 1276000   0.46450824   -2.4220075   0.69606559   -1.7259419   0.13178682    11353.512     1000 
 1278000   0.43235602   -2.4466247    0.6478855   -1.7987392   0.13701358    11343.403     1000 
 1280000   0.44142316   -2.4924573    0.6614726   -1.8309847   0.12891231    11322.171     1000 
 1282000    0.4466538     -2.45729   0.66931072   -1.7879793   0.12315581    11485.017     1000 
 1284000   0.45740072   -2.4660113   0.68541499   -1.7805963   0.14157791    11248.213     1000 
 1286000   0.42812625   -2.4066418   0.64154718   -1.7650947   0.12292497     11377.69     1000 
 1288000   0.46411602    -2.420051   0.69547785   -1.7245731   0.12486335     11394.69     1000 
 1290000   0.45475761   -2.3973489   0.68145427   -1.7158946   0.13151258     11272.26     1000 
 1292000   0.41957153   -2.4641105   0.62872793   -1.8353826   0.11632103    11416.455     1000 
 1294000   0.45620928   -2.4314654    0.6836296   -1.7478358   0.12683643    11356.689     1000 
 1296000   0.46191148   -2.4700976   0.69217436   -1.7779232   0.12880293    11383.589     1000 
 1298000   0.42774267   -2.4242871   0.64097239   -1.7833147   0.13685428    11310.372     1000 
 1300000   0.45409735   -2.4887833   0.68046488   -1.8083184   0.14453243    11283.253     1000 
 1302000   0.43168945   -2.4619731   0.64688665   -1.8150865   0.13599698    11389.986     1000 
 1304000   0.45127823   -2.4731417   0.67624043   -1.7969013   0.12317497    11423.319     1000 
 1306000   0.45240717   -2.4525539   0.67793215   -1.7746218   0.12913859    11447.988     1000 
 1308000   0.47197708   -2.5067958   0.70725765   -1.7995382    0.1165121    11548.811     1000 
 1310000   0.46648081   -2.4418251   0.69902149   -1.7428036   0.14634229    11303.671     1000 
 1312000   0.45628783   -2.4274781   0.68374731   -1.7437308   0.13781601      11310.6     1000 
 1314000   0.47050304   -2.4702817    0.7050488   -1.7652329   0.13826404    11240.611     1000 
 1316000   0.46350019     -2.44042   0.69455503    -1.745865   0.13468485    11250.889     1000 
 1318000   0.45352909   -2.3926449   0.67961334   -1.7130316    0.1258506    11426.583     1000 
 1320000   0.46130192   -2.4694564   0.69126093   -1.7781954   0.11849604    11536.824     1000 
 1322000    0.4619611   -2.4987091   0.69224872   -1.8064604   0.13129098    11326.963     1000 
 1324000   0.43641869   -2.4315396   0.65397341   -1.7775661   0.15067581    11292.011     1000 
 1326000    0.4500986   -2.4780081   0.67447275   -1.8035354   0.12003929    11470.661     1000 
 1328000   0.45033705   -2.4380731   0.67483007    -1.763243   0.11906091    11348.822     1000 
 1330000   0.45128931   -2.4451401   0.67625704   -1.7688831   0.12283378    11478.394     1000 
 1332000   0.43506284   -2.4661377   0.65194167    -1.814196   0.12622275    11363.806     1000 
 1334000   0.46410737   -2.4317031   0.69546489   -1.7362383   0.13291266    11353.437     1000 
 1336000   0.47032629   -2.4301456   0.70478394   -1.7253616   0.13241113    11331.514     1000 
 1338000   0.44036624     -2.47374   0.65988881   -1.8138512   0.14472029    11232.246     1000 
 1340000   0.44268708   -2.4984669    0.6633666   -1.8351003   0.12805073    11409.113     1000 
 1342000   0.46630876    -2.447776   0.69876367   -1.7490123   0.12671625    11386.638     1000 
 1344000   0.44280274     -2.45599    0.6635399   -1.7924501   0.12331857    11393.098     1000 
 1346000   0.47273576   -2.4373937   0.70839453   -1.7289992   0.13575418    11391.487     1000 
 1348000   0.44944986   -2.4730725   0.67350062   -1.7995719    0.1222545    11391.543     1000 
 1350000   0.44566493   -2.4728309    0.6678289    -1.805002   0.13070235    11362.522     1000 
 1352000   0.44335608   -2.4125936   0.66436909   -1.7482245   0.13335778    11249.409     1000 
 1354000    0.4478457   -2.4030157   0.67109679   -1.7319189    0.1337446    11241.753     1000 
 1356000   0.44251826   -2.4245035   0.66311362   -1.7613899   0.12424759    11392.076     1000 
 1358000   0.46080624   -2.4334943   0.69051815   -1.7429761   0.13284451    11202.359     1000 
 1360000    0.4331255   -2.4614273   0.64903856   -1.8123888   0.12964203    11228.645     1000 
 1362000    0.4543663   -2.4123916   0.68086791   -1.7315237   0.13026333    11282.001     1000 
 1364000   0.45415645   -2.4153764   0.68055344    -1.734823   0.12178192    11360.157     1000 
 1366000   0.45595107   -2.5159422   0.68324268   -1.8326995   0.12594941    11572.221     1000 
 1368000   0.43039688   -2.4521211   0.64494972   -1.8071714    0.1307922    11293.001     1000 
 1370000   0.43739897   -2.4400254   0.65544236   -1.7845831    0.1167651     11423.62     1000 
 1372000   0.45729028   -2.4785163   0.68524949   -1.7932668   0.12425345     11463.66     1000 
 1374000   0.45314274    -2.466586    0.6790344   -1.7875516   0.12502113    11440.913     1000 
 1376000   0.46251045   -2.4235752   0.69307191   -1.7305033   0.13693884    11407.548     1000 
 1378000   0.45424472    -2.418088   0.68068571   -1.7374022   0.12871969    11334.773     1000 
 1380000   0.42986233   -2.4237592    0.6441487   -1.7796105    0.1408282    11151.663     1000 
 1382000   0.42635883   -2.4897097   0.63889871    -1.850811   0.13237094    11367.685     1000 
 1384000   0.42925177   -2.4291839   0.64323377   -1.7859502   0.12738611    11474.111     1000 
 1386000   0.45999881   -2.4488917   0.68930821   -1.7595835   0.13138158    11305.022     1000 
 1388000   0.42877639   -2.4187458   0.64252142   -1.7762244   0.12586181    11406.282     1000 
 1390000   0.44491143   -2.4711239   0.66669978   -1.8044241   0.12033912    11455.652     1000 
 1392000   0.43664625   -2.3775853   0.65431441   -1.7232709    0.1361235    11200.562     1000 
 1394000   0.46055271   -2.5007616   0.69013823   -1.8106234   0.13366426    11279.223     1000 
 1396000   0.46276706   -2.4407511   0.69345644   -1.7472947     0.130577    11507.202     1000 
 1398000   0.42414785    -2.468718   0.63558556   -1.8331325   0.11020997    11524.946     1000 
 1400000   0.46190419   -2.4401407   0.69216343   -1.7479773   0.12608773    11419.115     1000 
 1402000    0.4507335   -2.4376433   0.67542415   -1.7622191   0.14236531    11363.381     1000 
 1404000   0.43846212   -2.4498768   0.65703549   -1.7928413   0.12562118    11337.665     1000 
 1406000   0.45580615   -2.4418244   0.68302551   -1.7587989   0.13220464    11255.724     1000 
 1408000    0.4320293   -2.4427605    0.6473959   -1.7953646   0.12928372    11388.359     1000 
 1410000    0.4640364   -2.4522381   0.69535855   -1.7568796   0.14287536    11401.113     1000 
 1412000   0.43069219   -2.4238242   0.64539225   -1.7784319   0.13468262    11278.679     1000 
 1414000   0.46835269   -2.4557097    0.7018265   -1.7538832   0.12220941    11372.743     1000 
 1416000   0.45603083   -2.4366824    0.6833622   -1.7533202   0.12053566    11409.463     1000 
 1418000   0.47326718    -2.449699   0.70919087   -1.7405081   0.12911922    11329.407     1000 
 1420000   0.43812255   -2.4633902   0.65652664   -1.8068636   0.12871239    11287.973     1000 
 1422000   0.43801414    -2.486845   0.65636419   -1.8304808   0.11044988    11572.518     1000 
 1424000    0.4377333   -2.4473518   0.65594335   -1.7914084   0.12091874    11412.475     1000 
 1426000   0.44527783   -2.4336722   0.66724882   -1.7664234   0.12764473    11370.511     1000 
 1428000   0.45998248   -2.4343226   0.68928374   -1.7450388    0.1347807    11308.289     1000 
 1430000   0.44221873   -2.4734711   0.66266477   -1.8108063   0.13276317    11340.241     1000 
 1432000   0.45348038    -2.429818   0.67954035   -1.7502777    0.1357289    11312.814     1000 
 1434000   0.46740389   -2.4761632   0.70040472   -1.7757585   0.12736004    11388.374     1000 
 1436000    0.4699186   -2.3992498   0.70417302   -1.6950768   0.12475137    11405.725     1000 
 1438000   0.44772664   -2.4209009   0.67091838   -1.7499826   0.13401147    11297.197     1000 
 1440000   0.44712687   -2.4660738   0.67001962   -1.7960542   0.13556285    11424.026     1000 
 1442000   0.45592271    -2.450627   0.68320018   -1.7674269   0.12292313    11384.897     1000 
 1444000   0.46759123   -2.4280422   0.70068546   -1.7273568   0.12676316    11372.189     1000 
 1446000   0.45396967   -2.4795483   0.68027356   -1.7992747   0.13338907    11388.721     1000 
 1448000    0.4672224   -2.4517424   0.70013276   -1.7516096   0.12145425    11273.442     1000 
 1450000   0.43750931   -2.4444515   0.65560769   -1.7888438    0.1216612     11442.51     1000 
 1452000   0.41476907   -2.4226945   0.62153145    -1.801163   0.13301887    11242.149     1000 
 1454000    0.4388709   -2.4579535   0.65764805   -1.8003054   0.12450264    11382.425     1000 
 1456000   0.45768741   -2.4912955   0.68584459   -1.8054509   0.12868111    11364.822     1000 
 1458000   0.45716352   -2.4137561   0.68505954   -1.7286965   0.12618689    11266.602     1000 
 1460000    0.4456786   -2.4370715   0.66784938   -1.7692221    0.1265473    11233.613     1000 
 1462000   0.45557629   -2.4647537   0.68268107   -1.7820726   0.11558773    11404.313     1000 
 1464000   0.46389594   -2.4821598   0.69514806   -1.7870117   0.13013039     11455.11     1000 
 1466000   0.45004813   -2.4182784   0.67439712   -1.7438813   0.13660703    11234.939     1000 
 1468000   0.42825933   -2.4541166    0.6417466     -1.81237   0.10942413    11533.436     1000 
 1470000   0.45756102   -2.4670259    0.6856552   -1.7813707   0.12812487     11452.48     1000 
 1472000   0.44794954   -2.4820361   0.67125239   -1.8107837   0.13046074    11372.106     1000 
 1474000   0.44924607   -2.4371692   0.67319523    -1.763974   0.13573499    11407.493     1000 
 1476000   0.44020285   -2.4318031   0.65964398   -1.7721591   0.12407295    11359.762     1000 
 1478000   0.44538637   -2.4869349   0.66741148   -1.8195234   0.13020035    11371.317     1000 
 1480000   0.43277341   -2.4273943   0.64851096   -1.7788833   0.12116677    11359.909     1000 
 1482000    0.4411699   -2.4612274    0.6610931   -1.8001343   0.13582041    11393.689     1000 
 1484000   0.44228657   -2.4332298   0.66276642   -1.7704634   0.12689573    11391.217     1000 
 1486000   0.45386817   -2.4644231   0.68012146   -1.7843017   0.12338989    11375.126     1000 
 1488000   0.46942481   -2.4632058   0.70343308   -1.7597727   0.13586701     11433.59     1000 
 1490000   0.45053708   -2.4625221   0.67512982   -1.7873923   0.12710737    11391.351     1000 
 1492000   0.45151835   -2.4270223   0.67660025    -1.750422   0.12394286    11382.562     1000 
 1494000   0.44035713   -2.4749182   0.65987517   -1.8150431   0.12757244    11312.485     1000 
 1496000   0.45691205   -2.4844913   0.68468271   -1.7998086    0.1112542    11559.536     1000 
 1498000   0.43245829   -2.4321001   0.64803875   -1.7840613   0.12152074    11536.047     1000 
 1500000   0.45296411   -2.4366619   0.67876671   -1.7578952   0.12544054    11329.617     1000 
 1502000   0.43861872   -2.4674588   0.65727015   -1.8101887   0.11879003     11391.39     1000 
 1504000   0.44454808   -2.4312444    0.6661553   -1.7650891   0.13415009    11293.785     1000 
 1506000   0.45336053   -2.4557284   0.67936076   -1.7763676   0.11946719     11483.47     1000 
 1508000   0.44936322   -2.4397662   0.67337078   -1.7663954   0.13928907    11229.684     1000 
 1510000   0.44359527   -2.4586164   0.66472751   -1.7938889   0.13945171    11320.961     1000 
 1512000   0.43433984   -2.4474553   0.65085825   -1.7965971    0.1202018    11451.684     1000 
 1514000   0.46053015   -2.4560908   0.69010443   -1.7659863   0.12728708    11320.847     1000 
 1516000   0.45738724   -2.4019612   0.68539479   -1.7165664   0.13436785    11312.366     1000 
 1518000   0.45811647   -2.4329252   0.68648752   -1.7464377   0.12821964    11306.241     1000 
 1520000   0.44999426    -2.470429    0.6743164   -1.7961126   0.13006237    11445.651     1000 
 1522000   0.44464451   -2.4288869   0.66629979   -1.7625871   0.14258411    11231.476     1000 
 1524000   0.46090765   -2.4796166   0.69067011   -1.7889465   0.13268145      11402.8     1000 
 1526000   0.46530351   -2.4586148   0.69725731   -1.7613575   0.12033425    11458.401     1000 
 1528000   0.44914136   -2.4878958   0.67303833   -1.8148574   0.13247693    11476.662     1000 
 1530000   0.47177075   -2.4541122   0.70694847   -1.7471637   0.13538187    11279.001     1000 
 1532000    0.4495339   -2.3886753   0.67362655   -1.7150487   0.11544438    11478.018     1000 
 1534000   0.45111405   -2.4384591   0.67599441   -1.7624647   0.13377611    11315.003     1000 
 1536000   0.44875249   -2.4449842    0.6724556   -1.7725286   0.13002545    11274.247     1000 
 1538000   0.45442102   -2.4090375   0.68094989   -1.7280876   0.10901787    11376.782     1000 
 1540000   0.42767062    -2.465648   0.64086442   -1.8247835   0.13137287    11406.104     1000 
 1542000   0.47279515   -2.4513846   0.70848353   -1.7429011   0.13611076    11385.555     1000 
 1544000   0.43726839   -2.4078718   0.65524668   -1.7526252   0.13731263    11121.926     1000 
 1546000   0.46960101   -2.4726134   0.70369712   -1.7689163   0.12316918    11398.226     1000 
 1548000    0.4579916   -2.4611496   0.68630042   -1.7748492   0.12829421    11459.187     1000 
 1550000   0.43635602   -2.4488523    0.6538795   -1.7949728   0.11273965    11476.956     1000 
 1552000   0.44163645   -2.4844175   0.66179222   -1.8226253   0.12885608    11511.424     1000 
 1554000   0.44628902   -2.4557117    0.6687641   -1.7869476   0.11998904    11410.319     1000 
 1556000   0.46292369   -2.4449663   0.69369115   -1.7512752   0.13274063    11339.951     1000 
 1558000   0.45335666   -2.4188036   0.67935495   -1.7394487   0.13015015    11316.954     1000 
 1560000   0.43658469      -2.4603   0.65422216   -1.8060779   0.13368349    11443.914     1000 
 1562000   0.44796522   -2.4524317   0.67127589   -1.7811558   0.11602876    11383.524     1000 
 1564000   0.43514003   -2.4785402   0.65205733   -1.8264829   0.13115333    11377.465     1000 
 1566000   0.45305608   -2.4027302   0.67890453   -1.7238257    0.1272556    11292.181     1000 
 1568000   0.43171133   -2.4712623   0.64691943   -1.8243428    0.1289285    11414.717     1000 
 1570000   0.43523025   -2.4801681   0.65219252   -1.8279756   0.12589888    11439.422     1000 
 1572000   0.46709999   -2.4437171   0.69994934   -1.7437678   0.14646499    11233.313     1000 
 1574000    0.4509431   -2.4825694   0.67573823   -1.8068312   0.11743537    11424.334     1000 
 1576000   0.44779273   -2.4148951   0.67101741   -1.7438776   0.14374084     11230.82     1000 
 1578000    0.4580864   -2.4889062   0.68644247   -1.8024637   0.12620324    11395.151     1000 
 1580000   0.46023627   -2.4363863   0.68966405   -1.7467222   0.13978546    11326.165     1000 
 1582000   0.44685132   -2.4670123    0.6696067   -1.7974056   0.12114777    11383.735     1000 
 1584000   0.43688394   -2.4553913   0.65467059   -1.8007207   0.12260246    11408.258     1000 
 1586000    0.4599693    -2.434432   0.68926399    -1.745168   0.14134231    11231.922     1000 
 1588000   0.46550169   -2.4288919   0.69755429   -1.7313376   0.12380778    11268.282     1000 
 1590000   0.44733058   -2.4768727   0.67032487   -1.8065479   0.13379612    11354.932     1000 
 1592000   0.44941009    -2.476216   0.67344102    -1.802775    0.1344072    11398.027     1000 
 1594000   0.46360159   -2.4488348   0.69470698   -1.7541279   0.13356279    11319.488     1000 
 1596000   0.43066866   -2.4565342   0.64535699   -1.8111772   0.12201111    11366.343     1000 
[...]
 2612000   0.46005017   -2.4893097   0.68938518   -1.7999245   0.12508188    11364.735     1000 
 2614000   0.43764199   -2.4719642   0.65580653   -1.8161577   0.13873033    11274.608     1000 
 2616000   0.43885004   -2.4840375   0.65761678   -1.8264208    0.1205362    11456.704     1000 
 2618000   0.41461037    -2.484605   0.62129364   -1.8633114   0.12363217    11404.742     1000 
 2620000   0.44624486   -2.4180166   0.66869792   -1.7493186   0.12815756    11351.599     1000 
 2622000   0.44637399   -2.4720416   0.66889143   -1.8031502   0.12187549    11425.888     1000 
 2624000   0.42902653    -2.441192   0.64289625   -1.7982958   0.13412308    11237.098     1000 
 2626000   0.45910613   -2.4547761   0.68797054   -1.7668055   0.12915736    11333.622     1000 
 2628000   0.44637007   -2.3941031   0.66888555   -1.7252175   0.13906613    11312.191     1000 
 2630000   0.44160988   -2.4677448    0.6617524   -1.8059924   0.12114679    11382.805     1000 
 2632000   0.45854097   -2.4256456   0.68712364   -1.7385219   0.13715329    11279.811     1000 
 2634000   0.47934979    -2.491675   0.71830565   -1.7733694   0.12758106    11417.533     1000 
 2636000   0.49273597   -2.4435036   0.73836485   -1.7051387   0.13740862    11276.741     1000 
 2638000   0.45846515   -2.4555256   0.68701003   -1.7685156   0.12832745    11269.955     1000 
 2640000   0.46824013   -2.4713805   0.70165783   -1.7697227   0.13847311     11365.29     1000 
 2642000   0.45867542   -2.4247701   0.68732512    -1.737445   0.12980955    11295.084     1000 
 2644000   0.43083788   -2.4406525   0.64561056   -1.7950419   0.12498891    11391.511     1000 
 2646000    0.4512486    -2.467443   0.67619603    -1.791247   0.13120497    11392.789     1000 
 2648000   0.46978379   -2.4703995     0.703971   -1.7664285   0.13540435    11445.582     1000 
 2650000   0.45253986   -2.4648925   0.67813098   -1.7867615   0.13292849    11318.735     1000 
 2652000   0.46080406   -2.4520571   0.69051489   -1.7615422   0.13148364    11426.524     1000 
 2654000   0.44906047    -2.476289   0.67291712   -1.8033718   0.11943586    11441.027     1000 
 2656000   0.45244052   -2.4633665   0.67798212   -1.7853844   0.12696759    11415.137     1000 
 2658000    0.4468791   -2.4841287   0.66964833   -1.8144804   0.12548005    11378.902     1000 
 2660000   0.43310208    -2.410222   0.64900346   -1.7612185   0.13592568    11202.905     1000 
 2662000   0.43674235   -2.4535953    0.6544584   -1.7991368   0.12269603     11365.59     1000 
 2664000   0.46170913   -2.4565238   0.69187112   -1.7646527   0.13344273    11216.948     1000 
 2666000    0.4461401   -2.4762673   0.66854094   -1.8077263   0.11758734    11483.777     1000 
 2668000   0.44667463   -2.4180851   0.66934193   -1.7487432   0.11712209    11353.954     1000 
 2670000   0.42887722   -2.4442142   0.64267251   -1.8015417   0.12421682    11456.748     1000 
 2672000   0.46444556   -2.4551375   0.69597168   -1.7591658   0.12225918    11413.227     1000 
 2674000   0.45586629    -2.466178   0.68311563   -1.7830623   0.13448485    11412.025     1000 
 2676000   0.42466924   -2.4565478   0.63636685   -1.8201809   0.12307771    11438.073     1000 
 2678000   0.46325727   -2.4518285   0.69419103   -1.7576375   0.13198897    11330.942     1000 
 2680000   0.46162419   -2.4711938   0.69174385     -1.77945   0.12402337    11360.931     1000 
 2682000   0.44872788    -2.464727   0.67241872   -1.7923082   0.14026344    11241.632     1000 
 2684000   0.43332834   -2.4335038   0.64934251   -1.7841613   0.14000178    11205.755     1000 
 2686000   0.43684028   -2.4762584   0.65460516   -1.8216533   0.12498646    11339.816     1000 
 2688000   0.44168381   -2.4794069   0.66186319   -1.8175437   0.13333237    11373.704     1000 
 2690000   0.44377358   -2.4337902   0.66499471   -1.7687955   0.12325133    11473.273     1000 
 2692000   0.45222835   -2.3828951   0.67766419   -1.7052309   0.14953925    11177.289     1000 
 2694000   0.45637547   -2.4229222   0.68387865   -1.7390436   0.14435246    11285.104     1000 
 2696000   0.45984573   -2.4421144   0.68907882   -1.7530356   0.13214906    11326.808     1000 
 2698000    0.4648984   -2.5073029   0.69665025   -1.8106527   0.13463567    11444.859     1000 
 2700000   0.45097739   -2.4867114   0.67578963   -1.8109218   0.13581884    11317.351     1000 
 2702000   0.44553521   -2.4657496   0.66763452   -1.7981151   0.12844542    11298.095     1000 
 2704000   0.44569701   -2.4534087   0.66787696   -1.7855318   0.13114845    11419.408     1000 
 2706000   0.46553178   -2.4426566   0.69759937   -1.7450573   0.11732275    11529.816     1000 
 2708000   0.44604875   -2.4187983   0.66840405   -1.7503942   0.12777221    11246.737     1000 
 2710000   0.45858284   -2.3730914   0.68718639    -1.685905    0.1411323    11393.307     1000 
 2712000   0.45614425   -2.4122294   0.68353216   -1.7286973   0.13182285    11346.272     1000 
 2714000   0.46309522    -2.449028   0.69394819   -1.7550798   0.13362549    11247.622     1000 
 2716000   0.42770293   -2.3914864   0.64091284   -1.7505736   0.14092583    11201.591     1000 
 2718000   0.44635689   -2.4181035    0.6688658   -1.7492377   0.12732655    11266.553     1000 
 2720000   0.45832521   -2.4418509   0.68680032   -1.7550505   0.13204219    11337.815     1000 
 2722000   0.44782196    -2.471183   0.67106121   -1.8001218   0.12722041    11452.075     1000 
 2724000    0.4417527   -2.4495482   0.66196641   -1.7875818   0.12209832    11368.847     1000 
 2726000   0.46183733   -2.4478262   0.69206324   -1.7557629   0.13280899    11286.194     1000 
 2728000    0.4708684   -2.4481029    0.7055963   -1.7425066   0.12091733    11410.837     1000 
 2730000   0.43768995   -2.4722701   0.65587838   -1.8163917   0.13505536     11408.18     1000 
 2732000   0.45689183   -2.4764676   0.68465241   -1.7918152   0.12874753    11350.159     1000 
 2734000   0.43788863   -2.4566115   0.65617611   -1.8004354   0.10301979    11601.172     1000 
 2736000   0.44597749   -2.4429106   0.66829727   -1.7746134   0.13666446    11300.181     1000 
 2738000   0.45439319   -2.4824917   0.68090819   -1.8015835   0.12166984    11420.469     1000 
 2740000   0.44721066   -2.4642864   0.67014517   -1.7941412   0.13531149    11344.059     1000 
 2742000    0.4442252   -2.4478903   0.66567146   -1.7822188   0.11228506    11340.482     1000 
 2744000   0.44927936   -2.4688837   0.67324512   -1.7956385   0.12365347    11416.504     1000 
 2746000   0.46293638   -2.5061998   0.69371016   -1.8124897   0.11959564     11460.05     1000 
 2748000   0.43549926   -2.4045064   0.65259565   -1.7519107   0.12335475    11355.424     1000 
 2750000   0.45799161   -2.4784575   0.68630043   -1.7921571   0.12023723    11542.547     1000 
 2752000    0.4513949   -2.5182148   0.67641525   -1.8417996   0.13566209    11454.314     1000 
 2754000   0.45024797   -2.3901642   0.67469659   -1.7154676   0.13521409    11171.453     1000 
 2756000   0.46118227   -2.4285106   0.69108163    -1.737429   0.11776346    11394.239     1000 
 2758000   0.45683173   -2.4000931   0.68456235   -1.7155307    0.1319216    11265.757     1000 
 2760000   0.44399871   -2.4629996   0.66533207   -1.7976675   0.13149202    11372.753     1000 
 2762000   0.44365768   -2.4536661   0.66482103   -1.7888451   0.12609997    11378.875     1000 
 2764000   0.42967542   -2.3781518   0.64386862   -1.7342832   0.12296886    11189.212     1000 
 2766000   0.44475179   -2.4645085   0.66646055   -1.7980479   0.12361433    11369.318     1000 
 2768000   0.44642326   -2.4677743   0.66896526   -1.7988091   0.12750813    11492.513     1000 
 2770000   0.45695127   -2.4165969   0.68474148   -1.7318554   0.13286216    11368.243     1000 
 2772000   0.44558876   -2.4778332   0.66771476   -1.8101184   0.13848982    11280.549     1000 
 2774000   0.45690865    -2.440765   0.68467762   -1.7560874   0.13177562    11365.544     1000 
 2776000    0.4367873   -2.4759277   0.65452577   -1.8214019   0.12069575    11423.535     1000 
 2778000   0.44858792     -2.45836     0.672209   -1.7861511   0.13508582    11311.763     1000 
 2780000    0.4654416   -2.4339986   0.69746424   -1.7365344   0.13804285    11258.808     1000 
 2782000   0.46185521   -2.4723981   0.69209004    -1.780308    0.1181466    11444.374     1000 
 2784000   0.47883873   -2.4249904   0.71753984   -1.7074505   0.13693493    11318.366     1000 
 2786000   0.44525386   -2.4303725   0.66721291   -1.7631596   0.12949899    11327.971     1000 
 2788000   0.45689962   -2.4126939   0.68466408   -1.7280298   0.13030493    11317.915     1000 
 2790000   0.44450769   -2.4153142   0.66609478   -1.7492195   0.12641365    11310.831     1000 
 2792000   0.45270449   -2.4028423   0.67837769   -1.7244646   0.13739727    11144.233     1000 
 2794000   0.45310057   -2.4178651    0.6789712   -1.7388939   0.13603726    11186.719     1000 
 2796000   0.46119625   -2.4784677   0.69110258   -1.7873651   0.13409924    11414.592     1000 
 2798000   0.45250098   -2.4613634   0.67807271   -1.7832907   0.12795201    11427.518     1000 
 2800000   0.43162654    -2.416693   0.64679237   -1.7699006   0.13267097    11339.451     1000 
 2802000   0.44421844   -2.4526665   0.66566134   -1.7870052   0.12016492    11405.935     1000 
 2804000   0.43877181   -2.4843105   0.65749956   -1.8268109   0.13348246    11317.965     1000 
 2806000   0.43814008   -2.4350197   0.65655291   -1.7784668   0.13464047    11344.949     1000 
 2808000   0.45598709   -2.4359215   0.68329666   -1.7526249   0.12479954    11343.221     1000 
 2810000   0.45103351   -2.4321341   0.67587372   -1.7562603   0.13025433    11401.267     1000 
 2812000   0.44097603   -2.4245022   0.66080258   -1.7636996   0.12936939    11295.199     1000 
 2814000   0.46165889   -2.4419828   0.69179585   -1.7501869   0.13894324    11139.663     1000 
 2816000    0.4609661   -2.4065481    0.6907577   -1.7157904   0.12891495    11368.249     1000 
 2818000   0.45905539   -2.4062225   0.68789451    -1.718328   0.14124024    11412.119     1000 
 2820000   0.44907063   -2.4916526   0.67293234   -1.8187203    0.1217795    11354.565     1000 
 2822000   0.46241382    -2.497554   0.69292711   -1.8046269    0.1325946    11325.584     1000 
 2824000   0.45127725   -2.4645903   0.67623896   -1.7883513   0.12494831    11410.073     1000 
 2826000   0.45187117   -2.4637298   0.67712894   -1.7866008   0.11792405    11436.894     1000 
 2828000   0.43574562   -2.4632977   0.65296481   -1.8103329   0.13624878    11280.736     1000 
 2830000   0.45849945   -2.4424185   0.68706142   -1.7553571   0.11614072    11316.905     1000 
 2832000   0.44728017   -2.4678727   0.67024933   -1.7976234   0.13870254    11270.608     1000 
 2834000   0.46155892    -2.457319   0.69164605    -1.765673   0.13243751    11404.294     1000 
 2836000   0.47024282    -2.409015   0.70465887   -1.7043561   0.14069246    11227.566     1000 
 2838000   0.43571174   -2.4607113   0.65291405   -1.8077972   0.12060773    11359.073     1000 
 2840000   0.44776164   -2.4688247   0.67097082   -1.7978539   0.12054576    11540.435     1000 
 2842000   0.42773377   -2.4552117   0.64095905   -1.8142526   0.13349042    11310.542     1000 
 2844000   0.43519456   -2.4510837   0.65213904   -1.7989447    0.1250644    11362.814     1000 
 2846000   0.44018074    -2.402589   0.65961084   -1.7429781   0.13240949    11223.248     1000 
 2848000   0.47486463   -2.4532135   0.71158465   -1.7416289   0.13322183    11353.411     1000 
 2850000   0.44632399   -2.4366687    0.6688165   -1.7678522   0.12420692    11366.928     1000 
 2852000   0.46857794   -2.4383089   0.70216405   -1.7361448   0.13497691    11371.777     1000 
 2854000   0.43183491   -2.4495411   0.64710461   -1.8024365   0.11199621    11387.464     1000 
 2856000   0.45013715   -2.4271944   0.67453052   -1.7526639   0.12167715    11323.744     1000 
 2858000   0.46464367   -2.4627492   0.69626854   -1.7664807   0.12307827    11415.224     1000 
 2860000   0.44996263   -2.4453729     0.674269   -1.7711039   0.13974708    11381.381     1000 
 2862000   0.47387142   -2.4539043   0.71009633   -1.7438079   0.13075503    11365.875     1000 
 2864000   0.45526612   -2.4653666   0.68221629   -1.7831503   0.12849225    11389.274     1000 
 2866000   0.46766133   -2.4429373   0.70079051   -1.7421468   0.13255477    11357.809     1000 
 2868000   0.45661367   -2.4745351   0.68423558   -1.7902995   0.14011208    11363.837     1000 
 2870000    0.4507683   -2.4727836    0.6754763   -1.7973073   0.13806541    11285.424     1000 
 2872000   0.44003977   -2.4373085    0.6593996   -1.7779089   0.11179911    11439.874     1000 
 2874000   0.46942025   -2.4679743   0.70342625    -1.764548    0.1313875    11246.775     1000 
 2876000    0.4381187   -2.4866706   0.65652087   -1.8301498   0.13756096     11364.04     1000 
 2878000   0.46127154   -2.5045786    0.6912154   -1.8133632   0.13073552    11489.257     1000 
 2880000   0.45031174   -2.4577322   0.67479215   -1.7829401   0.12925346    11418.783     1000 
 2882000    0.4454813   -2.4470167   0.66755373    -1.779463   0.13149249    11386.166     1000 
 2884000   0.45483277   -2.4736231   0.68156691   -1.7920562   0.12922646    11443.073     1000 
 2886000   0.45138723   -2.4444197   0.67640376   -1.7680159   0.13149937    11356.235     1000 
 2888000   0.48217307   -2.4466423   0.72253635    -1.724106   0.12674603     11459.03     1000 
 2890000   0.44812292   -2.4795501   0.67151219   -1.8080379   0.14319262    11366.167     1000 
 2892000   0.43835276   -2.4937817   0.65687161   -1.8369101   0.12673935    11396.845     1000 
 2894000   0.46087513   -2.4658211   0.69062139   -1.7751997   0.14878973    11219.692     1000 
 2896000   0.45096238   -2.4091866   0.67576713   -1.7334195   0.13732697    11243.206     1000 
 2898000    0.4444445   -2.4499609   0.66600009   -1.7839608   0.12612454    11261.525     1000 
 2900000   0.44444939     -2.48478   0.66600741   -1.8187726   0.13413832    11405.657     1000 
 2902000   0.47492661   -2.4407904   0.71167753   -1.7291129   0.13907423    11271.753     1000 
 2904000   0.44183378   -2.4210369   0.66208792    -1.758949   0.12388585     11271.16     1000 
 2906000   0.45286047   -2.4193235   0.67861141   -1.7407121   0.13650021    11254.077     1000 
 2908000   0.47056347    -2.415858   0.70513936   -1.7107187   0.13551781    11275.576     1000 
 2910000   0.44191513   -2.4096942   0.66220982   -1.7474843   0.12175361    11412.946     1000 
 2912000   0.46228665   -2.4335955   0.69273655   -1.7408589   0.14093564    11339.883     1000 
 2914000   0.44667829   -2.5129463   0.66934742   -1.8435989   0.14180957    11310.032     1000 
 2916000   0.42850883   -2.4724859   0.64212048   -1.8303655   0.11149852    11389.176     1000 
 2918000   0.45302609   -2.4229375   0.67885959   -1.7440779   0.13515954    11321.833     1000 
 2920000   0.47381432   -2.4476038   0.71001075    -1.737593   0.13606819    11340.856     1000 
 2922000   0.45655581   -2.4661061   0.68414888   -1.7819573   0.13540241    11329.882     1000 
 2924000   0.44750379   -2.4240607   0.67058443   -1.7534762   0.12637846     11293.36     1000 
 2926000   0.46158333   -2.4644014   0.69168262   -1.7727188   0.13198113    11300.821     1000 
 2928000   0.44820738   -2.4725034   0.67163875   -1.8008646   0.13390448    11291.118     1000 
 2930000   0.44994947   -2.4497082   0.67424929    -1.775459   0.12371986    11407.917     1000 
 2932000   0.45595587   -2.4500425   0.68324986   -1.7667926   0.13895776    11368.805     1000 
 2934000   0.47232681   -2.4454804   0.70778172   -1.7376987   0.13849055    11282.337     1000 
 2936000   0.43940708    -2.466552   0.65845151   -1.8081005   0.13790973    11316.877     1000 
 2938000   0.45012963   -2.4926298   0.67451925   -1.8181105   0.11265374    11537.534     1000 
 2940000   0.43996054   -2.4800691   0.65928087   -1.8207883   0.12948105    11493.617     1000 
 2942000   0.44348805   -2.4306677   0.66456684   -1.7661009   0.13671136    11224.188     1000 
 2944000   0.43187874   -2.4413439   0.64717029   -1.7941736   0.12893905    11285.029     1000 
 2946000   0.46493328   -2.4690782   0.69670252   -1.7723757   0.12054619    11447.507     1000 
 2948000   0.44635557   -2.4698462   0.66886383   -1.8009824   0.12534449    11291.409     1000 
 2950000    0.4693658   -2.4549902   0.70334465   -1.7516455   0.13805257    11278.211     1000 
 2952000   0.45638822   -2.4641302   0.68389775   -1.7802325   0.13102397    11407.108     1000 
 2954000   0.46690518   -2.4547037   0.69965742   -1.7550462   0.13602707    11359.314     1000 
 2956000   0.43939056   -2.4353747   0.65842675    -1.776948   0.14282294    11328.727     1000 
 2958000   0.45944788   -2.4598435   0.68848264   -1.7713609   0.12302036    11427.927     1000 
 2960000   0.44825854   -2.4112428   0.67171543   -1.7395274   0.12393328    11411.535     1000 
 2962000   0.43600114   -2.4113031    0.6533477   -1.7579554   0.13202871    11266.786     1000 
 2964000   0.47251244   -2.4213006   0.70805989   -1.7132407   0.14516432    11219.291     1000 
 2966000   0.45689199   -2.4241955   0.68465264   -1.7395428   0.12772816     11287.13     1000 
 2968000   0.45329704   -2.4316242   0.67926562   -1.7523585   0.12425744    11246.315     1000 
 2970000   0.44447396   -2.4538907   0.66604423   -1.7878464   0.13407828    11299.921     1000 
 2972000   0.46571096   -2.3896792   0.69786787   -1.6918114   0.12073839    11355.285     1000 
 2974000   0.44544198   -2.4553131    0.6674948   -1.7878182   0.12458276    11448.154     1000 
 2976000   0.42943065   -2.4577414   0.64350183   -1.8142396   0.13668194    11313.342     1000 
 2978000    0.4391014   -2.4855829   0.65799346   -1.8275894   0.12666241     11411.86     1000 
 2980000   0.45886106   -2.4871218    0.6876033   -1.7995185   0.13022698    11312.935     1000 
 2982000   0.44983364   -2.4083512   0.67407572   -1.7342755   0.14222785    11284.575     1000 
 2984000   0.45090575   -2.4356892   0.67568227    -1.760007   0.12116201    11526.369     1000 
 2986000   0.46060311   -2.4310561   0.69021376   -1.7408423   0.12674083    11299.384     1000 
 2988000   0.43239959   -2.4577492   0.64795078   -1.8097984   0.12481667    11353.332     1000 
 2990000   0.44202959   -2.4457086   0.66238133   -1.7833273   0.12789172    11363.593     1000 
 2992000   0.44592418   -2.4637442   0.66821738   -1.7955268   0.11617816    11464.486     1000 
 2994000   0.46000921   -2.4777476    0.6893238   -1.7884238   0.12590731    11353.401     1000 
 2996000   0.45649727   -2.4493193   0.68406116   -1.7652582   0.14255554     11327.33     1000 
 2998000   0.44882793   -2.4152042   0.67256865   -1.7426355   0.12921658    11398.063     1000 
 3000000    0.4636711   -2.4911775   0.69481115   -1.7963664   0.13372942    11390.052     1000 
Loop time of 1099.09 on 4 procs for 3000000 steps with 1000 atoms

Performance: 1179160.408 tau/day, 2729.538 timesteps/s
95.4% CPU use with 4 MPI tasks x no OpenMP threads

MPI task timing breakdown:
Section |  min time  |  avg time  |  max time  |%varavg| %total
---------------------------------------------------------------
Pair    | 807.61     | 814.95     | 824.33     |  21.3 | 74.15
Neigh   | 75.134     | 75.2       | 75.26      |   0.5 |  6.84
Comm    | 147.4      | 156.7      | 163.95     |  48.4 | 14.26
Output  | 0.023856   | 0.026463   | 0.033867   |   2.6 |  0.00
Modify  | 45.182     | 45.462     | 45.74      |   3.3 |  4.14
Other   |            | 6.751      |            |       |  0.61

Nlocal:    250 ave 256 max 240 min
Histogram: 1 0 0 0 0 0 1 0 1 1
Nghost:    1715.5 ave 1720 max 1708 min
Histogram: 1 0 0 0 0 1 0 0 0 2
Neighs:    14439 ave 14723 max 13833 min
Histogram: 1 0 0 0 0 0 0 0 2 1

Total # of neighbors = 57756
Ave neighs/atom = 57.756
Neighbor list builds = 150000
Dangerous builds not checked

Total wall time: 0:18:19
