LAMMPS (29 Sep 2021 - Update 2)
OMP_NUM_THREADS environment is not set. Defaulting to 1 thread. (src/comm.cpp:98)
  using 1 OpenMP thread(s) per MPI task
# ----------------------- Inicialização -----------------------

units			lj
atom_style 		atomic
dimension 		3
boundary 		p p p

# -------------------- Criação dos Átomos ---------------------

read_data 		topologia.txt
Reading data file ...
  orthogonal box = (0.0000000 0.0000000 0.0000000) to (21.540000 21.540000 21.540000)
  1 by 1 by 1 MPI processor grid
  reading atoms ...
  1000 atoms
  read_data CPU = 0.002 seconds

velocity 		all create ${temp} 87287 rot yes dist gaussian
velocity 		all create 0.40 87287 rot yes dist gaussian

# ------------------ Interação Interatômica -------------------

pair_style		table linear 1000
pair_coeff		1 1 force.table AA 5.0
WARNING: 2 of 1000 force values in table AA are inconsistent with -dE/dr.
WARNING:  Should only be flagged at inflection points (src/pair_table.cpp:465)
pair_coeff		1 2 force.table AB 5.0
WARNING: 1 of 1000 force values in table AB are inconsistent with -dE/dr.
WARNING:  Should only be flagged at inflection points (src/pair_table.cpp:465)
pair_coeff		2 2 force.table BB 5.0
pair_write		1 1 1000 r 0.008 5.0 table.check AA
Appending to table file table.check with DATE: 2023-07-11
Neighbor list info ...
  update every 1 steps, delay 10 steps, check yes
  max neighbors/atom: 2000, page size: 100000
  master list distance cutoff = 5.3
  ghost atom cutoff = 5.3
  binsize = 2.65, bins = 9 9 9
  1 neighbor lists, perpetual/occasional/extra = 1 0 0
  (1) pair table, perpetual
      attributes: half, newton on
      pair build: half/bin/atomonly/newton
      stencil: half/bin/3d
      bin: standard
pair_write		1 2 1000 r 0.008 5.0 table.check AB
Appending to table file table.check with DATE: 2023-07-11
pair_write		2 2 1000 r 0.008 5.0 table.check BB
Appending to table file table.check with DATE: 2023-07-11

neighbor 		0.3 bin
neigh_modify		every 20 delay 0 check no

# ------------------------- Ensemble --------------------------------------

fix 1			all npt temp ${temp} ${temp} 0.5 iso ${press} ${press} 5
fix 1			all npt temp 0.40 ${temp} 0.5 iso ${press} ${press} 5
fix 1			all npt temp 0.40 0.40 0.5 iso ${press} ${press} 5
fix 1			all npt temp 0.40 0.40 0.5 iso 0.13 ${press} 5
fix 1			all npt temp 0.40 0.40 0.5 iso 0.13 0.13 5

# ---------------------- Função de Distribuição Radial -----------------------

#compute RDF 		all rdf 2000 1 1 1 2 2 2
#fix 2 			all ave/time 1 2000 2000 c_RDF[*] file rdf.data mode vector

# ------------------------- Execução ---------------------------

timestep 		0.005
thermo_style		custom step temp pe ke etotal press vol atoms
thermo			2000
run			3000000
Per MPI rank memory allocation (min/avg/max) = 2.670 | 2.670 | 2.670 Mbytes
Step Temp PotEng KinEng TotEng Press Volume Atoms 
       0          0.4  -0.45247388       0.5994   0.14692612   0.43068747    9993.9483     1000 
    2000   0.39518407   -2.2853359   0.59218333   -1.6931526   0.12821211    11455.978     1000 
    4000   0.39104597   -2.2701367   0.58598239   -1.6841543   0.13303529    11532.214     1000 
    6000   0.39973623   -2.3007909   0.59900474   -1.7017862   0.12619817    11558.144     1000 
    8000   0.41408981   -2.2465981   0.62051359   -1.6260845   0.13415716    11496.166     1000 
   10000   0.38995908   -2.3006581   0.58435368   -1.7163044   0.13235399    11416.383     1000 
   12000   0.39443943   -2.3745125   0.59106749    -1.783445   0.12963211    11555.849     1000 
   14000   0.38720888   -2.2916859    0.5802325   -1.7114534   0.13878535    11350.343     1000 
   16000    0.4064839   -2.2787995   0.60911612   -1.6696834   0.14420229    11382.335     1000 
   18000   0.40432546   -2.2720778    0.6058817   -1.6661961    0.1540405    11309.015     1000 
   20000   0.39198624   -2.2799205   0.58739137   -1.6925291   0.12703095    11419.472     1000 
   22000   0.40611689   -2.3218742   0.60856616    -1.713308   0.13928214    11442.357     1000 
   24000   0.40413476   -2.3200101   0.60559594   -1.7144142   0.12342932     11512.53     1000 
   26000   0.41133846   -2.2707375   0.61639069   -1.6543468   0.12638436    11495.001     1000 
   28000   0.39579924   -2.2941923   0.59310516   -1.7010871   0.13902039    11429.314     1000 
   30000   0.39816749   -2.3190632   0.59665398   -1.7224092   0.13257742     11536.66     1000 
   32000   0.38216605    -2.302607   0.57267583   -1.7299312   0.12255613    11528.228     1000 
   34000   0.41983149   -2.2517282   0.62911749   -1.6226107   0.12545341    11398.678     1000 
   36000   0.40912765   -2.2742214   0.61307778   -1.6611436   0.13677952    11382.919     1000 
   38000    0.3954093   -2.3309204   0.59252083   -1.7383995   0.12592155    11526.558     1000 
   40000   0.40228385   -2.2983253   0.60282235    -1.695503   0.13280698    11380.844     1000 
   42000   0.40108412    -2.335512   0.60102455   -1.7344875   0.11961281    11538.074     1000 
   44000   0.40088837   -2.2609411   0.60073123   -1.6602099   0.13534387    11329.701     1000 
   46000   0.40187666   -2.3114107   0.60221218   -1.7091986   0.13454575    11503.271     1000 
   48000   0.38299785   -2.3154401   0.57392228   -1.7415178   0.12556754    11484.996     1000 
   50000   0.40654129   -2.3213601   0.60920212    -1.712158   0.12778824    11522.409     1000 
   52000   0.38918528   -2.3265728   0.58319414   -1.7433786    0.1247733     11462.68     1000 
   54000   0.39529019   -2.2595726   0.59234235   -1.6672302   0.13113217    11388.672     1000 
   56000   0.38496362   -2.2756901   0.57686799   -1.6988221   0.13397991    11387.347     1000 
   58000   0.41243672    -2.301815   0.61803643   -1.6837786   0.12635147    11522.978     1000 
   60000   0.38920161   -2.2878141   0.58321861   -1.7045955   0.13646097    11403.914     1000 
   62000   0.38737408   -2.2559283   0.58048007   -1.6754483   0.13335919    11404.343     1000 
   64000    0.3904375   -2.2605506   0.58507059     -1.67548   0.12948926     11412.85     1000 
   66000   0.39221044   -2.2694022   0.58772735   -1.6816749   0.13144531    11417.398     1000 
   68000   0.41057234   -2.2624303   0.61524264   -1.6471876   0.12645233    11484.953     1000 
   70000   0.39601696   -2.2584275   0.59343142   -1.6649961   0.13059891    11424.389     1000 
   72000   0.38657025    -2.317519   0.57927553   -1.7382434   0.13057644    11497.252     1000 
   74000   0.38723899   -2.2881238   0.58027763   -1.7078462   0.12748515    11460.966     1000 
   76000     0.386184   -2.2841835   0.57869673   -1.7054868   0.12572944    11494.501     1000 
   78000   0.39549269   -2.2734648   0.59264579    -1.680819   0.12050729    11498.945     1000 
   80000   0.39904034   -2.2911595   0.59796196   -1.6931975   0.13496666      11423.5     1000 
   82000   0.39381808   -2.2729079    0.5901364   -1.6827715   0.13364957    11337.736     1000 
   84000   0.41262218   -2.3122145   0.61831434   -1.6939002   0.13396617    11421.283     1000 
   86000    0.3958936   -2.2961939   0.59324655   -1.7029474   0.13512107     11449.91     1000 
   88000   0.38906424   -2.2907569   0.58301277   -1.7077441   0.12661253    11493.761     1000 
   90000   0.39679695   -2.3137718   0.59460023   -1.7191715   0.12676763    11481.104     1000 
   92000   0.39511428   -2.2812474   0.59207875   -1.6891686   0.13535499    11469.723     1000 
   94000   0.39360986   -2.2851167   0.58982438   -1.6952924    0.1405966    11381.288     1000 
   96000   0.40131168   -2.2888602   0.60136556   -1.6874947   0.12096211    11500.705     1000 
   98000   0.39965923   -2.2639659   0.59888936   -1.6650765   0.13491809    11306.079     1000 
  100000   0.39428917   -2.3192374   0.59084232   -1.7283951   0.13799717    11436.148     1000 
  102000   0.39730268    -2.295157   0.59535807   -1.6997989   0.13159247    11459.851     1000 
  104000   0.38772643   -2.3213858   0.58100805   -1.7403777   0.12923628    11490.733     1000 
  106000   0.38082722   -2.3123397   0.57066958   -1.7416701   0.12930651    11542.463     1000 
  108000   0.40099891    -2.312538   0.60089687   -1.7116411   0.12272133    11634.066     1000 
  110000   0.38878379   -2.3056636   0.58259251   -1.7230711   0.11930477    11512.081     1000 
  112000   0.39844966   -2.2704539   0.59707682   -1.6733771   0.14403712    11401.127     1000 
  114000   0.39727052   -2.3349823   0.59530987   -1.7396724   0.12173198    11537.664     1000 
  116000   0.39564456   -2.3177392   0.59287338   -1.7248658   0.13100342    11420.708     1000 
  118000   0.40669911   -2.3102578   0.60943862   -1.7008192   0.13572292    11406.591     1000 
  120000   0.39723734   -2.2600026   0.59526015   -1.6647425   0.11898009    11529.725     1000 
  122000   0.37286743   -2.3418722   0.55874185   -1.7831304   0.13284518    11442.062     1000 
  124000   0.40655549   -2.2830189   0.60922341   -1.6737955   0.12421856    11485.785     1000 
  126000   0.39511699   -2.2801123   0.59208281   -1.6880295   0.12374665    11424.073     1000 
  128000   0.38028598   -2.3285889   0.56985854   -1.7587304   0.12772059    11440.394     1000 
  130000   0.41188975   -2.2926994   0.61721679   -1.6754826   0.13282326    11466.007     1000 
  132000   0.39867608   -2.2684583    0.5974161   -1.6710422   0.12793652    11469.432     1000 
  134000   0.41980419   -2.2868138   0.62907658   -1.6577372   0.13367482    11412.925     1000 
  136000   0.41493184   -2.2457003   0.62177537    -1.623925   0.12896868    11502.828     1000 
  138000    0.3785283   -2.2650498   0.56722466   -1.6978251   0.13303793    11476.635     1000 
  140000   0.39983532   -2.2750715   0.59915323   -1.6759182   0.12893361    11528.781     1000 
  142000   0.40199517   -2.2968068   0.60238976    -1.694417   0.13081637    11476.181     1000 
  144000   0.39246464   -2.3474082   0.58810826      -1.7593   0.11549146    11672.751     1000 
  146000    0.4239063   -2.2847347   0.63522358   -1.6495111   0.13468148    11459.931     1000 
  148000   0.40112366   -2.3034015    0.6010838   -1.7023177   0.12377077    11514.892     1000 
  150000    0.4012334   -2.2491517   0.60124825   -1.6479035   0.13593682    11325.154     1000 
  152000   0.40853108   -2.3166709   0.61218382   -1.7044871   0.12553133    11580.629     1000 
  154000   0.40464506   -2.2607913   0.60636062   -1.6544306   0.12260712    11487.373     1000 
  156000   0.39615648   -2.2824877   0.59364048   -1.6888472   0.13170838    11403.506     1000 
  158000   0.38875132   -2.2780423   0.58254385   -1.6954984   0.12566676     11500.41     1000 
  160000    0.3942677   -2.3057561   0.59081014   -1.7149459   0.13812672    11352.587     1000 
  162000   0.40137576    -2.339517   0.60146158   -1.7380555   0.12658915    11479.745     1000 
  164000   0.40033257   -2.3087098   0.59989836   -1.7088115   0.12550606    11490.783     1000 
  166000   0.40013591   -2.3312909   0.59960366   -1.7316873   0.12417374    11514.616     1000 
  168000   0.38618241   -2.3281923   0.57869435    -1.749498   0.14371905    11442.904     1000 
  170000   0.40600076   -2.2711419   0.60839214   -1.6627498    0.1277387      11521.4     1000 
  172000   0.40280696   -2.3009701   0.60360623   -1.6973638   0.12258072    11512.715     1000 
  174000   0.39191996   -2.2997642   0.58729206   -1.7124721   0.12915645    11510.148     1000 
  176000    0.3790202    -2.284712   0.56796177   -1.7167503   0.13000173    11409.414     1000 
  178000   0.39898667   -2.2573875   0.59788152    -1.659506   0.14435582    11337.504     1000 
  180000   0.38486628   -2.2832991   0.57672212   -1.7065769   0.12519669    11400.773     1000 
  182000   0.39322474   -2.3200357   0.58924727   -1.7307884   0.13501212    11437.672     1000 
  184000   0.40207807   -2.2608395   0.60251398   -1.6583255   0.14284875    11324.488     1000 
  186000   0.40520172   -2.3416066   0.60719478   -1.7344118   0.12025159    11488.624     1000 
  188000   0.40469283   -2.2520401   0.60643221   -1.6456079   0.11981261    11519.367     1000 
  190000   0.39942015   -2.3029276   0.59853109   -1.7043965   0.13139805    11467.635     1000 
  192000   0.40550436   -2.3138876   0.60764828   -1.7062394    0.1289133    11517.341     1000 
  194000    0.4095046    -2.312681   0.61364265   -1.6990384   0.13103438    11548.231     1000 
  196000   0.40431843   -2.3150278   0.60587117   -1.7091566   0.13588541    11380.994     1000 
  198000   0.39709666    -2.265126   0.59504935   -1.6700767   0.11939992    11487.371     1000 
  200000   0.40226446   -2.2955325    0.6027933   -1.6927392   0.12066354    11597.805     1000 
  202000   0.37623024   -2.2990787   0.56378102   -1.7352977   0.11581489    11552.418     1000 
  204000    0.4015869    -2.301511   0.60177798    -1.699733   0.13152756    11427.806     1000 
  206000   0.38942947   -2.3096001   0.58356006     -1.72604   0.13994747    11400.093     1000 
  208000   0.38443251   -2.2920152   0.57607212   -1.7159431   0.13738169    11378.977     1000 
  210000   0.40462539   -2.2742697   0.60633114   -1.6679386   0.13383064    11266.469     1000 
  212000   0.39700871   -2.2703953   0.59491754   -1.6754777   0.12246868    11466.051     1000 
  214000   0.39685016   -2.2904452   0.59467996   -1.6957652   0.13767363     11463.32     1000 
  216000   0.40076651   -2.3444312   0.60054862   -1.7438826    0.1308485    11501.809     1000 
  218000   0.39971706   -2.2457238   0.59897602   -1.6467478   0.13316911    11414.551     1000 
  220000   0.38187065   -2.2822639   0.57223317   -1.7100307    0.1263983    11404.117     1000 
  222000   0.40650299   -2.2755055   0.60914474   -1.6663608   0.14939599    11360.609     1000 
  224000   0.39571572   -2.2901269   0.59298001   -1.6971469   0.12660714    11468.586     1000 
  226000   0.39510745   -2.2870997   0.59206851   -1.6950312   0.13206461    11396.004     1000 
  228000   0.41115177   -2.2983137   0.61611092   -1.6822027   0.12114882    11453.905     1000 
  230000   0.41063869   -2.2213781   0.61534207   -1.6060361   0.13263166    11448.098     1000 
  232000   0.39747206   -2.2484018   0.59561188     -1.65279    0.1320293    11385.989     1000 
  234000   0.41948024   -2.3123291   0.62859113    -1.683738   0.12799241    11552.747     1000 
  236000    0.4146061   -2.3227658   0.62128725   -1.7014786   0.11832099    11509.372     1000 
  238000   0.39098827   -2.2763198   0.58589592   -1.6904239    0.1261129    11468.424     1000 
  240000   0.40431531   -2.2814927    0.6058665   -1.6756262   0.12240086    11410.024     1000 
  242000   0.38464745   -2.3339977    0.5763942   -1.7576035   0.11977947    11553.722     1000 
  244000   0.41333822   -2.2228082   0.61938732   -1.6034208   0.13200902     11462.49     1000 
  246000   0.40802993   -2.3148435   0.61143285   -1.7034106   0.13886005    11470.844     1000 
  248000   0.41221598   -2.3102141   0.61770565   -1.6925084   0.12493993    11501.341     1000 
  250000   0.38401252   -2.3716017   0.57544276   -1.7961589   0.12236394    11487.295     1000 
  252000   0.39277588   -2.2601802   0.58857466   -1.6716055    0.1311068    11444.326     1000 
  254000   0.40242021   -2.2907647   0.60302668   -1.6877381   0.13785303    11407.224     1000 
  256000   0.39792834   -2.2764086   0.59629561    -1.680113   0.13896699    11371.862     1000 
  258000   0.38357329   -2.2852631   0.57478457   -1.7104785   0.12047282      11535.2     1000 
  260000   0.40020706   -2.2581862   0.59971028   -1.6584759   0.12852831    11480.383     1000 
  262000   0.40648224   -2.3395331   0.60911364   -1.7304194   0.13655485    11462.622     1000 
  264000   0.40732127   -2.3167117   0.61037092   -1.7063408   0.14144799    11362.134     1000 
  266000   0.38913351   -2.3257798   0.58311656   -1.7426632   0.12361693    11448.822     1000 
  268000   0.39961073   -2.2788391   0.59881667   -1.6800225   0.13854561    11402.427     1000 
  270000   0.41398988   -2.2739942   0.62036384   -1.6536304   0.12872026    11471.746     1000 
  272000   0.41037967   -2.3138887   0.61495394   -1.6989348   0.14119599     11423.92     1000 
  274000    0.3996794   -2.2664659   0.59891957   -1.6675463   0.13609648    11430.495     1000 
  276000   0.40038159   -2.2897719   0.59997182   -1.6898001   0.13056493    11372.604     1000 
  278000   0.40354784   -2.2986238   0.60471643   -1.6939074   0.12820118     11584.51     1000 
  280000   0.39798426   -2.2940776   0.59637942   -1.6976982   0.12498475    11438.868     1000 
  282000   0.40092663   -2.2547781   0.60078856   -1.6539895   0.13991923     11333.06     1000 
  284000   0.40787441   -2.2561454    0.6111998   -1.6449456   0.14600407    11238.867     1000 
  286000    0.3997938   -2.3136066     0.599091   -1.7145156   0.12940573    11441.679     1000 
  288000   0.41438338   -2.3204409    0.6209535   -1.6994874   0.13432545    11456.876     1000 
  290000   0.42539985   -2.3145503   0.63746168   -1.6770886   0.12339429    11512.258     1000 
  292000   0.40993622   -2.2658768   0.61428943   -1.6515874   0.13885542    11369.608     1000 
  294000   0.38124835   -2.2719415   0.57130065   -1.7006408   0.12964908    11449.007     1000 
  296000   0.39312309   -2.2987605   0.58909496   -1.7096655   0.13623871    11478.064     1000 
  298000   0.40302876   -2.3182703    0.6039386   -1.7143317   0.13235462    11430.789     1000 
  300000   0.39738519   -2.3237646   0.59548171   -1.7282829   0.13042341    11430.713     1000 
  302000    0.3892611   -2.3154194   0.58330775   -1.7321116   0.12736416    11467.544     1000 
  304000   0.40306223   -2.3071272   0.60398875   -1.7031385   0.12429005    11569.149     1000 
  306000    0.3846467   -2.3142816   0.57639308   -1.7378885   0.12525081    11519.928     1000 
  308000   0.38900144   -2.2598213   0.58291866   -1.6769026   0.13838903    11405.655     1000 
  310000   0.39079018   -2.2884079   0.58559908   -1.7028088    0.1215954    11546.835     1000 
  312000   0.41641425   -2.3199414   0.62399675   -1.6959446   0.13776312    11362.358     1000 
  314000   0.41452873   -2.3219738    0.6211713   -1.7008025   0.12694124    11534.724     1000 
  316000   0.40719055   -2.3170744   0.61017503   -1.7068994   0.12736531    11568.921     1000 
  318000   0.39355629   -2.2589135   0.58974411   -1.6691694   0.12633226    11376.452     1000 
  320000   0.38840933   -2.3262363   0.58203139    -1.744205    0.1275321    11422.675     1000 
  322000   0.41377461   -2.3135649   0.62004126   -1.6935236   0.11135276    11568.858     1000 
  324000   0.38150207   -2.2567955   0.57168085   -1.6851147   0.12646808    11435.671     1000 
  326000   0.41841975   -2.2310871     0.627002   -1.6040851   0.13403715     11431.21     1000 
  328000   0.39983686   -2.3137501   0.59915553   -1.7145945   0.12911053    11483.584     1000 
  330000    0.4040359   -2.3016811    0.6054478   -1.6962333   0.12484916    11408.635     1000 
  332000   0.40379699   -2.3340608   0.60508979    -1.728971   0.12518989    11454.951     1000 
  334000   0.41084673    -2.309873   0.61565383   -1.6942192   0.12982224    11481.007     1000 
  336000   0.41613385   -2.2535791   0.62357657   -1.6300025   0.12734992    11517.014     1000 
  338000   0.39659997    -2.309463   0.59430506   -1.7151579   0.13345341    11461.916     1000 
  340000   0.41396501   -2.3282904   0.62032656   -1.7079638    0.1251512    11483.768     1000 
  342000    0.3832844   -2.2667148   0.57435167   -1.6923631   0.13598965    11386.668     1000 
  344000   0.42008465   -2.3228189   0.62949685   -1.6933221   0.12244369    11584.257     1000 
  346000   0.39916905   -2.3452771   0.59815482   -1.7471223   0.12658118    11501.481     1000 
  348000   0.38785957   -2.3535776   0.58120756     -1.77237    0.1288854    11570.086     1000 
  350000   0.40008782   -2.2828553    0.5995316   -1.6833237   0.13518375    11409.608     1000 
  352000   0.39844089   -2.2822542   0.59706367   -1.6851905   0.13626118    11408.676     1000 
  354000   0.39625616   -2.2845355   0.59378985   -1.6907456    0.1297616    11340.444     1000 
  356000   0.40161074   -2.2957398   0.60181369   -1.6939261   0.12273217    11493.128     1000 
  358000   0.41070908   -2.3445751   0.61544755   -1.7291275   0.13624531    11484.363     1000 
  360000   0.40665357   -2.2912164   0.60937038    -1.681846   0.12188507     11540.98     1000 
  362000   0.39753885   -2.3160035   0.59571197   -1.7202915   0.13227428    11557.444     1000 
  364000   0.39556699    -2.315708   0.59275713   -1.7229509   0.12849488    11482.286     1000 
  366000   0.40088237   -2.2896266   0.60072224   -1.6889044    0.1404993    11405.576     1000 
  368000   0.38892523   -2.3159166   0.58280445   -1.7331121   0.13065497    11431.242     1000 
  370000   0.40224612   -2.3149691   0.60276581   -1.7122033   0.11799655    11536.627     1000 
  372000   0.39843533   -2.3004383   0.59705534   -1.7033829    0.1291437    11456.424     1000 
  374000   0.42093824   -2.2622982   0.63077595   -1.6315222   0.14149964    11431.891     1000 
  376000   0.39415997   -2.3106149   0.59064872   -1.7199662   0.13512416    11499.766     1000 
  378000   0.39462694   -2.3174791   0.59134847   -1.7261306    0.1231581    11465.424     1000 
  380000   0.37941178   -2.3030007   0.56854855   -1.7344522    0.1190304    11505.118     1000 
  382000   0.41073024   -2.3167607   0.61547926   -1.7012814   0.12539007    11539.615     1000 
  384000    0.4010113   -2.2973447   0.60091544   -1.6964292   0.12805383    11456.954     1000 
  386000   0.40652974    -2.267005   0.60918482   -1.6578202   0.13345045    11429.038     1000 
  388000   0.39560891   -2.3159396   0.59281995   -1.7231197   0.13038507    11442.045     1000 
  390000   0.40222432   -2.2235736   0.60273315   -1.6208405   0.12912566    11432.137     1000 
  392000   0.41295189   -2.3001154   0.61880841    -1.681307   0.13531629    11474.462     1000 
  394000   0.40882859   -2.3303672   0.61262963   -1.7177376   0.12574935     11561.87     1000 
  396000   0.39945897   -2.2947457   0.59858927   -1.6961564   0.12825137    11522.764     1000 
  398000   0.40685158   -2.2674507   0.60966709   -1.6577836   0.12774366    11508.427     1000 
  400000   0.39293875   -2.2828158   0.58881872   -1.6939971   0.14082245    11365.729     1000 
  402000    0.3987776   -2.3068759   0.59756823   -1.7093076   0.13430966    11446.762     1000 
  404000   0.39886706   -2.2870758   0.59770228   -1.6893735   0.14133586    11342.415     1000 
  406000   0.40296205    -2.343765   0.60383863   -1.7399263   0.11965048     11500.95     1000 
  408000   0.42029985   -2.2806214   0.62981933   -1.6508021   0.13609023    11482.314     1000 
  410000   0.41073266   -2.3397177    0.6154829   -1.7242348   0.13159336    11403.196     1000 
  412000   0.38855814   -2.2874406   0.58225437   -1.7051862    0.1317799    11385.678     1000 
  414000    0.4059115   -2.3070861   0.60825838   -1.6988277   0.14059334    11388.818     1000 
  416000   0.40982517   -2.2853385   0.61412302   -1.6712155   0.13122243    11480.187     1000 
  418000   0.40732475   -2.3347868   0.61037613   -1.7244106   0.12751212    11522.918     1000 
  420000   0.42727666   -2.2841233   0.64027407   -1.6438492   0.13246196    11427.748     1000 
  422000     0.406909   -2.2502198   0.60975313   -1.6404667   0.13391646    11423.589     1000 
  424000   0.40288827   -2.3454625   0.60372807   -1.7417344   0.12838005    11421.183     1000 
  426000   0.40230896   -2.3078821   0.60285998   -1.7050221   0.12943762    11489.797     1000 
  428000   0.40484205    -2.305497   0.60665581   -1.6988412   0.12121192    11529.327     1000 
  430000   0.40333273   -2.3336094    0.6043941   -1.7292153   0.12465646    11506.171     1000 
  432000   0.41781224   -2.2666084   0.62609165   -1.6405167   0.13440833    11470.896     1000 
  434000   0.39553861   -2.3029646   0.59271461     -1.71025   0.12237265    11526.706     1000 
  436000   0.38881027   -2.2939146   0.58263219   -1.7112824   0.13746609    11459.971     1000 
  438000   0.40421348   -2.2718109    0.6057139    -1.666097   0.13663501    11334.217     1000 
  440000   0.38954751   -2.3059349   0.58373695   -1.7221979    0.1298166     11452.62     1000 
  442000   0.40375559   -2.3009254   0.60502775   -1.6958977    0.1397364    11285.607     1000 
  444000   0.40140181   -2.3015772   0.60150061   -1.7000766   0.13035653    11437.663     1000 
  446000   0.40150156   -2.2932651   0.60165008    -1.691615   0.13447615    11399.026     1000 
  448000   0.41098758   -2.3161297    0.6158649   -1.7002648   0.12770012    11433.198     1000 
  450000    0.3929679   -2.2984461    0.5888624   -1.7095837   0.14131473      11356.8     1000 
  452000   0.39113966   -2.3189784   0.58612279   -1.7328556   0.11765602    11569.071     1000 
  454000   0.40530327   -2.2762028   0.60734695   -1.6688558   0.13024009    11509.922     1000 
  456000   0.41814664   -2.3203322   0.62659274   -1.6937395   0.10835416     11552.79     1000 
  458000   0.41136562   -2.2418477   0.61643138   -1.6254163   0.13637807    11384.971     1000 
  460000   0.40670829   -2.2720446   0.60945238   -1.6625922   0.13109596    11483.456     1000 
  462000   0.40970604   -2.2731087    0.6139445   -1.6591642   0.12373771    11569.387     1000 
  464000   0.40028176   -2.2866636   0.59982221   -1.6868414   0.12917804    11427.281     1000 
  466000   0.40641637   -2.3166393   0.60901493   -1.7076244   0.13291766    11536.045     1000 
  468000    0.3968243   -2.2843982   0.59464121    -1.689757    0.1276255     11434.64     1000 
  470000   0.39329544     -2.32721   0.58935322   -1.7378567   0.14145182    11508.027     1000 
  472000   0.39537308   -2.3411092   0.59246656   -1.7486427   0.12093213    11621.916     1000 
  474000   0.40723646   -2.2678912   0.61024383   -1.6576474    0.1248275    11503.541     1000 
  476000   0.41832946   -2.3220318    0.6268667   -1.6951651   0.12039121    11520.199     1000 
  478000   0.39853579   -2.3024926   0.59720589   -1.7052868   0.13170229     11404.23     1000 
  480000   0.40803153   -2.3253591   0.61143525   -1.7139239   0.13597962     11458.79     1000 
  482000   0.39973439   -2.3332805   0.59900199   -1.7342785   0.13216189    11372.828     1000 
  484000   0.38088062   -2.3012368    0.5707496   -1.7304872   0.12964488     11446.69     1000 
  486000   0.40610754   -2.3177138   0.60855215   -1.7091617   0.12916125    11483.167     1000 
  488000   0.39693805   -2.3469794   0.59481166   -1.7521677   0.12468878    11516.693     1000 
  490000   0.41524924   -2.3095671   0.62225099   -1.6873161   0.12204815    11585.028     1000 
  492000   0.38111451   -2.3066544    0.5711001   -1.7355543   0.12260818    11543.133     1000 
  494000   0.39215456   -2.3088565   0.58764362   -1.7212129    0.1223444    11530.453     1000 
  496000   0.40997272   -2.3181632   0.61434412   -1.7038191   0.13080175    11516.092     1000 
  498000   0.40616698    -2.308668   0.60864122   -1.7000268   0.13719774    11508.529     1000 
  500000   0.40996593   -2.3067992   0.61433394   -1.6924652    0.1320022    11506.809     1000 
  502000   0.39526964   -2.2851412   0.59231155   -1.6928296   0.13328803    11407.325     1000 
  504000   0.41129649   -2.3129743   0.61632778   -1.6966465   0.14578365    11375.705     1000 
  506000   0.39265268    -2.310593   0.58839004    -1.722203   0.12210912     11574.58     1000 
  508000   0.40409894   -2.2852858   0.60554226   -1.6797435   0.12945061     11503.39     1000 
  510000   0.37618882   -2.2936424   0.56371895   -1.7299235   0.12115495    11525.899     1000 
  512000   0.39299789   -2.2723316   0.58890734   -1.6834243   0.13356323    11360.188     1000 
  514000    0.4135828   -2.3229924   0.61975383   -1.7032385   0.13381942    11516.736     1000 
  516000   0.37969565   -2.2940181   0.56897393   -1.7250442   0.12182022    11490.826     1000 
  518000   0.40708331   -2.3260117   0.61001434   -1.7159973   0.12890123    11444.351     1000 
  520000   0.39710306   -2.2530862   0.59505894   -1.6580273   0.12611311    11393.692     1000 
  522000    0.3893906   -2.2873817   0.58350182   -1.7038799   0.12831209    11361.623     1000 
  524000   0.40571879   -2.2744666   0.60796961    -1.666497   0.12354605    11495.195     1000 
  526000   0.40407422   -2.3542107   0.60550522   -1.7487055    0.1199475    11574.613     1000 
  528000   0.40174818   -2.3226149   0.60201966   -1.7205952   0.13096249    11472.053     1000 
  530000   0.39874079   -2.2866991   0.59751308    -1.689186   0.12502907    11414.704     1000 
  532000   0.40806093    -2.273107   0.61147931   -1.6616277   0.13023325    11438.347     1000 
  534000    0.4035593   -2.2731085   0.60473361   -1.6683749   0.13635807    11384.316     1000 
  536000    0.4113415     -2.27949   0.61639524   -1.6630947   0.13345737     11515.75     1000 
  538000   0.40122133   -2.3102698   0.60123016   -1.7090397   0.13919553    11380.504     1000 
  540000   0.39925235   -2.3081239   0.59827965   -1.7098443   0.14401764    11376.173     1000 
  542000   0.40404424   -2.3331325   0.60546029   -1.7276722   0.14050346     11452.26     1000 
  544000   0.38686935   -2.2702961   0.57972373   -1.6905724   0.13850392    11333.896     1000 
  546000   0.38631453   -2.2665993   0.57889232    -1.687707   0.12379321    11468.383     1000 
  548000   0.40677946   -2.2996089   0.60955902   -1.6900499    0.1370005    11438.835     1000 
  550000    0.3908325   -2.3085012    0.5856625   -1.7228387   0.11924913    11571.323     1000 
  552000   0.39702316   -2.3105139   0.59493921   -1.7155747   0.12868297     11462.57     1000 
  554000   0.38866243    -2.277731   0.58241065   -1.6953204   0.13646393    11385.192     1000 
  556000   0.40595789   -2.2785813   0.60832789   -1.6702534   0.12942036     11530.39     1000 
  558000   0.40784027   -2.2797052   0.61114865   -1.6685565   0.14262364    11324.218     1000 
  560000    0.3836261    -2.318084   0.57486371   -1.7432203   0.12248861    11509.584     1000 
  562000   0.40367988   -2.3162691    0.6049143   -1.7113548   0.11998772    11558.928     1000 
  564000   0.39320002   -2.3129953   0.58921023    -1.723785   0.12875823    11342.247     1000 
  566000   0.41144847   -2.3437146   0.61655553    -1.727159   0.12893885    11506.611     1000 
  568000    0.4068514   -2.2804506   0.60966683   -1.6707838   0.14165578    11346.102     1000 
  570000   0.39370241   -2.3329763   0.58996307   -1.7430133   0.13555406    11416.119     1000 
  572000   0.38721341   -2.2862711    0.5802393   -1.7060318   0.12578529    11530.018     1000 
  574000   0.39874707   -2.2785274   0.59752249   -1.6810049   0.12638631    11467.134     1000 
  576000   0.42434426   -2.3046826   0.63587988   -1.6688027   0.11990483    11551.046     1000 
  578000   0.38524095   -2.3068645   0.57728357   -1.7295809   0.12446066    11559.791     1000 
  580000   0.38847876   -2.3250646   0.58213542   -1.7429292   0.11391279    11593.305     1000 
  582000    0.4036993   -2.2749207    0.6049434   -1.6699773   0.13251374    11462.115     1000 
  584000   0.41619164   -2.3179124   0.62366317   -1.6942492   0.13315324    11450.136     1000 
  586000   0.40431811   -2.2699027   0.60587068    -1.664032    0.1362045    11340.475     1000 
  588000   0.39942878   -2.3049928   0.59854403   -1.7064488   0.12791996    11456.002     1000 
  590000   0.39835418   -2.3125615   0.59693375   -1.7156278   0.13957514    11410.973     1000 
  592000   0.39903674   -2.2545775   0.59795655   -1.6566209    0.1303133    11455.059     1000 
  594000   0.39547747   -2.2606536   0.59262299   -1.6680306   0.12496696    11473.199     1000 
  596000   0.39258099   -2.2728631   0.58828261   -1.6845805    0.1485856    11365.404     1000 
  598000   0.40087292   -2.2998046   0.60070808   -1.6990965   0.12728439    11443.861     1000 
  600000   0.41784582   -2.2724949   0.62614197    -1.646353   0.13009295    11408.265     1000 
  602000   0.40080015    -2.324612   0.60059903   -1.7240129   0.12535408    11500.354     1000 
  604000   0.38304014   -2.2829811   0.57398565   -1.7089955   0.13742339    11435.542     1000 
  606000   0.40098586   -2.3109197   0.60087731   -1.7100424   0.13716484    11388.878     1000 
  608000   0.38480115   -2.2871212   0.57662453   -1.7104967   0.13372758    11458.475     1000 
  610000   0.40488502   -2.3476023   0.60672021   -1.7408821   0.11576365     11584.03     1000 
  612000   0.41040845   -2.3282259   0.61499706   -1.7132289   0.12148996    11619.717     1000 
  614000    0.3968891   -2.2651824   0.59473832    -1.670444   0.11580651     11486.58     1000 
  616000   0.39736187   -2.3062038   0.59544677    -1.710757   0.13136919    11453.686     1000 
  618000   0.40948221   -2.2964686   0.61360909   -1.6828596   0.13180442     11382.63     1000 
  620000    0.4117018   -2.2930659   0.61693515   -1.6761307   0.12662208    11567.656     1000 
  622000   0.39613748   -2.3416309   0.59361201   -1.7480189   0.13667342     11431.61     1000 
  624000   0.40401404    -2.271133   0.60541503    -1.665718   0.14348121    11372.512     1000 
  626000   0.40335813   -2.2655937   0.60443216   -1.6611616   0.12940656    11543.357     1000 
  628000   0.39080792   -2.3118457   0.58562566     -1.72622   0.13482183    11481.954     1000 
  630000     0.393371   -2.3285987   0.58946644   -1.7391323   0.13476138    11469.596     1000 
  632000   0.40515501   -2.3150187   0.60712478   -1.7078939   0.12465515    11519.719     1000 
  634000   0.39200192    -2.320743   0.58741488   -1.7333282   0.12880585    11465.184     1000 
  636000   0.37667513   -2.3406056   0.56444769   -1.7761579   0.11760264    11555.442     1000 
  638000     0.385346   -2.2644971   0.57744099   -1.6870561   0.13871259    11426.808     1000 
  640000   0.39910271   -2.2997068   0.59805542   -1.7016514   0.13083194     11454.94     1000 
  642000   0.39879698   -2.3122573   0.59759727     -1.71466   0.12675598    11449.789     1000 
  644000   0.40159341   -2.3062026   0.60178772   -1.7044149   0.13564033    11409.723     1000 
  646000    0.3911534   -2.3028188   0.58614336   -1.7166754    0.1307865    11459.358     1000 
  648000   0.40371765   -2.2677722    0.6049709   -1.6628013   0.12651058    11397.202     1000 
  650000   0.39201213    -2.327011   0.58743018   -1.7395808   0.13089665    11480.042     1000 
  652000   0.39350858   -2.2737601   0.58967261   -1.6840875   0.12510345    11487.695     1000 
  654000   0.38980349   -2.2790574   0.58412053   -1.6949369   0.13894154    11454.708     1000 
  656000   0.39751392   -2.3110128   0.59567461   -1.7153382   0.13129682    11480.735     1000 
  658000    0.4188529   -2.3183622   0.62765107   -1.6907111    0.1210661    11585.458     1000 
  660000   0.41224903   -2.3317695   0.61775517   -1.7140144   0.12919476    11504.653     1000 
  662000   0.40717147   -2.3110627   0.61014644   -1.7009162   0.13193269    11489.971     1000 
  664000   0.40031066   -2.3106056   0.59986552   -1.7107401   0.12232922      11539.5     1000 
  666000   0.41405673   -2.3118222     0.620464   -1.6913582   0.12269838    11550.001     1000 
  668000   0.38239927    -2.296078   0.57302531   -1.7230527   0.12649711    11472.066     1000 
  670000   0.40701475   -2.3189263   0.60991161   -1.7090147   0.11823274    11624.366     1000 
  672000   0.39836695   -2.3080285   0.59695287   -1.7110756   0.12064149    11570.667     1000 
  674000    0.4024792   -2.3300309   0.60311508   -1.7269159   0.13259335    11452.365     1000 
  676000   0.38522124   -2.2921095   0.57725403   -1.7148555   0.12528946    11525.059     1000 
  678000   0.39612251   -2.3114962   0.59358958   -1.7179066    0.1211682    11465.004     1000 
  680000   0.40705395   -2.3421154   0.60997034   -1.7321451   0.13486189    11527.754     1000 
  682000    0.3867549   -2.2626454   0.57955221   -1.6830932    0.1438949    11384.095     1000 
  684000    0.3942045   -2.3082684   0.59071545    -1.717553   0.14091183    11368.082     1000 
  686000   0.39413118   -2.3267018   0.59060557   -1.7360963   0.13604545    11409.936     1000 
  688000   0.39472167   -2.3045053   0.59149042   -1.7130149   0.12660038     11469.39     1000 
  690000   0.38647635   -2.2582213   0.57913481   -1.6790865   0.13302893    11424.499     1000 
  692000   0.40310698   -2.2732507   0.60405581   -1.6691948   0.13643304    11363.633     1000 
  694000   0.38802007   -2.2994701   0.58144808    -1.718022   0.11990405    11533.219     1000 
  696000   0.40222249   -2.2617725    0.6027304   -1.6590421   0.13284255    11405.789     1000 
  698000   0.41573896   -2.2949378   0.62298484   -1.6719529   0.13268628    11467.494     1000 
  700000   0.39833469   -2.2973726   0.59690453   -1.7004681   0.13272088    11467.509     1000 
  702000   0.38845301   -2.3212002   0.58209683   -1.7391034   0.12891972     11501.78     1000 
  704000   0.39452417   -2.3006261   0.59119447   -1.7094316   0.12507675    11535.866     1000 
  706000   0.40192199   -2.3438607    0.6022801   -1.7415806   0.12134995    11664.711     1000 
  708000   0.39108019    -2.293043   0.58603367   -1.7070094   0.13845327    11457.762     1000 
  710000   0.37283626   -2.2654727   0.55869513   -1.7067776   0.12389839    11490.494     1000 
  712000   0.38173655   -2.3014505   0.57203221   -1.7294183   0.13545635    11540.698     1000 
  714000     0.400901   -2.3001645   0.60075014   -1.6994143   0.12906239    11479.825     1000 
  716000   0.39309264    -2.312723   0.58904933   -1.7236737   0.13039887    11445.864     1000 
  718000   0.40030355   -2.3142535   0.59985487   -1.7143986    0.1200918    11564.713     1000 
  720000   0.39046074   -2.3050727   0.58510542   -1.7199673   0.11743794    11487.458     1000 
  722000    0.3939023   -2.3286568    0.5902626   -1.7383942   0.12734053    11503.809     1000 
  724000   0.39423256   -2.2724041   0.59075748   -1.6816466   0.12709589    11433.837     1000 
  726000   0.38240193   -2.3028401   0.57302929   -1.7298108    0.1136434    11601.668     1000 
  728000   0.40035397   -2.2693829   0.59993043   -1.6694525   0.13517901    11402.486     1000 
  730000   0.39889866   -2.2872107   0.59774965    -1.689461   0.12696207    11477.276     1000 
  732000   0.41026769   -2.2855756   0.61478614   -1.6707895   0.13343578    11478.036     1000 
  734000   0.38478933   -2.3278199   0.57660681   -1.7512131   0.13061178     11454.19     1000 
  736000   0.40123431   -2.2973358   0.60124961   -1.6960862   0.12162204    11428.499     1000 
  738000   0.40095288   -2.3142455   0.60082789   -1.7134176   0.13035714    11559.767     1000 
  740000   0.39924419   -2.2619595   0.59826742   -1.6636921   0.13515101    11464.093     1000 
  742000   0.40099337   -2.3031546   0.60088857    -1.702266   0.12929055    11381.816     1000 
  744000   0.40747051   -2.3197589   0.61059456   -1.7091643   0.12637411    11539.368     1000 
  746000   0.38198339   -2.2896686   0.57240211   -1.7172665   0.13246136    11428.551     1000 
  748000   0.39884575   -2.3144018   0.59767036   -1.7167314   0.13845757    11431.643     1000 
  750000   0.38159535   -2.2669804   0.57182063   -1.6951598   0.12793466     11396.87     1000 
  752000   0.41279085   -2.3481762    0.6185671   -1.7296092   0.13226158    11480.321     1000 
  754000   0.41596077   -2.2861407   0.62331721   -1.6628235   0.13497229    11454.627     1000 
  756000   0.38995963   -2.2968743   0.58435451   -1.7125198   0.13781722    11356.849     1000 
  758000   0.39348302   -2.3010064   0.58963431   -1.7113721   0.12352627    11494.795     1000 
  760000   0.39601562   -2.2338795   0.59342941   -1.6404501   0.14002013    11383.255     1000 
  762000   0.39766268   -2.3244421   0.59589753   -1.7285445   0.13338408    11492.026     1000 
  764000   0.39857897   -2.3174062   0.59727059   -1.7201356   0.12795411    11505.147     1000 
  766000   0.41112189   -2.3153594   0.61606615   -1.6992932   0.11952422    11607.069     1000 
  768000   0.38780914   -2.3382111     0.581132   -1.7570791   0.12443185     11513.12     1000 
  770000   0.40711125   -2.2923071   0.61005621   -1.6822509   0.13448751    11411.578     1000 
  772000   0.40093837   -2.2525723   0.60080614   -1.6517661   0.12817347    11346.005     1000 
  774000   0.41076457   -2.2829086   0.61553071   -1.6673778   0.12464075    11485.178     1000 
  776000   0.40511083   -2.2868802   0.60705857   -1.6798216   0.12500917    11581.938     1000 
  778000   0.38480786    -2.277695   0.57663457   -1.7010604   0.14206904    11296.879     1000 
  780000   0.40275442   -2.2603497   0.60352751   -1.6568222   0.12365643    11511.389     1000 
  782000   0.38673446   -2.3404118   0.57952159   -1.7608902   0.11830571    11610.262     1000 
  784000   0.38864142   -2.3024105   0.58237917   -1.7200314   0.13661777    11449.525     1000 
  786000   0.39482855   -2.2869449   0.59165058   -1.6952943   0.12556903    11558.498     1000 
  788000   0.39692549   -2.2980128   0.59479285     -1.70322   0.13241123    11484.382     1000 
  790000   0.38329173   -2.3351054   0.57436266   -1.7607428   0.12902894    11544.433     1000 
  792000   0.39484522   -2.2966847   0.59167557   -1.7050091   0.13547067    11479.197     1000 
  794000   0.38790369   -2.3060152   0.58127368   -1.7247415   0.13062582    11390.046     1000 
  796000   0.39237137   -2.2796817    0.5879685   -1.6917132   0.14232582     11274.42     1000 
  798000   0.40086032   -2.3079996   0.60068919   -1.7073104    0.1221631    11376.901     1000 
  800000     0.403338   -2.3076989     0.604402   -1.7032969    0.1204918    11571.107     1000 
  802000   0.39513234    -2.275544   0.59210582   -1.6834381   0.12288029     11455.65     1000 
  804000   0.37994455   -2.3149394   0.56934691   -1.7455925   0.13489392    11468.546     1000 
  806000   0.39613326   -2.3167651   0.59360569   -1.7231594   0.10827748    11676.919     1000 
  808000   0.40415225   -2.2608194   0.60562214   -1.6551973   0.14098742    11340.052     1000 
  810000   0.40111031      -2.3098   0.60106379   -1.7087362   0.12234248    11508.518     1000 
  812000   0.39939839   -2.2793994   0.59849849   -1.6809009   0.13833513    11449.537     1000 
  814000   0.39261958   -2.3177809   0.58834044   -1.7294405    0.1343526     11438.59     1000 
  816000   0.40473176   -2.2865339   0.60649055   -1.6800434   0.14074159    11354.906     1000 
  818000   0.40543335    -2.303604   0.60754187   -1.6960622   0.12947707    11497.295     1000 
  820000   0.40562621   -2.3261362   0.60783088   -1.7183053   0.12617917    11545.732     1000 
  822000   0.41382469    -2.315751   0.62011629   -1.6956347   0.14325037     11413.18     1000 
  824000   0.40585638   -2.3386047   0.60817579   -1.7304289   0.12556472     11493.59     1000 
  826000   0.40158824   -2.3090324   0.60177998   -1.7072525   0.12118469    11576.409     1000 
  828000   0.39464745   -2.3429587   0.59137921   -1.7515795   0.12272121    11593.552     1000 
  830000   0.40341147   -2.3233997   0.60451209   -1.7188876   0.12923888    11566.551     1000 
  832000   0.42417974     -2.30816   0.63563334   -1.6725266   0.13090653    11518.738     1000 
  834000   0.40929607   -2.3018174   0.61333016   -1.6884872    0.1309444    11434.029     1000 
  836000   0.39209749   -2.3052823   0.58755809   -1.7177242   0.13663927     11332.68     1000 
  838000   0.38743342   -2.2377139   0.58056897   -1.6571449   0.12641592    11485.394     1000 
  840000   0.39729746   -2.3141195   0.59535024   -1.7187693   0.12898558    11451.215     1000 
  842000   0.39584712   -2.2915821   0.59317691   -1.6984052   0.13627137    11452.144     1000 
  844000   0.41299186   -2.3144758    0.6188683   -1.6956075    0.1244074    11534.508     1000 
  846000   0.41110696   -2.3039431   0.61604378   -1.6878994   0.14035027    11353.899     1000 
  848000   0.39915481   -2.2936068   0.59813349   -1.6954733   0.13517017    11471.846     1000 
  850000   0.39169429   -2.3541303   0.58695389   -1.7671765   0.12507203    11462.135     1000 
  852000   0.39587671    -2.314946   0.59322124   -1.7217248   0.12088568    11541.016     1000 
  854000   0.41240286   -2.3401103   0.61798568   -1.7221246   0.13989718    11447.026     1000 
  856000   0.41014512   -2.3012418   0.61460246   -1.6866393   0.11983035    11547.699     1000 
  858000    0.4008138   -2.2757773   0.60061948   -1.6751578   0.12268584    11529.044     1000 
  860000   0.38941571   -2.2970577   0.58353944   -1.7135182   0.12774085    11486.497     1000 
  862000   0.42000206   -2.3098019   0.62937308   -1.6804288   0.11461371    11631.428     1000 
  864000   0.39612412   -2.2897386   0.59359199   -1.6961466   0.13256757    11322.637     1000 
  866000   0.40433212   -2.2549897   0.60589168    -1.649098   0.12673418    11452.905     1000 
  868000   0.40793681   -2.2567642   0.61129332   -1.6454709   0.12591628    11541.098     1000 
  870000   0.40516058   -2.2970778   0.60713312   -1.6899447   0.12546424    11509.033     1000 
  872000    0.3986225    -2.256081   0.59733581   -1.6587452   0.12681881    11418.057     1000 
  874000   0.39730099   -2.3002674   0.59535554   -1.7049119    0.1344338    11414.134     1000 
  876000   0.40556841   -2.3418413   0.60774426   -1.7340971   0.11715674    11570.534     1000 
  878000   0.41143006    -2.316973   0.61652794   -1.7004451    0.1269842    11480.499     1000 
  880000   0.39365742   -2.2978612   0.58989564   -1.7079655   0.14075441    11436.751     1000 
  882000   0.38693273   -2.2824074    0.5798187   -1.7025887   0.12269204    11467.552     1000 
  884000   0.41210361   -2.2875134   0.61753726   -1.6699761   0.14479132    11422.951     1000 
  886000   0.41363163   -2.2720343     0.619827   -1.6522073   0.11783245    11610.368     1000 
  888000   0.40191235   -2.3209849   0.60226566   -1.7187193   0.12657393     11470.02     1000 
  890000   0.39657051   -2.3326632   0.59426091   -1.7384023   0.13442196     11463.78     1000 
  892000   0.39476432   -2.2542235   0.59155434   -1.6626692    0.1227496    11398.458     1000 
  894000   0.40402429   -2.2848858    0.6054304   -1.6794554    0.1162834    11601.525     1000 
  896000   0.39424886   -2.2813934   0.59078192   -1.6906115    0.1331916    11419.444     1000 
  898000   0.40211669   -2.2893248   0.60257185    -1.686753   0.12670364    11481.749     1000 
  900000   0.40305649   -2.2855716   0.60398015   -1.6815914    0.1384629    11381.171     1000 
  902000   0.40406082   -2.3111266   0.60548514   -1.7056414   0.12639452    11464.402     1000 
  904000   0.41197818   -2.3133098   0.61734931   -1.6959605   0.13119634     11476.22     1000 
  906000   0.38884598   -2.3356522    0.5826857   -1.7529665   0.12931834    11474.277     1000 
  908000   0.40673536    -2.362158   0.60949294    -1.752665   0.12802673    11525.239     1000 
  910000   0.40877843   -2.2993576   0.61255448   -1.6868031   0.13632213    11443.879     1000 
  912000   0.40006645   -2.3006399   0.59949958   -1.7011403   0.13795227     11366.58     1000 
  914000   0.38500293   -2.3287604   0.57692689   -1.7518335   0.12721982    11531.754     1000 
  916000    0.3914057   -2.2816801   0.58652144   -1.6951587   0.13288673    11383.202     1000 
  918000   0.39960771   -2.2908851   0.59881215    -1.692073   0.14133686    11320.479     1000 
  920000   0.41380429    -2.284214   0.62008573   -1.6641283   0.12959853     11388.78     1000 
  922000   0.41094504   -2.2953135   0.61580114   -1.6795123   0.12589592    11497.348     1000 
  924000   0.41392038   -2.2874944   0.62025969   -1.6672347   0.13246266    11473.298     1000 
  926000   0.39627406   -2.2976687   0.59381667    -1.703852   0.12911952    11586.213     1000 
  928000   0.39261615   -2.3111696    0.5883353   -1.7228343   0.13018115    11453.031     1000 
  930000   0.39682754   -2.2997759   0.59464606   -1.7051299   0.14035145    11409.504     1000 
  932000   0.40183935   -2.2666761   0.60215626   -1.6645198   0.13586879    11375.269     1000 
  934000   0.40741095   -2.2881477   0.61050532   -1.6776424   0.14197888    11259.372     1000 
  936000   0.40375048   -2.2867968    0.6050201   -1.6817767   0.13299245    11490.512     1000 
  938000   0.38684714   -2.2526416   0.57969044   -1.6729512   0.13806243     11325.84     1000 
  940000   0.39560053   -2.2715284    0.5928074    -1.678721   0.12949697    11407.871     1000 
  942000   0.39022715   -2.2811074   0.58475539    -1.696352   0.13093641    11304.735     1000 
  944000   0.41544388   -2.3220864   0.62254266   -1.6995437   0.13994362    11453.907     1000 
  946000    0.3836587   -2.2789983   0.57491256   -1.7040857   0.13657691    11415.694     1000 
  948000   0.40163232   -2.2616776   0.60184604   -1.6598316   0.12733199    11442.223     1000 
  950000   0.39998961   -2.3068632   0.59938443   -1.7074787   0.13180544    11451.887     1000 
  952000   0.41393203   -2.2976185   0.62027715   -1.6773413   0.13231917    11545.651     1000 
  954000   0.40803571   -2.2584253    0.6114415   -1.6469838   0.13637286    11403.689     1000 
  956000   0.40976543    -2.278044   0.61403349   -1.6640105   0.12739351    11450.246     1000 
  958000   0.39669307   -2.2190166   0.59444457    -1.624572   0.12855313    11279.612     1000 
  960000   0.38110252    -2.280626   0.57108213   -1.7095438    0.1241022    11520.912     1000 
  962000   0.38664436   -2.3126403   0.57938657   -1.7332537   0.12175744    11516.622     1000 
  964000   0.38525924   -2.3057879   0.57731097    -1.728477   0.13447026    11430.142     1000 
  966000   0.40837615   -2.3250812   0.61195166   -1.7131295   0.13162429    11361.582     1000 
  968000   0.40121058   -2.3076541   0.60121406     -1.70644   0.10931196    11705.044     1000 
  970000   0.39396662    -2.229681   0.59035898    -1.639322   0.12768825    11453.442     1000 
  972000   0.39479379   -2.3292941   0.59159849   -1.7376956   0.13075585    11486.324     1000 
  974000   0.40176043   -2.2544597     0.602038   -1.6524217   0.12698508    11507.839     1000 
  976000   0.41071367    -2.292734   0.61545443   -1.6772796   0.11906491    11566.722     1000 
  978000    0.4068976   -2.3142575   0.60973606   -1.7045215   0.14539265    11354.635     1000 
  980000   0.40402996   -2.2842782    0.6054389   -1.6788393   0.13746722      11417.3     1000 
  982000   0.37784014   -2.2673981   0.56619346   -1.7012046   0.12736827    11400.713     1000 
  984000   0.39726961   -2.3113918   0.59530852   -1.7160833   0.14049494    11391.213     1000 
  986000   0.41144828   -2.2863035   0.61655525   -1.6697482   0.13295868    11331.278     1000 
  988000   0.40829979   -2.2852082   0.61183724   -1.6733709   0.14282573    11315.276     1000 
  990000   0.41655534   -2.3289097   0.62420818   -1.7047015   0.11941594    11660.553     1000 
  992000   0.39343625   -2.2946202   0.58956422    -1.705056   0.12832683    11548.214     1000 
  994000   0.38439503   -2.3130963   0.57601595   -1.7370804   0.12823451    11468.852     1000 
  996000   0.40487737   -2.2800573   0.60670874   -1.6733486   0.12416003    11530.751     1000 
  998000   0.38757384   -2.2623862    0.5807794   -1.6816068   0.12394139    11413.794     1000 
 1000000   0.40562658     -2.27205   0.60783143   -1.6642186   0.12791124    11531.913     1000 
 1002000    0.3936681   -2.3143626   0.58991165   -1.7244509   0.13110952    11471.275     1000 
 1004000   0.39397473   -2.3085079   0.59037113   -1.7181368   0.13363309    11430.599     1000 
 1006000    0.3980557   -2.3047631   0.59648647   -1.7082766   0.12803474    11463.786     1000 
 1008000   0.41056978   -2.2998238   0.61523882   -1.6845849   0.12731643    11460.143     1000 
 1010000   0.39728746   -2.2536211   0.59533525   -1.6582859   0.13549552    11387.994     1000 
 1012000    0.3770396   -2.2976138   0.56499384     -1.73262   0.13238033     11421.78     1000 
 1014000   0.39634037   -2.2932689   0.59391604   -1.6993528   0.13075693    11407.075     1000 
 1016000   0.40470452   -2.3225319   0.60644973   -1.7160821   0.12659539    11449.377     1000 
 1018000    0.3869108   -2.2808048   0.57978583    -1.701019   0.13745387    11425.033     1000 
 1020000   0.39548105   -2.3097426   0.59262835   -1.7171143   0.12281657    11549.738     1000 
 1022000   0.40791637   -2.2705121   0.61126268   -1.6592494   0.13024721     11463.06     1000 
 1024000   0.40643569   -2.2978338   0.60904389   -1.6887899   0.13160065    11527.814     1000 
 1026000   0.40307386   -2.2553817   0.60400617   -1.6513755   0.12998883    11489.957     1000 
 1028000   0.42560526   -2.2647366   0.63776948   -1.6269671   0.13706275    11406.911     1000 
 1030000   0.38621981   -2.2725665   0.57875039   -1.6938161   0.13102805     11419.54     1000 
 1032000    0.3991123   -2.2914117   0.59806978   -1.6933419   0.13089956    11393.407     1000 
 1034000   0.39167659   -2.2972948   0.58692737   -1.7103674   0.15013771    11326.133     1000 
 1036000    0.3937422    -2.315524   0.59002269   -1.7255013   0.12944494    11524.588     1000 
 1038000   0.41731881   -2.2494189   0.62535224   -1.6240666   0.12877283    11455.306     1000 
 1040000   0.39552637    -2.284523   0.59269627   -1.6918268   0.13981664    11421.611     1000 
 1042000   0.42696773   -2.3226555   0.63981115   -1.6828444   0.13515431    11441.289     1000 
 1044000   0.41465984   -2.3287338   0.62136777    -1.707366   0.13336796    11445.627     1000 
 1046000   0.38960808   -2.2489004   0.58382771   -1.6650727   0.13171165    11402.549     1000 
 1048000   0.39107794   -2.3314539   0.58603029   -1.7454237   0.12592941    11455.447     1000 
 1050000   0.39367235   -2.3346903   0.58991801   -1.7447723   0.13567222    11508.968     1000 
 1052000   0.40079997     -2.31705   0.60059876   -1.7164513   0.12642828    11448.417     1000 
 1054000   0.40609858   -2.3158658   0.60853872    -1.707327   0.12136506    11571.165     1000 
 1056000   0.38280146   -2.2999469   0.57362799   -1.7263189   0.13176013    11421.199     1000 
 1058000   0.38528994   -2.2854977   0.57735697   -1.7081407   0.12723497    11478.132     1000 
 1060000    0.4174139   -2.2927246   0.62549472   -1.6672299   0.12580481    11511.412     1000 
 1062000   0.39584402   -2.2887719   0.59317226   -1.6955996   0.13407244    11470.667     1000 
 1064000   0.41213476     -2.23965   0.61758394   -1.6220661   0.11892903     11503.71     1000 
 1066000   0.39523902   -2.3208577   0.59226567    -1.728592   0.11877785     11553.11     1000 
 1068000   0.39047741   -2.3338862    0.5851304   -1.7487558   0.12156037    11603.552     1000 
 1070000   0.39786035   -2.2941206   0.59619373   -1.6979269   0.13620396    11425.441     1000 
 1072000   0.38775082   -2.2608312    0.5810446   -1.6797866   0.12476698    11455.931     1000 
 1074000   0.40448241   -2.3169525    0.6061169   -1.7108356   0.13877251    11389.342     1000 
 1076000   0.40402973   -2.3319347   0.60543856   -1.7264961   0.12330811    11481.827     1000 
 1078000   0.39469722   -2.3005645   0.59145378   -1.7091107    0.1323669    11443.325     1000 
 1080000   0.40082039   -2.3212455   0.60062935   -1.7206162   0.12953948    11550.542     1000 
 1082000   0.40221806   -2.3173538   0.60272376   -1.7146301   0.12972154    11500.827     1000 
 1084000   0.40302912   -2.2614337   0.60393914   -1.6574945   0.13616789    11464.838     1000 
 1086000   0.40757536    -2.331718   0.61075168   -1.7209663   0.13754777    11381.365     1000 
 1088000   0.40650732    -2.286944   0.60915122   -1.6777927   0.13462677    11500.366     1000 
 1090000    0.4095671   -2.2478891   0.61373629   -1.6341528   0.13184736    11433.566     1000 
 1092000    0.3964233   -2.2887103   0.59404032     -1.69467   0.12413955    11466.333     1000 
 1094000   0.39079219   -2.2894948    0.5856021   -1.7038927    0.1200221    11514.497     1000 
 1096000   0.42086886   -2.3247301   0.63067199   -1.6940581   0.13293585    11386.348     1000 
 1098000   0.39251632   -2.2724309   0.58818571   -1.6842452   0.11888945    11546.379     1000 
 1100000    0.3933588   -2.3433304   0.58944816   -1.7538823   0.11204425    11690.013     1000 
 1102000   0.40104987   -2.2758708   0.60097323   -1.6748976   0.12642842    11527.652     1000 
 1104000   0.39620289   -2.2974747   0.59371002   -1.7037646   0.13808792    11441.401     1000 
 1106000   0.38900744   -2.3411991   0.58292765   -1.7582714   0.11827863    11561.229     1000 
 1108000   0.38122337   -2.2786054   0.57126322   -1.7073422   0.12197718    11519.723     1000 
 1110000   0.41041422   -2.3069088    0.6150057   -1.6919031    0.1251111    11519.085     1000 
 1112000   0.40924603   -2.3034883   0.61325517   -1.6902331   0.11784472    11580.699     1000 
 1114000   0.39601865   -2.3120599   0.59343394   -1.7186259   0.12920542    11473.038     1000 
 1116000   0.37409821   -2.3139481   0.56058617   -1.7533619     0.120813    11422.257     1000 
 1118000   0.38234457   -2.3114178   0.57294333   -1.7384744   0.11621507    11515.325     1000 
 1120000   0.39869791   -2.2896438   0.59744881    -1.692195   0.14726063     11296.32     1000 
 1122000   0.41063398   -2.2963872   0.61533502   -1.6810522   0.13158502    11513.123     1000 
 1124000   0.39134094   -2.3082809    0.5864244   -1.7218565   0.13209683    11384.062     1000 
 1126000   0.40673072   -2.3238362   0.60948599   -1.7143502      0.12331    11462.056     1000 
 1128000   0.39986692   -2.3084616   0.59920058    -1.709261   0.10662919    11598.559     1000 
 1130000   0.39672533   -2.3201904   0.59449291   -1.7256975   0.12354409    11523.538     1000 
 1132000   0.39237595   -2.2888962   0.58797536   -1.7009208    0.1188866    11537.885     1000 
 1134000   0.40214107   -2.2692519   0.60260839   -1.6666435    0.1281027    11387.573     1000 
 1136000   0.40333876    -2.276443   0.60440312   -1.6720399   0.13602269    11451.679     1000 
 1138000   0.38816543   -2.2852316    0.5816659   -1.7035657   0.12452435    11526.845     1000 
 1140000   0.39371904   -2.3085963   0.58998798   -1.7186083   0.13329089    11438.992     1000 
 1142000   0.41049835   -2.2740813   0.61513178   -1.6589495   0.13449987    11360.598     1000 
 1144000   0.41100827    -2.301569    0.6158959   -1.6856731   0.13937229    11361.325     1000 
 1146000   0.39846128   -2.2894763   0.59709423    -1.692382   0.14336718    11336.741     1000 
 1148000   0.39955943   -2.2619005    0.5987398   -1.6631607   0.13557335    11397.215     1000 
 1150000   0.39246706   -2.2565659   0.58811189    -1.668454   0.13498702    11376.749     1000 
 1152000   0.37987863   -2.2692612   0.56924813    -1.700013   0.12282953    11446.818     1000 
 1154000   0.39202161   -2.2948971   0.58744438   -1.7074527   0.11938054    11516.056     1000 
 1156000   0.39060989   -2.2596868   0.58532892   -1.6743578   0.13071591    11381.696     1000 
 1158000   0.38585964   -2.3010256   0.57821067    -1.722815    0.1206902    11535.427     1000 
 1160000   0.40327895   -2.3151585    0.6043135    -1.710845    0.1188979    11583.625     1000 
 1162000   0.40006292   -2.3058699   0.59949428   -1.7063756   0.12724812    11470.564     1000 
 1164000   0.39775788   -2.2863376   0.59604019   -1.6902974   0.13227273    11395.211     1000 
 1166000   0.38649341   -2.2917281   0.57916037   -1.7125677   0.12738914    11473.171     1000 
 1168000   0.40327887   -2.3056749   0.60431339   -1.7013615   0.13407395    11478.527     1000 
 1170000     0.407485   -2.3010981   0.61061627   -1.6904818   0.14519919     11319.29     1000 
 1172000   0.41851127   -2.3111941   0.62713913    -1.684055   0.13110382     11476.61     1000 
 1174000   0.39726081   -2.3164357   0.59529532   -1.7211404   0.12758546    11490.243     1000 
 1176000   0.40370346   -2.3004486   0.60494964    -1.695499   0.13089773    11472.778     1000 
 1178000   0.39555132   -2.2815908   0.59273365   -1.6888571   0.13744772    11347.079     1000 
 1180000     0.408736   -2.3163907    0.6124909   -1.7038998   0.13115284    11416.691     1000 
 1182000   0.39523579   -2.3062784   0.59226083   -1.7140176   0.13852371    11427.646     1000 
 1184000   0.40888927    -2.282449   0.61272057   -1.6697284   0.13721406    11325.318     1000 
 1186000   0.42426623   -2.3693114   0.63576295   -1.7335485   0.12341401    11611.686     1000 
 1188000   0.38191902   -2.3256797   0.57230565    -1.753374   0.12092588    11511.772     1000 
 1190000   0.38538366   -2.3076151   0.57749742   -1.7301176   0.12727773    11529.305     1000 
 1192000   0.41050219   -2.3086276   0.61513753   -1.6934901   0.11779688    11600.602     1000 
 1194000   0.40642843   -2.3116917   0.60903301   -1.7026587   0.12301185    11510.909     1000 
 1196000   0.38628509   -2.3089755   0.57884821   -1.7301273   0.13964744     11482.19     1000 
 1198000   0.41333998   -2.3184566   0.61938996   -1.6990666   0.13483333    11492.378     1000 
 1200000   0.39933959   -2.3629661   0.59841038   -1.7645558   0.13090419    11528.698     1000 
 1202000   0.41306164   -2.3487837   0.61897287   -1.7298108   0.12139597    11650.376     1000 
 1204000   0.40977398   -2.2955101    0.6140463   -1.6814638   0.11730307    11494.327     1000 
 1206000   0.39413523   -2.2723717   0.59061165   -1.6817601   0.13461133    11346.403     1000 
 1208000   0.39659412   -2.2779759   0.59429628   -1.6836796   0.12530041    11516.818     1000 
 1210000   0.39720293   -2.2781972    0.5952086   -1.6829886   0.11892195    11463.204     1000 
 1212000   0.40962491   -2.3230015   0.61382292   -1.7091786   0.12836153    11518.118     1000 
 1214000   0.40010575   -2.3124104   0.59955846    -1.712852   0.12424367    11531.088     1000 
 1216000     0.401901   -2.3056992   0.60224865   -1.7034505   0.13546584    11497.341     1000 
 1218000   0.40031012   -2.2788737   0.59986472   -1.6790089   0.13134828    11371.011     1000 
 1220000   0.41104713   -2.3244172   0.61595413   -1.7084631   0.13465774    11385.395     1000 
 1222000   0.39427352   -2.2998749   0.59081887    -1.709056   0.13588771    11454.607     1000 
 1224000   0.39273495   -2.2480302   0.58851333   -1.6595169   0.12506992    11448.545     1000 
 1226000   0.39959528    -2.279563   0.59879353   -1.6807695   0.12941536      11520.5     1000 
 1228000   0.38389091   -2.3059046   0.57526053   -1.7306441   0.13568199     11443.98     1000 
 1230000   0.38714612   -2.2662839   0.58013846   -1.6861455   0.13502952    11394.475     1000 
 1232000   0.40177943   -2.2982731   0.60206647   -1.6962067   0.12814246    11421.486     1000 
 1234000   0.39734396    -2.270629   0.59541993   -1.6752091   0.12967075    11519.306     1000 
 1236000   0.40432644   -2.2934106   0.60588317   -1.6875275   0.12853046    11505.022     1000 
 1238000   0.42009325   -2.3275834   0.62950974   -1.6980737   0.13207456    11540.894     1000 
 1240000   0.39091605   -2.3002259    0.5857877   -1.7144382   0.12512346    11538.007     1000 
 1242000   0.40091591   -2.3119994   0.60077249   -1.7112269   0.11355818    11639.718     1000 
 1244000   0.40815381   -2.3175097   0.61161848   -1.7058912   0.12152616    11555.665     1000 
 1246000   0.42011106   -2.3301986   0.62953642   -1.7006622   0.14081022    11461.803     1000 
 1248000   0.40569777   -2.2702729   0.60793811   -1.6623348   0.13737734    11506.078     1000 
 1250000   0.42239152    -2.317347   0.63295369   -1.6843933   0.13703249    11493.764     1000 
 1252000   0.39793469    -2.305515   0.59630514   -1.7092099   0.13382436    11373.238     1000 
 1254000    0.3986025   -2.3044909   0.59730585   -1.7071851   0.12095318    11578.721     1000 
 1256000   0.39343527   -2.2797648   0.58956275   -1.6902021   0.13560939    11457.871     1000 
 1258000   0.39843194   -2.2994769   0.59705026   -1.7024267   0.11754882    11539.661     1000 
 1260000   0.39285951   -2.2614278   0.58869997   -1.6727279   0.13852999    11416.568     1000 
 1262000   0.39117549   -2.2697229   0.58617648   -1.6835464   0.12898365    11457.041     1000 
 1264000   0.40094677   -2.3158206   0.60081874   -1.7150019   0.13264586    11536.485     1000 
 1266000   0.40123781   -2.3058531   0.60125486   -1.7045982   0.12545981    11528.672     1000 
 1268000   0.38755257   -2.3381663   0.58074753   -1.7574188   0.12880187    11538.125     1000 
 1270000   0.38640699   -2.2955972   0.57903088   -1.7165663   0.13151837    11340.907     1000 
 1272000   0.38227508   -2.2917175   0.57283921   -1.7188783   0.14352268    11341.178     1000 
 1274000   0.39628733     -2.28756   0.59383656   -1.6937234   0.13184124    11452.799     1000 
 1276000   0.40946355   -2.2387386   0.61358114   -1.6251575   0.12895171    11420.931     1000 
 1278000   0.40297982   -2.2678221   0.60386527   -1.6639568   0.14025596    11311.229     1000 
 1280000   0.39948825   -2.2901662   0.59863314    -1.691533   0.13130739    11427.255     1000 
 1282000   0.40361103   -2.2896258   0.60481114   -1.6848146   0.12723414    11390.522     1000 
 1284000    0.4062741    -2.327682   0.60880173   -1.7188803   0.11610111     11612.95     1000 
 1286000   0.41190935   -2.3165631   0.61724616   -1.6993169   0.14474219    11345.493     1000 
 1288000   0.39977545   -2.2835957   0.59906351   -1.6845322   0.13163788    11367.461     1000 
 1290000    0.3997078    -2.297309   0.59896213   -1.6983469   0.14163702    11330.731     1000 
 1292000   0.40284089   -2.2521132   0.60365708   -1.6484561   0.14189937    11318.909     1000 
 1294000   0.41024863   -2.3032666   0.61475758    -1.688509   0.13330181    11524.577     1000 
 1296000   0.40244668   -2.3278931   0.60306635   -1.7248268   0.12270412     11535.91     1000 
 1298000   0.38520036   -2.3412628   0.57722274   -1.7640401   0.12721121    11549.137     1000 
 1300000   0.41770207   -2.2485174   0.62592655   -1.6225908   0.13070834    11492.251     1000 
 1302000   0.41021197   -2.3069972   0.61470264   -1.6922946   0.12013374    11580.868     1000 
 1304000   0.40928114   -2.2993371   0.61330779   -1.6860293   0.11546569    11543.584     1000 
 1306000   0.39863611   -2.2575802   0.59735622   -1.6602239   0.12820052    11444.635     1000 
 1308000   0.38434002   -2.3294354   0.57593353   -1.7535018   0.12929506    11455.881     1000 
 1310000   0.40049261   -2.2418983   0.60013818   -1.6417601   0.12559086    11528.546     1000 
 1312000   0.40049841   -2.3038764   0.60014686   -1.7037295   0.12412549    11526.874     1000 
 1314000   0.38432447   -2.2536903   0.57591022   -1.6777801   0.13509627    11417.337     1000 
 1316000   0.38451956   -2.3007126   0.57620256     -1.72451   0.13225047     11440.89     1000 
 1318000   0.39271588   -2.3045418   0.58848475    -1.716057   0.12643816    11535.799     1000 
 1320000    0.4062239   -2.3091187   0.60872651   -1.7003922   0.12566772    11513.088     1000 
 1322000   0.41557013   -2.2903317   0.62273184   -1.6675998   0.13488687    11456.163     1000 
 1324000   0.39163883   -2.3195229   0.58687078   -1.7326521   0.12346459     11517.29     1000 
 1326000   0.38209686   -2.3053841   0.57257215   -1.7328119   0.13014696    11461.953     1000 
 1328000   0.39721808   -2.2916837   0.59523129   -1.6964524   0.11780302    11556.641     1000 
 1330000   0.40261569   -2.2959914   0.60331961   -1.6926718   0.12382157    11496.097     1000 
 1332000   0.36914087   -2.2760455   0.55315759   -1.7228879   0.12934374    11340.392     1000 
 1334000   0.41483282   -2.2705647   0.62162697   -1.6489377   0.12231817    11494.999     1000 
 1336000   0.38952777   -2.3011152   0.58370737   -1.7174078   0.12602012    11488.989     1000 
 1338000   0.39662373   -2.3071597   0.59434066    -1.712819    0.1383871    11432.205     1000 
 1340000    0.3814105   -2.2766872   0.57154364   -1.7051436   0.12631364    11390.807     1000 
 1342000   0.40878898   -2.3244565   0.61257028   -1.7118862    0.1286816    11571.343     1000 
 1344000    0.3959503   -2.2783651   0.59333153   -1.6850335   0.12877385    11369.545     1000 
 1346000   0.38698171   -2.3290302   0.57989209   -1.7491381   0.12827698    11642.281     1000 
 1348000   0.40601442   -2.3154439   0.60841261   -1.7070313    0.1089846    11546.596     1000 
 1350000   0.41886427   -2.3035997    0.6276681   -1.6759316   0.13163939    11514.001     1000 
 1352000   0.39890627   -2.3672982   0.59776105   -1.7695372   0.11814216    11631.073     1000 
 1354000   0.40606295   -2.2933809   0.60848532   -1.6848956   0.12732313    11446.369     1000 
 1356000   0.39530011   -2.3260848   0.59235722   -1.7337276   0.11729755    11467.861     1000 
 1358000   0.40160474   -2.2901434    0.6018047   -1.6883387   0.12800293    11541.793     1000 
 1360000   0.40543064   -2.2966278   0.60753782   -1.6890899   0.13075577     11455.73     1000 
 1362000   0.39637154    -2.325712   0.59396275   -1.7317493   0.13898955    11359.393     1000 
 1364000   0.38718076   -2.2771124   0.58019037    -1.696922   0.11857539     11498.41     1000 
 1366000   0.41209448   -2.3002164   0.61752358   -1.6826928    0.1359225    11419.175     1000 
 1368000    0.3989776   -2.2809385   0.59786794   -1.6830706   0.13137018    11454.233     1000 
 1370000   0.39600353    -2.299892   0.59341129   -1.7064807   0.13113996    11438.802     1000 
 1372000   0.39796452    -2.233828   0.59634983   -1.6374782   0.13657417    11311.122     1000 
 1374000   0.39690576   -2.2865183   0.59476328    -1.691755   0.12866735    11397.492     1000 
 1376000   0.40058824   -2.2902439   0.60028148   -1.6899624   0.12185475    11528.878     1000 
 1378000   0.40345501   -2.2945966   0.60457733   -1.6900192   0.12957154    11445.904     1000 
 1380000   0.40968837   -2.2967651   0.61391802    -1.682847   0.13248915    11457.763     1000 
 1382000   0.41038584    -2.288044   0.61496319   -1.6730808   0.12451572    11528.035     1000 
 1384000   0.39101263   -2.3412544   0.58593243    -1.755322   0.12601654    11498.786     1000 
 1386000   0.41920294   -2.3426913   0.62817561   -1.7145157   0.13815506    11432.419     1000 
 1388000   0.38692819   -2.2712652   0.57981189   -1.6914533   0.13761194    11353.238     1000 
 1390000   0.39341312   -2.3023815   0.58952957   -1.7128519   0.12461547    11455.219     1000 
 1392000   0.42598049   -2.3314667   0.63833177   -1.6931349   0.12839204    11504.378     1000 
 1394000    0.4021238   -2.2917117   0.60258251   -1.6891291   0.13389573    11428.596     1000 
 1396000   0.39831314   -2.3550254   0.59687224   -1.7581532   0.11882021    11558.781     1000 
 1398000   0.40424769   -2.2932135   0.60576517   -1.6874483   0.12382582    11538.156     1000 
 1400000   0.40684186   -2.2841184   0.60965252   -1.6744659   0.13123673    11441.379     1000 
 1402000   0.39549806   -2.3063213   0.59265385   -1.7136674   0.12156428    11562.992     1000 
 1404000   0.40938367   -2.2961308   0.61346144   -1.6826694   0.13385485    11541.257     1000 
 1406000   0.41032178   -2.3214062   0.61486719    -1.706539   0.11896172     11552.39     1000 
 1408000   0.40967089   -2.2611488   0.61389183    -1.647257    0.1382182    11359.361     1000 
 1410000   0.38658494   -2.2931339   0.57929753   -1.7138364   0.13367085    11436.147     1000 
 1412000   0.38885408    -2.265606   0.58269784   -1.6829082   0.12884671    11344.111     1000 
 1414000   0.39572115   -2.3138857   0.59298815   -1.7208975   0.13372308    11421.947     1000 
 1416000   0.41415539   -2.2813441   0.62061185   -1.6607322   0.12996078    11383.665     1000 
 1418000   0.39571688   -2.2765583   0.59298175   -1.6835765    0.1162199    11567.157     1000 
 1420000   0.39484009   -2.3169415   0.59166788   -1.7252736   0.13287676    11450.238     1000 
 1422000   0.39526809   -2.2681758   0.59230923   -1.6758666   0.13016089    11478.039     1000 
 1424000   0.38402597    -2.284935   0.57546291   -1.7094721   0.11928884    11432.212     1000 
 1426000   0.39465373   -2.2780968   0.59138862   -1.6867081    0.1221483    11541.098     1000 
 1428000   0.40813076    -2.286724   0.61158394     -1.67514    0.1293217    11468.014     1000 
 1430000   0.40510419   -2.3082968   0.60704862   -1.7012482   0.14423189    11362.814     1000 
 1432000   0.40634211   -2.2995532   0.60890365   -1.6906496   0.14692045    11325.011     1000 
 1434000   0.37552012   -2.3087015   0.56271689   -1.7459846   0.12230643    11489.062     1000 
 1436000   0.40382271    -2.321976   0.60512833   -1.7168476   0.12299082     11557.41     1000 
 1438000   0.38833535   -2.3270352   0.58192052   -1.7451147   0.11893253    11602.596     1000 
 1440000    0.3899474    -2.283346   0.58433618   -1.6990098   0.13227068    11447.387     1000 
 1442000   0.42553347   -2.2856994   0.63766191   -1.6480375   0.13266701    11395.963     1000 
 1444000   0.40121526   -2.3253502   0.60122107   -1.7241291   0.12438535    11584.743     1000 
 1446000   0.39254168   -2.2730602   0.58822371   -1.6848364   0.13929919    11387.056     1000 
 1448000   0.39711839   -2.3031889   0.59508191    -1.708107   0.12012669    11584.555     1000 
 1450000   0.39292957    -2.282942   0.58880496   -1.6941371    0.1321185    11362.962     1000 
 1452000   0.39657027   -2.3106245   0.59426055   -1.7163639   0.13328616    11474.079     1000 
 1454000   0.39987473   -2.2735509   0.59921229   -1.6743386   0.12204735    11576.147     1000 
 1456000   0.40830861   -2.2781973   0.61185045   -1.6663468   0.11760458    11549.847     1000 
 1458000   0.40318204   -2.2949903   0.60416829    -1.690822   0.13206893    11395.495     1000 
 1460000   0.42806802   -2.2863815   0.64145992   -1.6449216   0.13437533    11459.875     1000 
 1462000   0.38629193   -2.3407327   0.57885845   -1.7618742   0.12828017    11538.374     1000 
 1464000   0.40775348   -2.3027771   0.61101859   -1.6917585   0.12805949    11409.773     1000 
 1466000   0.37814649   -2.2865004   0.56665251   -1.7198479     0.116857    11560.434     1000 
 1468000   0.38946881    -2.284868   0.58361901    -1.701249   0.13763705    11354.787     1000 
 1470000    0.4007965   -2.3388674   0.60059356   -1.7382738   0.12659455    11538.057     1000 
 1472000   0.38379052   -2.3161037   0.57511009   -1.7409936   0.13307209    11415.168     1000 
 1474000   0.40007226   -2.3124744   0.59950828   -1.7129662   0.14541969    11266.748     1000 
 1476000   0.40382135   -2.2815156   0.60512629   -1.6763893   0.12998973    11427.049     1000 
 1478000    0.4107957   -2.2604633   0.61557735   -1.6448859   0.12547676    11556.257     1000 
 1480000   0.41738366   -2.3458801   0.62544941   -1.7204307   0.13467564    11486.556     1000 
 1482000    0.3962657   -2.3006338   0.59380416   -1.7068296   0.12170336    11478.925     1000 
 1484000   0.41142001   -2.3097484   0.61651288   -1.6932355    0.1328436    11463.453     1000 
 1486000   0.40274749   -2.3451522   0.60351711   -1.7416351   0.11533371    11567.741     1000 
 1488000   0.40567964   -2.3054089   0.60791094    -1.697498   0.12387443     11557.58     1000 
 1490000   0.41052909   -2.2794821   0.61517784   -1.6643042   0.13513316    11442.346     1000 
 1492000   0.39749929   -2.2974135   0.59565269   -1.7017608   0.13134999    11505.545     1000 
 1494000   0.39802499   -2.2669069   0.59644045   -1.6704665   0.13701065     11389.72     1000 
 1496000   0.39481274   -2.2923868   0.59162689   -1.7007599   0.13451064    11428.537     1000 
 1498000   0.38663194   -2.2893158   0.57936796   -1.7099478   0.13133709    11373.828     1000 
 1500000    0.4068483    -2.272647   0.60966218   -1.6629848   0.13453878    11356.262     1000 
 1502000   0.40886378   -2.2618724   0.61268238     -1.64919    0.1327208     11411.82     1000 
 1504000   0.38898967   -2.2987995   0.58290102   -1.7158984    0.1283852    11491.261     1000 
 1506000   0.38773167   -2.3219848   0.58101591   -1.7409689   0.12551332    11502.927     1000 
 1508000   0.41461321   -2.2822725    0.6212979   -1.6609746   0.13600099    11377.444     1000 
 1510000   0.39112442   -2.2780524   0.58609995   -1.6919525   0.12581552    11450.094     1000 
 1512000   0.38945177   -2.2881277   0.58359348   -1.7045342   0.12561254    11442.794     1000 
 1514000   0.40372809   -2.2644146   0.60498654    -1.659428   0.13718652    11398.167     1000 
 1516000   0.39552752   -2.3158091   0.59269798   -1.7231111   0.12478126    11465.419     1000 
 1518000   0.41240558   -2.2801727   0.61798976   -1.6621829   0.13066845    11435.812     1000 
 1520000   0.40875826   -2.3184382   0.61252425   -1.7059139   0.14117903    11393.536     1000 
 1522000   0.39211201    -2.344931   0.58757985   -1.7573512   0.12477248    11481.095     1000 
 1524000   0.40867738   -2.3288411   0.61240305   -1.7164381   0.12038761    11554.138     1000 
 1526000   0.40908658   -2.2691975   0.61301624   -1.6561813   0.13013862     11514.47     1000 
 1528000   0.41494115   -2.3241518   0.62178931   -1.7023625   0.13071487    11492.684     1000 
 1530000   0.39927708   -2.2944902   0.59831671   -1.6961734   0.12124848     11524.66     1000 
 1532000   0.40102399   -2.3042829   0.60093445   -1.7033485   0.12983935    11501.121     1000 
 1534000   0.38594395   -2.2538027   0.57833701   -1.6754656   0.13620379    11405.771     1000 
 1536000   0.37777988   -2.3203986   0.56610316   -1.7542955   0.14040096    11391.459     1000 
 1538000   0.39066958   -2.2828841   0.58541837   -1.6974657   0.13828361    11358.584     1000 
 1540000   0.39976513   -2.2974955   0.59904805   -1.6984474   0.12375027    11473.731     1000 
 1542000   0.40700497   -2.3311044   0.60989695   -1.7212074   0.13558393    11415.541     1000 
 1544000   0.40717472   -2.3136193   0.61015132   -1.7034679   0.13052915    11481.792     1000 
 1546000   0.40333188   -2.3154289   0.60439282   -1.7110361   0.13373936    11432.306     1000 
 1548000   0.40815058   -2.2995071   0.61161365   -1.6878934   0.14577326    11316.861     1000 
 1550000   0.40604932   -2.2813833    0.6084649   -1.6729184   0.13122549    11454.878     1000 
 1552000   0.38209512   -2.2979522   0.57256954   -1.7253826   0.13167142    11380.506     1000 
 1554000   0.39047447   -2.2851671   0.58512599   -1.7000411    0.1385317    11330.041     1000 
 1556000   0.40815999   -2.3192619   0.61162774   -1.7076342   0.12773303    11635.393     1000 
 1558000   0.40484107   -2.2795805   0.60665434   -1.6729262   0.13515918    11405.732     1000 
 1560000   0.39428946    -2.317645   0.59084276   -1.7268023    0.1411324    11360.615     1000 
 1562000   0.37948335   -2.3314594   0.56865581   -1.7628036   0.12050745    11491.332     1000 
 1564000   0.40058087   -2.2513777   0.60027044   -1.6511072   0.11808781    11559.679     1000 
 1566000   0.38343797    -2.331838    0.5745818   -1.7572562   0.10992906    11606.373     1000 
 1568000   0.38350613   -2.2641997   0.57468394   -1.6895158   0.12059205    11495.883     1000 
 1570000   0.41711586   -2.3073791   0.62504812    -1.682331   0.12833417    11483.831     1000 
 1572000   0.40743216   -2.3352481   0.61053709    -1.724711    0.1195272    11559.502     1000 
 1574000   0.39194096   -2.3244258   0.58732353   -1.7371023   0.11513871    11542.368     1000 
 1576000   0.39561092    -2.338026   0.59282296   -1.7452031   0.13350352    11533.273     1000 
 1578000    0.4107704   -2.3122149   0.61553945   -1.6966755   0.13007658    11507.845     1000 
 1580000    0.4138849   -2.2949499   0.62020653   -1.6747434   0.14309709    11444.571     1000 
 1582000   0.37592517   -2.2795539   0.56332386   -1.7162301    0.1227945    11445.588     1000 
 1584000   0.39954703   -2.2997953   0.59872123   -1.7010741   0.13195955    11375.104     1000 
 1586000    0.3934673   -2.3134368   0.58961075    -1.723826   0.13848493     11495.27     1000 
 1588000   0.41512598   -2.2974631   0.62206628   -1.6753968   0.13277957    11387.476     1000 
[...]
 2614000   0.38937915   -2.2754798   0.58348466   -1.6919952    0.1308106    11394.663     1000 
 2616000   0.41078942   -2.2500771   0.61556794   -1.6345092    0.1390877    11373.662     1000 
 2618000   0.40102489   -2.3236005   0.60093579   -1.7226648   0.13672288    11361.297     1000 
 2620000   0.39232404    -2.269094   0.58789757   -1.6811965   0.13392942    11431.902     1000 
 2622000   0.40648301    -2.255621   0.60911479   -1.6465062   0.14658022     11296.44     1000 
 2624000   0.40719939   -2.3234358   0.61018829   -1.7132476   0.12799393    11496.617     1000 
 2626000   0.38227649   -2.2931644   0.57284132   -1.7203231   0.14419126    11329.674     1000 
 2628000   0.40958094   -2.3151574   0.61375703   -1.7014003   0.13205206     11534.42     1000 
 2630000   0.39585355   -2.2864699   0.59318654   -1.6932834   0.12940392    11459.889     1000 
 2632000   0.38958592   -2.3174779   0.58379451   -1.7336834   0.13244581    11459.064     1000 
 2634000   0.39962601   -2.2569848   0.59883958   -1.6581452   0.13979146    11320.005     1000 
 2636000   0.38925444    -2.298923   0.58329777   -1.7156253   0.12193501    11536.541     1000 
 2638000   0.43066857   -2.3086767   0.64535686   -1.6633199    0.1377104    11528.549     1000 
 2640000   0.41375026   -2.3112657   0.62000476   -1.6912609     0.129095    11468.256     1000 
 2642000   0.42348866   -2.3005913   0.63459776   -1.6659935   0.12939192    11487.419     1000 
 2644000   0.40432806   -2.3660509    0.6058856   -1.7601653    0.1243109    11552.122     1000 
 2646000   0.39829296   -2.3003406   0.59684199   -1.7034986   0.13478153    11426.368     1000 
 2648000   0.39822791   -2.2849246   0.59674453     -1.68818   0.12891535     11415.39     1000 
 2650000   0.39525613   -2.2695032   0.59229132   -1.6772119   0.12934583    11527.699     1000 
 2652000   0.36780927   -2.3068306    0.5511622   -1.7556684   0.11787526    11514.052     1000 
 2654000   0.39556106   -2.2783305   0.59274825   -1.6855823   0.13168038    11431.197     1000 
 2656000   0.40117261   -2.3094944   0.60115715   -1.7083373   0.12923145    11535.413     1000 
 2658000   0.39889231   -2.3179159   0.59774013   -1.7201757   0.13056037    11470.571     1000 
 2660000   0.40046438   -2.3013309   0.60009587    -1.701235   0.11826485    11572.889     1000 
 2662000   0.39700532   -2.2686574   0.59491248   -1.6737449   0.13697548    11378.543     1000 
 2664000   0.39807993   -2.2922421   0.59652278   -1.6957193   0.13467898    11373.513     1000 
 2666000   0.39229388   -2.3248161   0.58785238   -1.7369637    0.1363478    11506.001     1000 
 2668000   0.40461244   -2.2917684   0.60631174   -1.6854566   0.14233942    11361.243     1000 
 2670000   0.40633398   -2.2606107   0.60889147   -1.6517192   0.12849626    11481.013     1000 
 2672000   0.41885142   -2.3099159   0.62764886   -1.6822671   0.12370917    11493.544     1000 
 2674000   0.39787754   -2.3143023   0.59621949   -1.7180829   0.12998366     11419.34     1000 
 2676000   0.38496655   -2.3064169   0.57687237   -1.7295445    0.1401641    11282.635     1000 
 2678000   0.38589426   -2.2580386   0.57826255    -1.679776   0.14222822    11453.655     1000 
 2680000   0.40653889   -2.2507825   0.60919852    -1.641584   0.13356144    11417.871     1000 
 2682000   0.40259094   -2.2948525   0.60328252     -1.69157   0.12959414    11475.167     1000 
 2684000   0.40464658   -2.2926013    0.6063629   -1.6862384   0.11846545      11579.4     1000 
 2686000   0.39097791   -2.2712249   0.58588039   -1.6853445   0.11894056    11559.679     1000 
 2688000   0.39552879   -2.3065478   0.59269989   -1.7138479    0.1224559    11548.655     1000 
 2690000   0.41308248    -2.265648   0.61900409   -1.6466439   0.13531253    11383.174     1000 
 2692000   0.41418825   -2.2849053   0.62066109   -1.6642442   0.13218946    11382.952     1000 
 2694000   0.37942768   -2.2888378   0.56857238   -1.7202654   0.12879614    11522.329     1000 
 2696000   0.40504206   -2.3126459   0.60695552   -1.7056903   0.13927672    11472.512     1000 
 2698000   0.40287678   -2.3258246   0.60371086   -1.7221138   0.13842181    11446.551     1000 
 2700000   0.38159394   -2.3254854   0.57181852   -1.7536668   0.11949301    11618.211     1000 
 2702000   0.42420272    -2.295861   0.63566777   -1.6601932   0.13363572    11489.181     1000 
 2704000   0.40354178   -2.2808085   0.60470736   -1.6761012   0.13678824     11395.02     1000 
 2706000   0.41328801   -2.3241402   0.61931208   -1.7048281    0.1247955    11518.903     1000 
 2708000   0.37436155   -2.3232323   0.56098079   -1.7622515   0.11300278    11583.401     1000 
 2710000   0.39106325   -2.3079448   0.58600829   -1.7219365   0.12402194    11556.232     1000 
 2712000   0.39427512   -2.3133053   0.59082127   -1.7224841   0.11149654     11569.02     1000 
 2714000   0.41117578   -2.3087532    0.6161469   -1.6926063   0.14366474    11321.146     1000 
 2716000   0.39585617   -2.3105056   0.59319047   -1.7173152   0.12978909    11464.504     1000 
 2718000   0.41107671   -2.2428304   0.61599845    -1.626832   0.13496047    11388.948     1000 
 2720000   0.39384278   -2.3205443   0.59017341   -1.7303709   0.12947312    11490.271     1000 
 2722000   0.39781438   -2.2437956   0.59612484   -1.6476707   0.13195755    11369.797     1000 
 2724000   0.41286605    -2.355189   0.61867978   -1.7365093   0.13247166    11430.518     1000 
 2726000   0.40985384   -2.3240401   0.61416599   -1.7098741   0.12499702    11578.392     1000 
 2728000   0.39760911   -2.3323951   0.59581725   -1.7365778   0.13105066     11484.53     1000 
 2730000   0.39746837    -2.304985   0.59560635   -1.7093786   0.12900223    11492.024     1000 
 2732000   0.38808736   -2.2813756   0.58154891   -1.6998267   0.13186273     11393.78     1000 
 2734000   0.38646993   -2.2901971   0.57912519   -1.7110719   0.14211218    11349.331     1000 
 2736000   0.41138381   -2.3123666   0.61645864    -1.695908   0.13330567    11493.522     1000 
 2738000   0.41948875   -2.2493888   0.62860389   -1.6207849   0.12954114    11492.702     1000 
 2740000   0.41392923   -2.2994895   0.62027295   -1.6792165   0.14352559    11252.035     1000 
 2742000   0.38443056   -2.2954034   0.57606919   -1.7193343   0.12954702    11410.851     1000 
 2744000   0.42009741   -2.3022382   0.62951597   -1.6727222   0.14300112    11303.163     1000 
 2746000   0.41060222   -2.2924944   0.61528743   -1.6772069   0.13465633    11439.395     1000 
 2748000   0.40200531   -2.3040807   0.60240496   -1.7016757   0.13358162    11389.733     1000 
 2750000   0.40353265   -2.2557864   0.60469368   -1.6510928   0.12005434    11514.305     1000 
 2752000    0.3863641   -2.3188306    0.5789666    -1.739864   0.11692176    11580.111     1000 
 2754000   0.38162121    -2.292567   0.57185938   -1.7207077   0.13524937    11338.775     1000 
 2756000   0.40862955   -2.2785646   0.61233139   -1.6662332   0.14159511    11340.686     1000 
 2758000     0.409903     -2.27516   0.61423964   -1.6609204   0.13931857    11342.775     1000 
 2760000   0.38827093   -2.3073571   0.58182399   -1.7255331   0.13297216    11458.985     1000 
 2762000   0.38799464   -2.3262379   0.58140996    -1.744828   0.11786771    11517.903     1000 
 2764000   0.39621053   -2.3313409   0.59372149   -1.7376194   0.12252483    11582.934     1000 
 2766000   0.38947687   -2.2782869   0.58363109   -1.6946558   0.13865018    11393.458     1000 
 2768000   0.40482225   -2.3116611   0.60662615   -1.7050349    0.1278466    11447.246     1000 
 2770000   0.38828947   -2.2788907   0.58185176    -1.697039   0.14525482    11327.608     1000 
 2772000   0.39257514   -2.3018323   0.58827385   -1.7135585   0.13356994    11408.134     1000 
 2774000   0.40380339   -2.3067589   0.60509939   -1.7016595   0.13109397    11479.891     1000 
 2776000   0.40655369   -2.2994416   0.60922071   -1.6902209   0.12344939    11471.467     1000 
 2778000   0.41754456   -2.3074947   0.62569052   -1.6818042   0.13360729    11500.854     1000 
 2780000   0.39850323    -2.256354   0.59715709   -1.6591969   0.13540318    11312.496     1000 
 2782000    0.3954478   -2.2615021   0.59257853   -1.6689235   0.12985501    11453.997     1000 
 2784000   0.40221156   -2.3139747   0.60271402   -1.7112607   0.12937896    11510.973     1000 
 2786000   0.41654599   -2.3143376   0.62419416   -1.6901435   0.13738627    11344.646     1000 
 2788000   0.39266062   -2.2467815   0.58840194   -1.6583796   0.12186517    11509.638     1000 
 2790000    0.4172983   -2.2680736    0.6253215   -1.6427521   0.13397713    11396.119     1000 
 2792000   0.38214077   -2.2961747   0.57263795   -1.7235367   0.13114996    11481.163     1000 
 2794000   0.39213918   -2.3148214   0.58762056   -1.7272009   0.12776916    11492.216     1000 
 2796000   0.38683455   -2.3123468   0.57967157   -1.7326752   0.12557782    11490.029     1000 
 2798000   0.38330935   -2.2940682   0.57438907   -1.7196792   0.11929385     11523.79     1000 
 2800000    0.4074124   -2.2855253   0.61050748   -1.6750179   0.13320902    11618.751     1000 
 2802000   0.39053569   -2.2755654   0.58521774   -1.6903477   0.13337097    11410.504     1000 
 2804000    0.4212534   -2.3472494   0.63124822   -1.7160012   0.13265564    11517.332     1000 
 2806000   0.43191829    -2.297658   0.64722956   -1.6504285   0.12829656    11590.073     1000 
 2808000   0.40283076   -2.3207239    0.6036419    -1.717082   0.12688694    11559.105     1000 
 2810000   0.40579475   -2.2764856   0.60808344   -1.6684021   0.13301689     11472.42     1000 
 2812000   0.41509766   -2.3165234   0.62202384   -1.6944996   0.12497109    11473.668     1000 
 2814000   0.39469317   -2.2852456   0.59144772   -1.6937979   0.13144026    11441.268     1000 
 2816000   0.41130742   -2.3149213   0.61634418   -1.6985771   0.13647303    11524.968     1000 
 2818000   0.37510923   -2.2825241   0.56210118   -1.7204229   0.12729638    11452.851     1000 
 2820000   0.39617307   -2.2619533   0.59366535   -1.6682879   0.12940051    11452.762     1000 
 2822000   0.38973386   -2.3117604   0.58401619   -1.7277442   0.12213918    11486.155     1000 
 2824000   0.39728962   -2.2940386    0.5953385   -1.6987001    0.1232923    11471.937     1000 
 2826000   0.38866183   -2.2991928   0.58240975   -1.7167831   0.12535006    11415.776     1000 
 2828000    0.4154613   -2.2754547   0.62256876    -1.652886   0.13562216    11342.508     1000 
 2830000   0.38291852   -2.2909939   0.57380341   -1.7171905    0.1333596    11397.671     1000 
 2832000   0.39525408   -2.2958117   0.59228823   -1.7035234   0.14640458    11400.347     1000 
 2834000   0.39138214   -2.2436727   0.58648613   -1.6571866    0.1282438    11480.248     1000 
 2836000   0.39145582    -2.318511   0.58659654   -1.7319145   0.12884653    11531.073     1000 
 2838000   0.40583789   -2.2833293   0.60814807   -1.6751812   0.12678467    11548.948     1000 
 2840000   0.38968297   -2.2931081   0.58393994   -1.7091682   0.14348232    11362.726     1000 
 2842000   0.41523262   -2.2967885   0.62222608   -1.6745624   0.14435889    11380.429     1000 
 2844000   0.40550993   -2.2761006   0.60765662    -1.668444   0.14642389    11291.629     1000 
 2846000   0.41424105   -2.2992658   0.62074021   -1.6785256   0.13270302     11376.78     1000 
 2848000    0.4005603   -2.2705261   0.60023961   -1.6702865    0.1400894    11432.501     1000 
 2850000   0.39696483   -2.2742112    0.5948518   -1.6793594   0.13037338    11491.957     1000 
 2852000   0.40962502   -2.3222604   0.61382309   -1.7084373   0.11513051    11610.629     1000 
 2854000   0.39963994   -2.2762012   0.59886045   -1.6773407   0.12899714    11451.966     1000 
 2856000   0.39449168    -2.279952   0.59114578   -1.6888063     0.124992    11383.774     1000 
 2858000   0.39685463   -2.3229971   0.59468667   -1.7283104   0.12285228    11493.035     1000 
 2860000   0.38602473   -2.3118265   0.57845806   -1.7333685    0.1225824    11394.516     1000 
 2862000   0.40483859   -2.3271924   0.60665062   -1.7205417   0.12408768    11602.962     1000 
 2864000     0.399461   -2.3023137   0.59859231   -1.7037214    0.1265893    11552.835     1000 
 2866000   0.41441204   -2.2584792   0.62099645   -1.6374828   0.12761319    11398.421     1000 
 2868000    0.4110626   -2.2945343    0.6159773    -1.678557   0.13571548    11510.184     1000 
 2870000   0.40074932   -2.3240151   0.60052286   -1.7234923   0.14256654    11410.359     1000 
 2872000    0.3962391    -2.290897    0.5937643   -1.6971327   0.13247908    11460.236     1000 
 2874000   0.39236002   -2.3041985    0.5879515    -1.716247   0.14028302    11324.411     1000 
 2876000   0.40296914   -2.2609649   0.60384926   -1.6571156   0.12734499    11447.376     1000 
 2878000   0.41635855   -2.3014918   0.62391329   -1.6775785    0.1335253    11440.768     1000 
 2880000   0.38160518    -2.304169   0.57183536   -1.7323337   0.12033204     11602.81     1000 
 2882000   0.37834789   -2.3130125   0.56695431   -1.7460582   0.12069765    11517.635     1000 
 2884000   0.40498487   -2.2521754   0.60686983   -1.6453056   0.14508363    11291.984     1000 
 2886000   0.38916681   -2.3065133   0.58316646   -1.7233468   0.13739285    11432.546     1000 
 2888000   0.39684931   -2.2685408   0.59467869   -1.6738621   0.13059314    11426.073     1000 
 2890000   0.40365447   -2.3264371   0.60487623   -1.7215609   0.11853615    11544.847     1000 
 2892000   0.39859753   -2.3248349    0.5972984   -1.7275365   0.12993236    11589.632     1000 
 2894000   0.38947786   -2.2733501   0.58363257   -1.6897176   0.12192954    11481.601     1000 
 2896000   0.40704626   -2.2635694   0.60995882   -1.6536106   0.12287077    11487.945     1000 
 2898000    0.3810363   -2.2899859   0.57098289    -1.719003   0.11578774    11642.522     1000 
 2900000   0.37436831   -2.3127763   0.56099091   -1.7517854   0.12328389    11475.781     1000 
 2902000   0.39902106   -2.2794582   0.59793305   -1.6815252   0.11709401    11520.676     1000 
 2904000   0.40970285   -2.3336969   0.61393973   -1.7197572   0.12873426    11577.977     1000 
 2906000   0.37666247   -2.3057652   0.56442871   -1.7413364    0.1383575    11363.207     1000 
 2908000   0.40436479   -2.3155331   0.60594064   -1.7095925   0.13218715    11472.547     1000 
 2910000   0.39400092   -2.3319197   0.59041037   -1.7415093   0.12153939    11509.118     1000 
 2912000   0.39895423   -2.3109323   0.59783292   -1.7130993   0.13817461    11283.958     1000 
 2914000   0.40963414   -2.3144794   0.61383675   -1.7006426   0.15074691    11339.683     1000 
 2916000   0.41054884   -2.3186713   0.61520744   -1.7034638   0.12299093    11594.167     1000 
 2918000   0.39984833   -2.2638554   0.59917272   -1.6646827   0.12473277    11421.677     1000 
 2920000   0.40017171   -2.2873007   0.59965731   -1.6876434   0.13052648    11376.058     1000 
 2922000   0.40045386   -2.3157052   0.60008011   -1.7156251   0.13794222    11443.493     1000 
 2924000   0.41429705   -2.3256239   0.62082413   -1.7047998   0.13491918    11411.891     1000 
 2926000   0.39639139    -2.273682    0.5939925   -1.6796895   0.12768831    11400.828     1000 
 2928000   0.39136494   -2.3065175   0.58646036   -1.7200572   0.11495154    11603.625     1000 
 2930000   0.39002311   -2.3003693   0.58444963   -1.7159197   0.13859178    11346.619     1000 
 2932000   0.41544907   -2.2872392   0.62255043   -1.6646888   0.14451974    11376.016     1000 
 2934000   0.39555341   -2.3254159   0.59273679   -1.7326791   0.11784459     11548.31     1000 
 2936000   0.39887681   -2.3191329    0.5977169    -1.721416   0.13689826    11365.888     1000 
 2938000     0.395015   -2.3103647   0.59192997   -1.7184347   0.12918369    11539.015     1000 
 2940000   0.40298959   -2.3067123   0.60387989   -1.7028324   0.11873869    11654.087     1000 
 2942000   0.41712894   -2.2372161   0.62506771   -1.6121484   0.14267038    11299.306     1000 
 2944000   0.39321213   -2.2480651   0.58922838   -1.6588367    0.1347424    11363.089     1000 
 2946000   0.39542411   -2.2996008   0.59254303   -1.7070578   0.11999729    11492.933     1000 
 2948000   0.40270752   -2.2962029   0.60345721   -1.6927457   0.13352646    11383.389     1000 
 2950000    0.3881202   -2.2850537   0.58159812   -1.7034556   0.12814023    11410.323     1000 
 2952000   0.40056352   -2.3165571   0.60024443   -1.7163127    0.1344513    11467.741     1000 
 2954000   0.41742455   -2.2877584   0.62551068   -1.6622477   0.12269413     11484.35     1000 
 2956000   0.39579435   -2.2904009   0.59309783    -1.697303   0.13619013    11374.657     1000 
 2958000   0.40153811   -2.3480371   0.60170486   -1.7463322   0.13125145    11468.519     1000 
 2960000   0.40417368   -2.3347991   0.60565426   -1.7291449   0.12951211    11434.906     1000 
 2962000    0.4022321   -2.2590764    0.6027448   -1.6563316   0.12661935    11512.088     1000 
 2964000   0.39305019   -2.2745781   0.58898571   -1.6855924   0.11955068    11543.012     1000 
 2966000   0.39908673   -2.2866853   0.59803147   -1.6886539   0.13998825    11432.343     1000 
 2968000   0.40493716   -2.3155971   0.60679834   -1.7087988   0.12639265    11468.717     1000 
 2970000   0.40798966   -2.2859711    0.6113725   -1.6745986   0.12718398    11526.461     1000 
 2972000   0.41449972   -2.2997318   0.62112783    -1.678604   0.12275047    11488.872     1000 
 2974000   0.40480865   -2.2924299   0.60660576   -1.6858241   0.14350992    11436.656     1000 
 2976000   0.40221939   -2.3125066   0.60272575   -1.7097808   0.12306356    11563.247     1000 
 2978000   0.41955476   -2.3248964    0.6287028   -1.6961936   0.13242611     11520.41     1000 
 2980000   0.38317514    -2.231001   0.57418795   -1.6568131   0.13506578    11266.434     1000 
 2982000   0.40648394   -2.2968219   0.60911618   -1.6877057   0.13772956    11458.698     1000 
 2984000    0.3904821   -2.3452111   0.58513742   -1.7600737   0.11958092     11629.23     1000 
 2986000   0.39798489   -2.2501084   0.59638036    -1.653728   0.13792072    11397.768     1000 
 2988000   0.39435373    -2.330937   0.59093906   -1.7399979   0.12795252    11635.678     1000 
 2990000   0.39653164   -2.2949743   0.59420267   -1.7007716   0.13634568    11381.008     1000 
 2992000   0.41237208   -2.3201842   0.61793956   -1.7022447   0.13415572    11440.579     1000 
 2994000   0.37903958   -2.3341455   0.56799081   -1.7661547   0.12526272    11546.567     1000 
 2996000    0.3973144   -2.3258929   0.59537562   -1.7305173   0.11940304    11406.923     1000 
 2998000   0.38261816    -2.312033   0.57335332   -1.7386797   0.12551356    11478.511     1000 
 3000000   0.40555388   -2.2920135   0.60772249    -1.684291   0.12930911    11434.319     1000 
Loop time of 2098.98 on 1 procs for 3000000 steps with 1000 atoms

Performance: 617441.400 tau/day, 1429.262 timesteps/s
100.0% CPU use with 1 MPI tasks x 1 OpenMP threads

MPI task timing breakdown:
Section |  min time  |  avg time  |  max time  |%varavg| %total
---------------------------------------------------------------
Pair    | 1708.5     | 1708.5     | 1708.5     |   0.0 | 81.40
Neigh   | 205.52     | 205.52     | 205.52     |   0.0 |  9.79
Comm    | 42.295     | 42.295     | 42.295     |   0.0 |  2.02
Output  | 0.045571   | 0.045571   | 0.045571   |   0.0 |  0.00
Modify  | 134.61     | 134.61     | 134.61     |   0.0 |  6.41
Other   |            | 7.978      |            |       |  0.38

Nlocal:        1000.00 ave        1000 max        1000 min
Histogram: 1 0 0 0 0 0 0 0 0 0
Nghost:        2187.00 ave        2187 max        2187 min
Histogram: 1 0 0 0 0 0 0 0 0 0
Neighs:        27570.0 ave       27570 max       27570 min
Histogram: 1 0 0 0 0 0 0 0 0 0

Total # of neighbors = 27570
Ave neighs/atom = 27.570000
Neighbor list builds = 150000
Dangerous builds not checked

Total wall time: 0:34:59
