LAMMPS (29 Sep 2021 - Update 2)
OMP_NUM_THREADS environment is not set. Defaulting to 1 thread. (src/comm.cpp:98)
  using 1 OpenMP thread(s) per MPI task
# ----------------------- Inicialização -----------------------

units			lj
atom_style 		atomic
dimension 		3
boundary 		p p p

# -------------------- Criação dos Átomos ---------------------

read_data 		topologia.txt
Reading data file ...
  orthogonal box = (0.0000000 0.0000000 0.0000000) to (21.540000 21.540000 21.540000)
  1 by 1 by 1 MPI processor grid
  reading atoms ...
  1000 atoms
  read_data CPU = 0.002 seconds

velocity 		all create ${temp} 87287 rot yes dist gaussian
velocity 		all create 0.75 87287 rot yes dist gaussian

# ------------------ Interação Interatômica -------------------

pair_style		table linear 1000
pair_coeff		1 1 force.table AA 5.0
WARNING: 2 of 1000 force values in table AA are inconsistent with -dE/dr.
WARNING:  Should only be flagged at inflection points (src/pair_table.cpp:465)
pair_coeff		1 2 force.table AB 5.0
WARNING: 1 of 1000 force values in table AB are inconsistent with -dE/dr.
WARNING:  Should only be flagged at inflection points (src/pair_table.cpp:465)
pair_coeff		2 2 force.table BB 5.0
pair_write		1 1 1000 r 0.008 5.0 table.check AA
Appending to table file table.check with DATE: 2023-07-11
Neighbor list info ...
  update every 1 steps, delay 10 steps, check yes
  max neighbors/atom: 2000, page size: 100000
  master list distance cutoff = 5.3
  ghost atom cutoff = 5.3
  binsize = 2.65, bins = 9 9 9
  1 neighbor lists, perpetual/occasional/extra = 1 0 0
  (1) pair table, perpetual
      attributes: half, newton on
      pair build: half/bin/atomonly/newton
      stencil: half/bin/3d
      bin: standard
pair_write		1 2 1000 r 0.008 5.0 table.check AB
Appending to table file table.check with DATE: 2023-07-11
pair_write		2 2 1000 r 0.008 5.0 table.check BB
Appending to table file table.check with DATE: 2023-07-11

neighbor 		0.3 bin
neigh_modify		every 20 delay 0 check no

# ------------------------- Ensemble --------------------------------------

fix 1			all npt temp ${temp} ${temp} 0.5 iso ${press} ${press} 5
fix 1			all npt temp 0.75 ${temp} 0.5 iso ${press} ${press} 5
fix 1			all npt temp 0.75 0.75 0.5 iso ${press} ${press} 5
fix 1			all npt temp 0.75 0.75 0.5 iso 0.13 ${press} 5
fix 1			all npt temp 0.75 0.75 0.5 iso 0.13 0.13 5

# ---------------------- Função de Distribuição Radial -----------------------

#compute RDF 		all rdf 2000 1 1 1 2 2 2
#fix 2 			all ave/time 1 2000 2000 c_RDF[*] file rdf.data mode vector

# ------------------------- Execução ---------------------------

timestep 		0.005
thermo_style		custom step temp pe ke etotal press vol atoms
thermo			2000
run			3000000
Per MPI rank memory allocation (min/avg/max) = 2.670 | 2.670 | 2.670 Mbytes
Step Temp PotEng KinEng TotEng Press Volume Atoms 
       0         0.75  -0.45247388     1.123875   0.67140112   0.46567364    9993.9483     1000 
    2000   0.73256962   -1.4504177    1.0977556  -0.35266212   0.13148806     11855.61     1000 
    4000   0.77534237   -1.4353338    1.1618505  -0.27348324   0.13235734    11828.647     1000 
    6000   0.75691394   -1.4387891    1.1342355  -0.30455353   0.13207774    11845.601     1000 
    8000   0.72208321   -1.4807091    1.0820417  -0.39866738   0.12986095     12052.18     1000 
   10000   0.75803299   -1.3994331    1.1359124  -0.26352063   0.13631035     11913.77     1000 
   12000   0.71096995    -1.468559    1.0653885  -0.40317057   0.11241071    12385.133     1000 
   14000   0.77118906   -1.4336882    1.1556268  -0.27806144   0.12380065    12066.679     1000 
   16000   0.72191956   -1.4227863    1.0817965  -0.34098989   0.13421292    11934.792     1000 
   18000   0.73745415   -1.4488592     1.105075  -0.34378417   0.12027309    11969.719     1000 
   20000   0.77374641   -1.4119347     1.159459  -0.25247572    0.1328696    11910.864     1000 
   22000   0.74767049   -1.4205783    1.1203842  -0.30019407   0.12733797    11905.167     1000 
   24000   0.77699731   -1.4343089    1.1643305   -0.2699784   0.12850317    11996.184     1000 
   26000   0.72732336   -1.4333251    1.0898941  -0.34343108   0.12861851    12221.689     1000 
   28000   0.76781572   -1.4486358    1.1505719    -0.298064   0.12689326    12029.218     1000 
   30000   0.74866398   -1.4639315     1.121873  -0.34205857    0.1255975    11755.132     1000 
   32000   0.74679405   -1.4637679    1.1190709  -0.34469701   0.12387883    12043.892     1000 
   34000   0.75395467   -1.4534692    1.1298011  -0.32366814   0.13411145    11902.238     1000 
   36000   0.75374225   -1.3892802    1.1294828  -0.25979746   0.12413363    11959.968     1000 
   38000   0.78387928   -1.4491871    1.1746431  -0.27454398    0.1380772    11873.001     1000 
   40000   0.75071191   -1.4507141    1.1249418   -0.3257723    0.1271244    12017.574     1000 
   42000   0.72567441   -1.4180644    1.0874231  -0.33064129    0.1238509    11818.074     1000 
   44000   0.74734187   -1.4611427    1.1198918  -0.34125093   0.13079874    11984.476     1000 
   46000   0.79123372   -1.4895648    1.1856637  -0.30390103   0.12184696    12155.006     1000 
   48000   0.72186531   -1.4387762    1.0817152  -0.35706106   0.12378765    12056.445     1000 
   50000   0.77100892   -1.3732341    1.1553569  -0.21787724   0.14092324    11770.383     1000 
   52000   0.74417174   -1.4159126    1.1151414   -0.3007712   0.12229868    12157.473     1000 
   54000     0.759247   -1.4418678    1.1377316  -0.30413621   0.12328407    11936.057     1000 
   56000   0.74366818   -1.5005141    1.1143868  -0.38612734    0.1346362    11819.063     1000 
   58000   0.73553616   -1.5255202    1.1022009  -0.42331923   0.12895096    11946.818     1000 
   60000   0.74583168   -1.4843636    1.1176288   -0.3667348   0.12641626    12056.946     1000 
   62000   0.73329501   -1.4421078    1.0988426  -0.34326519   0.13378513    11876.819     1000 
   64000   0.74694729   -1.4660943    1.1193005  -0.34679377   0.12806262    12167.906     1000 
   66000   0.76970937   -1.4008889    1.1534095  -0.24747937   0.14551424     11810.35     1000 
   68000   0.75897129   -1.3754917    1.1373185   -0.2381732    0.1282465    11787.532     1000 
   70000   0.73364698   -1.3829705      1.09937  -0.28360048   0.12979883    12285.952     1000 
   72000    0.7596313   -1.3865102    1.1383075  -0.24820268   0.12383504    12118.657     1000 
   74000   0.75885747   -1.4608586    1.1371479   -0.3237107   0.14340969    11830.927     1000 
   76000   0.74078428   -1.4232338    1.1100652  -0.31316858   0.14024541     11846.03     1000 
   78000   0.73939255    -1.483001    1.1079797   -0.3750213   0.12125232    12356.136     1000 
   80000   0.74569822    -1.462173    1.1174288  -0.34474417   0.13599007    11951.303     1000 
   82000   0.72965915   -1.4659725    1.0933942  -0.37257829    0.1333429    11917.746     1000 
   84000   0.75410251   -1.4707513    1.1300226   -0.3407287   0.12420078    11999.935     1000 
   86000   0.71535348   -1.4792091    1.0719572  -0.40725189   0.11299038    12324.649     1000 
   88000   0.78132006   -1.4330905    1.1708081  -0.26228242   0.13923475    11832.416     1000 
   90000   0.75377852   -1.4115165    1.1295371   -0.2819794   0.13888841    11901.862     1000 
   92000   0.74237612   -1.4600863    1.1124506  -0.34763573   0.13831676    11894.468     1000 
   94000   0.76933419     -1.43048    1.1528473  -0.27763271   0.12305549    12114.608     1000 
   96000   0.75010662   -1.4513398    1.1240348    -0.327305   0.13132397    11990.338     1000 
   98000     0.779323   -1.4595711    1.1678155  -0.29175555   0.13314413    11894.037     1000 
  100000   0.74151036   -1.4497799    1.1111533  -0.33862665     0.128999    12018.088     1000 
  102000   0.72005266   -1.4949285    1.0789989   -0.4159296   0.11429697    12238.331     1000 
  104000    0.7370002   -1.4825404    1.1043948  -0.37814558   0.12871634    12129.667     1000 
  106000   0.70725127   -1.4213603     1.059816  -0.36154431   0.12500102    12046.874     1000 
  108000    0.7605627   -1.4787218    1.1397032  -0.33901857    0.1370662    11859.788     1000 
  110000   0.79636844    -1.429181    1.1933581  -0.23582288   0.13429696    12126.735     1000 
  112000   0.74937954   -1.4999915    1.1229452  -0.37704622   0.13195287    11948.757     1000 
  114000   0.70670371   -1.4636646    1.0589955  -0.40466907   0.12134519     11920.31     1000 
  116000   0.75732552   -1.4080067    1.1348523  -0.27315441   0.13822704    11900.559     1000 
  118000   0.77181251   -1.4358644    1.1565611  -0.27930335   0.13187161    12202.458     1000 
  120000   0.74029746   -1.4671462    1.1093357  -0.35781051     0.135715    11915.122     1000 
  122000   0.74987164   -1.3888917    1.1236827  -0.26520907   0.13133983    11916.555     1000 
  124000   0.71062345   -1.4445738    1.0648692  -0.37970458     0.124303    11967.262     1000 
  126000   0.76900251    -1.434084    1.1523503  -0.28173378   0.12666231    11952.549     1000 
  128000   0.75989164   -1.4444416    1.1386976    -0.305744   0.13841034    11989.449     1000 
  130000   0.78360399   -1.4701214    1.1742306  -0.29589084    0.1296215    12150.441     1000 
  132000   0.71193712   -1.4240946    1.0668378   -0.3572568   0.12939848    11955.766     1000 
  134000   0.76491803    -1.500963    1.1462297  -0.35473329   0.13117251    12081.169     1000 
  136000   0.75847644    -1.445585     1.136577  -0.30900807   0.14025325    11787.978     1000 
  138000    0.7612785   -1.4626864    1.1407758  -0.32191054   0.12577539    11980.231     1000 
  140000   0.72868485   -1.4344567    1.0919342  -0.34252249   0.12015407    12055.931     1000 
  142000   0.75293388   -1.4795055    1.1282714  -0.35123409   0.11791944    12206.485     1000 
  144000   0.76300868   -1.4278504    1.1433685  -0.28448185   0.13556457    12107.219     1000 
  146000   0.72801457   -1.4261614    1.0909298  -0.33523159    0.1337743    11856.271     1000 
  148000   0.76142575   -1.4646966    1.1409965  -0.32370015   0.12454721    11987.744     1000 
  150000   0.73208674   -1.4448954     1.097032  -0.34786342   0.12492973    12036.645     1000 
  152000   0.77276337   -1.4825377    1.1579859  -0.32455175   0.12135204    12310.404     1000 
  154000   0.74363642   -1.4792144    1.1143392  -0.36487525   0.12953289    12017.357     1000 
  156000   0.74424209   -1.4681594    1.1152468  -0.35291263   0.12266695    12029.191     1000 
  158000   0.76396445   -1.4336464    1.1448007  -0.28884565   0.13677639    11875.574     1000 
  160000   0.74939072   -1.4493045     1.122962  -0.32634252   0.13563875    11813.705     1000 
  162000    0.7516728   -1.4327809    1.1263817  -0.30639917   0.12508747    12075.885     1000 
  164000   0.76016012   -1.4499763    1.1390999   -0.3108764    0.1323707    11839.304     1000 
  166000   0.74358428   -1.4728679     1.114261  -0.35860685    0.1199935    12114.761     1000 
  168000   0.76614264     -1.42108    1.1480647  -0.27301525   0.13824526    12075.237     1000 
  170000   0.69623379   -1.4161123    1.0433063  -0.37280595   0.13038131    11909.327     1000 
  172000   0.74360306   -1.4410832    1.1142892  -0.32679406    0.1333007    11902.003     1000 
  174000   0.76800184   -1.4409495    1.1508508  -0.29009873   0.15317345    11553.844     1000 
  176000    0.7566949   -1.4873799    1.1339073  -0.35347262   0.13863009    12135.107     1000 
  178000   0.74661867    -1.468491    1.1188081  -0.34968294   0.13160312    11951.809     1000 
  180000   0.71541007   -1.3437087     1.072042  -0.27166668   0.13134267    12009.407     1000 
  182000   0.74902477   -1.4927545    1.1224136  -0.37034092   0.12738206    12022.963     1000 
  184000   0.72899067   -1.4522395    1.0923925  -0.35984696   0.12424569    12219.903     1000 
  186000   0.77407765   -1.4058872    1.1599554  -0.24593184   0.12800262    12052.123     1000 
  188000    0.7197198   -1.3906059    1.0785001  -0.31210575   0.13031408    11846.881     1000 
  190000   0.74921057   -1.4257248     1.122692  -0.30303273   0.12132866    12257.264     1000 
  192000   0.76213294   -1.4250766    1.1420562  -0.28302037   0.13508884    11880.311     1000 
  194000    0.7301212    -1.430251    1.0940866  -0.33616433   0.13072747    11949.949     1000 
  196000   0.74331071   -1.4363297    1.1138511  -0.32247865   0.12720051    12104.319     1000 
  198000   0.75846491   -1.4102012    1.1365597  -0.27364155   0.14183617     11890.41     1000 
  200000   0.77891769   -1.4214139    1.1672082  -0.25420576   0.12506527    12230.286     1000 
  202000   0.76095242   -1.4658259    1.1402872   -0.3255387   0.13649322    11800.969     1000 
  204000   0.74125872   -1.4619487    1.1107762  -0.35117252   0.12568019     11899.65     1000 
  206000   0.77667474   -1.4828969    1.1638471  -0.31904983   0.13162952    12055.095     1000 
  208000   0.76204382   -1.4190377    1.1419227  -0.27711506   0.11806177    12076.385     1000 
  210000    0.7489217    -1.430254    1.1222592  -0.30799483   0.12646567     11702.88     1000 
  212000   0.74606889     -1.48194    1.1179842  -0.36395579   0.11941265    12182.893     1000 
  214000   0.75203396   -1.4129232    1.1269229  -0.28600033   0.13898913    11968.281     1000 
  216000   0.75300201   -1.5205271    1.1283735  -0.39215361    0.1288481     11927.53     1000 
  218000   0.78232576   -1.3682764    1.1723151  -0.19596127   0.12063732    11952.278     1000 
  220000   0.74867376    -1.509107    1.1218876   -0.3872194   0.12864935    11869.799     1000 
  222000   0.75299216   -1.4318587    1.1283587  -0.30349996   0.12390717    11945.521     1000 
  224000   0.73332177   -1.5422421    1.0988827  -0.44335944   0.13058602    12045.474     1000 
  226000   0.77546838   -1.4700996    1.1620394  -0.30806029   0.12432108    12161.309     1000 
  228000    0.7228437    -1.426189    1.0831813  -0.34300775   0.13236985    11863.319     1000 
  230000   0.75193518    -1.450719    1.1267749  -0.32394418   0.13332785    12136.832     1000 
  232000   0.72996336   -1.4485389    1.0938501  -0.35468882    0.1211712    12116.719     1000 
  234000   0.73886272    -1.451607    1.1071858  -0.34442123   0.12323066     12057.06     1000 
  236000   0.73378661   -1.4554372    1.0995792  -0.35585797   0.15193919    11736.531     1000 
  238000   0.75501621    -1.410362    1.1313918  -0.27897018   0.13178711    11985.101     1000 
  240000    0.7328372   -1.3980838    1.0981565  -0.29992725    0.1411319    11710.723     1000 
  242000   0.75361634    -1.450015    1.1292941  -0.32072089   0.13886866    11888.101     1000 
  244000   0.74670461   -1.4920438    1.1189369  -0.37310691   0.12509361    11801.535     1000 
  246000   0.74434903   -1.4069141     1.115407  -0.29150704   0.13278318    11928.807     1000 
  248000   0.73061937   -1.4064388    1.0948331  -0.31160563   0.11851885    12242.893     1000 
  250000   0.75428008   -1.4104276    1.1302887  -0.28013886   0.12653595    11850.324     1000 
  252000   0.76569633   -1.4346214     1.147396  -0.28722546   0.12312293    11988.352     1000 
  254000   0.77949918   -1.4174937    1.1680795  -0.24941421    0.1313869    12171.189     1000 
  256000    0.7617874   -1.5127411    1.1415384  -0.37120265   0.11908383    12085.423     1000 
  258000   0.76417092   -1.5334312    1.1451101  -0.38832103   0.12608444    12118.881     1000 
  260000   0.77264173   -1.4535831    1.1578036  -0.29577945   0.12136146    11986.979     1000 
  262000   0.75308986   -1.4401129    1.1285052  -0.31160771   0.12709182    11912.649     1000 
  264000   0.78874141   -1.4038342     1.181929  -0.22190523   0.14541458    11842.142     1000 
  266000   0.76438475   -1.4994664    1.1454305  -0.35403585   0.13074688    12117.973     1000 
  268000   0.74361626   -1.4170186     1.114309  -0.30270969   0.13603989    11958.233     1000 
  270000   0.75618479   -1.4184496    1.1331429   -0.2853067   0.13206855    11930.368     1000 
  272000   0.76054487   -1.4349051    1.1396765  -0.29522857   0.12053866    12055.558     1000 
  274000   0.74019717   -1.4702239    1.1091855   -0.3610384    0.1386991    11925.995     1000 
  276000   0.72903021   -1.4327871    1.0924518  -0.34033529   0.12554141     12039.63     1000 
  278000   0.73153624   -1.4259912     1.096207  -0.32978419   0.13840382    11877.522     1000 
  280000   0.79066531   -1.5490331     1.184812  -0.36422112   0.13525823    11877.416     1000 
  282000   0.76810235   -1.4281309    1.1510014  -0.27712951   0.12863692    11929.036     1000 
  284000   0.73711224   -1.4640897    1.1045627  -0.35952702   0.13554552    11966.364     1000 
  286000   0.74416538   -1.4326802    1.1151318  -0.31754837   0.12784185    12104.532     1000 
  288000   0.72560788   -1.4491975    1.0873234  -0.36187412   0.13231837    11685.808     1000 
  290000   0.76011339   -1.4783128    1.1390299  -0.33928287   0.12204396    12175.212     1000 
  292000   0.80776202    -1.516204    1.2104314  -0.30577259   0.13840013    11866.785     1000 
  294000   0.73076089   -1.4681752    1.0950452  -0.37313005   0.13348227    11878.405     1000 
  296000   0.75041805   -1.4312612    1.1245014  -0.30675974   0.13787172     11683.95     1000 
  298000    0.7354348   -1.4940607    1.1020491  -0.39201161   0.12821749    12063.201     1000 
  300000     0.723314   -1.4326867     1.083886  -0.34880067   0.11952256    12124.833     1000 
  302000   0.72267037   -1.3925438    1.0829215  -0.30962225   0.12581227    11986.039     1000 
  304000   0.74166593   -1.4382722    1.1113864  -0.32688578   0.13401984    11784.954     1000 
  306000   0.75014985   -1.4590187    1.1240996  -0.33491917   0.12733599    12081.344     1000 
  308000   0.74630179   -1.4269808    1.1183332  -0.30864752   0.12679738    11973.034     1000 
  310000   0.73284234   -1.5325135    1.0981642  -0.43434924   0.12003188    12045.702     1000 
  312000   0.74803247   -1.4779494    1.1209267  -0.35702276   0.12501793    12178.116     1000 
  314000   0.79285081   -1.4161487    1.1880869  -0.22806174   0.13611166     11882.69     1000 
  316000   0.74726855   -1.4561295    1.1197819  -0.33634755   0.12662889    11885.151     1000 
  318000   0.75751119   -1.4864768    1.1351305  -0.35134626   0.12742193    12014.027     1000 
  320000   0.74324075   -1.4325976    1.1137463  -0.31885136     0.131963    11921.771     1000 
  322000   0.75557388    -1.483938    1.1322275  -0.35171052   0.12921436    11873.848     1000 
  324000   0.74290633   -1.4554893    1.1132451  -0.34224419   0.12506451     12074.53     1000 
  326000   0.75829089   -1.4255461    1.1362989  -0.28924724   0.13906809    11867.079     1000 
  328000   0.76856398   -1.4357067    1.1516931  -0.28401361   0.12315804    12154.405     1000 
  330000   0.73763838   -1.4141588    1.1053511   -0.3088077   0.14340647    11685.862     1000 
  332000   0.74279469   -1.4341482    1.1130778  -0.32107037   0.14285265    11907.914     1000 
  334000   0.74057136   -1.4643665    1.1097462  -0.35462035   0.13101348    11903.268     1000 
  336000   0.73642822   -1.4894605    1.1035377   -0.3859228      0.13715    11717.879     1000 
  338000   0.73170708   -1.4932536    1.0964631  -0.39679058   0.12056317    12172.522     1000 
  340000   0.72140819   -1.4580851    1.0810302  -0.37705495   0.12426595    12042.538     1000 
  342000   0.70760666   -1.4768903    1.0603486  -0.41654177   0.13188773    11862.385     1000 
  344000    0.7618821   -1.4155702    1.1416803  -0.27388982   0.10982997    12241.562     1000 
  346000   0.74253871     -1.49445    1.1126943  -0.38175571   0.12501747    11951.476     1000 
  348000   0.72261428   -1.4583413    1.0828375  -0.37550377   0.13167723    12119.478     1000 
  350000    0.7450792   -1.4260919    1.1165012   -0.3095907   0.13894349    11726.588     1000 
  352000    0.7983883   -1.4451696    1.1963849   -0.2487847   0.14120482    11955.119     1000 
  354000   0.75600126   -1.4615809    1.1328679  -0.32871304   0.12905273     11910.59     1000 
  356000   0.74930333    -1.430564     1.122831  -0.30773295    0.1522663    11740.466     1000 
  358000   0.75192861   -1.5086936     1.126765  -0.38192861   0.13428743    12000.391     1000 
  360000   0.74799975   -1.4518927    1.1208776  -0.33101504   0.13177214    11975.677     1000 
  362000   0.74683565   -1.4518176    1.1191332   -0.3326844   0.12414251    12163.286     1000 
  364000   0.71463418   -1.4046344    1.0708793  -0.33375511   0.12345811    11947.577     1000 
  366000   0.77258135   -1.4689815    1.1577132  -0.31126838   0.14001623    11965.026     1000 
  368000   0.75162852   -1.4625827    1.1263153  -0.33626739   0.13434281    11920.817     1000 
  370000   0.77744429   -1.4324971    1.1650003  -0.26749687   0.14069554    11856.953     1000 
  372000   0.75185443   -1.4354206    1.1266539  -0.30876677   0.13362288    11916.344     1000 
  374000   0.75539137   -1.4595206     1.131954  -0.32756663   0.11614813     12422.75     1000 
  376000   0.74015194   -1.4536061    1.1091177   -0.3444884   0.12920527    11936.727     1000 
  378000   0.76453806   -1.4593093    1.1456603    -0.313649   0.13244457    12148.572     1000 
  380000   0.73180968   -1.4852436    1.0966168  -0.38862681   0.12318095    12086.073     1000 
  382000   0.77048614    -1.475207    1.1545735  -0.32063355   0.11699393    12269.932     1000 
  384000   0.78484391   -1.4055087    1.1760886  -0.22942014   0.13826438    11877.017     1000 
  386000   0.72019221    -1.439529     1.079208  -0.36032093   0.12523808    12116.846     1000 
  388000    0.8067911   -1.4789155    1.2089765  -0.26993908   0.13061401    12010.926     1000 
  390000   0.74138104   -1.4420705    1.1109595  -0.33111099   0.12294727    11986.468     1000 
  392000   0.77330406    -1.422547    1.1587961  -0.26375089    0.1319322    11975.465     1000 
  394000   0.72578983   -1.4447677    1.0875961  -0.35717164   0.13091485    11842.743     1000 
  396000   0.72637731   -1.4172687    1.0884764  -0.32879227   0.13079752    12174.619     1000 
  398000   0.75739614   -1.4420391    1.1349581  -0.30708098   0.13988318    11783.339     1000 
  400000   0.74285815   -1.4269756    1.1131729  -0.31380268   0.13640064     11964.86     1000 
  402000   0.71823829   -1.4418176    1.0762801  -0.36553752   0.11984692    12147.697     1000 
  404000   0.73277802   -1.4389188    1.0980679  -0.34085095   0.13346878    12030.567     1000 
  406000   0.72183097   -1.4747887    1.0816637  -0.39312503   0.12612934    12098.411     1000 
  408000   0.75808881   -1.4110392    1.1359961  -0.27504308   0.12777213     11830.76     1000 
  410000    0.7603363    -1.426094    1.1393639  -0.28673002   0.13439238    11873.728     1000 
  412000   0.75706205   -1.3936287    1.1344575   -0.2591712   0.13052181    12004.971     1000 
  414000   0.74166385   -1.4476724    1.1113833  -0.33628911   0.11287943    12359.354     1000 
  416000   0.75098044   -1.4614685    1.1253442  -0.33612435   0.12069598    11960.069     1000 
  418000   0.77959659    -1.441217    1.1682255  -0.27299148   0.11775075    12354.117     1000 
  420000   0.74197061   -1.4460603     1.111843  -0.33421735   0.12881343    12042.231     1000 
  422000   0.75678929   -1.4149785    1.1340487  -0.28092975   0.13378882     11965.45     1000 
  424000    0.7130052   -1.4593633    1.0684383  -0.39092501   0.12433265    12000.199     1000 
  426000   0.72698717   -1.4453127    1.0893903  -0.35592246   0.13797824    11873.872     1000 
  428000   0.74613372    -1.436935    1.1180814  -0.31885365   0.12533328    11910.792     1000 
  430000   0.72589335   -1.4285507    1.0877512  -0.34079947   0.12556197    11951.799     1000 
  432000   0.74086488   -1.4110768     1.110186   -0.3008908   0.12276865    12012.399     1000 
  434000   0.76933418   -1.4539983    1.1528473  -0.30115107   0.14823586    11700.958     1000 
  436000   0.72699075   -1.4678575    1.0893956  -0.37846181   0.12565577    11976.239     1000 
  438000   0.73807229   -1.4755263    1.1060013  -0.36952495   0.13853519    11680.753     1000 
  440000   0.76099576   -1.5371511    1.1403521  -0.39679898   0.11927116    12221.988     1000 
  442000   0.77271115   -1.4807914    1.1579077  -0.32288375   0.13131166    11962.876     1000 
  444000   0.74802035   -1.4095414    1.1209085  -0.28863295    0.1397084    11911.292     1000 
  446000   0.75618825   -1.4829584    1.1331481  -0.34981034   0.13561222    11794.657     1000 
  448000   0.73125313   -1.4546163    1.0957828  -0.35883346    0.1163286    12064.397     1000 
  450000   0.73437121   -1.4530618    1.1004553  -0.35260652   0.13132154    11794.531     1000 
  452000   0.72621223   -1.4620208     1.088229  -0.37379174   0.13081143        11942     1000 
  454000   0.76855427    -1.482951    1.1516786  -0.33127247   0.12468213    12161.676     1000 
  456000   0.78760519   -1.4797106    1.1802264   -0.2994842   0.13637501    11921.079     1000 
  458000   0.82574264   -1.4259782    1.2373753  -0.18860283   0.12651675    11983.606     1000 
  460000   0.74909016   -1.4676236    1.1225116  -0.34511199   0.13286258    11841.747     1000 
  462000   0.75799711   -1.5104128    1.1358587  -0.37455409   0.13481333    12015.541     1000 
  464000   0.75814614    -1.493259     1.136082  -0.35717704   0.14231644    11886.919     1000 
  466000   0.76372945   -1.4611839    1.1444486  -0.31673528    0.1235502    12093.425     1000 
  468000   0.77560026   -1.4293952     1.162237  -0.26715818   0.12921283    12188.269     1000 
  470000   0.74607769   -1.4698143    1.1179974  -0.35181692   0.13795209    11976.479     1000 
  472000   0.75042054   -1.4564592    1.1245052  -0.33195399   0.13122665     12083.21     1000 
  474000   0.71362545   -1.4384502    1.0693677  -0.36908246   0.13594231    11779.552     1000 
  476000   0.74797855   -1.4639749    1.1208459  -0.34312906   0.13178524    11963.185     1000 
  478000   0.76012728    -1.467184    1.1390507  -0.32813331   0.13125246    12095.934     1000 
  480000   0.75422716   -1.4680846    1.1302094  -0.33787518   0.12701128    12007.142     1000 
  482000   0.74855856   -1.3999036     1.121715   -0.2781886   0.12777524    11907.559     1000 
  484000    0.7380557   -1.4043396    1.1059765  -0.29836314   0.12135346    12067.066     1000 
  486000   0.75519639   -1.3952449    1.1316618  -0.26358306   0.12809347     12145.25     1000 
  488000   0.74655275   -1.4723535    1.1187093  -0.35364419   0.13035355    12045.093     1000 
  490000   0.75587005   -1.4990537    1.1326713  -0.36638239   0.12746249    12041.588     1000 
  492000     0.735308   -1.4091069     1.101859  -0.30724783   0.13748593    11825.841     1000 
  494000   0.75756461   -1.4669921    1.1352106  -0.33178158   0.12810498    11855.019     1000 
  496000   0.74376802   -1.4381893    1.1145364  -0.32365289   0.14033742    11944.856     1000 
  498000   0.75965585   -1.4659174    1.1383443  -0.32757311   0.13962685     11848.85     1000 
  500000   0.74111819   -1.5088153    1.1105656  -0.39824968   0.13285455    11882.462     1000 
  502000   0.74822386   -1.4820424    1.1212134  -0.36082898   0.12443143    12156.066     1000 
  504000   0.73703851    -1.498361    1.1044522  -0.39390876   0.12758253    12088.659     1000 
  506000   0.76378473   -1.4291418    1.1445314  -0.28461039   0.13126268    12100.438     1000 
  508000   0.78727043   -1.4442617    1.1797247  -0.26453694    0.1343918     11875.44     1000 
  510000   0.77431959    -1.471833    1.1603179  -0.31151508   0.11713546    12456.009     1000 
  512000   0.74335039   -1.5222299    1.1139106  -0.40831937   0.13700461    11784.864     1000 
  514000   0.74346755   -1.4758588    1.1140861   -0.3617727   0.12097895    12101.336     1000 
  516000   0.73723017   -1.4766547    1.1047394  -0.37191533   0.11941373    12183.613     1000 
  518000   0.74360534   -1.4583394    1.1142926  -0.34404677   0.13023605    11921.125     1000 
  520000   0.77483723    -1.400482    1.1610936   -0.2393884   0.13301761    12308.126     1000 
  522000   0.72869825   -1.4401994    1.0919543  -0.34824511   0.12876304    11930.212     1000 
  524000   0.77507404   -1.4707038    1.1614485  -0.30925539   0.13529742    11870.353     1000 
  526000    0.7441696   -1.4484294    1.1151381  -0.33329124    0.1380225    11864.141     1000 
  528000   0.69145966   -1.4220358    1.0361523  -0.38588354   0.13012558    11949.374     1000 
  530000   0.74559477   -1.3938251    1.1172738  -0.27655132   0.13720888    12082.547     1000 
  532000   0.74482457   -1.4383604    1.1161196  -0.32224077   0.13349234    11775.164     1000 
  534000   0.76693137   -1.3957004    1.1492467  -0.24645371   0.11689416    12034.982     1000 
  536000   0.77074877   -1.3981611     1.154967  -0.24319408   0.13933498    11886.268     1000 
  538000   0.74418954    -1.435854     1.115168  -0.32068595     0.127185    12062.891     1000 
  540000   0.75971183   -1.4972291    1.1384282  -0.35880088   0.11910754     12039.05     1000 
  542000   0.72839983   -1.4378465    1.0915071  -0.34633941   0.11827847    12210.187     1000 
  544000   0.74684845   -1.4782429    1.1191524  -0.35909053   0.12778561    12082.076     1000 
  546000   0.74750797   -1.4419005    1.1201407  -0.32175981   0.13936305    11791.492     1000 
  548000   0.75188073   -1.4535261    1.1266933  -0.32683283    0.1345877     12044.05     1000 
  550000   0.75962881   -1.4661438    1.1383038  -0.32784007   0.12555437    12131.151     1000 
  552000   0.75122036   -1.4329401    1.1257037  -0.30723637   0.12099047    12173.036     1000 
  554000   0.71314324   -1.5065457    1.0686451   -0.4379006   0.11427692    12165.366     1000 
  556000   0.73265958   -1.4607648    1.0978904  -0.36287441   0.12131541    11687.616     1000 
  558000   0.74967187    -1.465952    1.1233833  -0.34256869   0.12727626    11991.795     1000 
  560000   0.72919377    -1.418659    1.0926969  -0.32596215   0.12807555    11857.597     1000 
  562000   0.74209999   -1.4554093    1.1120368  -0.34337246   0.14054222    11910.119     1000 
  564000   0.72307598   -1.3965956    1.0835294  -0.31306628    0.1226598    12102.506     1000 
  566000   0.74465279   -1.4835486    1.1158622  -0.36768643   0.12255026    12071.497     1000 
  568000   0.74958904    -1.448123    1.1232592  -0.32486377   0.13181702    11780.936     1000 
  570000   0.75959518   -1.4092103    1.1382534  -0.27095689   0.11376039    12134.081     1000 
  572000   0.73202665   -1.4350034    1.0969419  -0.33806142   0.12877812    12173.159     1000 
  574000   0.76912362   -1.4663911    1.1525317   -0.3138594    0.1235453    12076.624     1000 
  576000    0.7452819   -1.4536543    1.1168049  -0.33684936   0.13671535        12071     1000 
  578000   0.75459206   -1.4753992    1.1307562  -0.34464302   0.13404655    12006.353     1000 
  580000   0.75778338   -1.4217417    1.1355384  -0.28620327   0.13722609    11861.738     1000 
  582000    0.7135512    -1.440253    1.0692565  -0.37099647   0.12245821    11904.841     1000 
  584000   0.76352789   -1.4067068    1.1441465  -0.26256025   0.13717913    11992.411     1000 
  586000   0.74327791   -1.4233191    1.1138019  -0.30951713   0.14741184    11594.191     1000 
  588000    0.7547144   -1.4671361    1.1309395  -0.33619655   0.12309739    12156.722     1000 
  590000   0.76002137   -1.4510948     1.138892  -0.31220277   0.12900053    12080.353     1000 
  592000   0.74457781   -1.4565967    1.1157499  -0.34084685   0.12117486     12120.67     1000 
  594000   0.72282642   -1.4368142    1.0831554  -0.35365885   0.13017242    11893.717     1000 
  596000    0.7463627    -1.428073    1.1184245  -0.30964847   0.12453361    12060.388     1000 
  598000   0.76416804   -1.4785411    1.1451058  -0.33343525   0.13308199    12113.596     1000 
  600000   0.74929824   -1.4563218    1.1228234  -0.33349837    0.1294029     12211.02     1000 
  602000   0.74552488   -1.4092994     1.117169  -0.29213036   0.13259496    12116.076     1000 
  604000   0.73587973   -1.3939492    1.1027158  -0.29123347   0.13047542    11829.042     1000 
  606000   0.72995377    -1.416768    1.0938357  -0.32293227   0.12331412    11881.783     1000 
  608000   0.77328313    -1.458552    1.1587648  -0.29978725   0.14394396    11818.236     1000 
  610000   0.74867787   -1.3825077    1.1218938  -0.26061393   0.12833496    12068.527     1000 
  612000    0.7652843   -1.4467746    1.1467785  -0.29999605   0.13277462    11981.939     1000 
  614000   0.74294302   -1.4850824    1.1133001  -0.37178225   0.13129032     12051.11     1000 
  616000   0.74371091   -1.4376412    1.1144508  -0.32319042   0.11171285    12163.323     1000 
  618000   0.77277799   -1.4230924    1.1580078  -0.26508462   0.12440667    12017.532     1000 
  620000   0.76136203   -1.3517522     1.140901  -0.21085117    0.1423721    11918.859     1000 
  622000   0.76476553   -1.4253935    1.1460011  -0.27939233   0.13397398    11933.664     1000 
  624000   0.72836823   -1.4981144    1.0914598  -0.40665463   0.13728013    11887.173     1000 
  626000   0.74634869   -1.4641065    1.1184035  -0.34570304   0.13041633    12098.364     1000 
  628000   0.75953463   -1.5112439    1.1381626  -0.37308126   0.12768719    11872.832     1000 
  630000   0.72510352   -1.4544919    1.0865676  -0.36792432   0.12069899    11989.255     1000 
  632000    0.7499914    -1.465965    1.1238621  -0.34210291   0.14271083    11908.215     1000 
  634000   0.73792804   -1.4232009    1.1057852  -0.31741577    0.1336314     11745.21     1000 
  636000   0.75380246   -1.4546794     1.129573  -0.32510644   0.12256539    12006.629     1000 
  638000    0.7564737   -1.4664453    1.1335758  -0.33286948    0.1311403    12024.398     1000 
  640000   0.72010872   -1.4212651    1.0790829  -0.34218216   0.12282899    12123.406     1000 
  642000   0.77848073   -1.4304159    1.1665534  -0.26386254   0.13594662    11790.877     1000 
  644000    0.7623389   -1.4319014    1.1423648   -0.2895366   0.12694399    12090.692     1000 
  646000   0.73808311    -1.408573    1.1060175  -0.30255544   0.14646712    11740.861     1000 
  648000   0.76470411    -1.435525    1.1459091  -0.28961589   0.12926001    12119.641     1000 
  650000   0.75372431   -1.4741889    1.1294559  -0.34473299   0.12749121    12064.945     1000 
  652000   0.75003559   -1.5002002    1.1239283  -0.37627185   0.13160454    12067.754     1000 
  654000   0.77803885   -1.3902849    1.1658912  -0.22439366   0.14546739    11877.219     1000 
  656000   0.76231075   -1.3707387    1.1423227  -0.22841609   0.13241128    12116.076     1000 
  658000   0.72842886   -1.4601149    1.0915506  -0.36856426   0.13308145    12162.106     1000 
  660000   0.76921852   -1.4159144     1.152674  -0.26324042   0.13405662    12040.958     1000 
  662000    0.7483218   -1.4618053    1.1213602  -0.34044507   0.12036642    12380.118     1000 
  664000   0.70360855   -1.4546522    1.0543574  -0.40029481   0.13484112    11859.658     1000 
  666000   0.76345779     -1.48134    1.1440415  -0.33729846   0.12394365    12039.136     1000 
  668000   0.74162055    -1.477483    1.1113184  -0.36616456   0.13540277     12071.04     1000 
  670000   0.77451228   -1.3965401    1.1606066  -0.23593345   0.14447033    11872.547     1000 
  672000   0.77386749   -1.4642028    1.1596404  -0.30456241   0.12712337    11936.756     1000 
  674000   0.79226945   -1.4554038    1.1872158    -0.268188   0.13945137     11926.15     1000 
  676000   0.73826657   -1.4810507    1.1062925  -0.37475822   0.12377259    11988.181     1000 
  678000   0.75683155   -1.4752545    1.1341121   -0.3411424   0.13192167    12001.257     1000 
  680000   0.74164143   -1.4772041    1.1113497  -0.36585441   0.12941772    11840.944     1000 
  682000   0.75784582   -1.4257956     1.135632  -0.29016366   0.13350576     11889.55     1000 
  684000   0.77216275   -1.4149268    1.1570859  -0.25784092   0.13468879    12035.153     1000 
  686000   0.75601229   -1.3973513    1.1328844  -0.26446685    0.1281112     12103.78     1000 
  688000   0.74897184   -1.4090876    1.1223343  -0.28675327   0.12307305    11872.921     1000 
  690000   0.74898786   -1.4433396    1.1223583  -0.32098131   0.13749885    11894.069     1000 
  692000   0.72747246   -1.4656871    1.0901175  -0.37556959   0.11901876    12097.759     1000 
  694000     0.764181   -1.5019026    1.1451252  -0.35677741   0.13153802    12186.104     1000 
  696000   0.75306724   -1.3962296    1.1284713  -0.26775834   0.13362713    12036.152     1000 
  698000   0.76342576   -1.4352097    1.1439935  -0.29121621   0.12855101    12080.941     1000 
  700000   0.71463351   -1.4826437    1.0708783   -0.4117654   0.12545242    12038.502     1000 
  702000   0.75899145   -1.4759893    1.1373487  -0.33864062   0.14373583     11870.87     1000 
  704000   0.76056432   -1.4324267    1.1397056  -0.29272106   0.12865225    11821.926     1000 
  706000   0.72937127   -1.3879861    1.0929629  -0.29502326   0.13079647    12003.892     1000 
  708000   0.74738994   -1.4811896    1.1199638  -0.36122581    0.1254142    12147.477     1000 
  710000   0.77701039   -1.4435426    1.1643501  -0.27919257   0.13011674    12010.193     1000 
  712000   0.74599623   -1.4699666    1.1178753  -0.35209128   0.12270143    12213.572     1000 
  714000   0.75086211   -1.4238212    1.1251669  -0.29865428   0.13425071     11857.89     1000 
  716000    0.7648275   -1.4803116     1.146094  -0.33421756   0.12557107    11903.575     1000 
  718000   0.75255826   -1.4488128    1.1277086  -0.32110428   0.13011809    12096.116     1000 
  720000   0.73549013   -1.3902023     1.102132  -0.28807035   0.13493134    11821.276     1000 
  722000   0.75988481   -1.4872264    1.1386874  -0.34853903   0.13238171    12064.516     1000 
  724000   0.75966021   -1.4678607    1.1383508  -0.32950989    0.1172484    12359.446     1000 
  726000   0.76126748   -1.4432476    1.1407593   -0.3024883   0.14382121    11820.222     1000 
  728000    0.7855715   -1.4102065    1.1771789  -0.23302759   0.13086446    12020.958     1000 
  730000   0.79586516   -1.4488023    1.1926039  -0.25619837   0.13451859    11886.485     1000 
  732000   0.72141104   -1.4502293    1.0810344  -0.36919482   0.14531481    12040.203     1000 
  734000   0.73236198   -1.4122116    1.0974444  -0.31476718   0.13957445     11793.85     1000 
  736000   0.74042348   -1.4503329    1.1095246  -0.34080834   0.12087927    12066.581     1000 
  738000   0.75437335   -1.4138761    1.1304285  -0.28344759   0.13575222    11832.869     1000 
  740000   0.77925466   -1.4738203    1.1677131  -0.30610721   0.12515605    12059.485     1000 
  742000   0.75861581   -1.4156102    1.1367858  -0.27882443   0.12943635    11877.579     1000 
  744000   0.76531661   -1.4236248    1.1468269   -0.2767979   0.13312346    11843.289     1000 
  746000   0.75790087   -1.4396473    1.1357144  -0.30393287   0.13920427    11849.307     1000 
  748000   0.73375843   -1.4914843     1.099537  -0.39194726   0.12991313    11995.072     1000 
  750000   0.75414507     -1.44019    1.1300864  -0.31010364   0.12097556      12229.2     1000 
  752000   0.77432649      -1.4465    1.1603282  -0.28617175   0.14032105    11872.236     1000 
  754000   0.75153938   -1.4926346    1.1261818  -0.36645279    0.1322817    11923.359     1000 
  756000   0.76168235   -1.4610929     1.141381  -0.31971193   0.12898502    11918.587     1000 
  758000   0.74821732   -1.4162804    1.1212037  -0.29507674   0.13798345    11720.016     1000 
  760000   0.75434896   -1.4915171    1.1303919   -0.3611252   0.12993559    12109.415     1000 
  762000   0.71060801   -1.4900299    1.0648461  -0.42518383   0.11810552    11932.113     1000 
  764000   0.75146106   -1.4371945    1.1260644  -0.31113009   0.12766658    12101.536     1000 
  766000   0.75867812   -1.4726914    1.1368792  -0.33581224    0.1205587    12078.476     1000 
  768000   0.75517704   -1.3778433    1.1316328  -0.24621048   0.14672857    11591.328     1000 
  770000    0.7796517   -1.5034876    1.1683081  -0.33517948   0.12696751    12081.429     1000 
  772000   0.77826225   -1.4592943     1.166226  -0.29306828   0.12890542    11989.084     1000 
  774000   0.74523733   -1.4336738    1.1167381  -0.31693561   0.12494502    11888.789     1000 
  776000    0.7775079   -1.3673473    1.1650956  -0.20225177   0.12727562    11941.423     1000 
  778000   0.76948872   -1.4573065    1.1530788   -0.3042277   0.14231212    11658.371     1000 
  780000   0.75668419   -1.4132391    1.1338913  -0.27934783    0.1314678    11932.206     1000 
  782000   0.75068775   -1.4258755    1.1249056  -0.30096995   0.13330195    11931.815     1000 
  784000   0.76235489   -1.4589368    1.1423888  -0.31654802   0.12501511    12171.276     1000 
  786000   0.76931427   -1.4536741    1.1528174  -0.30085672   0.14343456    11916.665     1000 
  788000   0.76986273   -1.4590537    1.1536393  -0.30541436    0.1434538    11827.548     1000 
  790000   0.77598087   -1.4091038    1.1628073  -0.24629647   0.13692919    12058.389     1000 
  792000   0.72769129   -1.4734147    1.0904454  -0.38296929     0.123325    12006.064     1000 
  794000   0.75963271   -1.3955818    1.1383096  -0.25727214   0.12979993    11747.646     1000 
  796000   0.73003192   -1.4526203    1.0939528  -0.35866746   0.12587409    12043.557     1000 
  798000   0.79231496   -1.4681391     1.187284  -0.28085513   0.13400979    12133.821     1000 
  800000   0.74662379   -1.4386173    1.1188158  -0.31980154   0.12715469     11996.73     1000 
  802000   0.74955412   -1.4621888    1.1232069  -0.33898198   0.13019879    11866.292     1000 
  804000   0.72183038   -1.4553257    1.0816628  -0.37366289   0.13008679    12124.229     1000 
  806000   0.76811511   -1.4849834    1.1510205  -0.33396286   0.13360049    12045.871     1000 
  808000   0.76445017   -1.4977457    1.1455286  -0.35221714   0.12632275     12006.55     1000 
  810000   0.73801633   -1.4541847    1.1059175  -0.34826726   0.12730222    12099.351     1000 
  812000    0.7914728   -1.4227223     1.186022  -0.23670027   0.13444336    11796.288     1000 
  814000   0.74548924   -1.4655269    1.1171156  -0.34841124   0.12414241    12104.811     1000 
  816000   0.71977917   -1.4602033    1.0785891  -0.38161418   0.13221453    11908.323     1000 
  818000    0.7544929   -1.4431543    1.1306076  -0.31254665   0.12167367    12288.982     1000 
  820000   0.75724949   -1.3949015    1.1347384  -0.26016315    0.1330862    12074.798     1000 
  822000   0.76565409   -1.4683221    1.1473327  -0.32098948    0.1338164     11997.44     1000 
  824000   0.74350591    -1.453033    1.1141436  -0.33888935   0.12628912    12055.711     1000 
  826000   0.74471302   -1.4543061    1.1159525  -0.33835363   0.13213031     11960.86     1000 
  828000   0.72557146   -1.4276319    1.0872688  -0.34036306   0.12654249    11938.773     1000 
  830000   0.75831995   -1.4795943    1.1363425  -0.34325184    0.1352626    11981.639     1000 
  832000   0.75866021   -1.4850409    1.1368523  -0.34818856   0.12367408    12005.612     1000 
  834000    0.7633944   -1.4862415    1.1439465  -0.34229497   0.13226177    12004.041     1000 
  836000   0.76839254   -1.4091187    1.1514362  -0.25768246   0.12573635    12100.297     1000 
  838000   0.73015875   -1.4527148    1.0941429  -0.35857191   0.11395307    12079.262     1000 
  840000   0.77615668   -1.4178332    1.1630708  -0.25476241   0.12221937      12016.5     1000 
  842000   0.73585854   -1.4682598     1.102684  -0.36557572   0.12893584    12040.334     1000 
  844000   0.74955234   -1.4411175    1.1232042  -0.31791336   0.13923027    11944.169     1000 
  846000   0.76120103   -1.4325381    1.1406597  -0.29187835   0.11643547     12224.89     1000 
  848000    0.7380329   -1.3926306    1.1059423  -0.28668834   0.13136953    11959.166     1000 
  850000   0.76830289   -1.4836706    1.1513019  -0.33236877   0.13695598     11712.75     1000 
  852000   0.76391496   -1.4402615    1.1447266  -0.29553489    0.1313917    12014.054     1000 
  854000   0.74650268   -1.4628652    1.1186343   -0.3442309   0.11374501    12118.814     1000 
  856000   0.74707416   -1.3952926    1.1194906  -0.27580195   0.11343221    12298.308     1000 
  858000   0.75222628   -1.4443587    1.1272111  -0.31714761   0.14196847    11782.686     1000 
  860000   0.79039745    -1.466091    1.1844106  -0.28168045   0.12332217    12021.841     1000 
  862000   0.77248727   -1.4223558    1.1575722  -0.26478361   0.12388895    11879.281     1000 
  864000   0.75700265   -1.4145995    1.1343685  -0.28023098    0.1233483    11989.378     1000 
  866000   0.74249675   -1.4395133    1.1126314   -0.3268819   0.12622373    12009.701     1000 
  868000   0.77900826   -1.4614176    1.1673439  -0.29407373   0.13123547    11820.182     1000 
  870000   0.73699091   -1.4946616    1.1043809  -0.39028071   0.13046284     12111.83     1000 
  872000   0.77272267   -1.5021367    1.1579249  -0.34421178   0.13402391    12076.179     1000 
  874000   0.75492429   -1.4434701     1.131254  -0.31221604   0.14248682    11878.691     1000 
  876000   0.74710677   -1.4375988    1.1195395  -0.31805926   0.13193087    11897.618     1000 
  878000   0.72555068    -1.450119    1.0872377  -0.36288134   0.13179095     12186.62     1000 
  880000   0.74528506   -1.4331978    1.1168097  -0.31638811   0.12705142    12243.252     1000 
  882000   0.77279582   -1.4370189    1.1580345  -0.27898434   0.13722848    11929.049     1000 
  884000   0.75396204   -1.4395034    1.1298121  -0.30969125   0.12716707    11998.843     1000 
  886000   0.74541699    -1.452588    1.1170074  -0.33558062   0.12692228    12111.123     1000 
  888000   0.75288382   -1.4359638    1.1281964  -0.30776739   0.13229141    11941.304     1000 
  890000   0.72097289   -1.4746062    1.0803779  -0.39422837   0.12953763    11923.331     1000 
  892000   0.71289065   -1.4941829    1.0682666  -0.42591631    0.1311803    11988.081     1000 
  894000   0.74744208   -1.4117833     1.120042  -0.29174131   0.14228943    11894.073     1000 
  896000   0.74637896   -1.4243556    1.1184489  -0.30590671   0.13258581    12052.039     1000 
  898000   0.73777646   -1.4494371     1.105558  -0.34387905   0.13565287    11829.293     1000 
  900000   0.73106339   -1.4450174    1.0954985  -0.34951886    0.1238002    12079.074     1000 
  902000   0.79193347   -1.3606925    1.1867123  -0.17398025   0.12063313     12034.43     1000 
  904000    0.7758462   -1.3839046    1.1626055  -0.22129906   0.14517183    11847.206     1000 
  906000   0.77252443   -1.4218862    1.1576279   -0.2642583   0.11875491    12015.767     1000 
  908000   0.72705826   -1.3992951    1.0894968  -0.30979829    0.1255781    12115.446     1000 
  910000   0.77984737   -1.4211292    1.1686013  -0.25252788   0.14943511    11765.189     1000 
  912000   0.72999943   -1.4724822    1.0939041  -0.37857809   0.11877507    12153.428     1000 
  914000    0.7563774   -1.4220764    1.1334315  -0.28864482   0.13117512    11726.942     1000 
  916000   0.75198849   -1.4928499    1.1268548  -0.36599516   0.13517266     11842.23     1000 
  918000    0.7414179   -1.4861666    1.1110147  -0.37515184   0.12160871    12093.262     1000 
  920000    0.7549621   -1.4375983    1.1313107  -0.30628758      0.13994    11914.926     1000 
  922000   0.76277981   -1.4525954    1.1430256  -0.30956983   0.13340885    11878.687     1000 
  924000   0.72178152    -1.427036    1.0815896  -0.34544641   0.12615892    11931.905     1000 
  926000   0.72704543   -1.4874421    1.0894776  -0.39796453   0.11652362    12078.241     1000 
  928000   0.77513949   -1.4617953    1.1615465  -0.30024874   0.13364205    11973.993     1000 
  930000   0.72641535   -1.4202771    1.0885334  -0.33174373   0.14211414    11664.467     1000 
  932000   0.73196477   -1.4222883    1.0968492  -0.32543907   0.12099644    12088.568     1000 
  934000   0.71872184   -1.4516721    1.0770047  -0.37466743   0.13112009    12041.286     1000 
  936000   0.76267928   -1.4172126    1.1428749  -0.27433768   0.12793192    12032.144     1000 
  938000   0.76090595    -1.415028    1.1402176  -0.27481039   0.13862703    11754.614     1000 
  940000   0.75738009   -1.4284276    1.1349341  -0.29349354   0.13053879    12061.136     1000 
  942000   0.72722029   -1.4331649    1.0897396  -0.34342534   0.12306766    11827.735     1000 
  944000   0.75095218   -1.4720891    1.1253018  -0.34678729   0.12052763    12104.449     1000 
  946000   0.71690149   -1.4643224    1.0742769  -0.39004552    0.1279829     11883.62     1000 
  948000   0.73053189   -1.5136372     1.094702  -0.41893513   0.13505948    11941.431     1000 
  950000   0.73862049   -1.4970864    1.1068228   -0.3902636   0.14345798    11899.583     1000 
  952000   0.76782187   -1.5106122    1.1505811  -0.36003113   0.12900373    12210.747     1000 
  954000   0.73351675   -1.4137357    1.0991748  -0.31456086   0.12732275    11897.453     1000 
  956000     0.728625   -1.4512384    1.0918446  -0.35939385   0.12043914    11974.049     1000 
  958000   0.74807013   -1.4271215    1.1209831  -0.30613845   0.13560915    12128.446     1000 
  960000   0.76624295   -1.4821532    1.1482151  -0.33393817    0.1386092    11960.317     1000 
  962000   0.75773629   -1.4108878    1.1354678  -0.27541996   0.13315546    11870.045     1000 
  964000   0.75686117   -1.4632448    1.1341565  -0.32908833   0.11835051    12231.643     1000 
  966000   0.75799518   -1.4241379    1.1358558  -0.28828215   0.14845377    11678.804     1000 
  968000   0.74932051   -1.4955475    1.1228568   -0.3726907   0.13546403    11944.513     1000 
  970000   0.73584391   -1.4473373    1.1026621  -0.34467521   0.12204487    12133.861     1000 
  972000   0.75817421   -1.4388294    1.1361241  -0.30270539   0.12945589    11901.914     1000 
  974000   0.76445678   -1.4538766    1.1455385  -0.30833812   0.13468914    11883.436     1000 
  976000   0.76090846   -1.4825107    1.1402213  -0.34228933   0.13406984     12000.91     1000 
  978000   0.72867446   -1.4785436    1.0919187  -0.38662497   0.13237612    11846.937     1000 
  980000   0.75389091   -1.4796864    1.1297055  -0.34998084    0.1251608    12031.046     1000 
  982000   0.76180205   -1.4507526    1.1415604  -0.30919222   0.12173135    12084.075     1000 
  984000   0.74530939   -1.4884068    1.1168461  -0.37156067    0.1188978    12008.566     1000 
  986000   0.74926565   -1.4048549    1.1227746  -0.28208032   0.13102197    11956.667     1000 
  988000   0.77364287   -1.4244713    1.1593038  -0.26516744   0.13061539    11816.503     1000 
  990000   0.72640463   -1.4151853    1.0885173  -0.32666797   0.12416407    11956.022     1000 
  992000    0.7681523   -1.4467271    1.1510762  -0.29565092   0.13042931    11821.441     1000 
  994000   0.75893936    -1.440416    1.1372706  -0.30314535   0.13346614    11932.094     1000 
  996000   0.75262683   -1.4755091    1.1278113  -0.34769783   0.12615498    12128.248     1000 
  998000   0.72955622   -1.4646019      1.09324  -0.37136187   0.13436803    11791.334     1000 
 1000000    0.7507236   -1.4314331    1.1249593  -0.30647376   0.14109612    11858.002     1000 
 1002000   0.76019126   -1.4823343    1.1391466  -0.34318767   0.13075732    11939.856     1000 
 1004000   0.73948781   -1.4634488    1.1081225  -0.35532633   0.11866417    12202.753     1000 
 1006000   0.76606597   -1.4505473    1.1479499  -0.30259744   0.13954292    12051.663     1000 
 1008000   0.76790839   -1.4867752    1.1507107  -0.33606444   0.13769179    12238.098     1000 
 1010000   0.72961504    -1.462127    1.0933281  -0.36879891   0.12352915    12151.997     1000 
 1012000   0.77160646   -1.4456508    1.1562523  -0.28939848   0.14308325    11838.749     1000 
 1014000   0.74667307   -1.4174622    1.1188896  -0.29857261   0.13414472    11777.289     1000 
 1016000   0.77580097   -1.4432242    1.1625378  -0.28068641   0.12500818     12004.33     1000 
 1018000   0.71901117   -1.4183529    1.0774382  -0.34091464   0.12524448    11995.795     1000 
 1020000   0.74843846   -1.4373022     1.121535  -0.31576717   0.13733259    12030.086     1000 
 1022000   0.76745794   -1.3957394    1.1500357  -0.24570365   0.13634498     11958.46     1000 
 1024000   0.76368504   -1.4751633     1.144382  -0.33078129    0.1243485    11990.838     1000 
 1026000   0.74919185   -1.4514758     1.122664  -0.32881181   0.12918223     12109.72     1000 
 1028000   0.74811017   -1.4757751    1.1210431    -0.354732   0.12032824    11986.934     1000 
 1030000   0.74252016   -1.4627682    1.1126665  -0.35010175   0.14134935    11856.836     1000 
 1032000    0.7668937   -1.4359826    1.1491902  -0.28679242   0.12169724    12125.833     1000 
 1034000   0.74802101   -1.4338934    1.1209095  -0.31298397   0.12494998    11927.783     1000 
 1036000   0.75621558   -1.4574245     1.133189  -0.32423546   0.12606967    11971.572     1000 
 1038000   0.73634838   -1.4350474     1.103418  -0.33162936   0.11915902    12120.407     1000 
 1040000    0.7342958   -1.4521034    1.1003423  -0.35176119   0.12941359    11844.303     1000 
 1042000   0.74366274   -1.4365547    1.1143786  -0.32217608   0.13250066    11803.912     1000 
 1044000   0.74503617   -1.3874687    1.1164367  -0.27103197   0.13007643    12102.322     1000 
 1046000   0.74996303   -1.4248083    1.1238196  -0.30098872   0.13456336    11931.055     1000 
 1048000   0.77806398   -1.4193652    1.1659289  -0.25343633    0.1415182    11676.241     1000 
 1050000   0.77992108   -1.4144153    1.1687117   -0.2457036   0.12418964    11993.322     1000 
 1052000   0.74131136   -1.4420321    1.1108551  -0.33117701    0.1298188    11826.609     1000 
 1054000   0.73941194   -1.4307137    1.1080088   -0.3227049   0.13187036    12093.138     1000 
 1056000     0.736785   -1.4744325    1.1040723  -0.37036021   0.13923166    12018.098     1000 
 1058000   0.74561085   -1.4416142    1.1172979  -0.32431638   0.13640027    11752.233     1000 
 1060000   0.74793928   -1.4836053     1.120787  -0.36281829   0.12079683    12037.878     1000 
 1062000   0.76444791   -1.4303821    1.1455252  -0.28485695   0.12322121    12134.097     1000 
 1064000   0.77063445   -1.4474659    1.1547957  -0.29267022   0.12496109    12159.247     1000 
 1066000   0.73786565   -1.4403866    1.1056917  -0.33469497   0.11418028    12097.274     1000 
 1068000   0.72056418   -1.4700276    1.0797654  -0.39026213   0.11657612    12147.928     1000 
 1070000   0.76488259   -1.4125239    1.1461766  -0.26634737    0.1537753     11698.59     1000 
 1072000   0.73254407   -1.4662355    1.0977173  -0.36851827   0.13449446    11923.755     1000 
 1074000   0.76785423    -1.386899    1.1506296  -0.23626948   0.13221727    11981.949     1000 
 1076000   0.73866165    -1.485959    1.1068845  -0.37907455   0.12922971     12085.17     1000 
 1078000   0.75131527   -1.4114272    1.1258459  -0.28558124   0.13665284     11867.32     1000 
 1080000   0.77698784   -1.3872926    1.1643163   -0.2229763   0.13421143    12043.147     1000 
 1082000   0.76557217   -1.4241803    1.1472099  -0.27697045   0.13984135    11703.133     1000 
 1084000   0.74255156   -1.4443773    1.1127135  -0.33166383    0.1181652    12192.511     1000 
 1086000   0.76500701   -1.5194526     1.146363  -0.37308962   0.13356035    11949.142     1000 
 1088000   0.75897937   -1.4354879    1.1373306   -0.2981573   0.14074099    11941.915     1000 
 1090000   0.74464574   -1.4426476    1.1158516  -0.32679593    0.1398851    12092.765     1000 
 1092000   0.75562108   -1.5134276    1.1322982  -0.38112943   0.11972496    11992.727     1000 
 1094000   0.75740964   -1.4576377    1.1349783  -0.32265934   0.13018943    12038.548     1000 
 1096000   0.73795623   -1.4039544    1.1058274  -0.29812699    0.1285183    12008.254     1000 
 1098000   0.72771869   -1.4059569    1.0904865  -0.31547044   0.13305994     11795.06     1000 
 1100000   0.77879234   -1.4274194    1.1670203  -0.26039912   0.13263843    11973.401     1000 
 1102000   0.76870395   -1.4829132    1.1519029  -0.33101037   0.13374554    11889.052     1000 
 1104000   0.74317121   -1.3949383    1.1136421  -0.28129626   0.12683003    12043.829     1000 
 1106000   0.74664788    -1.437936    1.1188518  -0.31908412   0.12083984    12010.087     1000 
 1108000   0.74242429   -1.4567454    1.1125228  -0.34422265   0.12836989    11897.143     1000 
 1110000   0.77139012   -1.4291392    1.1559281   -0.2732111   0.14269453    11762.222     1000 
 1112000   0.71404814   -1.4616265    1.0700011  -0.39162534   0.12080829    12131.587     1000 
 1114000   0.74589466    -1.452992    1.1177232  -0.33526886   0.13526585    11757.175     1000 
 1116000   0.69514356   -1.4453569    1.0416726   -0.4036843   0.12843722    11933.578     1000 
 1118000   0.76424191   -1.4662979    1.1452165  -0.32108142   0.13513826     11933.59     1000 
 1120000   0.74490924   -1.4241263    1.1162465  -0.30787981   0.12835067    11884.679     1000 
 1122000   0.73936156   -1.4602509    1.1079333  -0.35231764   0.13194043    12092.451     1000 
 1124000   0.73566169   -1.4771366     1.102389  -0.37474759   0.13097023    11870.837     1000 
 1126000    0.7506944   -1.4334417    1.1249156  -0.30852618   0.12740169    12231.781     1000 
 1128000    0.7657387   -1.3830842    1.1474594  -0.23562476   0.13678774     11883.38     1000 
 1130000   0.74730418   -1.4849896    1.1198353  -0.36515431    0.1272536    12102.523     1000 
 1132000   0.73449957   -1.4319336    1.1006476    -0.331286   0.13091776    11906.429     1000 
 1134000   0.76494635   -1.4201537    1.1462721  -0.27388161   0.12857033    12005.907     1000 
 1136000   0.75941116   -1.4328955    1.1379776  -0.29491792   0.13409427    12060.134     1000 
 1138000    0.7760095   -1.4220895    1.1628502  -0.25923924   0.12294999    12035.471     1000 
 1140000   0.71993992   -1.4462599      1.07883  -0.36742992   0.13928324     11637.76     1000 
 1142000   0.74367818   -1.4375852    1.1144018  -0.32318343   0.12622712    12012.293     1000 
 1144000   0.77721491   -1.4402931    1.1646565  -0.27563659   0.13995206    11675.688     1000 
 1146000   0.74928878   -1.4076677    1.1228092  -0.28485843   0.12310041     12084.07     1000 
 1148000   0.72725556   -1.4539497    1.0897924  -0.36415727   0.13337487     11813.69     1000 
 1150000    0.7699442   -1.4258996    1.1537614  -0.27213826   0.13222571    12062.571     1000 
 1152000   0.75750876    -1.466578    1.1351269  -0.33145111   0.13375874    11822.737     1000 
 1154000   0.74352895   -1.4792692    1.1141781  -0.36509112   0.12697735    11995.848     1000 
 1156000   0.75607128   -1.4754987    1.1329728  -0.34252588   0.11885245    11996.045     1000 
 1158000    0.7385066   -1.4337193    1.1066521  -0.32706716   0.12712689    11918.093     1000 
 1160000   0.77696326   -1.4838551    1.1642794  -0.31957567   0.13132616    11919.116     1000 
 1162000   0.77630077   -1.4568366    1.1632867  -0.29354994   0.14551039    11857.833     1000 
 1164000    0.7742621   -1.5026388    1.1602318    -0.342407   0.12759035    12033.024     1000 
 1166000   0.74433114   -1.4035918    1.1153802  -0.28821156   0.12798198    12098.354     1000 
 1168000   0.75481443   -1.4803567    1.1310894  -0.34926733   0.13134669    12057.574     1000 
 1170000   0.76588165   -1.4756313    1.1476737  -0.32795767   0.14382018    11720.528     1000 
 1172000   0.74251737   -1.3551192    1.1126623  -0.24245693   0.14135255    11835.234     1000 
 1174000   0.75346845   -1.4233601    1.1290725  -0.29428766   0.12936732    11773.324     1000 
 1176000   0.71882474   -1.4661493    1.0771589  -0.38899046   0.13036682    11937.319     1000 
 1178000   0.75898733   -1.4100124    1.1373425  -0.27266984   0.13345695    11906.409     1000 
 1180000   0.73138437   -1.4504279    1.0959795  -0.35444843   0.14064589    12063.978     1000 
 1182000   0.70861864   -1.4918538     1.061865  -0.42998875   0.12245021    12103.508     1000 
 1184000    0.7809553   -1.4539418    1.1702615  -0.28368028   0.13404999    11976.567     1000 
 1186000   0.75156419   -1.3920153    1.1262189  -0.26579632   0.13525975    12046.613     1000 
 1188000   0.75477652   -1.4584147    1.1310326  -0.32738213   0.12919265    12125.092     1000 
 1190000   0.72004532   -1.4308024    1.0789879  -0.35181446   0.12946814    11881.136     1000 
 1192000   0.80137804   -1.5092151     1.200865  -0.30835006    0.1371773    12025.438     1000 
 1194000   0.74293042   -1.4021442    1.1132812  -0.28886296      0.14186    11791.697     1000 
 1196000   0.72661394    -1.461576     1.088831  -0.37274503   0.12517153    12231.281     1000 
 1198000   0.75178993   -1.5050639    1.1265572  -0.37850672   0.12492541    12105.231     1000 
 1200000   0.75825696   -1.4415699    1.1362481  -0.30532182   0.13670014    11982.125     1000 
 1202000   0.76752973   -1.4298316    1.1501433  -0.27968832   0.13565393    11665.094     1000 
 1204000    0.7583982    -1.467595    1.1364597  -0.33113532    0.1251712    12208.912     1000 
 1206000   0.75853111   -1.4125905    1.1366589  -0.27593162   0.13841563    11662.815     1000 
 1208000   0.76311802   -1.4744539    1.1435323  -0.33092151   0.13528847    12140.584     1000 
 1210000   0.75227038   -1.4423064    1.1272772  -0.31502925   0.13911926    11833.935     1000 
 1212000   0.78240276   -1.4361276    1.1724305  -0.26369705   0.13053129    12206.924     1000 
 1214000    0.7268199   -1.4529662    1.0891396  -0.36382656   0.12312113    12219.985     1000 
 1216000   0.73492899   -1.4131734    1.1012911  -0.31188234    0.1379579    11775.224     1000 
 1218000   0.73265431   -1.4849527    1.0978825  -0.38707018   0.12032206    12025.162     1000 
 1220000   0.76249987    -1.437303    1.1426061  -0.29469691   0.15027671    11906.144     1000 
 1222000   0.74800348   -1.4467473    1.1208832  -0.32586405   0.12612944    12113.434     1000 
 1224000   0.76720542   -1.4511068    1.1496573  -0.30144946   0.13242962    11958.355     1000 
 1226000   0.76047721    -1.438012    1.1395751  -0.29843692   0.11967863    12201.335     1000 
 1228000   0.73675855   -1.4664829    1.1040327  -0.36245019   0.13240508    12085.405     1000 
 1230000    0.7599284   -1.4649947    1.1387527  -0.32624199   0.12443893     12173.64     1000 
 1232000   0.75993355   -1.4950886    1.1387604  -0.35632819   0.12832551    11948.297     1000 
 1234000   0.70134329   -1.4938528    1.0509629  -0.44288984   0.11444681    12107.397     1000 
 1236000   0.74500445    -1.390627    1.1163892  -0.27423779   0.12156348    12204.571     1000 
 1238000   0.73585295   -1.5125904    1.1026756  -0.40991476   0.13689836    11920.487     1000 
 1240000   0.75975619   -1.3972554    1.1384947  -0.25876076   0.11996645    12022.366     1000 
 1242000   0.75343703   -1.4813607    1.1290254  -0.35233535   0.13538914    11946.903     1000 
 1244000   0.74098952   -1.4263852    1.1103728  -0.31601243   0.12876193    11890.863     1000 
 1246000   0.76869695   -1.4511823    1.1518924  -0.29928995   0.13908632    12086.573     1000 
 1248000   0.73351305   -1.4747062    1.0991693  -0.37553693   0.11996907    12014.553     1000 
 1250000   0.74733428   -1.4837619    1.1198804  -0.36388153   0.11785437    12131.578     1000 
 1252000   0.74693456   -1.4556642    1.1192814  -0.33638279   0.12143184    12048.557     1000 
 1254000   0.74816011   -1.4516191    1.1211179  -0.33050112   0.12526069    12049.266     1000 
 1256000   0.73359833   -1.4040773    1.0992971  -0.30478016   0.13076221    12144.512     1000 
 1258000   0.71016385   -1.4488677    1.0641805  -0.38468719   0.14988648    11710.222     1000 
 1260000   0.75365873   -1.4676416    1.1293576  -0.33828403   0.12936976    12208.154     1000 
 1262000   0.76546859   -1.4435276    1.1470547  -0.29647291   0.12589579    12043.126     1000 
 1264000   0.76768311   -1.4077797    1.1503731  -0.25740651   0.13756446    11594.815     1000 
 1266000    0.7504237   -1.4319152    1.1245099  -0.30740533   0.12251449    12188.919     1000 
 1268000   0.76057938    -1.419947    1.1397282  -0.28021883   0.13046506    12205.644     1000 
 1270000   0.77299275   -1.4640552    1.1583296  -0.30572553   0.12690805    12151.933     1000 
 1272000   0.75088545   -1.4486257    1.1252018  -0.32342389   0.12298048    11946.583     1000 
 1274000    0.7344965   -1.4161128     1.100643  -0.31546982   0.13830372    11812.335     1000 
 1276000   0.77577632   -1.4340281    1.1625008  -0.27152728   0.12741774    12058.729     1000 
 1278000   0.76467149   -1.4640791    1.1458602  -0.31821891   0.13013419     12010.99     1000 
 1280000   0.75877363   -1.4621454    1.1370223  -0.32512311   0.12324657    12144.302     1000 
 1282000   0.75218144   -1.3967146    1.1271439  -0.26957067   0.14778956    11791.958     1000 
 1284000   0.74181857    -1.454608    1.1116151  -0.34299283   0.12404897        12227     1000 
 1286000    0.7631236   -1.4026119    1.1435407  -0.25907117   0.13088806    11870.019     1000 
 1288000    0.7577151   -1.4433406    1.1354361   -0.3079045    0.1306119    12003.124     1000 
 1290000   0.73978956   -1.3336411    1.1085747  -0.22506641   0.13869091    11683.915     1000 
 1292000    0.7412788    -1.482547    1.1108063  -0.37174071   0.11491815    12082.366     1000 
 1294000    0.7507173   -1.4966098    1.1249499  -0.37165993   0.13017587    11858.085     1000 
 1296000   0.77644863   -1.4117024    1.1635083  -0.24819412   0.14226603    11802.629     1000 
 1298000   0.75365612   -1.4359464    1.1293537  -0.30659266   0.12504534    12015.985     1000 
 1300000   0.76857236   -1.4095364    1.1517057  -0.25783067   0.13026901    11996.933     1000 
 1302000   0.75835209   -1.4528961    1.1363906  -0.31650545   0.12549474    12147.362     1000 
 1304000   0.75226709   -1.4303984    1.1272722   -0.3031262   0.13258925    11865.934     1000 
 1306000   0.76473317   -1.4350039    1.1459527  -0.28905129   0.13408595    12015.102     1000 
 1308000   0.73875262   -1.4406566    1.1070208  -0.33363576    0.1294187    12140.376     1000 
 1310000   0.71988231   -1.4002089    1.0787436  -0.32146526   0.14041211    11754.677     1000 
 1312000   0.76437249   -1.4439901    1.1454122  -0.29857794   0.12734883    12085.736     1000 
 1314000   0.74313377   -1.4781329     1.113586  -0.36454692   0.13949627    11750.874     1000 
 1316000    0.7460173   -1.4385442    1.1179069  -0.32063725   0.12600826    12126.302     1000 
 1318000   0.77271667   -1.4807848    1.1579159  -0.32286887   0.13336185    11943.769     1000 
 1320000   0.76359081   -1.4567506    1.1442408  -0.31250973   0.13519599    11932.826     1000 
 1322000   0.80657054   -1.4580548    1.2086459  -0.24940885   0.12192232    12134.024     1000 
 1324000   0.72775871   -1.4873561    1.0905464  -0.39680972   0.13111783     11987.25     1000 
 1326000   0.77110855   -1.4046838    1.1555062  -0.24917765   0.13800817    12011.651     1000 
 1328000   0.73023219   -1.3655404    1.0942529  -0.27128745   0.12889377    12056.181     1000 
 1330000    0.7329626    -1.421746    1.0983445  -0.32340156    0.1290577     11843.65     1000 
 1332000   0.76243596    -1.511594    1.1425103  -0.36908375   0.11532549    12186.866     1000 
 1334000   0.72413928   -1.4541168    1.0851227  -0.36899412   0.13096146    11988.513     1000 
 1336000   0.72891822   -1.4415339    1.0922839  -0.34924998   0.13479041    11869.544     1000 
 1338000   0.76686212   -1.4827357    1.1491429  -0.33359276   0.13422374    11874.951     1000 
 1340000   0.76460806   -1.4469896    1.1457652  -0.30122443   0.12928218    11808.281     1000 
 1342000   0.78311068   -1.4071796    1.1734913  -0.23368822   0.14189576    12001.405     1000 
 1344000   0.74834751   -1.4574459    1.1213987  -0.33604715   0.13363665    11883.197     1000 
 1346000   0.77761073   -1.4383469    1.1652497  -0.27309726   0.13823608    11943.618     1000 
 1348000   0.78908575   -1.4583661     1.182445  -0.27592108   0.12495264    12212.401     1000 
 1350000   0.76532771   -1.4878945    1.1468436  -0.34105091   0.14160929    11863.021     1000 
 1352000   0.72327251   -1.5016039    1.0838239  -0.41778004   0.12746584    11890.472     1000 
 1354000   0.73366786   -1.4405451    1.0994013  -0.34114379   0.13521942    12007.964     1000 
 1356000   0.77071996   -1.4198437    1.1549239  -0.26491986   0.13619117    11895.513     1000 
 1358000   0.74915108   -1.4559473    1.1226029  -0.33334437   0.13723956    11882.523     1000 
 1360000   0.76105632   -1.4423664    1.1404429  -0.30192355   0.12511476    11995.542     1000 
 1362000   0.73078272   -1.4398829    1.0950779  -0.34480496   0.12711444    12015.213     1000 
 1364000   0.74497363   -1.4795153     1.116343  -0.36317226   0.11229668    12256.831     1000 
 1366000   0.75094425   -1.4246572      1.12529  -0.29936727   0.13068481    11845.446     1000 
 1368000   0.73391092   -1.4212781    1.0997655  -0.32151254   0.12638111    11909.314     1000 
 1370000   0.74948743   -1.4772979    1.1231069  -0.35419104    0.1179795    12236.738     1000 
 1372000   0.73860109   -1.4622047    1.1067937  -0.35541095   0.14082781    11748.029     1000 
 1374000   0.74758865   -1.4374562    1.1202616  -0.31719456   0.13013785    11961.571     1000 
 1376000   0.76712995   -1.4873413    1.1495442  -0.33779704   0.14267226    12165.702     1000 
 1378000    0.7351377   -1.4670231    1.1016038  -0.36541923   0.14210751    11720.404     1000 
 1380000   0.76362649   -1.4790809    1.1442943  -0.33478657   0.11816999    12174.109     1000 
 1382000   0.75782574   -1.4481556    1.1356019  -0.31255377   0.12994463    11872.764     1000 
 1384000   0.78113419   -1.4271339    1.1705296  -0.25660437   0.14652584    11636.387     1000 
 1386000    0.7054513   -1.5123361    1.0571188  -0.45521732   0.12231564    12050.259     1000 
 1388000   0.69671904   -1.4072046    1.0440335  -0.36317114   0.12388772    11753.429     1000 
 1390000   0.78759229   -1.4152067    1.1802071  -0.23499964   0.14208725    11770.544     1000 
 1392000   0.75206019   -1.4479624    1.1269622  -0.32100017   0.11887963     12054.03     1000 
 1394000   0.74222131    -1.462188    1.1122186  -0.34996933   0.12542445    12042.705     1000 
 1396000   0.74276733   -1.4561408    1.1130368  -0.34310396   0.12997027    12229.551     1000 
 1398000   0.76867369   -1.4036337    1.1518575  -0.25177622   0.13893809    12026.663     1000 
 1400000   0.76611692   -1.4517171    1.1480262  -0.30369093   0.12498373    12003.099     1000 
 1402000   0.74020279   -1.4247031    1.1091939   -0.3155092   0.13789258    11920.993     1000 
 1404000   0.75291141    -1.439855    1.1282378  -0.31161723   0.13144917    12089.964     1000 
 1406000   0.70647172   -1.4661447    1.0586479  -0.40749684   0.13555327    11956.815     1000 
 1408000   0.75684748   -1.4848709    1.1341359    -0.350735   0.11432231    12218.914     1000 
 1410000   0.76675159   -1.4207452    1.1489773  -0.27176798   0.12835591    11934.541     1000 
 1412000   0.75110688   -1.4463492    1.1255337  -0.32081552   0.12878489    12010.945     1000 
 1414000   0.74498235   -1.4123293    1.1163561  -0.29597322   0.12605258    11731.643     1000 
 1416000   0.71970713   -1.4009065    1.0784811  -0.32242532   0.12243982    11924.256     1000 
 1418000   0.73354443    -1.463549    1.0992163  -0.36433269   0.13284305    11850.467     1000 
 1420000   0.71552106    -1.425733    1.0722083  -0.35352475   0.13610652    11956.869     1000 
 1422000   0.76861845   -1.3929579    1.1517748  -0.24118311    0.1321414    12058.084     1000 
 1424000   0.74700253   -1.4597033    1.1193833  -0.34032005   0.14543241    11777.483     1000 
 1426000   0.77248551   -1.4093948    1.1575695  -0.25182526   0.12830768    12054.299     1000 
 1428000   0.76561178   -1.4486325    1.1472693  -0.30136324    0.1265957    12128.969     1000 
 1430000   0.72829173   -1.4875029    1.0913452  -0.39615778   0.11801556    11993.516     1000 
 1432000   0.75402703   -1.4177713    1.1299095   -0.2878618   0.11757031     12156.32     1000 
 1434000   0.77272542   -1.4708053     1.157929   -0.3128763   0.12965274     11873.26     1000 
 1436000   0.75653181   -1.4674798    1.1336629  -0.33381692    0.1260896    12095.248     1000 
 1438000   0.74011584   -1.4687098    1.1090636  -0.35964625    0.1432153    11632.078     1000 
 1440000   0.75122228   -1.4208537    1.1257066  -0.29514709   0.12792991     12071.12     1000 
 1442000    0.7431425   -1.5303341     1.113599  -0.41673509    0.1224662    12289.913     1000 
 1444000   0.74674533   -1.4268013    1.1189979   -0.3078034   0.12653956    11984.217     1000 
 1446000   0.77735594   -1.4450254    1.1648679  -0.28015756    0.1311519    11979.986     1000 
 1448000   0.75954943   -1.4054127    1.1381848  -0.26722782   0.13955841    11722.967     1000 
 1450000   0.71551253   -1.4759622    1.0721955  -0.40376672   0.13476896     12057.04     1000 
 1452000   0.75446205    -1.474325    1.1305614  -0.34376358   0.14020564      12016.7     1000 
 1454000   0.74747097   -1.4378305    1.1200853  -0.31774521   0.13054839    12072.306     1000 
 1456000    0.7847754   -1.4103554    1.1759859  -0.23436949   0.14567373    11741.711     1000 
 1458000   0.74944141   -1.4624908     1.123038   -0.3394528   0.14357523    11881.927     1000 
 1460000    0.7664981   -1.4546768    1.1485974  -0.30607943   0.13374379    12085.875     1000 
 1462000   0.72755783   -1.4387597    1.0902454  -0.34851432   0.13247316    11880.121     1000 
 1464000   0.75487811   -1.4655278    1.1311848  -0.33434297   0.11789096    12473.312     1000 
 1466000   0.75133052   -1.4376535    1.1258688  -0.31178467   0.12915771    11895.921     1000 
 1468000   0.79226212   -1.4698788    1.1872048  -0.28267405   0.12386023     12213.11     1000 
 1470000   0.76048259   -1.4556927    1.1395832  -0.31610953   0.12838845    11964.996     1000 
 1472000   0.77169271   -1.4483955    1.1563815    -0.292014   0.12557395    12052.601     1000 
 1474000   0.72916559   -1.3902558    1.0926546  -0.29760119   0.12915704    11930.834     1000 
 1476000   0.72369578   -1.4619431    1.0844581  -0.37748493   0.12535597    11963.841     1000 
 1478000   0.72467427   -1.4075125    1.0859244  -0.32158806   0.13939352    12007.436     1000 
 1480000   0.77104806   -1.4751483    1.1554155  -0.31973273   0.13406929    11868.931     1000 
 1482000   0.76609682   -1.4680222    1.1479961  -0.32002617   0.12604711    12112.211     1000 
 1484000   0.74221813   -1.4379324    1.1122139  -0.32571852   0.13224426    12082.521     1000 
 1486000   0.74445827   -1.4533831    1.1155707  -0.33781242   0.14526458    11907.353     1000 
 1488000   0.78104658   -1.4550087    1.1703983  -0.28461044   0.13118319    12195.652     1000 
 1490000   0.72176929   -1.4312855    1.0815713  -0.34971426   0.13753977    11919.643     1000 
 1492000   0.75498523    -1.450081    1.1313454  -0.31873566   0.11777159      12015.6     1000 
 1494000   0.70627301    -1.458736    1.0583501  -0.40038593   0.12324792    11978.915     1000 
 1496000   0.73006897    -1.407726    1.0940083   -0.3137177    0.1227651    12083.759     1000 
 1498000   0.72560987   -1.4712002    1.0873264  -0.38387382   0.13997276     11850.18     1000 
 1500000   0.77622128   -1.4378097    1.1631676  -0.27464215    0.1537514    11772.243     1000 
 1502000    0.7454142   -1.4331523    1.1170032  -0.31614917   0.13671797    11986.553     1000 
 1504000   0.76346664   -1.3677955    1.1440548  -0.22374069   0.13214438    12057.748     1000 
 1506000   0.74483736   -1.4409896    1.1161388  -0.32485086   0.12262525    11918.794     1000 
 1508000   0.75206699   -1.4614542    1.1269724  -0.33448185   0.13912941    11947.547     1000 
 1510000   0.74129528   -1.3989359     1.110831   -0.2881049   0.14195437    12050.185     1000 
 1512000   0.74129043   -1.4381794    1.1108237  -0.32735567   0.12775493    11890.541     1000 
 1514000   0.72403646   -1.4413051    1.0849686  -0.35633651   0.12561422    12113.069     1000 
 1516000   0.76146181   -1.4634304    1.1410505  -0.32237989   0.11142485    12025.775     1000 
 1518000   0.76123487   -1.4218361    1.1407105  -0.28112566   0.13642672     11946.42     1000 
 1520000   0.74432444   -1.4353047    1.1153702  -0.31993453   0.13994853    11976.692     1000 
 1522000   0.74502446   -1.5038028    1.1164192  -0.38738366   0.13374011    11964.897     1000 
 1524000   0.77079719   -1.4142746    1.1550396  -0.25923506   0.12716812    12081.779     1000 
 1526000   0.75508803   -1.4369331    1.1314994  -0.30543365    0.1305288    12040.694     1000 
 1528000   0.76714699    -1.487537    1.1495698  -0.33796724   0.12486881     12129.34     1000 
 1530000   0.72396469   -1.4231135    1.0848611  -0.33825241   0.12606483    12134.972     1000 
 1532000   0.76088064   -1.4955955    1.1401796  -0.35541586   0.14566943    11929.874     1000 
 1534000   0.78251534   -1.4817841    1.1725992  -0.30918484   0.12628844    11944.178     1000 
 1536000   0.74837073   -1.3627391    1.1214335  -0.24130556   0.13504218    11673.791     1000 
 1538000   0.73331422   -1.5209099    1.0988714  -0.42203853   0.13970318    11939.943     1000 
 1540000   0.75402286   -1.4840352    1.1299033  -0.35413197   0.12432517    11997.885     1000 
 1542000   0.76347249   -1.4405123    1.1440635  -0.29644877   0.11156821    12132.159     1000 
 1544000   0.72730531   -1.4431037     1.089867  -0.35323664   0.13034454    11735.288     1000 
 1546000   0.80750206   -1.4725158    1.2100418  -0.26247396   0.13319578    11847.396     1000 
 1548000   0.74327565   -1.4640365    1.1137986  -0.35023797   0.13433737    11906.431     1000 
 1550000   0.73948054   -1.4804901    1.1081116   -0.3723785   0.14340014    11797.316     1000 
 1552000   0.73886129   -1.4541831    1.1071836  -0.34699943   0.12641836    12100.226     1000 
 1554000   0.75662019   -1.4630624    1.1337954  -0.32926704    0.1312853    11987.738     1000 
 1556000   0.73019592    -1.467755    1.0941986  -0.37355641   0.13531695    11756.945     1000 
 1558000   0.74841723   -1.4990818    1.1215032  -0.37757859   0.12504308    12105.808     1000 
 1560000   0.74669704   -1.4707013    1.1189255  -0.35177576   0.12410693    12175.734     1000 
 1562000   0.72258379   -1.4339036    1.0827918  -0.35111176   0.13942677    11867.885     1000 
 1564000   0.74173259   -1.4901836    1.1114863  -0.37869727   0.14058772    11615.659     1000 
 1566000   0.77242913    -1.415314    1.1574851  -0.25782892    0.1325437    11941.491     1000 
 1568000   0.71985513   -1.4500815    1.0787029   -0.3713786   0.14262786    11723.954     1000 
 1570000   0.78283311   -1.4319332    1.1730754  -0.25885776   0.14440293    11898.279     1000 
 1572000   0.71602742   -1.4713959    1.0729671   -0.3984288   0.12600594    12105.455     1000 
 1574000   0.72902281   -1.4519802    1.0924407   -0.3595395   0.13137808    11873.856     1000 
 1576000   0.77319902   -1.4467454    1.1586387  -0.28810663   0.12146288    12038.472     1000 
 1578000   0.74298438   -1.4031236    1.1133621  -0.28976154   0.12599836    11831.374     1000 
 1580000   0.75373774   -1.4656534     1.129476  -0.33617738   0.13678137    11967.079     1000 
 1582000   0.73972976   -1.4375796     1.108485  -0.32909452   0.13552226    11848.405     1000 
 1584000   0.76229057   -1.4722072    1.1422924  -0.32991481   0.12560977      12102.3     1000 
 1586000   0.74278051   -1.4245956    1.1130566  -0.31153904   0.13545913     11904.46     1000 
 1588000   0.79090039    -1.421988    1.1851642  -0.23682376   0.13663627    11676.525     1000 
[...]
 2614000   0.74051579   -1.4425883    1.1096629  -0.33292537   0.12554117    11884.999     1000 
 2616000    0.7719188    -1.442872    1.1567203  -0.28615168   0.12701211    12060.913     1000 
 2618000   0.75682858   -1.4647509    1.1341076  -0.33064329   0.13633092    11915.954     1000 
 2620000   0.74612934   -1.4134946    1.1180748  -0.29541977   0.12543925    12070.793     1000 
 2622000   0.73774382   -1.4159119    1.1055091  -0.31040278   0.12732831    12095.598     1000 
 2624000     0.743967   -1.4050754    1.1148345   -0.2902409    0.1286116     11950.32     1000 
 2626000   0.71776638   -1.4929133    1.0755729  -0.41734035   0.13245234    11923.725     1000 
 2628000   0.73682558   -1.3655297    1.1041331  -0.26139658   0.13475236    11875.177     1000 
 2630000   0.75200121   -1.4655226    1.1268738  -0.33864874   0.12888742    12150.306     1000 
 2632000   0.75580166   -1.4315858    1.1325688  -0.29901697    0.1298826    11939.485     1000 
 2634000   0.72461109   -1.4501739    1.0858297  -0.36434418   0.14702799    11617.729     1000 
 2636000   0.76156011    -1.456476    1.1411978  -0.31527814   0.12786228    12056.348     1000 
 2638000   0.72983526   -1.3690413    1.0936581  -0.27538319   0.13445131    11974.291     1000 
 2640000   0.77189524   -1.4815196     1.156685  -0.32483461   0.13268781    12148.776     1000 
 2642000   0.77482956   -1.4041236    1.1610821  -0.24304151    0.1335215    11985.479     1000 
 2644000   0.76052624    -1.437316    1.1396486  -0.29766741   0.13774485    11977.772     1000 
 2646000   0.76649719   -1.4111889     1.148596  -0.26259282   0.14633415    12060.113     1000 
 2648000   0.76367672   -1.4911617    1.1443696  -0.34679213   0.14335761    11760.922     1000 
 2650000   0.75107356   -1.4532448    1.1254837  -0.32776111   0.12943052    12164.657     1000 
 2652000   0.71312485   -1.5255506    1.0686176  -0.45693304   0.13578827    11668.466     1000 
 2654000   0.76131946   -1.4884049    1.1408372  -0.34756765     0.124201     12123.05     1000 
 2656000   0.73735857   -1.4456372    1.1049318  -0.34070535   0.12199263     12092.42     1000 
 2658000   0.74919994   -1.4308454    1.1226761  -0.30816927   0.12924572    12151.386     1000 
 2660000   0.74559832    -1.467196    1.1172791   -0.3499169   0.13112813    11886.403     1000 
 2662000   0.76271682   -1.4845156    1.1429312   -0.3415844   0.13007279     11873.76     1000 
 2664000   0.72004819   -1.4195449    1.0789922  -0.34055268   0.12646236    12107.443     1000 
 2666000   0.73111472   -1.4162347    1.0955754  -0.32065927   0.13683581    11877.286     1000 
 2668000   0.75334915   -1.4588387    1.1288937  -0.32994502    0.1275339    11936.705     1000 
 2670000   0.78070183   -1.4705374    1.1698817  -0.30065574   0.13847931    12024.244     1000 
 2672000   0.75510219    -1.431701    1.1315206  -0.30018034   0.13414928    11956.543     1000 
 2674000    0.7313808   -1.4049996    1.0959741  -0.30902544   0.13576492    11798.727     1000 
 2676000   0.72461392   -1.4441342     1.085834  -0.35830026   0.11903986    12106.765     1000 
 2678000   0.74236509   -1.4231969    1.1124341  -0.31076281   0.13100257    11894.626     1000 
 2680000   0.75689331   -1.4697385    1.1342046  -0.33553391    0.1379197    12070.356     1000 
 2682000   0.77112908   -1.4884269    1.1555369  -0.33288999   0.14183692    11925.706     1000 
 2684000   0.74573239   -1.4126875      1.11748  -0.29520752   0.14039243     11967.37     1000 
 2686000   0.74230805   -1.4978362    1.1123486  -0.38548756   0.13013994    11998.569     1000 
 2688000   0.71843423   -1.4336301    1.0765737  -0.35705637   0.11448146    12166.017     1000 
 2690000   0.74948306   -1.4404025    1.1231004  -0.31730214   0.13108194    11970.147     1000 
 2692000   0.70983457   -1.4529753    1.0636871  -0.38928815   0.11608923    12221.511     1000 
 2694000   0.75438979   -1.5028932    1.1304531  -0.37244008   0.12930937    11938.255     1000 
 2696000   0.76455394   -1.4503719    1.1456841  -0.30468783   0.13226629    11943.829     1000 
 2698000   0.74374506   -1.4154196     1.114502  -0.30091757   0.12741531    11815.135     1000 
 2700000   0.72668506   -1.4217585    1.0889376  -0.33282091   0.14332375    11918.003     1000 
 2702000   0.73000208   -1.4691267    1.0939081  -0.37521859   0.13337895    11981.144     1000 
 2704000   0.75928418    -1.472608    1.1377873   -0.3348206   0.14053716    11935.854     1000 
 2706000   0.76321851   -1.5172659    1.1436829  -0.37358297   0.12957618    11851.642     1000 
 2708000   0.75687064   -1.4253917    1.1341706  -0.29122108   0.12545265    12159.118     1000 
 2710000   0.74825645   -1.4776416    1.1212623  -0.35637934   0.13421703    11910.839     1000 
 2712000   0.72720111    -1.399552    1.0897109  -0.30984111   0.12125104     11916.12     1000 
 2714000   0.74428984   -1.5495039    1.1153183  -0.43418555   0.11328594     12288.41     1000 
 2716000   0.75104522   -1.4651396    1.1254413  -0.33969837    0.1254539    11930.554     1000 
 2718000   0.78574081   -1.4797859    1.1774326  -0.30235334   0.12516126    12076.702     1000 
 2720000   0.73814768   -1.4207104    1.1061143  -0.31459606   0.13087845    11985.118     1000 
 2722000   0.78135774   -1.4840798    1.1708646  -0.31321525   0.13499951    11904.303     1000 
 2724000   0.75972538   -1.4212037    1.1384485  -0.28275526    0.1391942    11937.753     1000 
 2726000   0.73101275   -1.4302016    1.0954226  -0.33477896    0.1248152    12142.012     1000 
 2728000   0.73206846   -1.4189182    1.0970046  -0.32191365   0.12170667    12275.125     1000 
 2730000   0.73273395   -1.4480833    1.0980018  -0.35008151   0.11999833    11962.297     1000 
 2732000   0.74818389   -1.4831812    1.1211536  -0.36202764    0.1201468    11981.663     1000 
 2734000   0.75726888   -1.4533373    1.1347674  -0.31856985   0.13084482    11954.544     1000 
 2736000   0.75102944   -1.4546454    1.1254176  -0.32922782   0.12179938    12005.602     1000 
 2738000   0.73872811   -1.4564154    1.1069841  -0.34943135   0.12866855    11820.728     1000 
 2740000    0.7601898   -1.4972994    1.1391444  -0.35815498   0.13249649    12004.914     1000 
 2742000   0.75129949   -1.4418117    1.1258223  -0.31598943   0.12882907    12007.229     1000 
 2744000   0.76725094    -1.469995    1.1497255  -0.32026945   0.14405787    11897.066     1000 
 2746000   0.74044406   -1.4726125    1.1095554  -0.36305706   0.13411105    11915.013     1000 
 2748000   0.72704312   -1.4493612    1.0894741   -0.3598871   0.13987043     11868.35     1000 
 2750000   0.73072334   -1.4656152    1.0949889  -0.37062632   0.13362646    12017.059     1000 
 2752000   0.73651593   -1.4748558    1.1036691  -0.37118672   0.13084386    11827.021     1000 
 2754000     0.752597   -1.4067869    1.1277666  -0.27902028   0.12962222    11768.124     1000 
 2756000   0.74770863   -1.4754849    1.1204414  -0.35504356   0.12969826    12135.147     1000 
 2758000   0.76078004   -1.4399894    1.1400289  -0.29996046   0.12787037    12031.853     1000 
 2760000   0.72714565   -1.4724762    1.0896278  -0.38284848   0.13454387     11715.23     1000 
 2762000   0.79017076    -1.475395    1.1840709  -0.29132411   0.13764678    11810.365     1000 
 2764000   0.75871371   -1.4229174    1.1369325  -0.28598489   0.13691873    11798.481     1000 
 2766000   0.73036716    -1.428969    1.0944552  -0.33451385   0.13346316    11846.041     1000 
 2768000    0.7793678   -1.4413278    1.1678827   -0.2734451   0.14574933    11835.699     1000 
 2770000   0.76811582   -1.4355498    1.1510216   -0.2845282   0.13294452    11957.148     1000 
 2772000   0.75214388   -1.4746481    1.1270876  -0.34756048   0.13161647     12063.14     1000 
 2774000   0.76586398   -1.4460906    1.1476472  -0.29844341   0.14166684    11700.109     1000 
 2776000   0.77103634   -1.4193123     1.155398  -0.26391435   0.12903351    11882.628     1000 
 2778000   0.72048296   -1.4160091    1.0796437  -0.33636542   0.13350112    11791.727     1000 
 2780000   0.72530862    -1.433398     1.086875    -0.346523   0.13011759    12226.669     1000 
 2782000   0.75186763   -1.4035693    1.1266736  -0.27689562   0.14426478    11902.415     1000 
 2784000   0.76011958   -1.4397206    1.1390392  -0.30068143   0.12200059     12244.09     1000 
 2786000    0.7408358   -1.4426428    1.1101424  -0.33250035   0.13349625    11823.488     1000 
 2788000   0.75027596   -1.3899395    1.1242885  -0.26565102   0.13562689    11802.518     1000 
 2790000   0.71940475    -1.518985     1.078028  -0.44095702   0.11961189    12200.473     1000 
 2792000   0.71973153   -1.4433056    1.0785177   -0.3647879    0.1413051    11881.803     1000 
 2794000   0.74865303    -1.464969    1.1218566  -0.34311241   0.12351368    12200.752     1000 
 2796000   0.77153039   -1.4791726    1.1561383  -0.32303429   0.14129299    11860.831     1000 
 2798000   0.77348524   -1.3998183    1.1590676   -0.2407507   0.13485932    12020.262     1000 
 2800000    0.7614792   -1.4099983    1.1410766  -0.26892173   0.11501222    12071.415     1000 
 2802000   0.74173594   -1.4015942    1.1114913  -0.29010293   0.13513777    11792.114     1000 
 2804000    0.7639971   -1.4133314    1.1448496  -0.26848173   0.12782305    12012.973     1000 
 2806000   0.71934885   -1.4200178    1.0779443  -0.34207357   0.13226055    12066.369     1000 
 2808000   0.77592558   -1.4926264    1.1627245  -0.32990196   0.13083646    11857.482     1000 
 2810000    0.7721588   -1.4267366      1.15708  -0.26965667   0.12959418    11830.857     1000 
 2812000   0.76000954   -1.3969976    1.1388743  -0.25812327   0.12987899    12076.319     1000 
 2814000   0.75454834   -1.4957375    1.1306907  -0.36504684    0.1341737    11987.726     1000 
 2816000   0.75107927   -1.4346333    1.1254923  -0.30914103   0.13737111    11818.275     1000 
 2818000   0.74780474   -1.4347336    1.1205854  -0.31414815   0.12748868    12127.122     1000 
 2820000   0.71592358    -1.408783    1.0728115  -0.33597149   0.12170031    11837.596     1000 
 2822000   0.76209937   -1.4470067    1.1420059  -0.30500082   0.13547209    11963.985     1000 
 2824000   0.74936425   -1.4407855    1.1229223  -0.31786316   0.13253469    11954.682     1000 
 2826000   0.72232114   -1.4078853    1.0823982  -0.32548703   0.11839202    12372.737     1000 
 2828000   0.75352592   -1.4516235    1.1291586  -0.32246495   0.14189518    11781.851     1000 
 2830000    0.7644287   -1.3603877    1.1454964  -0.21489128   0.13545494    11868.137     1000 
 2832000   0.73016877   -1.3884217    1.0941579  -0.29426384   0.12175245    12110.003     1000 
 2834000   0.74414315   -1.4552334    1.1150985  -0.34013487   0.12725937    11976.701     1000 
 2836000   0.76657893   -1.4474976    1.1487185   -0.2987791   0.13907464     11835.46     1000 
 2838000   0.74619681   -1.4236394    1.1181759  -0.30546351   0.11978715    12307.491     1000 
 2840000    0.7610769   -1.4147414    1.1404737  -0.27426768   0.12005346    12094.869     1000 
 2842000   0.73735514   -1.4438623    1.1049267  -0.33893566   0.12167008    12153.658     1000 
 2844000   0.75557171   -1.4204881    1.1322242  -0.28826384    0.1293069    12076.055     1000 
 2846000   0.74116145    -1.419092    1.1106304  -0.30846155   0.12940793    11802.215     1000 
 2848000   0.72227056   -1.4210082    1.0823224  -0.33868574   0.11605638    12103.717     1000 
 2850000   0.74838364   -1.4579154    1.1214529  -0.33646252   0.13743196    11802.777     1000 
 2852000   0.75465114   -1.4622265    1.1308447  -0.33138172   0.13404621      11966.3     1000 
 2854000   0.70941534   -1.4640567    1.0630589  -0.40099786   0.12012628    12100.112     1000 
 2856000   0.75826334   -1.4473536    1.1362576  -0.31109601   0.13480789     11842.55     1000 
 2858000   0.76320418   -1.4503318    1.1436615  -0.30667032    0.1286153    12121.495     1000 
 2860000   0.70137964   -1.4369185    1.0510174   -0.3859011   0.14097341    11693.633     1000 
 2862000   0.75312329   -1.4365365    1.1285553  -0.30798126   0.12341116    12199.668     1000 
 2864000   0.75618256   -1.4163143    1.1331396  -0.28317476   0.12499187    12034.956     1000 
 2866000   0.73719479    -1.375816    1.1046864   -0.2711296   0.14569971    11809.638     1000 
 2868000   0.74910284   -1.3941662    1.1225306  -0.27163555   0.14450635     11751.92     1000 
 2870000   0.76766696   -1.4583403    1.1503489  -0.30799136   0.12796803    12123.712     1000 
 2872000    0.7171563    -1.456095    1.0746587  -0.38143624   0.12890638    11983.757     1000 
 2874000   0.72530281   -1.4223798    1.0868663  -0.33551356   0.14348444    11545.879     1000 
 2876000   0.75403767   -1.4135744    1.1299255    -0.283649   0.12823034    12182.835     1000 
 2878000   0.72851201   -1.4688147    1.0916752  -0.37713949   0.14132953    11933.899     1000 
 2880000    0.7465213   -1.4957427    1.1186622  -0.37708052    0.1287441    11927.875     1000 
 2882000   0.78411979   -1.3962911    1.1750035  -0.22128761   0.13288631    11914.791     1000 
 2884000   0.71836632    -1.444201    1.0764719  -0.36772903   0.14716417    11451.787     1000 
 2886000   0.75533199    -1.400824     1.131865  -0.26895898   0.13616711    12090.837     1000 
 2888000   0.76012986   -1.4396926    1.1390546  -0.30063806   0.12896726    12087.669     1000 
 2890000   0.72536251   -1.4777756    1.0869557  -0.39081987   0.12901183    12068.625     1000 
 2892000   0.78938219   -1.4655863    1.1828892  -0.28269707   0.15058657    11910.784     1000 
 2894000   0.74327771   -1.4276473    1.1138017  -0.31384561   0.12983527    11976.286     1000 
 2896000   0.75592299   -1.4700751    1.1327506   -0.3373245   0.12192173    12030.376     1000 
 2898000   0.79612437    -1.402395    1.1929924  -0.20940267   0.13803619    11984.641     1000 
 2900000   0.76982266   -1.4353732    1.1535793  -0.28179396   0.11943225    12175.944     1000 
 2902000   0.76185863    -1.423714    1.1416452  -0.28206883   0.13348965    12046.423     1000 
 2904000   0.74774418   -1.4784665    1.1204947  -0.35797187   0.13544409    11972.039     1000 
 2906000   0.71370845   -1.4433654    1.0694921  -0.37387332    0.1209986    11976.675     1000 
 2908000   0.76287952   -1.4736739     1.143175  -0.33049898   0.13431362    11952.832     1000 
 2910000   0.78833655   -1.4279343    1.1813223  -0.24661195   0.13945521    11771.166     1000 
 2912000   0.72632186   -1.4695102    1.0883933  -0.38111689   0.12017028    11898.643     1000 
 2914000    0.7150361   -1.5070121    1.0714816  -0.43553054    0.1261458    11787.541     1000 
 2916000   0.75618856   -1.4456319    1.1331486  -0.31248339   0.13647021    12025.161     1000 
 2918000   0.75698409   -1.4467977    1.1343407  -0.31245703   0.12956467    11976.292     1000 
 2920000   0.74648148    -1.440128    1.1186025  -0.32152549   0.14181301    11891.841     1000 
 2922000   0.78829516   -1.3990869    1.1812603  -0.21782661   0.13460129    12017.345     1000 
 2924000    0.7139662   -1.4212128    1.0698783  -0.35133442   0.13324866     11857.79     1000 
 2926000   0.72295837   -1.4594941    1.0833531  -0.37614098   0.12044069    12078.493     1000 
 2928000   0.76134171   -1.4497229    1.1408706  -0.30885236   0.13370575    11905.613     1000 
 2930000   0.75333322    -1.431646    1.1288698  -0.30277619   0.13513978    12059.566     1000 
 2932000   0.77289567   -1.4662666    1.1581842  -0.30808245   0.12313399    12049.797     1000 
 2934000    0.7643224   -1.4512674    1.1453371  -0.30593027    0.1304502    11980.003     1000 
 2936000    0.7716745    -1.397028    1.1563542  -0.24067375   0.12139014    12076.935     1000 
 2938000   0.75499811   -1.4328813    1.1313647  -0.30151665   0.15026158    11679.123     1000 
 2940000      0.76502    -1.462265    1.1463825  -0.31588253   0.14444185    11813.868     1000 
 2942000   0.76350363   -1.4519968    1.1441102  -0.30788664   0.13117885    11823.206     1000 
 2944000   0.73928294    -1.419273    1.1078155  -0.31145748   0.11961745    12125.506     1000 
 2946000   0.76116133   -1.4348987    1.1406003  -0.29429844   0.13117753    11908.529     1000 
 2948000   0.72849337   -1.3832258    1.0916473  -0.29157843   0.13787806    11784.914     1000 
 2950000   0.75842062   -1.4018549    1.1364933  -0.26536158   0.13360143    11832.445     1000 
 2952000   0.76463475   -1.4378431    1.1458052   -0.2920379   0.13129585    12005.292     1000 
 2954000   0.73348932   -1.4860007    1.0991337  -0.38686697   0.11203848    12333.815     1000 
 2956000   0.77416428    -1.444594    1.1600852  -0.28450883   0.12946135     11933.87     1000 
 2958000   0.75363914   -1.4003111    1.1293282  -0.27098283   0.13536897    11914.669     1000 
 2960000   0.75841347   -1.4056021    1.1364826  -0.26911954   0.12491131    12047.109     1000 
 2962000   0.76874281   -1.4656388    1.1519611  -0.31367774    0.1391633     11974.61     1000 
 2964000   0.74770209   -1.4375955    1.1204316  -0.31716395   0.12896771    11860.518     1000 
 2966000   0.75408891   -1.4065905    1.1300022  -0.27658827   0.12778412    12000.353     1000 
 2968000   0.77865627   -1.4357193    1.1668164  -0.26890287   0.13667772    11963.605     1000 
 2970000   0.75932798   -1.4732402     1.137853  -0.33538717   0.13186324    12022.325     1000 
 2972000   0.79472151     -1.44379    1.1908902  -0.25289983   0.12795632    12011.034     1000 
 2974000   0.73522689   -1.4498706    1.1017375  -0.34813309   0.13791259      11924.8     1000 
 2976000   0.77598247   -1.4993848    1.1628097  -0.33657507   0.12566413    11992.788     1000 
 2978000   0.73200347   -1.4558576    1.0969072  -0.35895045   0.11826057    12125.528     1000 
 2980000   0.73062478   -1.4757668    1.0948412  -0.38092557   0.13173609    12034.713     1000 
 2982000   0.74491874   -1.4258676    1.1162607  -0.30960691   0.13577863    11648.158     1000 
 2984000   0.74271895   -1.4883755    1.1129644  -0.37541115    0.1174189     12343.37     1000 
 2986000   0.72381058   -1.4571453    1.0846302  -0.37251515   0.13288564    11940.034     1000 
 2988000    0.7689215   -1.4892708    1.1522289  -0.33704196   0.13575846    11993.252     1000 
 2990000   0.75918061   -1.3878337    1.1376321  -0.25020158   0.14254574    11695.715     1000 
 2992000   0.74172676   -1.4539059    1.1114775  -0.34242834   0.12870028    12144.207     1000 
 2994000   0.76014005   -1.3870869    1.1390699  -0.24801706   0.13167121    11866.524     1000 
 2996000   0.76436037    -1.443575     1.145394    -0.298181   0.12477148     12022.17     1000 
 2998000   0.73784887   -1.4499931    1.1056665  -0.34432661    0.1296681    11948.696     1000 
 3000000   0.76348051   -1.3832583    1.1440755  -0.23918273   0.12071712    12342.102     1000 
Loop time of 1831.72 on 1 procs for 3000000 steps with 1000 atoms

Performance: 707531.222 tau/day, 1637.804 timesteps/s
100.0% CPU use with 1 MPI tasks x 1 OpenMP threads

MPI task timing breakdown:
Section |  min time  |  avg time  |  max time  |%varavg| %total
---------------------------------------------------------------
Pair    | 1468.5     | 1468.5     | 1468.5     |   0.0 | 80.17
Neigh   | 195.58     | 195.58     | 195.58     |   0.0 | 10.68
Comm    | 39.158     | 39.158     | 39.158     |   0.0 |  2.14
Output  | 0.043821   | 0.043821   | 0.043821   |   0.0 |  0.00
Modify  | 120.9      | 120.9      | 120.9      |   0.0 |  6.60
Other   |            | 7.516      |            |       |  0.41

Nlocal:        1000.00 ave        1000 max        1000 min
Histogram: 1 0 0 0 0 0 0 0 0 0
Nghost:        2063.00 ave        2063 max        2063 min
Histogram: 1 0 0 0 0 0 0 0 0 0
Neighs:        25108.0 ave       25108 max       25108 min
Histogram: 1 0 0 0 0 0 0 0 0 0

Total # of neighbors = 25108
Ave neighs/atom = 25.108000
Neighbor list builds = 150000
Dangerous builds not checked

Total wall time: 0:30:31
