LAMMPS (29 Sep 2021 - Update 2)
OMP_NUM_THREADS environment is not set. Defaulting to 1 thread. (src/comm.cpp:98)
  using 1 OpenMP thread(s) per MPI task
# ----------------------- Inicialização -----------------------

units			lj
atom_style 		atomic
dimension 		3
boundary 		p p p

# -------------------- Criação dos Átomos ---------------------

read_data 		topologia.txt
Reading data file ...
  orthogonal box = (0.0000000 0.0000000 0.0000000) to (21.540000 21.540000 21.540000)
  1 by 1 by 1 MPI processor grid
  reading atoms ...
  1000 atoms
  read_data CPU = 0.002 seconds

velocity 		all create ${temp} 87287 rot yes dist gaussian
velocity 		all create 0.35 87287 rot yes dist gaussian

# ------------------ Interação Interatômica -------------------

pair_style		table linear 1000
pair_coeff		1 1 force.table AA 5.0
WARNING: 2 of 1000 force values in table AA are inconsistent with -dE/dr.
WARNING:  Should only be flagged at inflection points (src/pair_table.cpp:465)
pair_coeff		1 2 force.table AB 5.0
WARNING: 1 of 1000 force values in table AB are inconsistent with -dE/dr.
WARNING:  Should only be flagged at inflection points (src/pair_table.cpp:465)
pair_coeff		2 2 force.table BB 5.0
pair_write		1 1 1000 r 0.008 5.0 table.check AA
Appending to table file table.check with DATE: 2023-06-15
Neighbor list info ...
  update every 1 steps, delay 10 steps, check yes
  max neighbors/atom: 2000, page size: 100000
  master list distance cutoff = 5.3
  ghost atom cutoff = 5.3
  binsize = 2.65, bins = 9 9 9
  1 neighbor lists, perpetual/occasional/extra = 1 0 0
  (1) pair table, perpetual
      attributes: half, newton on
      pair build: half/bin/atomonly/newton
      stencil: half/bin/3d
      bin: standard
pair_write		1 2 1000 r 0.008 5.0 table.check AB
Appending to table file table.check with DATE: 2023-06-15
pair_write		2 2 1000 r 0.008 5.0 table.check BB
Appending to table file table.check with DATE: 2023-06-15

neighbor 		0.3 bin
neigh_modify		every 20 delay 0 check no

# ------------------------- Ensemble --------------------------------------

fix 1			all npt temp ${temp} ${temp} 0.5 iso ${press} ${press} 5
fix 1			all npt temp 0.35 ${temp} 0.5 iso ${press} ${press} 5
fix 1			all npt temp 0.35 0.35 0.5 iso ${press} ${press} 5
fix 1			all npt temp 0.35 0.35 0.5 iso 0.13 ${press} 5
fix 1			all npt temp 0.35 0.35 0.5 iso 0.13 0.13 5

# ---------------------- Função de Distribuição Radial -----------------------

#compute RDF 		all rdf 2000 1 1 1 2 2 2
#fix 2 			all ave/time 1 2000 2000 c_RDF[*] file rdf.data mode vector

# ------------------------- Execução ---------------------------

timestep 		0.005
thermo_style		custom step temp pe ke etotal press vol atoms
thermo			2000
run			3000000
Per MPI rank memory allocation (min/avg/max) = 2.670 | 2.670 | 2.670 Mbytes
Step Temp PotEng KinEng TotEng Press Volume Atoms 
       0         0.35     1.964055     0.524475      2.48853    1.8538115    9993.9483     1000 
    2000   0.35684362   -2.8022167   0.53473017   -2.2674865   0.14310182    11566.182     1000 
    4000   0.34222456   -2.8314693    0.5128235   -2.3186458   0.13550336    11659.172     1000 
    6000   0.35410462   -2.9227477   0.53062577   -2.3921219   0.13938621    11643.796     1000 
    8000   0.34791424   -2.8996702   0.52134948   -2.3783207   0.12742044    11636.261     1000 
   10000   0.33049937   -2.9385678    0.4952533   -2.4433145   0.12622855    11632.189     1000 
   12000   0.34400933    -2.920522   0.51549798    -2.405024   0.13366462    11623.142     1000 
   14000   0.35116744    -2.956076   0.52622442   -2.4298516   0.11890553    11723.423     1000 
   16000   0.35016811   -2.8924995   0.52472692   -2.3677726    0.1289703    11650.996     1000 
   18000   0.34722047   -2.9364662   0.52030988   -2.4161563   0.12461455    11670.363     1000 
   20000   0.34725214   -2.9522354   0.52035734    -2.431878   0.13441265    11570.566     1000 
   22000   0.35518658   -2.9360985   0.53224709   -2.4038514   0.13047642    11702.649     1000 
   24000   0.35978684   -2.9316891   0.53914058   -2.3925485    0.1185896    11752.829     1000 
   26000   0.35831754   -2.9812954   0.53693883   -2.4443566   0.12983293    11648.469     1000 
   28000   0.34772327   -2.9602845   0.52106333   -2.4392211   0.11657384    11700.396     1000 
   30000    0.3361743   -2.9573052   0.50375719    -2.453548   0.11358094    11657.241     1000 
   32000   0.34199826   -2.9580667    0.5124844   -2.4455823   0.13351203    11509.183     1000 
   34000   0.34752647   -2.9692631   0.52076841   -2.4484947   0.11646825    11749.731     1000 
   36000   0.35869123   -2.9874063   0.53749881   -2.4499075   0.12927436    11636.227     1000 
   38000   0.36431922   -2.9921602   0.54593236   -2.4462278   0.14555087    11467.237     1000 
   40000   0.34472961   -2.9436931   0.51657732   -2.4271158   0.12663097    11566.199     1000 
   42000   0.34912342   -3.0163852   0.52316145   -2.4932238     0.123567    11636.365     1000 
   44000   0.34736995   -2.9958416   0.52053388   -2.4753077   0.13233534    11600.181     1000 
   46000   0.34902646    -2.977379   0.52301615   -2.4543628   0.14665892    11522.861     1000 
   48000   0.35417145   -3.0192503   0.53072592   -2.4885244    0.1259596    11706.564     1000 
   50000   0.35958982    -2.965997   0.53884534   -2.4271516   0.13354391     11598.22     1000 
   52000   0.36733955   -2.9842701   0.55045832   -2.4338118   0.12631317    11650.388     1000 
   54000   0.35171609   -3.0187754   0.52704656   -2.4917288   0.12170867    11745.687     1000 
   56000   0.35282363     -2.99406   0.52870621   -2.4653538   0.14097941    11528.882     1000 
   58000   0.34510052   -2.9878581   0.51713313   -2.4707249   0.13002819    11675.533     1000 
   60000   0.35053256   -2.9814495   0.52527305   -2.4561765   0.13340252    11623.468     1000 
   62000   0.34948445   -2.9944948   0.52370245   -2.4707924   0.13819302    11573.204     1000 
   64000   0.34059485   -3.0436843   0.51038139   -2.5333029    0.1122008     11766.77     1000 
   66000   0.35151569   -2.9909997   0.52674626   -2.4642534     0.130904    11613.978     1000 
   68000   0.33962054   -3.0252889   0.50892138   -2.5163676   0.13105427     11705.71     1000 
   70000   0.36003133    -3.003219   0.53950695   -2.4637121   0.12963275    11616.909     1000 
   72000   0.33128248    -2.978043    0.4964268   -2.4816162   0.10869442    11721.085     1000 
   74000   0.34934314   -2.9753775    0.5234907   -2.4518868   0.13816467    11525.224     1000 
   76000   0.35158384   -2.9861413   0.52684839   -2.4592929   0.13335664    11672.767     1000 
   78000   0.34974369   -2.9602231   0.52409092   -2.4361322   0.12768236     11538.54     1000 
   80000   0.36024456   -2.9945448   0.53982648   -2.4547183   0.13101389    11658.279     1000 
   82000   0.36225899   -3.0434926    0.5428451   -2.5006475   0.12312523    11702.378     1000 
   84000   0.37375494    -3.022347   0.56007178   -2.4622752    0.1348414    11616.041     1000 
   86000   0.35321476   -3.0109329   0.52929233   -2.4816406   0.12176144    11646.969     1000 
   88000   0.34584327   -3.0122393   0.51824614   -2.4939931   0.12318181     11704.83     1000 
   90000   0.35502117   -2.9911466   0.53199923   -2.4591473   0.13260168    11657.723     1000 
   92000   0.35133317   -3.0087708   0.52647275   -2.4822981   0.13822459    11632.334     1000 
   94000   0.33393156   -2.9923982   0.50039645   -2.4920017   0.13322792     11722.76     1000 
   96000   0.33457485   -2.9980887   0.50136041   -2.4967283   0.12716168    11638.221     1000 
   98000   0.34802952   -2.9848538   0.52152223   -2.4633315   0.13836322    11544.557     1000 
  100000   0.34708166   -3.0096976   0.52010186   -2.4895958   0.12243921    11734.505     1000 
  102000   0.34802089   -3.0172028    0.5215093   -2.4956935   0.13369152    11585.392     1000 
  104000   0.36252835   -3.0138013   0.54324873   -2.4705526   0.13167355    11620.266     1000 
  106000   0.35001643   -3.0081168   0.52449962   -2.4836172   0.12806425    11634.124     1000 
  108000   0.34166933   -2.9541551   0.51199149   -2.4421636   0.11873524    11765.758     1000 
  110000   0.35002088   -2.9725684   0.52450628   -2.4480621   0.12869446    11687.952     1000 
  112000   0.36703047   -3.0062229   0.54999516   -2.4562277   0.12840367    11634.753     1000 
  114000   0.35322304   -3.0264469   0.52930472   -2.4971421   0.12310416     11569.88     1000 
  116000   0.35959864   -3.0392362   0.53885856   -2.5003777   0.14247425     11549.38     1000 
  118000   0.35728758   -2.9931651   0.53539544   -2.4577696   0.13405052    11546.687     1000 
  120000   0.36509137   -3.0656642   0.54708943   -2.5185747   0.13161108    11650.219     1000 
  122000   0.34088031   -3.0240103   0.51080915   -2.5132012   0.11774871     11774.34     1000 
  124000   0.35690709   -3.0036069   0.53482528   -2.4687817   0.11763681    11713.646     1000 
  126000   0.33981237   -3.0253932   0.50920884   -2.5161844   0.12634997    11500.374     1000 
  128000   0.36693829   -3.0073524   0.54985702   -2.4574954   0.12516743    11682.046     1000 
  130000   0.34529432   -3.0118017   0.51742354   -2.4943782   0.14315102    11506.177     1000 
  132000   0.34403477   -3.0166252    0.5155361   -2.5010891   0.13548571    11711.429     1000 
  134000   0.34634679   -2.9998248   0.51900067   -2.4808241   0.13229635    11589.084     1000 
  136000   0.35505843   -3.0296223   0.53205505   -2.4975672   0.12061554    11663.852     1000 
  138000   0.36187338   -3.0572168   0.54226726   -2.5149495    0.1229509    11705.552     1000 
  140000   0.35310131   -3.0561099   0.52912232   -2.5269876   0.12385751    11695.275     1000 
  142000   0.35506417   -2.9857273   0.53206365   -2.4536636   0.13837771    11501.663     1000 
  144000   0.35368304    -3.019247   0.52999404    -2.489253   0.13816615     11535.88     1000 
  146000   0.34930549   -3.0122477   0.52343427   -2.4888134   0.14370992    11494.042     1000 
  148000   0.34253843   -3.0067336   0.51329383   -2.4934398   0.12850257    11608.597     1000 
  150000   0.36261673   -2.9630526   0.54338118   -2.4196714   0.13196736    11447.943     1000 
  152000   0.34485504   -3.0082207   0.51676527   -2.4914555   0.13169389    11596.575     1000 
  154000   0.34019557   -3.0261214   0.50978307   -2.5163383    0.1363098    11606.322     1000 
  156000   0.33678323    -2.988755   0.50466967   -2.4840853   0.11042778    11633.856     1000 
  158000   0.34613274   -2.9994383    0.5186799   -2.4807584   0.12831665    11607.161     1000 
  160000   0.34910231   -3.0402639   0.52312982   -2.5171341   0.12316763    11644.613     1000 
  162000   0.34722375   -3.0183466   0.52031479   -2.4980318   0.12607899    11677.912     1000 
  164000   0.35330954   -3.0203227   0.52943434   -2.4908883   0.13949166    11582.027     1000 
  166000   0.34148057   -3.0054049   0.51170864   -2.4936963   0.12609705    11606.763     1000 
  168000   0.35052937   -2.9863248   0.52526826   -2.4610565   0.13797571    11491.693     1000 
  170000   0.34221667   -2.9967455   0.51281168   -2.4839338   0.12649258    11671.263     1000 
  172000   0.35997991   -2.9999176    0.5394299   -2.4604877   0.12530455    11667.047     1000 
  174000   0.33348136   -3.0097043   0.49972182   -2.5099825    0.1236312    11614.347     1000 
  176000   0.34811955   -2.9930151   0.52165715    -2.471358   0.12962186    11641.966     1000 
  178000   0.37437223   -3.0040272   0.56099679   -2.4430304   0.13446097    11570.907     1000 
  180000   0.36112205   -3.0513199   0.54114139   -2.5101785    0.1181327    11784.969     1000 
  182000   0.35090064   -2.9951879   0.52582461   -2.4693633   0.12266427    11743.441     1000 
  184000   0.37120531   -2.9765178   0.55625116   -2.4202666    0.1499144    11470.363     1000 
  186000   0.34997993   -2.9882983   0.52444492   -2.4638534    0.1244125    11672.816     1000 
  188000   0.36271916   -2.9737872   0.54353467   -2.4302525    0.1273744     11674.06     1000 
  190000   0.34076291   -2.9695665   0.51063322   -2.4589333   0.12691813    11693.404     1000 
  192000   0.36354911   -2.9801406   0.54477834   -2.4353623   0.12687056    11594.379     1000 
  194000   0.34985991   -3.0028419   0.52426507   -2.4785769   0.12334236     11618.08     1000 
  196000   0.33633341   -3.0041984   0.50399561   -2.5002027   0.13234446    11581.934     1000 
  198000   0.35649028   -2.9646347   0.53420068    -2.430434   0.11910574    11678.129     1000 
  200000   0.35610039   -3.0043115   0.53361643   -2.4706951   0.12352108    11663.475     1000 
  202000   0.35217233   -2.9918438   0.52773023   -2.4641136   0.13095335    11590.579     1000 
  204000   0.36385166    -2.962688   0.54523172   -2.4174563   0.12937637    11559.871     1000 
  206000   0.34487285   -3.0291531   0.51679196   -2.5123612   0.12850673    11600.898     1000 
  208000   0.34802028   -3.0138772   0.52150839   -2.4923689   0.12685684    11642.923     1000 
  210000   0.36671837   -3.0261818   0.54952747   -2.4766543   0.12618825    11755.175     1000 
  212000   0.35206434   -3.0274791   0.52756841   -2.4999107   0.12361097    11641.602     1000 
  214000   0.34073123   -2.9832342   0.51058575   -2.4726484   0.11369971    11662.253     1000 
  216000    0.3702798   -2.9683123   0.55486428    -2.413448   0.11963289     11705.05     1000 
  218000    0.3455833   -3.0429976   0.51785658   -2.5251411   0.13013915     11653.18     1000 
  220000   0.35742625    -3.029917   0.53560324   -2.4943138   0.13302626    11654.887     1000 
  222000   0.36700817   -2.9846954   0.54996174   -2.4347337   0.13640801    11607.108     1000 
  224000   0.35800461   -3.0052977    0.5364699   -2.4688278   0.14114737     11542.33     1000 
  226000    0.3594639    -2.988504   0.53865665   -2.4498473   0.13393503    11585.703     1000 
  228000    0.3505433   -2.9885093   0.52528914   -2.4632202   0.12472362    11664.716     1000 
  230000   0.34393759   -2.9837422   0.51539048   -2.4683517   0.13007815    11650.151     1000 
  232000   0.36294709   -3.0384937   0.54387621   -2.4946175   0.13662761    11570.651     1000 
  234000   0.36827712   -2.9974437   0.55186327   -2.4455805   0.12581459    11588.499     1000 
  236000   0.36879704   -2.9966458   0.55264236   -2.4440034   0.14605883    11517.667     1000 
  238000     0.341093   -2.9869077   0.51112786   -2.4757799   0.13449561    11622.313     1000 
  240000   0.35319759   -2.9910206   0.52926658   -2.4617541   0.12367077    11628.426     1000 
  242000   0.34764207   -3.0040074   0.52094164   -2.4830657   0.13526348    11589.045     1000 
  244000   0.33399541   -2.9699436   0.50049213   -2.4694515    0.1284494    11611.227     1000 
  246000   0.35890723   -3.0405472   0.53782248   -2.5027247   0.12768368    11695.726     1000 
  248000   0.33664392   -3.0595666   0.50446091   -2.5551057   0.12266927    11662.572     1000 
  250000   0.34626631   -3.0402086   0.51888007   -2.5213285   0.12970118     11601.55     1000 
  252000   0.35492859   -3.0089903   0.53186049   -2.4771298   0.12631351     11637.11     1000 
  254000   0.34510827   -2.9984611   0.51714475   -2.4813164   0.12378832    11661.914     1000 
  256000   0.35988809   -3.0141898   0.53929231   -2.4748975   0.12519689    11615.428     1000 
  258000   0.34760312   -3.0073837   0.52088328   -2.4865004   0.13039894    11582.396     1000 
  260000   0.37162272   -2.9466766   0.55687664      -2.3898   0.12686109    11580.524     1000 
  262000     0.373287   -2.9926093   0.55937056   -2.4332387   0.12858977    11649.248     1000 
  264000   0.35893594   -2.9866369   0.53786551   -2.4487714   0.12003971    11647.858     1000 
  266000   0.33760592   -3.0072557   0.50590246   -2.5013532   0.11388979    11636.124     1000 
  268000   0.34862059   -2.9945741   0.52240795   -2.4721662   0.13487562    11555.962     1000 
  270000   0.35091931   -3.0380111   0.52585259   -2.5121585   0.13562698    11552.884     1000 
  272000   0.35389264   -3.0123133   0.53030812   -2.4820052   0.13509004    11572.916     1000 
  274000   0.36657543   -3.0123115   0.54931329   -2.4629982    0.1387473    11656.832     1000 
  276000   0.37017561   -3.0085467   0.55470815   -2.4538386    0.1314607    11726.557     1000 
  278000   0.34820202   -2.9672219   0.52178073   -2.4454411    0.1299468    11566.472     1000 
  280000   0.33647323   -3.0357064   0.50420514   -2.5315012   0.12299711    11598.236     1000 
  282000   0.34643251   -3.0261592   0.51912911   -2.5070301   0.13958239    11585.325     1000 
  284000   0.34409313   -2.9833643   0.51562356   -2.4677408   0.13952314    11508.312     1000 
  286000   0.34650898   -3.0188299   0.51924371   -2.4995862   0.13545805    11661.489     1000 
  288000    0.3438902   -3.0255583   0.51531946   -2.5102388   0.13026832    11620.489     1000 
  290000    0.3523105   -3.0043718   0.52793728   -2.4764345   0.12076063    11562.519     1000 
  292000   0.36989255   -2.9712658   0.55428398   -2.4169818   0.13499986     11517.02     1000 
  294000   0.34765556   -2.9861883   0.52096186   -2.4652264   0.13563424    11548.672     1000 
  296000    0.3646258   -3.0107394   0.54639176   -2.4643476   0.12450456    11619.437     1000 
  298000   0.33965561   -3.0153033   0.50897393   -2.5063294   0.11086409    11702.314     1000 
  300000   0.33872077   -2.9978324   0.50757307   -2.4902593   0.14180908    11607.196     1000 
  302000   0.33755428   -2.9669353   0.50582509   -2.4611103   0.12995163    11636.271     1000 
  304000   0.35254949   -3.0229686   0.52829542   -2.4946732   0.12845122    11728.996     1000 
  306000   0.35569977   -2.9987709    0.5330161   -2.4657548   0.14566661    11591.432     1000 
  308000   0.35870987   -2.9671758   0.53752674    -2.429649   0.15343068    11506.423     1000 
  310000   0.34619147   -2.9946928   0.51876792   -2.4759249   0.14282959    11448.739     1000 
  312000   0.34355321   -3.0128232   0.51481448   -2.4980087   0.13288228    11527.402     1000 
  314000   0.34925211   -2.9789054   0.52335429   -2.4555511   0.13440792    11574.512     1000 
  316000   0.34599817   -2.9722917   0.51847826   -2.4538134   0.12381136    11643.463     1000 
  318000   0.34942951   -3.0157915   0.52362013   -2.4921714   0.13355102    11524.103     1000 
  320000   0.34921552   -2.9776212   0.52329945   -2.4543218   0.12247496    11688.021     1000 
  322000   0.35128469   -2.9944922   0.52640011   -2.4680921   0.12811701    11633.739     1000 
  324000   0.35357908   -2.9893958   0.52983826   -2.4595575   0.11798242    11770.801     1000 
  326000   0.34694728    -3.016979    0.5199005   -2.4970785   0.12542627      11660.7     1000 
  328000   0.34407104   -3.0213273   0.51559045   -2.5057368    0.1219667    11647.533     1000 
  330000   0.34041137   -3.0061775   0.51010644    -2.496071   0.13203328    11600.282     1000 
  332000    0.3424479   -3.0036439   0.51315818   -2.4904857   0.12755506    11653.594     1000 
  334000    0.3609452   -2.9773349   0.54087638   -2.4364585   0.13793513    11573.825     1000 
  336000   0.36142313   -2.9832897   0.54159256   -2.4416971   0.13228568    11565.792     1000 
  338000   0.35148181   -2.9968978   0.52669549   -2.4702023   0.13291987    11517.392     1000 
  340000   0.35964328   -3.0281205   0.53892545   -2.4891951    0.1318605    11610.637     1000 
  342000   0.35207466   -3.0261728   0.52758387    -2.498589    0.1177949    11726.905     1000 
  344000   0.35203542   -2.9966841   0.52752508    -2.469159   0.13315172     11513.55     1000 
  346000   0.35349644   -3.0417709   0.52971442   -2.5120565   0.12004948    11738.044     1000 
  348000   0.34246006     -3.01313   0.51317641   -2.4999536   0.11802615    11632.941     1000 
  350000   0.34709727   -2.9898968   0.52012526   -2.4697716   0.13941443    11579.291     1000 
  352000   0.33574956   -3.0094672   0.50312071   -2.5063465   0.11837321    11625.372     1000 
  354000   0.35181284   -2.9623721   0.52719154   -2.4351806   0.12856026    11571.228     1000 
  356000   0.35684416   -2.9634648   0.53473097   -2.4287339   0.12778878    11666.352     1000 
  358000   0.35701848   -2.9917649    0.5349922   -2.4567727   0.12684535    11586.304     1000 
  360000   0.35101207   -2.9981082   0.52599158   -2.4721166   0.13526521     11623.69     1000 
  362000   0.34007451    -2.977469   0.50960166   -2.4678674   0.13275677    11590.625     1000 
  364000   0.34029003   -2.9831045    0.5099246   -2.4731799   0.13103088    11623.581     1000 
  366000   0.32824795   -2.9716195   0.49187955   -2.4797399    0.1325433    11573.211     1000 
  368000   0.33405691   -2.9970887   0.50058428   -2.4965044   0.11132862    11742.496     1000 
  370000   0.34338271   -3.0101872   0.51455899   -2.4956282   0.13750652    11634.865     1000 
  372000   0.35266797   -2.9954613   0.52847295   -2.4669883   0.13419539    11560.123     1000 
  374000   0.34517972   -2.9788111   0.51725181   -2.4615593   0.12626756      11575.6     1000 
  376000   0.36755305   -3.0174124   0.55077825   -2.4666341   0.12002587    11664.329     1000 
  378000   0.35852002   -2.9833645   0.53724224   -2.4461222   0.13215262    11690.773     1000 
  380000   0.35285501   -2.9868711   0.52875324   -2.4581179   0.15247443    11452.752     1000 
  382000   0.34822692   -2.9863689   0.52181804   -2.4645508   0.12850036    11534.714     1000 
  384000   0.35094561   -3.0412448     0.525892   -2.5153528   0.13078244    11705.547     1000 
  386000   0.34257653   -2.9613736   0.51335093   -2.4480227   0.15141133    11467.244     1000 
  388000   0.35157317   -2.9883721    0.5268324   -2.4615397   0.12532364    11695.371     1000 
  390000   0.33212921   -3.0039919   0.49769561   -2.5062962    0.1096385     11797.03     1000 
  392000   0.35725863   -3.0784264   0.53535206   -2.5430743   0.12247773     11664.54     1000 
  394000   0.32801053   -3.0101199   0.49152378   -2.5185961   0.11913686    11682.853     1000 
  396000   0.35104122   -2.9904162   0.52603527   -2.4643809   0.12735406    11709.161     1000 
  398000   0.34540646   -3.0031393   0.51759158   -2.4855478   0.12117071     11722.65     1000 
  400000   0.33381375   -3.0098383   0.50021991   -2.5096184   0.12862494    11677.596     1000 
  402000   0.34389231   -3.0190858   0.51532263   -2.5037632   0.12628689    11591.917     1000 
  404000   0.35227811   -2.9979624   0.52788874   -2.4700736   0.12623401    11632.378     1000 
  406000   0.35034139   -2.9838912   0.52498657   -2.4589046   0.13758319    11517.327     1000 
  408000   0.34723135   -2.9994085   0.52032618   -2.4790823   0.13036227    11541.672     1000 
  410000   0.34909798   -3.0320806   0.52312332   -2.5089573   0.14017204    11533.864     1000 
  412000   0.34520385   -3.0121424   0.51728797   -2.4948545   0.12654692    11625.613     1000 
  414000    0.3507156    -3.002017   0.52554733   -2.4764696   0.13679237    11660.533     1000 
  416000   0.34715613   -3.0179461   0.52021346   -2.4977326   0.13756021     11585.88     1000 
  418000   0.35305218   -3.0283478   0.52904869   -2.4992991   0.13953561    11568.357     1000 
  420000   0.34013384   -3.0441486   0.50969056    -2.534458   0.12980119    11671.814     1000 
  422000   0.34569707   -3.0165596   0.51802706   -2.4985326   0.13341614    11592.227     1000 
  424000   0.34996143   -3.0053791   0.52441721   -2.4809619   0.11762872    11686.923     1000 
  426000   0.35014569   -3.0278907   0.52469331   -2.5031974   0.11755764    11772.281     1000 
  428000   0.36198013   -3.0012739   0.54242723   -2.4588467   0.12657575    11648.449     1000 
  430000   0.35627998   -2.9976355   0.53388555   -2.4637499   0.13155788    11597.333     1000 
  432000    0.3463803   -2.9865426   0.51905088   -2.4674917   0.12395193    11691.386     1000 
  434000   0.34718733   -2.9983887   0.52026021   -2.4781284   0.14391917    11556.066     1000 
  436000   0.34997336   -3.0431003   0.52443508   -2.5186652   0.12258372    11639.082     1000 
  438000   0.34627994   -3.0237345   0.51890049    -2.504834   0.11823337    11622.857     1000 
  440000   0.34315534   -2.9805162   0.51421828   -2.4662979   0.13582528    11528.398     1000 
  442000   0.35306666   -3.0084962   0.52907039   -2.4794258   0.11898568    11703.639     1000 
  444000   0.34913859   -2.9998044   0.52318417   -2.4766203   0.12302566    11517.322     1000 
  446000   0.34846281   -2.9902135   0.52217153    -2.468042   0.12158345    11651.383     1000 
  448000   0.35173807    -3.007142   0.52707949   -2.4800625   0.11042188    11789.843     1000 
  450000   0.35313405   -2.9837968   0.52917137   -2.4546255   0.13539132    11533.543     1000 
  452000   0.35303369   -2.9570543   0.52902099   -2.4280333   0.12085903    11584.555     1000 
  454000   0.36956775   -2.9558005   0.55379728   -2.4020033   0.14925478    11459.314     1000 
  456000   0.35563209   -3.0410589   0.53291469   -2.5081442   0.11808569    11708.976     1000 
  458000   0.35907993   -2.9899463   0.53808128    -2.451865    0.1323999    11581.168     1000 
  460000   0.35759516   -2.9954268   0.53585635   -2.4595705   0.14119248    11658.164     1000 
  462000   0.35606908   -2.9576328   0.53356951   -2.4240633   0.14152855    11448.316     1000 
  464000   0.33578638   -3.0205974   0.50317589   -2.5174215   0.13769467    11652.979     1000 
  466000   0.36506721    -3.017423   0.54705321   -2.4703697     0.130066    11607.175     1000 
  468000   0.33933755   -2.9844383   0.50849733    -2.475941   0.13282824    11604.711     1000 
  470000   0.33986303   -3.0038817   0.50928476   -2.4945969   0.13198544    11602.069     1000 
  472000   0.35864997   -3.0266951   0.53743698   -2.4892581   0.13108411    11531.407     1000 
  474000   0.34753366    -3.012998   0.52077918   -2.4922188   0.12894193    11658.527     1000 
  476000   0.34159842   -2.9944312   0.51188523    -2.482546   0.12908462    11610.787     1000 
  478000   0.35950465   -2.9689742   0.53871772   -2.4302565    0.1289482    11587.767     1000 
  480000   0.35196948   -2.9637036   0.52742627   -2.4362773   0.14290512    11400.979     1000 
  482000   0.35594956   -3.0066242   0.53339042   -2.4732338   0.12888333    11642.037     1000 
  484000   0.35318578    -2.993894   0.52924889   -2.4646451   0.12602241    11570.801     1000 
  486000   0.35101953   -2.9855404   0.52600277   -2.4595376   0.13803033      11526.1     1000 
  488000   0.34424362   -2.9894986   0.51584907   -2.4736496   0.14219376    11511.438     1000 
  490000   0.34273465   -3.0148224   0.51358788   -2.5012345   0.12902304    11651.376     1000 
  492000   0.35126812   -2.9794781   0.52637527   -2.4531028   0.12940154    11598.047     1000 
  494000   0.35616073   -3.0186096   0.53370685   -2.4849028   0.14604191    11568.186     1000 
  496000   0.35106283   -3.0273569   0.52606765   -2.5012893   0.12886272    11643.599     1000 
  498000   0.36280073   -3.0224422   0.54365689   -2.4787853   0.14351102    11517.154     1000 
  500000   0.34845803   -3.0145485   0.52216436   -2.4923842   0.12389373    11678.585     1000 
  502000    0.3404187   -2.9908925   0.51011742   -2.4807751   0.13443066    11486.079     1000 
  504000   0.36563479   -2.9630783   0.54790373   -2.4151746   0.13241468    11641.433     1000 
  506000   0.34874718   -3.0099866   0.52259764    -2.487389   0.12788315    11543.805     1000 
  508000   0.35244752   -3.0029699   0.52814261   -2.4748273    0.1284356    11616.576     1000 
  510000   0.34050638   -3.0059962   0.51024881   -2.4957474   0.12693495    11565.721     1000 
  512000   0.35077265   -3.0135841   0.52563282   -2.4879513   0.13526084     11584.38     1000 
  514000   0.33554684   -3.0082348   0.50281694   -2.5054179   0.11826205    11652.474     1000 
  516000   0.35573583    -2.988888   0.53307015   -2.4558179   0.13601168    11561.324     1000 
  518000   0.34800224    -3.046545   0.52148136   -2.5250636   0.12668256    11661.754     1000 
  520000   0.33990846   -2.9895842   0.50935283   -2.4802313   0.14510244    11512.183     1000 
  522000   0.34659697   -2.9791981   0.51937555   -2.4598225   0.14239335    11438.567     1000 
  524000   0.35265593   -3.0093966   0.52845491   -2.4809417   0.12564585    11698.119     1000 
  526000   0.34421653    -3.023831   0.51580848   -2.5080225   0.14425864    11555.764     1000 
  528000   0.34155268   -2.9930294   0.51181668   -2.4812127   0.13424581    11565.494     1000 
  530000   0.34819484   -3.0011347   0.52176997   -2.4793647   0.13378027    11643.117     1000 
  532000   0.33480267    -2.964687    0.5017018   -2.4629852   0.13364978     11609.56     1000 
  534000   0.35037479   -2.9798575   0.52503662   -2.4548208    0.1349285     11587.43     1000 
  536000   0.33301302   -2.9928073   0.49902001   -2.4937873    0.1347521    11589.277     1000 
  538000   0.36609779   -3.0101915   0.54859755    -2.461594   0.13505554    11579.752     1000 
  540000   0.33545452   -2.9455769    0.5026786   -2.4428983   0.13297212    11496.914     1000 
  542000   0.35786047   -2.9806783   0.53625392   -2.4444244   0.13560869    11509.967     1000 
  544000   0.34400208   -3.0404581   0.51548711    -2.524971   0.12103338    11678.838     1000 
  546000   0.36208189   -2.9691326   0.54257971   -2.4265529    0.1456664    11569.458     1000 
  548000   0.35032498    -3.041886   0.52496198   -2.5169241   0.12597928    11662.078     1000 
  550000   0.35246984    -3.033983   0.52817606   -2.5058069   0.13585819    11590.151     1000 
  552000   0.34282492   -3.0133554   0.51372315   -2.4996323    0.1305963    11611.684     1000 
  554000   0.36152652   -2.9861072   0.54174749   -2.4443597   0.14023357    11513.646     1000 
  556000   0.35735624   -3.0198441   0.53549832   -2.4843458   0.13597986    11599.983     1000 
  558000   0.33737524   -3.0268626   0.50555679   -2.5213058   0.12704636    11623.229     1000 
  560000   0.33621834   -2.9902623   0.50382318   -2.4864392    0.1276788    11664.146     1000 
  562000   0.34831101   -3.0279218   0.52194406   -2.5059778   0.12831483    11682.439     1000 
  564000   0.35589256   -3.0055415     0.533305   -2.4722365   0.13660099    11590.093     1000 
  566000    0.3592539   -2.9749321   0.53834198   -2.4365901   0.11941394    11621.211     1000 
  568000   0.36436821   -3.0286162   0.54600577   -2.4826104   0.13470618     11638.82     1000 
  570000   0.36131029   -3.0382885   0.54142347   -2.4968651   0.14071405    11569.996     1000 
  572000   0.34546939   -2.9950287   0.51768588   -2.4773429   0.13792428    11572.761     1000 
  574000    0.3484006   -3.0218666    0.5220783   -2.4997883   0.12877539     11676.04     1000 
  576000   0.33972544   -3.0231968   0.50907857   -2.5141182   0.12664611    11638.715     1000 
  578000   0.35626227   -2.9977352   0.53385901   -2.4638761    0.1202323    11646.997     1000 
  580000   0.33496858   -3.0107259   0.50195042   -2.5087755   0.13372018    11521.789     1000 
  582000   0.34970766   -2.9651822   0.52403693   -2.4411453   0.13141243    11516.745     1000 
  584000   0.34808757   -3.0030208   0.52160922   -2.4814115   0.13399624    11545.626     1000 
  586000   0.34398405   -2.9944805    0.5154601   -2.4790204   0.12516335    11599.981     1000 
  588000   0.34614207   -3.0313805   0.51869389   -2.5126866   0.13566166    11548.988     1000 
  590000   0.35666784   -2.9924748   0.53446675    -2.458008   0.12499333    11665.383     1000 
  592000   0.34554428   -3.0145113    0.5177981   -2.4967132     0.107638    11711.192     1000 
  594000   0.34475202   -2.9910145   0.51661091   -2.4744036   0.12253989    11631.245     1000 
  596000   0.33766584   -3.0144143   0.50599226   -2.5084221   0.13567915    11579.588     1000 
  598000   0.34594053   -2.9740594   0.51839189   -2.4556675   0.13451122    11610.631     1000 
  600000   0.34906726   -3.0032968   0.52307728   -2.4802195   0.12891313    11544.994     1000 
  602000   0.34946928   -3.0234637   0.52367971    -2.499784   0.12314487    11736.306     1000 
  604000   0.35341404   -2.9638923   0.52959094   -2.4343013   0.13672839    11520.938     1000 
  606000   0.34579975   -3.0169868   0.51818092   -2.4988059   0.12912973    11615.678     1000 
  608000   0.35798629   -2.9645729   0.53644246   -2.4281304   0.13064852     11578.98     1000 
  610000   0.35359334   -2.9896147   0.52985961   -2.4597551   0.13869826    11582.554     1000 
  612000   0.37853739   -2.9668091   0.56723827   -2.3995708     0.141277    11510.808     1000 
  614000   0.37059716   -2.9833615   0.55533984   -2.4280217   0.13347054    11636.359     1000 
  616000   0.35813895   -3.0087938   0.53667122   -2.4721226    0.1259935    11630.901     1000 
  618000   0.35513524   -2.9976893   0.53217015   -2.4655192   0.14456694    11463.744     1000 
  620000   0.33907032   -3.0104291   0.50809688   -2.5023323    0.1258869    11573.082     1000 
  622000   0.35837598   -2.9795165   0.53702641   -2.4424901   0.13386738    11543.821     1000 
  624000    0.3567372   -2.9886931   0.53457069   -2.4541224   0.15050422    11552.208     1000 
  626000   0.35383323   -3.0187224   0.53021909   -2.4885033   0.13289589    11557.928     1000 
  628000   0.34838036   -2.9938193   0.52204797   -2.4717713   0.12478375    11594.054     1000 
  630000   0.34333002   -2.9764936   0.51448004   -2.4620136   0.13602945    11576.059     1000 
  632000    0.3584535   -3.0083895   0.53714257    -2.471247   0.13930635    11647.047     1000 
  634000   0.34985016   -3.0382254   0.52425046    -2.513975   0.12021075    11698.525     1000 
  636000   0.36785046   -3.0148245   0.55122392   -2.4636006   0.12769766    11549.624     1000 
  638000   0.35353516   -3.0085172   0.52977244   -2.4787447   0.12810386    11587.912     1000 
  640000   0.35072911   -3.0336756   0.52556756    -2.508108   0.13909843    11662.731     1000 
  642000   0.34738393   -2.9960294   0.52055481   -2.4754746   0.11768429    11666.819     1000 
  644000   0.34002056   -2.9430009    0.5095208     -2.43348   0.11558508    11586.265     1000 
  646000   0.34373598   -2.9885797   0.51508837   -2.4734914   0.13394098    11510.811     1000 
  648000    0.3672721   -3.0378038   0.55035724   -2.4874466   0.12098256    11615.618     1000 
  650000   0.34521675   -2.9899562    0.5173073   -2.4726489   0.14109969    11603.134     1000 
  652000   0.33952398   -2.9814008   0.50877668   -2.4726241   0.12542508    11646.164     1000 
  654000   0.35095479   -3.0219848   0.52590575   -2.4960791   0.12562552    11721.153     1000 
  656000   0.36143915   -3.0047078   0.54161656   -2.4630913   0.13606242    11526.407     1000 
  658000   0.35633291   -2.9870663   0.53396487   -2.4531014   0.13849026    11541.652     1000 
  660000   0.33058974   -3.0067939   0.49538873   -2.5114052   0.14051257    11537.827     1000 
  662000   0.33903026   -3.0066386   0.50803685   -2.4986018   0.11602758    11736.446     1000 
  664000   0.33022692   -2.9772467   0.49484503   -2.4824017   0.13834164    11558.926     1000 
  666000    0.3402564   -2.9947483   0.50987422   -2.4848741   0.13000432    11565.941     1000 
  668000   0.35853699   -2.9848808   0.53726768   -2.4476131   0.13785863    11560.181     1000 
  670000   0.35750899   -3.0126777   0.53572722   -2.4769504   0.13995235    11561.206     1000 
  672000   0.34974412   -3.0081681   0.52409156   -2.4840765   0.13375378    11614.653     1000 
  674000   0.35372212   -3.0498904   0.53005259   -2.5198378   0.13475737    11615.377     1000 
  676000   0.36021389   -3.0311373   0.53978052   -2.4913567   0.12950061    11637.833     1000 
  678000   0.35743659   -2.9711581   0.53561873   -2.4355394    0.1335875    11630.525     1000 
  680000   0.34557772   -2.9877338   0.51784822   -2.4698855   0.13032167    11475.844     1000 
  682000   0.35463491    -2.979563   0.53142041   -2.4481426    0.1286895    11536.785     1000 
  684000   0.34467601   -3.0131346   0.51649699   -2.4966376   0.14048092    11634.092     1000 
  686000   0.33866298   -3.0374539   0.50748647   -2.5299674    0.1407841    11562.441     1000 
  688000   0.36188358   -3.0370319   0.54228254   -2.4947493   0.12502588    11652.548     1000 
  690000   0.33933149   -3.0287365   0.50848824   -2.5202482   0.12880443    11652.855     1000 
  692000    0.3499189   -3.0169668   0.52435347   -2.4926133   0.13177112    11549.334     1000 
  694000   0.34118532   -2.9347616    0.5112662   -2.4234954    0.1225538    11582.231     1000 
  696000    0.3460927   -3.0125265    0.5186199   -2.4939066   0.13108397    11591.473     1000 
  698000   0.35858102   -3.0143347   0.53733365    -2.477001    0.1420641    11491.336     1000 
  700000   0.34829951   -3.0350636   0.52192682   -2.5131368   0.13013081    11629.007     1000 
  702000   0.34468288   -2.9892306   0.51650729   -2.4727233   0.12866529    11622.067     1000 
  704000   0.35791413   -2.9542732   0.53633433   -2.4179389    0.1279445    11567.858     1000 
  706000   0.36723377   -2.9879692    0.5502998   -2.4376694   0.13699039    11533.226     1000 
  708000   0.35312427   -3.0237253   0.52915671   -2.4945685   0.12777277    11655.782     1000 
  710000   0.35258139   -2.9930426   0.52834321   -2.4646994   0.14016196    11503.472     1000 
  712000    0.3522287   -3.0202685    0.5278147   -2.4924538   0.11978751    11651.103     1000 
  714000   0.33860016   -3.0035489   0.50739234   -2.4961566   0.12944035     11615.52     1000 
  716000   0.34853012   -3.0313451   0.52227239   -2.5090727   0.13160471    11656.521     1000 
  718000   0.35067186    -3.026525   0.52548178   -2.5010432   0.11805764    11795.417     1000 
  720000   0.33659435   -3.0081024   0.50438663   -2.5037158    0.1331781    11569.718     1000 
  722000   0.34385987   -2.9977753   0.51527401   -2.4825012   0.13009648    11557.524     1000 
  724000   0.35759926   -2.9560743    0.5358625   -2.4202118    0.1330605    11575.483     1000 
  726000   0.35308911   -2.9920571   0.52910404    -2.462953   0.12472406    11651.951     1000 
  728000   0.36054476   -2.9956903   0.54027632    -2.455414   0.12078643     11639.63     1000 
  730000   0.36016029   -3.0205364    0.5397002   -2.4808362   0.12676939    11590.317     1000 
  732000   0.36736852   -3.0361216   0.55050173   -2.4856199   0.12764793    11696.398     1000 
  734000   0.36170682   -3.0196609   0.54201767   -2.4776432   0.13109393    11545.968     1000 
  736000   0.34732562    -3.024703   0.52046744   -2.5042356   0.11025719    11700.193     1000 
  738000   0.35356687   -2.9785158   0.52981995   -2.4486959   0.12692057    11658.999     1000 
  740000    0.3468685   -2.9647394   0.51978244   -2.4449569   0.12375185    11609.455     1000 
  742000   0.35271515   -2.9906694   0.52854365   -2.4621257   0.12998083     11554.37     1000 
  744000   0.34983856   -2.9803726   0.52423308   -2.4561396   0.13964028    11454.566     1000 
  746000   0.34500891   -3.0470411   0.51699586   -2.5300453   0.11635462    11714.961     1000 
  748000   0.35172464   -2.9896741   0.52705937   -2.4626148   0.13013125    11583.813     1000 
  750000   0.33603367   -3.0052853   0.50354645   -2.5017389   0.11788435    11692.373     1000 
  752000   0.35921432   -3.0333787   0.53828266    -2.495096   0.11797812    11711.311     1000 
  754000   0.35615139    -3.007097   0.53369286   -2.4734042   0.12515256    11601.627     1000 
  756000   0.34769114   -3.0008729   0.52101517   -2.4798577   0.12286861    11660.749     1000 
  758000   0.34987173   -2.9924286   0.52428278   -2.4681458   0.12958644    11678.952     1000 
  760000   0.34373114     -3.00535   0.51508111   -2.4902689   0.13209465    11683.601     1000 
  762000    0.3547777   -2.9931228   0.53163438   -2.4614885   0.12269942    11681.482     1000 
  764000   0.34840791   -3.0071962   0.52208926    -2.485107    0.1286252    11548.366     1000 
  766000    0.3396379   -3.0241954    0.5089474    -2.515248   0.13369607    11534.188     1000 
  768000   0.34590263   -2.9890599    0.5183351   -2.4707248   0.12613235    11529.639     1000 
  770000   0.35817154   -3.0586975   0.53672005   -2.5219775   0.11999097    11732.745     1000 
  772000   0.35587241    -3.020711   0.53327481   -2.4874362   0.14127385    11605.839     1000 
  774000   0.36375134   -3.0046282   0.54508138   -2.4595468    0.1338728    11601.596     1000 
  776000   0.35125908   -2.9842607   0.52636173   -2.4578989   0.13343201    11570.946     1000 
  778000   0.35086524   -2.9959868   0.52577157   -2.4702152   0.13472401    11613.273     1000 
  780000   0.35918212   -3.0005936    0.5382344   -2.4623592   0.13029982    11652.216     1000 
  782000   0.34300272   -2.9898975   0.51398958   -2.4759079   0.12326357    11624.552     1000 
  784000   0.33896831   -3.0281053   0.50794401   -2.5201613   0.13421486    11584.586     1000 
  786000   0.34460897   -3.0009678   0.51639655   -2.4845713   0.12439177    11638.597     1000 
  788000   0.35542973   -2.9815574   0.53261145   -2.4489459   0.14322073    11485.328     1000 
  790000   0.33465154   -2.9743376   0.50147533   -2.4728623   0.12335364    11590.536     1000 
  792000   0.35310511   -3.0099661   0.52912801   -2.4808381    0.1387106    11581.368     1000 
  794000   0.35177583   -2.9762037   0.52713608   -2.4490676   0.13790849    11580.715     1000 
  796000   0.33801523   -2.9841432   0.50651582   -2.4776274   0.13474244    11543.248     1000 
  798000   0.33800462   -3.0002272   0.50649993   -2.4937272   0.13981514    11583.215     1000 
  800000   0.34595224   -2.9868799   0.51840943   -2.4684705   0.12050499    11713.259     1000 
  802000   0.34206404   -3.0043226   0.51258296   -2.4917396   0.14110217    11584.546     1000 
  804000   0.35415096   -2.9807245   0.53069522   -2.4500293   0.14344985    11514.139     1000 
  806000   0.33723881    -2.989287   0.50535236   -2.4839347   0.13018883    11630.586     1000 
  808000   0.34798893   -3.0171269   0.52146141   -2.4956655   0.12514325    11696.475     1000 
  810000   0.34349036   -3.0064167   0.51472031   -2.4916964   0.11511495    11727.163     1000 
  812000   0.33709024   -2.9999288   0.50512973    -2.494799   0.12501808    11672.216     1000 
  814000   0.33735058   -3.0202194   0.50551985   -2.5146995   0.12723185    11606.739     1000 
  816000   0.34946748   -3.0287652   0.52367702   -2.5050881   0.13675457    11559.632     1000 
  818000   0.34645577   -3.0268607   0.51916397   -2.5076968   0.13492096    11516.325     1000 
  820000   0.33676162   -2.9653148   0.50463728   -2.4606776   0.12125021    11671.811     1000 
  822000   0.34456809   -2.9781989   0.51633528   -2.4618636   0.13181007    11611.239     1000 
  824000   0.34820428   -3.0073257   0.52178411   -2.4855416   0.12890081    11635.866     1000 
  826000   0.36633596   -3.0293961   0.54895444   -2.4804417   0.13568008    11606.016     1000 
  828000   0.35909584   -3.0238805   0.53810511   -2.4857754   0.11993416    11636.545     1000 
  830000   0.33609023   -2.9849171   0.50363121   -2.4812859   0.13842957    11436.894     1000 
  832000   0.34823733    -2.932674   0.52183363   -2.4108404   0.12135123    11558.255     1000 
  834000   0.34491677   -2.9988054   0.51685778   -2.4819476   0.13782061    11638.046     1000 
  836000   0.34556366   -3.0096304   0.51782714   -2.4918032   0.12751968     11620.29     1000 
  838000   0.33614084   -2.9844818   0.50370705   -2.4807747   0.13561395    11517.458     1000 
  840000   0.35821944   -3.0102994   0.53679183   -2.4735076   0.12598883    11624.105     1000 
  842000   0.35343912    -2.973565   0.52962853   -2.4439364    0.1347738    11552.045     1000 
  844000   0.35904642   -2.9942088   0.53803106   -2.4561777   0.12152108     11707.56     1000 
  846000   0.35793109   -2.9992981   0.53635975   -2.4629384   0.12261014    11640.727     1000 
  848000     0.341753   -3.0090043   0.51211687   -2.4968874    0.1378459    11574.562     1000 
  850000   0.35622778   -3.0281698   0.53380733   -2.4943624   0.12728056     11579.31     1000 
  852000   0.35608439   -3.0080852   0.53359245   -2.4744927   0.14036125    11460.939     1000 
  854000   0.34916924   -3.0299998    0.5232301   -2.5067697   0.13162215     11607.08     1000 
  856000   0.35173886   -3.0443575   0.52708068   -2.5172768   0.12850467    11588.098     1000 
  858000   0.36586738   -2.9590016   0.54825227   -2.4107494   0.13132652    11562.983     1000 
  860000   0.33530469   -2.9540469   0.50245408   -2.4515928    0.1224166    11591.202     1000 
  862000   0.36134838   -2.9761679   0.54148054   -2.4346873   0.12644659    11560.588     1000 
  864000    0.3368368   -2.9982964   0.50474995   -2.4935464   0.12005049    11694.725     1000 
  866000   0.34252845   -3.0275811   0.51327888   -2.5143022   0.12398484    11662.379     1000 
  868000   0.34587438   -2.9788943   0.51829276   -2.4606015   0.12283162    11650.683     1000 
  870000   0.34273343   -2.9314867   0.51358604   -2.4179007   0.13621735     11494.87     1000 
  872000   0.34582738   -2.9891875   0.51822233   -2.4709651   0.11742844    11657.632     1000 
  874000   0.34870231   -3.0246833   0.52253041   -2.5021529   0.12610553    11577.972     1000 
  876000    0.3600002   -3.0222893   0.53946031    -2.482829   0.12467398    11688.092     1000 
  878000   0.34341912   -3.0159369   0.51461355   -2.5013234   0.11546866    11671.464     1000 
  880000   0.34174847   -2.9804374   0.51211008   -2.4683274    0.1357405    11645.353     1000 
  882000   0.35423896   -2.9743903   0.53082707   -2.4435632   0.13285093    11634.419     1000 
  884000   0.34055378   -3.0369459   0.51031984   -2.5266261   0.12647722    11690.808     1000 
  886000   0.35712074   -3.0455265   0.53514543   -2.5103811   0.13220561     11628.24     1000 
  888000   0.33595983    -3.045576   0.50343581   -2.5421402   0.13521832    11594.657     1000 
  890000   0.35724438   -3.0283483    0.5353307   -2.4930176   0.13396553    11588.467     1000 
  892000   0.34250367   -3.0163495   0.51324175   -2.5031077   0.13179728    11522.011     1000 
  894000   0.34163641   -2.9569211   0.51194216    -2.444979   0.13188962    11612.726     1000 
  896000   0.34043448   -3.0333373   0.51014107   -2.5231963   0.11835546    11721.878     1000 
  898000   0.33939931   -3.0196444   0.50858986   -2.5110546   0.11849913    11692.042     1000 
  900000   0.37283215   -3.0138991   0.55868897   -2.4552101   0.12228925    11722.199     1000 
  902000   0.37341928   -3.0135922    0.5595688   -2.4540234   0.12543801    11666.269     1000 
  904000   0.34116961     -2.99486   0.51124266   -2.4836173   0.13359934    11707.393     1000 
  906000   0.36288537   -3.0507355   0.54378373   -2.5069517     0.124764    11636.956     1000 
  908000    0.3401081   -3.0199795   0.50965198   -2.5103275   0.13470639     11587.43     1000 
  910000   0.35234931   -3.0293295   0.52799544   -2.5013341   0.13545441    11617.487     1000 
  912000   0.33207977   -2.9890339   0.49762153   -2.4914124    0.1160942    11663.577     1000 
  914000   0.36168156   -3.0307238   0.54197982    -2.488744   0.13163986    11648.575     1000 
  916000   0.35048113   -3.0042732   0.52519598   -2.4790772   0.12679881    11560.361     1000 
  918000   0.34125355   -2.9631459   0.51136844   -2.4517775   0.12399484    11490.827     1000 
  920000    0.3416422   -2.9552692   0.51195083   -2.4433184   0.12770351    11484.235     1000 
  922000    0.3417531   -3.0072489   0.51211702   -2.4951319   0.12401292    11633.215     1000 
  924000   0.35523174   -3.0294711   0.53231477   -2.4971563   0.14173519    11529.798     1000 
  926000   0.33971334    -3.027544   0.50906044   -2.5184835   0.12690156    11645.329     1000 
  928000   0.33865177   -2.9937695   0.50746967   -2.4862998   0.11237817    11766.358     1000 
  930000   0.34466473   -3.0240208   0.51648009   -2.5075407   0.12931487    11577.987     1000 
  932000   0.36548286   -3.0108809   0.54767606   -2.4632048   0.13938666    11523.536     1000 
  934000   0.35715153   -3.0221495   0.53519157    -2.486958   0.13111768    11654.208     1000 
  936000   0.35528847   -2.9922164   0.53239977   -2.4598166   0.12441445     11660.53     1000 
  938000    0.3458113   -3.0064985   0.51819824   -2.4883002   0.12806169    11636.202     1000 
  940000   0.33635849   -2.9935188    0.5040332   -2.4894856   0.13448291    11512.859     1000 
  942000    0.3651175   -3.0400563   0.54712858   -2.4929277   0.13087957    11609.454     1000 
  944000   0.34515405   -3.0098505   0.51721335   -2.4926372   0.12393156    11642.622     1000 
  946000   0.36624278   -2.9480693   0.54881481   -2.3992545   0.13663121    11417.789     1000 
  948000   0.34958006   -2.9920659   0.52384573   -2.4682202   0.12706532    11577.075     1000 
  950000   0.35475505   -2.9985229   0.53160044   -2.4669225   0.13110494     11550.61     1000 
  952000   0.36597016   -3.0264021   0.54840628   -2.4779958   0.11580929    11720.986     1000 
  954000   0.34726345   -3.0081298   0.52037429   -2.4877555   0.13096046    11619.836     1000 
  956000   0.34279237   -3.0364866   0.51367436   -2.5228123   0.12266143    11661.145     1000 
  958000    0.3610334   -2.9864212   0.54100855   -2.4454127   0.13141091    11500.119     1000 
  960000   0.35091388   -3.0280577   0.52584445   -2.5022133   0.12400353    11662.364     1000 
  962000   0.33867635   -3.0418762   0.50750651   -2.5343697   0.11931654    11671.202     1000 
  964000   0.35248718   -3.0222662   0.52820204   -2.4940641   0.12881401    11679.988     1000 
  966000   0.35894105   -2.9891635   0.53787316   -2.4512903   0.13297307    11560.733     1000 
  968000   0.36386214   -3.0279487   0.54524742   -2.4827013   0.11780657    11716.622     1000 
  970000   0.34489017   -3.0315464   0.51681792   -2.5147285   0.13509617    11618.863     1000 
  972000   0.35986661   -2.9943771   0.53926012    -2.455117   0.13193303    11617.007     1000 
  974000   0.34981216    -2.987604   0.52419353   -2.4634105   0.11799584    11713.841     1000 
  976000   0.34652325   -2.9871904    0.5192651   -2.4679253   0.13057471    11580.992     1000 
  978000   0.36930621   -2.9776723   0.55340536    -2.424267   0.12437033    11635.147     1000 
  980000   0.34819916   -3.0319141   0.52177644   -2.5101377   0.12209572    11637.383     1000 
  982000   0.33499544   -2.9702506   0.50199067   -2.4682599   0.12606349    11694.879     1000 
  984000   0.35027943    -3.027913   0.52489372   -2.5030193   0.12928181    11649.199     1000 
  986000   0.35864497   -2.9988848   0.53742948   -2.4614553   0.12914784    11622.118     1000 
  988000   0.35562785   -3.0137348   0.53290834   -2.4808264   0.13522164    11617.829     1000 
  990000   0.35604825   -2.9746168    0.5335383   -2.4410785   0.12643247    11582.888     1000 
  992000   0.34520193   -3.0343871    0.5172851    -2.517102   0.12599582    11651.531     1000 
  994000   0.35153613   -3.0437102   0.52677689   -2.5169333   0.11274115    11769.103     1000 
  996000   0.33104306   -2.9827829   0.49606803   -2.4867149   0.12385531    11624.344     1000 
  998000   0.35598521   -3.0216266   0.53344384   -2.4881828   0.12945705    11581.396     1000 
 1000000   0.35135288   -2.9878429   0.52650228   -2.4613406   0.12521055    11696.597     1000 
 1002000    0.3534299   -2.9607084    0.5296147   -2.4310937   0.12373457    11630.665     1000 
 1004000   0.35695571   -3.0136906   0.53489813   -2.4787925    0.1451984    11519.872     1000 
 1006000   0.34894706   -3.0025904   0.52289718   -2.4796932   0.13613869    11515.595     1000 
 1008000   0.35550602   -2.9828741   0.53272578   -2.4501484   0.12263871    11600.219     1000 
 1010000   0.36723392   -2.9854751   0.55030003   -2.4351751   0.12987332     11605.39     1000 
 1012000   0.34287024   -3.0118219   0.51379106   -2.4980309   0.12400244    11650.117     1000 
 1014000   0.36231457   -3.0084653   0.54292838   -2.4655369    0.1252382    11599.787     1000 
 1016000   0.35134086   -3.0109613   0.52648428    -2.484477   0.13616753    11492.856     1000 
 1018000    0.3469114   -2.9873184   0.51984673   -2.4674717   0.12888134    11735.335     1000 
 1020000   0.34558675   -3.0302893   0.51786175   -2.5124275   0.12494442    11644.364     1000 
 1022000   0.35131807   -3.0155795   0.52645013   -2.4891293   0.12778946    11635.501     1000 
 1024000   0.35933111   -2.9814714   0.53845767   -2.4430138   0.12236734    11683.258     1000 
 1026000   0.35339381   -3.0242691   0.52956062   -2.4947084   0.11761602    11766.326     1000 
 1028000   0.36997163   -3.0736956   0.55440249   -2.5192931   0.14107848     11640.82     1000 
 1030000   0.34716191   -3.0161488   0.52022212   -2.4959267   0.13200782    11609.394     1000 
 1032000   0.34995736   -3.0047489    0.5244111   -2.4803378   0.12351911    11714.334     1000 
 1034000   0.34674857   -3.0219216   0.51960274   -2.5023188   0.13791162    11623.915     1000 
 1036000   0.36980791   -3.0314638   0.55415716   -2.4773067   0.13547823    11600.292     1000 
 1038000   0.35102777   -2.9923244   0.52601511   -2.4663093   0.13224283    11616.869     1000 
 1040000   0.36227267   -3.0314738    0.5428656   -2.4886082   0.11667348    11733.676     1000 
 1042000   0.36073073   -3.0236463     0.540555   -2.4830913       0.1298    11728.797     1000 
 1044000   0.33784066   -2.9832074   0.50625423   -2.4769531   0.13580527    11552.549     1000 
 1046000   0.35035852   -2.9797881   0.52501224   -2.4547758   0.12255962    11591.054     1000 
 1048000   0.35075956    -2.996539    0.5256132   -2.4709258   0.13339721    11640.936     1000 
 1050000   0.35003111   -2.9987455   0.52452162   -2.4742239   0.12821692     11619.42     1000 
 1052000   0.35064287   -2.9966722   0.52543834   -2.4712338    0.1144393    11698.548     1000 
 1054000   0.36506332   -3.0245407   0.54704738   -2.4774933   0.13219814    11626.036     1000 
 1056000   0.34195066   -2.9622799   0.51241306   -2.4498669   0.13020331    11553.621     1000 
 1058000   0.35424931   -2.9819866    0.5308426    -2.451144   0.13208892    11519.457     1000 
 1060000   0.35338866   -2.9718076   0.52955291   -2.4422547   0.12748038    11602.774     1000 
 1062000   0.35325243   -2.9817418   0.52934876    -2.452393   0.11807701    11615.678     1000 
 1064000   0.36130918   -2.9756956    0.5414218   -2.4342738   0.13136276    11625.275     1000 
 1066000   0.35495823   -2.9519819   0.53190491    -2.420077   0.13026557    11483.467     1000 
 1068000    0.3572959   -3.0078046   0.53540791   -2.4723967   0.12874899    11580.333     1000 
 1070000   0.34927841   -3.0075183   0.52339369   -2.4841246   0.13631739    11503.159     1000 
 1072000   0.33794648   -3.0131218   0.50641279    -2.506709   0.11888992    11666.585     1000 
 1074000   0.36064201   -3.0049261   0.54042205    -2.464504   0.12751287    11628.816     1000 
 1076000   0.37652994   -2.9911345   0.56423012   -2.4269044   0.12821411    11582.259     1000 
 1078000   0.34752879   -2.9524196    0.5207719   -2.4316477   0.13433013    11554.875     1000 
 1080000   0.35151762   -3.0176943   0.52674916   -2.4909451   0.14063065     11554.05     1000 
 1082000   0.34566134   -2.9947574   0.51797352   -2.4767839   0.12882278    11540.802     1000 
 1084000   0.35311825   -2.9851675   0.52914769   -2.4560198   0.12660043    11632.507     1000 
 1086000   0.35159565   -2.9704054   0.52686609   -2.4435393   0.13192354    11549.334     1000 
 1088000   0.35896348   -3.0089116   0.53790678   -2.4710048   0.14212831    11529.355     1000 
 1090000    0.3453408   -3.0099035   0.51749319   -2.4924103    0.1317457    11558.137     1000 
 1092000   0.35116316   -2.9968365   0.52621799   -2.4706185   0.12388283    11572.547     1000 
 1094000   0.34650637   -3.0145749    0.5192398   -2.4953351   0.13683691    11657.746     1000 
 1096000    0.3461394   -3.0084094   0.51868989   -2.4897195   0.11193475    11701.847     1000 
 1098000   0.34812864    -3.012688   0.52167076   -2.4910172   0.13002754    11693.888     1000 
 1100000   0.34703178   -3.0314237   0.52002712   -2.5113965    0.1309418    11676.199     1000 
 1102000    0.3613094   -2.9875919   0.54142213   -2.4461698   0.13429557    11584.505     1000 
 1104000   0.35798602   -2.9952994   0.53644205   -2.4588574   0.12143057    11662.654     1000 
 1106000   0.31687348   -2.9673192   0.47483491   -2.4924843    0.1124162    11598.194     1000 
 1108000   0.35305993   -2.9912595   0.52906031   -2.4621992   0.13232395    11644.721     1000 
 1110000   0.35959825   -3.0500111   0.53885798   -2.5111531   0.11838673    11734.624     1000 
 1112000    0.3542974   -3.0215895   0.53091466   -2.4906749   0.14868385    11577.894     1000 
 1114000   0.34121079    -3.012459   0.51130438   -2.5011547   0.12809958    11543.462     1000 
 1116000   0.35099887    -2.997825   0.52597181   -2.4718531   0.12928531    11587.589     1000 
 1118000   0.32909084   -2.9628358   0.49314262   -2.4696932   0.11851461    11627.847     1000 
 1120000   0.34260049   -3.0014957   0.51338683   -2.4881089   0.13155627    11638.724     1000 
 1122000   0.34752053   -3.0188923   0.52075952   -2.4981328   0.13292213    11594.436     1000 
 1124000   0.36310579   -2.9856926   0.54411403   -2.4415786   0.11989769    11661.486     1000 
 1126000   0.34867861   -3.0014936    0.5224949   -2.4789987   0.13747597    11524.234     1000 
 1128000    0.3414926   -3.0176649   0.51172666   -2.5059383    0.1289708    11654.796     1000 
 1130000   0.34821571   -2.9647586   0.52180125   -2.4429573   0.13009195    11523.765     1000 
 1132000   0.34297989   -2.9897272   0.51395537   -2.4757718   0.13885108    11494.907     1000 
 1134000   0.36661993   -3.0054149   0.54937996   -2.4560349   0.12376811    11670.813     1000 
 1136000   0.36405345   -2.9983138    0.5455341   -2.4527797   0.13716801    11557.622     1000 
 1138000     0.353809   -3.0022864   0.53018279   -2.4721036   0.12302794    11612.228     1000 
 1140000    0.3324549   -3.0284158   0.49818367   -2.5302321   0.13715762    11558.849     1000 
 1142000   0.32684415   -3.0344599   0.48977596   -2.5446839   0.12795481    11663.698     1000 
 1144000   0.35203596    -3.000589   0.52752589   -2.4730631   0.12765867    11670.714     1000 
 1146000   0.36712476   -3.0003637   0.55013646   -2.4502272   0.11536606    11749.355     1000 
 1148000   0.35072225   -2.9996305    0.5255573   -2.4740732   0.12544943    11668.295     1000 
 1150000   0.33223106   -3.0124434   0.49784824   -2.5145952   0.12293458    11612.642     1000 
 1152000   0.34129412   -2.9654194   0.51142923   -2.4539902      0.13948    11521.055     1000 
 1154000    0.3477519   -3.0020792   0.52110621    -2.480973   0.12266268    11582.775     1000 
 1156000   0.34762746   -3.0056276   0.52091974   -2.4847078   0.11480298    11688.365     1000 
 1158000   0.32847261   -2.9970041   0.49221621   -2.5047878   0.13214989    11638.187     1000 
 1160000   0.35519472   -2.9634785   0.53225929   -2.4312192   0.11954191    11568.064     1000 
 1162000     0.354549    -2.978205   0.53129167   -2.4469134   0.13490364    11550.277     1000 
 1164000   0.37156093   -2.9942415   0.55678406   -2.4374575   0.12690826    11644.844     1000 
 1166000     0.349063    -2.970591   0.52307091   -2.4475201   0.13021854     11599.99     1000 
 1168000   0.34178267   -3.0168265   0.51216133   -2.5046651   0.15063324    11478.228     1000 
 1170000   0.35116332   -3.0001831   0.52621823   -2.4739648   0.13185234    11607.112     1000 
 1172000   0.33521621   -3.0130477   0.50232149   -2.5107262   0.12898682    11655.629     1000 
 1174000   0.34813417   -3.0247016   0.52167905   -2.5030225   0.13878654    11615.192     1000 
 1176000   0.36362075    -2.986377    0.5448857   -2.4414913   0.12646988    11650.898     1000 
 1178000   0.34604085   -2.9875099   0.51854221   -2.4689677   0.12781319    11661.236     1000 
 1180000   0.34181863   -3.0159265   0.51221522   -2.5037113   0.14028163    11510.664     1000 
 1182000   0.35346362   -2.9962538   0.52966523   -2.4665886   0.13851202    11558.175     1000 
 1184000   0.34539084   -2.9803885   0.51756817   -2.4628203   0.12703338    11649.778     1000 
 1186000   0.34549001     -2.98282   0.51771679   -2.4651032   0.13383403    11601.194     1000 
 1188000   0.35195753    -2.997272   0.52740836   -2.4698636   0.13549351    11545.574     1000 
 1190000    0.3495958   -3.0215498    0.5238693   -2.4976805   0.13059505    11664.285     1000 
 1192000   0.34551979   -2.9948272    0.5177614   -2.4770658   0.12648062    11632.054     1000 
 1194000   0.35446454   -3.0087356   0.53116511   -2.4775705   0.12241575    11668.678     1000 
 1196000    0.3399966    -2.986683   0.50948491   -2.4771981   0.12983615    11599.588     1000 
 1198000   0.35691782   -3.0111922   0.53484136   -2.4763508   0.13808015    11554.475     1000 
 1200000   0.34369139   -3.0048378   0.51502155   -2.4898162   0.12785718    11612.192     1000 
 1202000   0.36514789   -3.0007989   0.54717411   -2.4536248   0.13178182    11610.093     1000 
 1204000   0.35809804   -2.9933484   0.53660991   -2.4567384   0.11374225    11751.455     1000 
 1206000   0.34924352   -3.0146211   0.52334141   -2.4912797   0.12015313    11573.067     1000 
 1208000    0.3451791   -2.9954016   0.51725088   -2.4781508   0.13881152    11574.161     1000 
 1210000   0.34850809   -2.9693005   0.52223938   -2.4470611   0.12027754    11626.621     1000 
 1212000   0.36255568   -3.0456878   0.54328968   -2.5023982   0.13386968    11659.644     1000 
 1214000   0.33925664   -2.9994317   0.50837608   -2.4910556   0.13181309    11582.669     1000 
 1216000   0.35502093   -2.9872124   0.53199886   -2.4552136   0.13953762    11566.633     1000 
 1218000   0.33373258   -2.9648484   0.50009828   -2.4647501   0.13628627    11520.506     1000 
 1220000   0.34183083   -2.9777262   0.51223349   -2.4654927   0.14174035    11507.935     1000 
 1222000   0.34585391   -3.0164183   0.51826208   -2.4981562   0.12466051     11675.47     1000 
 1224000   0.35334487   -2.9984938   0.52948729   -2.4690065   0.12523122    11653.586     1000 
 1226000   0.34269871   -2.9940154   0.51353402   -2.4804814    0.1230989    11571.877     1000 
 1228000    0.3436488   -2.9900247   0.51495773   -2.4750669   0.13232775    11661.858     1000 
 1230000   0.35068619   -3.0240959   0.52550325   -2.4985927   0.11825431    11662.394     1000 
 1232000   0.35921938   -2.9682376   0.53829024   -2.4299474   0.12474531    11719.941     1000 
 1234000   0.33208844   -3.0127435   0.49763452    -2.515109    0.1299648    11678.956     1000 
 1236000    0.3604743   -2.9608972   0.54017073   -2.4207265   0.14204792    11485.057     1000 
 1238000    0.3520709   -2.9569622   0.52757824   -2.4293839    0.1415491    11467.243     1000 
 1240000   0.35089366   -2.9737651   0.52581414    -2.447951   0.12996363    11620.268     1000 
 1242000   0.33206896   -2.9581198   0.49760534   -2.4605145     0.118651    11667.623     1000 
 1244000   0.33391993   -2.9994459   0.50037901   -2.4990669   0.13444243    11571.523     1000 
 1246000   0.33753218   -2.9654477   0.50579197   -2.4596557    0.1319599    11542.946     1000 
 1248000   0.34400233   -3.0121672   0.51548749   -2.4966797    0.1316865    11611.453     1000 
 1250000   0.34302618    -2.981705   0.51402473   -2.4676803   0.12244787    11597.857     1000 
 1252000   0.34416491   -3.0151481   0.51573111    -2.499417   0.13415528    11588.083     1000 
 1254000   0.32890786   -3.0367322   0.49286842   -2.5438638     0.122914    11657.602     1000 
 1256000   0.34117867   -3.0435795   0.51125623   -2.5323232   0.12659059    11719.354     1000 
 1258000   0.34939751   -3.0378755   0.52357217   -2.5143034   0.12127241    11631.002     1000 
 1260000    0.3519919    -3.007464   0.52745986   -2.4800041    0.1389226    11586.854     1000 
 1262000   0.34905929   -3.0197594   0.52306534   -2.4966941   0.12662016    11712.023     1000 
 1264000    0.3465561   -2.9669545   0.51931432   -2.4476402   0.13310967    11637.209     1000 
 1266000   0.34505316   -3.0066681   0.51706216    -2.489606   0.13378203    11563.997     1000 
 1268000   0.34414563   -3.0049974   0.51570222   -2.4892952    0.1298409     11660.46     1000 
 1270000   0.35195963   -2.9968701   0.52741151   -2.4694586   0.11872644     11607.94     1000 
 1272000   0.35879671   -2.9892749   0.53765686   -2.4516181   0.12816451    11588.251     1000 
 1274000   0.35516654   -3.0067987   0.53221706   -2.4745816   0.12615774    11637.812     1000 
 1276000   0.34634464   -2.9860034   0.51899744    -2.467006   0.13206467    11604.835     1000 
 1278000   0.35593444   -3.0124258   0.53336776    -2.479058    0.1286612    11643.399     1000 
 1280000   0.36372745   -3.0057706   0.54504559    -2.460725   0.12309954    11601.747     1000 
 1282000   0.34773727   -2.9769626    0.5210843   -2.4558783   0.13946481    11563.117     1000 
 1284000   0.35081462   -2.9937496    0.5256957   -2.4680539   0.13650869    11600.465     1000 
 1286000   0.34766997    -2.987634   0.52098345   -2.4666506   0.11428539    11676.037     1000 
 1288000    0.3604203   -3.0242394   0.54008982   -2.4841495   0.14383788    11542.368     1000 
 1290000   0.35465156   -3.0386832   0.53144536   -2.5072378     0.122928    11739.235     1000 
 1292000   0.34663564   -3.0162821   0.51943351   -2.4968486   0.12308199    11609.997     1000 
 1294000   0.35131499   -2.9899339   0.52644551   -2.4634884   0.14405517    11452.838     1000 
 1296000    0.3596309   -2.9992381    0.5389069   -2.4603312   0.12453752    11642.377     1000 
 1298000   0.34734732   -2.9814006   0.52049996   -2.4609006   0.13900306    11536.201     1000 
 1300000   0.34249655   -2.9994902   0.51323108   -2.4862591   0.13374146    11536.711     1000 
 1302000   0.36247228   -2.9780547   0.54316472     -2.43489   0.13930218    11502.111     1000 
 1304000   0.35028774   -2.9773967   0.52490618   -2.4524905   0.11124694    11745.716     1000 
 1306000   0.35260701   -3.0139659   0.52838161   -2.4855843   0.12431149    11639.486     1000 
 1308000   0.34587118   -2.9772326   0.51828796   -2.4589447   0.12791078    11581.723     1000 
 1310000    0.3457744   -2.9941337   0.51814294   -2.4759907   0.12613411    11662.359     1000 
 1312000   0.34113416   -3.0010474   0.51118954   -2.4898579     0.132966    11615.322     1000 
 1314000   0.34479555   -2.9924165   0.51667614   -2.4757404   0.12519366    11697.923     1000 
 1316000   0.34690173     -2.98972   0.51983224   -2.4698877   0.13081784    11551.653     1000 
 1318000   0.35761242   -2.9823236   0.53588221   -2.4464414   0.13249372    11550.863     1000 
 1320000   0.33218875   -3.0347055   0.49778485   -2.5369207   0.11070909    11706.022     1000 
 1322000   0.36230933   -2.9999546   0.54292053   -2.4570341   0.11854714    11636.997     1000 
 1324000   0.35301848   -3.0028932    0.5289982    -2.473895   0.12802784    11565.461     1000 
 1326000   0.36084723   -3.0175711   0.54072958   -2.4768415   0.12093563    11675.515     1000 
 1328000   0.35429083   -3.0315054    0.5309048   -2.5006006   0.11756107    11752.902     1000 
 1330000   0.34732684   -2.9653909   0.52046927   -2.4449216   0.13736699    11576.932     1000 
 1332000   0.36430763   -2.9890275   0.54591498   -2.4431126   0.13520137    11588.354     1000 
 1334000   0.34366571   -3.0184927   0.51498307   -2.5035096   0.13064588    11553.449     1000 
 1336000    0.3576417   -3.0453972   0.53592609   -2.5094711   0.12758257    11651.968     1000 
 1338000   0.35518516   -3.0194458   0.53224496   -2.4872008   0.12411248    11625.618     1000 
 1340000   0.34842464   -3.0021342   0.52211433   -2.4800199   0.13009301    11514.379     1000 
 1342000    0.3399939   -3.0258369   0.50948086    -2.516356   0.13899014    11665.032     1000 
 1344000   0.35498193   -2.9858444   0.53194042    -2.453904   0.12170429     11678.06     1000 
 1346000   0.35722895   -2.9548453   0.53530758   -2.4195377    0.1434909    11502.873     1000 
 1348000   0.35652477   -2.9921808   0.53425237   -2.4579285   0.13122223    11619.129     1000 
 1350000   0.35238308   -2.9849541   0.52804605   -2.4569081   0.13633104    11689.097     1000 
 1352000   0.35754264   -2.9737516   0.53577764    -2.437974   0.13211468    11610.396     1000 
 1354000   0.34609553   -3.0193009   0.51862415   -2.5006767   0.12791691    11613.841     1000 
 1356000   0.35200578   -2.9541091   0.52748066   -2.4266285   0.12185469    11565.517     1000 
 1358000   0.36568491    -2.995263   0.54797883   -2.4472841   0.14840003    11493.424     1000 
 1360000   0.35184206   -3.0155381   0.52723533   -2.4883028   0.12844113    11592.456     1000 
 1362000   0.36024338   -2.9958117    0.5398247    -2.455987   0.12894097    11628.203     1000 
 1364000   0.36648418   -2.9898798   0.54917655   -2.4407032   0.13569845    11596.369     1000 
 1366000   0.34911436   -3.0570484   0.52314787   -2.5339005    0.1365922    11655.721     1000 
 1368000   0.35172874   -3.0254941   0.52706552   -2.4984286   0.13110448    11685.922     1000 
 1370000   0.35087472   -2.9840154   0.52578578   -2.4582296   0.14168089    11540.721     1000 
 1372000   0.36192783   -2.9703048   0.54234885   -2.4279559   0.11389302    11737.987     1000 
 1374000   0.37042306   -2.9743374   0.55507895   -2.4192585   0.14271793    11539.732     1000 
 1376000   0.33791105   -3.0219006   0.50635971   -2.5155409    0.1279023    11653.338     1000 
 1378000   0.34241275   -3.0299671    0.5131055   -2.5168616   0.12923855    11608.897     1000 
 1380000   0.37725591   -3.0039273   0.56531798   -2.4386093   0.11961297    11690.907     1000 
 1382000   0.34203668   -2.9909769   0.51254196    -2.478435   0.12332437    11596.722     1000 
 1384000   0.34393287   -3.0221189    0.5153834   -2.5067355   0.12960617    11717.564     1000 
 1386000   0.34310223    -3.026598   0.51413869   -2.5124593   0.12383482    11702.747     1000 
 1388000   0.35461551   -2.9711777   0.53139134   -2.4397863    0.1271694     11597.43     1000 
 1390000    0.3479131   -2.9808175   0.52134778   -2.4594697   0.13152201     11533.58     1000 
 1392000   0.35853036   -3.0182533   0.53725775   -2.4809956   0.13462423    11583.887     1000 
 1394000   0.34891633   -2.9783226   0.52285113   -2.4554715    0.1339027    11622.514     1000 
 1396000   0.35097288   -2.9926995   0.52593286   -2.4667666   0.12802361    11597.752     1000 
 1398000   0.35873234   -3.0023825   0.53756041   -2.4648221   0.12128112    11623.448     1000 
 1400000   0.36199886   -3.0013667   0.54245529   -2.4589114   0.11956618     11694.21     1000 
 1402000    0.3674431   -2.9375627   0.55061349   -2.3869493   0.12866172    11613.157     1000 
 1404000   0.35308532   -3.0207851   0.52909835   -2.4916868   0.12632163    11564.879     1000 
 1406000   0.33894149   -2.9558266   0.50790382   -2.4479228   0.12508821    11585.945     1000 
 1408000   0.35204343   -3.0208024   0.52753708   -2.4932654   0.11862201    11713.911     1000 
 1410000   0.34848536   -3.0084613   0.52220531    -2.486256   0.13375004    11631.768     1000 
 1412000   0.36146466   -2.9601296   0.54165479   -2.4184748   0.15303285    11456.649     1000 
 1414000   0.36162961   -2.9823068   0.54190197   -2.4404048   0.13811191    11617.834     1000 
 1416000   0.35131376   -2.9795089   0.52644367   -2.4530653   0.14612728    11525.199     1000 
 1418000   0.36675105   -2.9693827   0.54957645   -2.4198062   0.13638629    11612.609     1000 
 1420000   0.34956667   -2.9986658   0.52382566   -2.4748402   0.12824437    11673.748     1000 
 1422000   0.34024881   -2.9861685   0.50986284   -2.4763057    0.1264344    11676.775     1000 
 1424000   0.34742537   -2.9786139   0.52061691    -2.457997   0.12115894    11638.422     1000 
 1426000   0.34647619   -3.0076226   0.51919458    -2.488428   0.12620407    11607.372     1000 
 1428000   0.35393414   -2.9773102   0.53037031   -2.4469399   0.13259341    11543.535     1000 
 1430000   0.35419339   -2.9848903    0.5307588   -2.4541315   0.12888349    11593.892     1000 
 1432000   0.34245303   -3.0035223   0.51316586   -2.4903564   0.13107132    11597.227     1000 
 1434000   0.34645644   -3.0373911   0.51916497   -2.5182262   0.11894849    11681.033     1000 
 1436000   0.34601096   -2.9882796   0.51849742   -2.4697822   0.12337209    11599.444     1000 
 1438000    0.3435674    -3.002362   0.51483575   -2.4875262   0.13521385    11532.764     1000 
 1440000   0.34727785   -3.0137087   0.52039585   -2.4933129   0.12488699    11691.511     1000 
 1442000    0.3387754   -2.9985558   0.50765494   -2.4909009   0.11549775    11615.489     1000 
 1444000   0.34499276   -2.9990575   0.51697165   -2.4820858    0.1211049     11596.46     1000 
 1446000   0.35647588   -2.9949292   0.53417911   -2.4607501   0.12394809    11628.979     1000 
 1448000   0.35831907   -2.9607797   0.53694113   -2.4238385   0.13757107    11586.414     1000 
 1450000   0.33053888   -2.9870551   0.49531251   -2.4917426   0.12812162    11561.738     1000 
 1452000    0.3578929   -3.0113652   0.53630251   -2.4750627   0.13118491     11627.12     1000 
 1454000   0.34182703   -3.0103266   0.51222781   -2.4980987    0.1222533    11657.716     1000 
 1456000   0.34876001    -2.998208   0.52261688   -2.4755912   0.13208635    11441.968     1000 
 1458000   0.36403955   -3.0353114   0.54551327   -2.4897981   0.13350986    11562.895     1000 
 1460000   0.35576445   -2.9802238   0.53311303   -2.4471108    0.1257044    11652.496     1000 
 1462000   0.36262629   -2.9896608   0.54339549   -2.4462653   0.13215688    11591.142     1000 
 1464000   0.35005093    -2.989084   0.52455132   -2.4645327   0.12849159    11544.716     1000 
 1466000   0.35828694   -2.9745859   0.53689299   -2.4376929   0.13770163    11600.332     1000 
 1468000   0.34610404   -2.9771118   0.51863691   -2.4584749   0.12304093    11632.708     1000 
 1470000   0.35898888   -3.0122048   0.53794483     -2.47426   0.13825799    11588.662     1000 
 1472000   0.35391599   -2.9853126    0.5303431   -2.4549695   0.13040845    11600.877     1000 
 1474000   0.33905336   -3.0403554   0.50807146   -2.5322839   0.12903015    11678.146     1000 
 1476000   0.35340386   -3.0211462   0.52957569   -2.4915705   0.13088355    11680.098     1000 
 1478000   0.34007192   -2.9950545   0.50959777   -2.4854567   0.13615812    11509.865     1000 
 1480000   0.34330629   -2.9898117   0.51444448   -2.4753672   0.12327358    11660.707     1000 
 1482000     0.352251   -2.9875479   0.52784812   -2.4596997   0.13170813    11641.412     1000 
 1484000   0.34840297   -2.9882364   0.52208185   -2.4661545   0.12960529    11638.558     1000 
 1486000   0.35054883   -3.0051462   0.52529742   -2.4798488   0.13311505    11659.802     1000 
 1488000    0.3518952   -2.9827985   0.52731495   -2.4554836   0.12163523    11669.903     1000 
 1490000   0.35906594   -2.9781157    0.5380603   -2.4400554   0.12555938     11683.27     1000 
 1492000   0.36455634   -2.9981329   0.54628767   -2.4518452   0.14400951    11505.516     1000 
 1494000   0.36091504   -3.0313466   0.54083119   -2.4905154   0.12699591    11629.621     1000 
 1496000   0.34300501   -3.0224502   0.51399301   -2.5084572   0.11243234    11704.525     1000 
 1498000   0.34519986   -3.0152408     0.517282   -2.4979588   0.13424188    11637.288     1000 
 1500000   0.35735878   -2.9851454   0.53550213   -2.4496432   0.13750755    11532.447     1000 
 1502000   0.35126806   -2.9796861   0.52637518   -2.4533109    0.1487667    11498.228     1000 
 1504000   0.34092361   -3.0099213   0.51087403   -2.4990472   0.13022756    11619.582     1000 
 1506000   0.34581546   -2.9663038   0.51820447   -2.4480993   0.12912778    11582.337     1000 
 1508000   0.34643585   -3.0238682   0.51913411   -2.5047341   0.13379674    11610.586     1000 
 1510000   0.34343852   -2.9703434   0.51464263   -2.4557008   0.14309146    11514.149     1000 
 1512000   0.35192135   -2.9932935   0.52735414   -2.4659394   0.13697081    11607.908     1000 
 1514000   0.34333858   -3.0376536   0.51449286   -2.5231607   0.13023073    11677.425     1000 
 1516000   0.33861458   -3.0123177   0.50741395   -2.5049038   0.14087662    11520.703     1000 
 1518000   0.33947161   -3.0363455   0.50869821   -2.5276473   0.12618016    11708.008     1000 
 1520000   0.33965619    -2.999439    0.5089748   -2.4904642   0.12905369    11654.607     1000 
 1522000   0.33694762   -2.9853046   0.50491601   -2.4803886   0.13470453    11597.384     1000 
 1524000   0.35902888   -3.0488857   0.53800477    -2.510881    0.1221285    11721.527     1000 
 1526000   0.35558523   -3.0373321   0.53284447   -2.5044876   0.14609411    11534.184     1000 
 1528000   0.33937062   -3.0083444   0.50854688   -2.4997975   0.12919303    11644.781     1000 
 1530000   0.33653612   -2.9755064   0.50429938    -2.471207   0.12578137    11660.356     1000 
 1532000   0.35375123   -3.0040762   0.53009622   -2.4739799   0.12246562    11574.221     1000 
 1534000    0.3540576   -2.9948705   0.53055531   -2.4643152   0.12959831    11547.324     1000 
 1536000   0.34307398   -2.9949435   0.51409636   -2.4808471   0.13856739    11464.264     1000 
 1538000   0.33883704     -3.00794   0.50774731   -2.5001927   0.12884139    11569.613     1000 
 1540000   0.35914961   -2.9903189   0.53818568   -2.4521332   0.13190149    11587.295     1000 
 1542000   0.35043789   -2.9788635   0.52513117   -2.4537323   0.12773688    11696.089     1000 
 1544000   0.34323017   -3.0488362   0.51433041   -2.5345058   0.12776803     11635.97     1000 
 1546000   0.35513769   -3.0163694   0.53217382   -2.4841956   0.13052848    11539.922     1000 
 1548000   0.35826033   -2.9807541   0.53685311    -2.443901   0.14006765    11505.627     1000 
 1550000   0.33508056   -3.0063189   0.50211822   -2.5042006   0.11798699     11764.13     1000 
 1552000   0.34691596   -2.9993154   0.51985356   -2.4794618   0.13365495    11537.604     1000 
 1554000   0.36344134   -2.9812337   0.54461685   -2.4366168   0.12860296    11623.602     1000 
 1556000   0.34090457   -3.0244784   0.51084549   -2.5136329   0.12643789    11605.078     1000 
 1558000   0.34111531   -2.9945054    0.5111613   -2.4833441   0.12870386    11625.436     1000 
 1560000   0.33759258   -2.9850256   0.50588249   -2.4791432   0.13221738    11677.169     1000 
 1562000   0.34034989   -2.9883925   0.51001431   -2.4783782   0.12911698    11652.327     1000 
 1564000   0.35049006   -2.9986042   0.52520935   -2.4733948   0.12862306    11598.729     1000 
 1566000   0.35869036   -2.9627291    0.5374975   -2.4252316    0.1260728    11618.677     1000 
 1568000   0.35589952   -3.0098499   0.53331543   -2.4765345   0.13106852    11539.206     1000 
 1570000   0.33570932   -2.9807128   0.50306042   -2.4776524   0.11436005    11679.583     1000 
 1572000   0.34731863   -3.0310207   0.52045696   -2.5105637   0.13951206    11585.524     1000 
 1574000   0.35096018   -2.9591141   0.52591382   -2.4332003   0.12770269    11598.546     1000 
 1576000   0.33823628   -2.9973628   0.50684707   -2.4905157   0.12446623    11500.136     1000 
 1578000   0.34193729    -2.982365   0.51239303   -2.4699719   0.12328538    11589.932     1000 
 1580000   0.34749556   -2.9896278    0.5207221   -2.4689057   0.12610814    11624.742     1000 
 1582000   0.34904243   -2.9890607   0.52304008   -2.4660206   0.12990265    11538.292     1000 
 1584000   0.35390468   -2.9464459   0.53032616   -2.4161198   0.13593113    11519.326     1000 
 1586000    0.3513958    -2.972488   0.52656661   -2.4459214    0.1192637    11613.218     1000 
 1588000   0.35110258   -3.0023913   0.52612722   -2.4762641   0.13537843    11571.837     1000 
[...]
 2614000   0.33882306   -2.9841538   0.50772635   -2.4764275   0.13531838    11607.632     1000 
 2616000    0.3561794   -2.9763642   0.53373483   -2.4426293   0.14086828    11529.708     1000 
 2618000   0.35009406   -2.9629038   0.52461595   -2.4382878   0.13163858    11531.989     1000 
 2620000   0.35298478   -3.0408038   0.52894769   -2.5118561   0.13681222    11611.889     1000 
 2622000   0.35388048   -3.0032144    0.5302899   -2.4729245   0.13089148    11672.648     1000 
 2624000   0.35149691   -2.9895717   0.52671812   -2.4628535   0.12759722    11607.325     1000 
 2626000   0.34904579   -3.0090058   0.52304512   -2.4859607   0.11963874    11606.209     1000 
 2628000   0.36104554   -3.0307097   0.54102675   -2.4896829   0.12813456    11674.974     1000 
 2630000   0.36477179    -3.003643   0.54661052   -2.4570325   0.13665017    11575.056     1000 
 2632000   0.35797645   -3.0194632   0.53642771   -2.4830355   0.12711048    11640.314     1000 
 2634000   0.36026978   -3.0440074   0.53986427   -2.5041432   0.13469522    11552.692     1000 
 2636000   0.34705044   -3.0088378   0.52005509   -2.4887827   0.12182125    11656.721     1000 
 2638000   0.34082635   -2.9727582   0.51072829   -2.4620299   0.13699639    11603.228     1000 
 2640000    0.3506535   -2.9843667   0.52545427   -2.4589124   0.11835044    11565.139     1000 
 2642000   0.35061868   -2.9864014   0.52540209   -2.4609993   0.13398236    11553.858     1000 
 2644000    0.3421227   -3.0286657   0.51267087   -2.5159949   0.10755707    11715.258     1000 
 2646000   0.35129616   -3.0166816    0.5264173   -2.4902643   0.13058044    11583.052     1000 
 2648000   0.35300321   -3.0206035    0.5289753   -2.4916282   0.13550001    11508.758     1000 
 2650000   0.34281127   -3.0323127   0.51370268     -2.51861   0.12328287    11705.395     1000 
 2652000   0.36127217   -2.9896351   0.54136635   -2.4482687   0.13932285     11570.69     1000 
 2654000   0.34866459   -3.0432967   0.52247389   -2.5208228   0.12705996    11651.309     1000 
 2656000   0.34409174   -3.0133885   0.51562147    -2.497767   0.12660533    11581.216     1000 
 2658000   0.35228131   -3.0082786   0.52789354    -2.480385    0.1221422    11644.946     1000 
 2660000   0.35854829   -2.9915044   0.53728462   -2.4542197    0.1289175    11596.878     1000 
 2662000    0.3625758   -3.0565738   0.54331983    -2.513254   0.13337949    11623.715     1000 
 2664000   0.34724984   -2.9865195   0.52035388   -2.4661656   0.12375393      11551.9     1000 
 2666000   0.32885718   -2.9785557   0.49279248   -2.4857632   0.12476252    11582.637     1000 
 2668000   0.35326638   -2.9751135   0.52936967   -2.4457438    0.1361888    11559.374     1000 
 2670000   0.35232089   -2.9697489   0.52795285    -2.441796    0.1413884     11560.24     1000 
 2672000    0.3611473   -2.9895585   0.54117923   -2.4483793   0.11918604    11658.373     1000 
 2674000   0.36831134   -2.9869372   0.55191455   -2.4350227   0.13318826    11530.844     1000 
 2676000   0.32919574   -2.9742351   0.49329982   -2.4809353   0.13717151     11491.21     1000 
 2678000   0.34497626   -2.9751135   0.51694693   -2.4581666   0.12868807    11620.897     1000 
 2680000   0.33888319   -3.0028333   0.50781645   -2.4950168   0.13767826    11553.672     1000 
 2682000   0.35177501   -2.9765254   0.52713485   -2.4493905   0.13014205    11593.542     1000 
 2684000   0.35755792   -2.9981359   0.53580054   -2.4623354   0.13639056    11517.218     1000 
 2686000   0.34371296   -2.9503394   0.51505388   -2.4352856   0.12334689    11609.265     1000 
 2688000   0.35948384    -2.995164   0.53868654   -2.4564775   0.11489288    11698.648     1000 
 2690000   0.36241851   -2.9978827   0.54308414   -2.4547986   0.12604441    11607.279     1000 
 2692000   0.34617154   -2.9834278   0.51873805   -2.4646898   0.12961981    11624.716     1000 
 2694000   0.34774073   -3.0152233   0.52108948   -2.4941338   0.12870403    11629.366     1000 
 2696000   0.34397088   -2.9839173   0.51544036   -2.4684769   0.14434518    11440.176     1000 
 2698000   0.36336105   -2.9883435   0.54449653    -2.443847   0.12077657    11676.845     1000 
 2700000   0.34723636   -3.0268941   0.52033369   -2.5065604   0.12850264    11685.361     1000 
 2702000   0.35985813   -3.0056365   0.53924741   -2.4663891    0.1271749    11546.498     1000 
 2704000   0.36916889   -3.0096258   0.55319958   -2.4564262   0.14454719    11596.271     1000 
 2706000   0.34688128   -2.9996438    0.5198016   -2.4798422   0.13929513    11484.994     1000 
 2708000   0.36204252   -3.0356346   0.54252071   -2.4931139    0.1328356    11662.499     1000 
 2710000   0.36456057   -3.0537875   0.54629401   -2.5074935   0.14172564    11645.534     1000 
 2712000   0.34904905   -3.0292998      0.52305   -2.5062498   0.12910815     11687.64     1000 
 2714000    0.3321484   -3.0201829   0.49772438   -2.5224586   0.14141772    11548.422     1000 
 2716000   0.34540035   -3.0157899   0.51758242   -2.4982074    0.1409522    11550.514     1000 
 2718000   0.33717063   -3.0167337   0.50525019   -2.5114835   0.12239459    11549.801     1000 
 2720000   0.35228176   -2.9915241   0.52789422   -2.4636298   0.12931245    11673.634     1000 
 2722000   0.35451725   -2.9885618   0.53124409   -2.4573177    0.1308427    11524.237     1000 
 2724000   0.35131382   -2.9709759   0.52644376   -2.4445321   0.14553787    11471.138     1000 
 2726000   0.35951475   -2.9925232   0.53873286   -2.4537903   0.12442146    11621.605     1000 
 2728000   0.34801219   -3.0397709   0.52149626   -2.5182747   0.12961992    11665.518     1000 
 2730000   0.34539225    -2.984371   0.51757029   -2.4668007   0.13732474    11568.873     1000 
 2732000     0.351609   -3.0208102   0.52688609   -2.4939241   0.13259924    11548.338     1000 
 2734000   0.34871074   -3.0499909   0.52254304   -2.5274479   0.13174126    11676.867     1000 
 2736000   0.35108655   -2.9818555   0.52610319   -2.4557523   0.12196204    11558.093     1000 
 2738000   0.35394319   -2.9635068   0.53038386   -2.4331229   0.12715191    11620.735     1000 
 2740000   0.33263983   -2.9948242   0.49846078   -2.4963634   0.12205136    11657.819     1000 
 2742000   0.34350651     -2.93684    0.5147445   -2.4220955   0.12889135    11600.017     1000 
 2744000   0.35403255   -2.9703825   0.53051778   -2.4398647   0.13731652    11612.711     1000 
 2746000   0.35747912   -2.9827139   0.53568246   -2.4470315   0.13708816    11646.072     1000 
 2748000    0.3485596   -3.0373838   0.52231656   -2.5150672   0.14033397    11562.763     1000 
 2750000   0.33522145   -3.0161843   0.50232935    -2.513855   0.12450634    11689.034     1000 
 2752000   0.35400705   -2.9861023   0.53047956   -2.4556227   0.13622003    11542.515     1000 
 2754000   0.36398886   -2.9758408   0.54543731   -2.4304035   0.12659368    11585.749     1000 
 2756000   0.36037118   -2.9848672   0.54001621    -2.444851   0.13542019    11585.524     1000 
 2758000   0.34857296   -3.0052905   0.52233658   -2.4829539   0.11653027    11675.827     1000 
 2760000   0.33621965   -2.9127347   0.50382514   -2.4089096   0.14383216    11428.774     1000 
 2762000   0.35031423   -2.9675403   0.52494588   -2.4425944   0.13131782    11493.817     1000 
 2764000    0.3630028    -2.951817    0.5439597   -2.4078573   0.14006043    11559.701     1000 
 2766000   0.35655851   -2.9846621   0.53430293   -2.4503592    0.1273789    11564.994     1000 
 2768000   0.34237142   -2.9987436   0.51304357      -2.4857   0.12290493    11648.381     1000 
 2770000   0.32720264   -3.0232091   0.49031316   -2.5328959   0.11459049    11708.201     1000 
 2772000   0.34335431   -3.0034686   0.51451644   -2.4889521   0.13863655    11572.269     1000 
 2774000   0.37222091   -2.9804903   0.55777304   -2.4227173   0.12813912    11597.601     1000 
 2776000   0.35086775    -2.997138   0.52577533   -2.4713626   0.11792143    11664.347     1000 
 2778000    0.3502662   -2.9851663    0.5248739   -2.4602924   0.12961582    11649.379     1000 
 2780000    0.3740763   -3.0090009   0.56055334   -2.4484476   0.13986209    11659.038     1000 
 2782000   0.35259229   -3.0233751   0.52835954   -2.4950156   0.13464814    11607.682     1000 
 2784000   0.34106464   -3.0051759   0.51108537   -2.4940905   0.12120915    11742.916     1000 
 2786000   0.33933784   -2.9819837   0.50849775    -2.473486   0.11590271    11614.117     1000 
 2788000   0.36333742   -2.9996908   0.54446112   -2.4552296    0.1290468    11660.953     1000 
 2790000   0.36188293   -2.9722643   0.54228157   -2.4299827   0.13410747    11534.438     1000 
 2792000   0.34747247   -2.9798216    0.5206875   -2.4591341   0.12701339    11552.047     1000 
 2794000   0.34958505   -2.9951851    0.5238532   -2.4713319   0.11978821     11695.95     1000 
 2796000   0.34371384   -2.9950643    0.5150552   -2.4800091   0.12833205    11680.424     1000 
 2798000   0.34120024   -2.9750701   0.51128856   -2.4637816    0.1325431    11548.003     1000 
 2800000   0.36113182   -2.9545844   0.54115603   -2.4134284   0.13973293    11572.732     1000 
 2802000   0.32384882   -3.0145712   0.48528745   -2.5292837    0.1237114    11621.496     1000 
 2804000   0.36275651   -2.9771726   0.54359063    -2.433582   0.12311188    11693.037     1000 
 2806000    0.3421062   -2.9633759   0.51264614   -2.4507298   0.14192146    11434.295     1000 
 2808000   0.33312073   -3.0153375   0.49918142    -2.516156   0.13407833    11524.175     1000 
 2810000   0.35338883   -2.9628587   0.52955316   -2.4333056   0.15223671    11420.517     1000 
 2812000   0.35787077   -2.9813018   0.53626934   -2.4450324   0.12850052    11492.369     1000 
 2814000   0.35151204   -2.9966825   0.52674079   -2.4699417   0.12334719    11637.489     1000 
 2816000   0.33930183   -2.9878585   0.50844379   -2.4794147   0.11982388    11678.454     1000 
 2818000   0.36650197   -3.0119983    0.5492032   -2.4627951   0.13844159     11685.37     1000 
 2820000   0.33852888   -2.9945428   0.50728553   -2.4872572    0.1364225    11539.938     1000 
 2822000   0.35260835   -3.0211149   0.52838361   -2.4927313   0.12727313    11774.117     1000 
 2824000   0.33333221   -2.9883779   0.49949831   -2.4888796   0.11665689    11687.573     1000 
 2826000   0.35405996   -2.9586795   0.53055886   -2.4281206   0.13673125    11542.844     1000 
 2828000   0.33812146   -2.9883902     0.506675   -2.4817152   0.13110624     11623.52     1000 
 2830000   0.35976632   -3.0147517   0.53910983   -2.4756419   0.13003445    11621.693     1000 
 2832000   0.35395544   -2.9871526   0.53040223   -2.4567504   0.13811952    11674.134     1000 
 2834000   0.35625188   -2.9764114   0.53384345   -2.4425679   0.14610466     11541.04     1000 
 2836000   0.35454288   -2.9663754    0.5312825   -2.4350929   0.12375976    11670.511     1000 
 2838000   0.34890319   -3.0290583   0.52283144   -2.5062269   0.11952288    11614.379     1000 
 2840000   0.34243422      -3.0427   0.51313767   -2.5295623   0.13987521    11518.199     1000 
 2842000   0.35008614   -3.0370972   0.52460408   -2.5124931   0.13081121    11628.062     1000 
 2844000   0.34440702    -3.008656   0.51609392   -2.4925621    0.1321644    11604.222     1000 
 2846000   0.35527613   -2.9889702   0.53238129   -2.4565889   0.13350153    11650.472     1000 
 2848000   0.36538455   -2.9923834   0.54752874   -2.4448547   0.13670441    11549.894     1000 
 2850000    0.3457956   -3.0067884   0.51817471   -2.4886136   0.12168793    11703.357     1000 
 2852000   0.35956059   -2.9239304   0.53880154   -2.3851288   0.13628795    11481.836     1000 
 2854000   0.35449486   -3.0004631   0.53121055   -2.4692525   0.12747912    11704.626     1000 
 2856000   0.34891982   -2.9696133   0.52285635    -2.446757   0.12943152     11608.15     1000 
 2858000   0.34639042   -2.9726155   0.51906604   -2.4535494   0.13637138    11491.744     1000 
 2860000   0.35742676   -3.0202353   0.53560401   -2.4846313   0.12801902    11616.563     1000 
 2862000   0.34058156   -3.0233001   0.51036147   -2.5129387   0.11914783    11679.107     1000 
 2864000   0.35210577   -3.0339506   0.52763049   -2.5063201   0.12927784    11661.833     1000 
 2866000   0.35536991   -2.9838032   0.53252182   -2.4512814   0.12509399    11645.937     1000 
 2868000    0.3506048   -3.0105788    0.5253813   -2.4851975   0.13625557    11585.334     1000 
 2870000   0.35773361   -3.0294271   0.53606381   -2.4933633   0.13793099    11634.856     1000 
 2872000    0.3464143    -3.019545   0.51910183   -2.5004432   0.12324378    11688.405     1000 
 2874000   0.36903325   -2.9714915   0.55299633   -2.4184952   0.14653008    11438.986     1000 
 2876000   0.34871113   -3.0329637   0.52254363   -2.5104201    0.1307915    11600.266     1000 
 2878000   0.32946906    -3.036684   0.49370938   -2.5429746   0.12100132    11678.016     1000 
 2880000   0.35040895   -2.9578884   0.52508781   -2.4328006   0.13148043    11534.929     1000 
 2882000   0.33876256   -2.9585696    0.5076357   -2.4509339   0.14174868    11530.384     1000 
 2884000   0.35544934   -2.9688725   0.53264084   -2.4362317   0.12831173    11572.355     1000 
 2886000   0.34787954   -2.9930954   0.52129749   -2.4717979   0.12958359    11622.713     1000 
 2888000    0.3436355   -2.9714794    0.5149378   -2.4565416    0.1355534    11578.982     1000 
 2890000   0.35537406   -2.9668303   0.53252803   -2.4343022   0.13313944    11519.741     1000 
 2892000   0.36628931   -3.0343176   0.54888454   -2.4854331   0.12806305    11669.247     1000 
 2894000   0.35222009   -3.0073919    0.5278018   -2.4795901   0.13432176    11615.224     1000 
 2896000   0.35133457   -2.9607775   0.52647485   -2.4343027   0.11544161    11712.597     1000 
 2898000   0.35061883   -3.0129774   0.52540231   -2.4875751   0.14071138    11460.292     1000 
 2900000   0.35276971   -3.0333003   0.52862541   -2.5046749   0.12878931    11661.264     1000 
 2902000   0.33925215   -2.9830155   0.50836934   -2.4746462   0.12788351    11583.081     1000 
 2904000   0.36270744   -3.0756366    0.5435171   -2.5321195   0.12156683    11794.245     1000 
 2906000   0.34656141   -3.0146752   0.51932227   -2.4953529   0.12291568    11706.335     1000 
 2908000   0.35586807   -3.0056814    0.5332683   -2.4724131   0.12847458    11588.688     1000 
 2910000   0.35650621   -3.0136718   0.53422456   -2.4794473   0.12681323    11520.527     1000 
 2912000   0.35685438   -2.9892735   0.53474628   -2.4545272    0.1352536    11520.117     1000 
 2914000   0.36284736   -3.0208553   0.54372677   -2.4771285   0.13702019    11634.323     1000 
 2916000   0.32986176   -3.0036257   0.49429784   -2.5093278   0.13437578    11559.506     1000 
 2918000   0.35772248   -3.0077344   0.53604713   -2.4716872   0.12644456    11700.841     1000 
 2920000   0.35241485   -3.0268499   0.52809366   -2.4987563   0.12732823     11659.55     1000 
 2922000   0.35641275   -3.0341195    0.5340845   -2.5000349   0.13631291     11599.14     1000 
 2924000   0.34481171   -3.0012545   0.51670034   -2.4845541   0.11875867    11632.165     1000 
 2926000   0.35155908   -2.9969753   0.52681129    -2.470164   0.14718737        11567     1000 
 2928000   0.34373156   -2.9855082   0.51508175   -2.4704264   0.13896375    11620.244     1000 
 2930000   0.35028184   -2.9654255   0.52489734   -2.4405281    0.1270325    11618.205     1000 
 2932000   0.33906934   -3.0283152    0.5080954   -2.5202198   0.12363078    11606.191     1000 
 2934000     0.349195   -3.0058967   0.52326871    -2.482628   0.15150323    11581.548     1000 
 2936000   0.35751381   -2.9912694   0.53573445   -2.4555349   0.12954399    11656.272     1000 
 2938000   0.36202338   -2.9702551   0.54249203    -2.427763   0.12780702    11529.473     1000 
 2940000   0.35219161   -3.0228346   0.52775913   -2.4950755   0.12083384    11687.614     1000 
 2942000    0.3682419   -3.0224713   0.55181049   -2.4706608   0.13071995    11614.759     1000 
 2944000   0.36080937   -3.0416905   0.54067283   -2.5010176    0.1364332    11691.101     1000 
 2946000   0.35281341   -3.0645845   0.52869089   -2.5358936   0.13320083    11636.505     1000 
 2948000   0.35154299   -3.0615614   0.52678717   -2.5347742   0.12677705     11661.24     1000 
 2950000   0.36706069   -2.9926272   0.55004044   -2.4425868   0.13258163    11572.825     1000 
 2952000   0.34851693   -2.9720914   0.52225261   -2.4498388    0.1230291     11745.68     1000 
 2954000   0.34306901   -3.0029432   0.51408891   -2.4888543   0.13481233    11634.795     1000 
 2956000   0.33901965    -2.966503   0.50802094   -2.4584821    0.1384908    11520.881     1000 
 2958000   0.34390108   -2.9995908   0.51533576    -2.484255   0.13500264    11598.181     1000 
 2960000   0.34339767   -2.9872729   0.51458141   -2.4726915   0.12391533    11598.471     1000 
 2962000   0.35063141   -2.9722529   0.52542116   -2.4468318   0.13128549     11548.46     1000 
 2964000   0.34963313   -3.0175453   0.52392525   -2.4936201   0.13178125    11618.347     1000 
 2966000    0.3479265   -2.9740285   0.52136786   -2.4526606   0.12578802     11598.04     1000 
 2968000   0.34959261   -2.9989522   0.52386452   -2.4750877   0.13126626    11570.827     1000 
 2970000   0.35015627   -3.0079277   0.52470917   -2.4832185   0.13920061      11559.5     1000 
 2972000   0.35384021   -3.0078487   0.53022955   -2.4776191    0.1393272    11505.864     1000 
 2974000   0.35598298   -3.0045978    0.5334405   -2.4711573   0.12532984    11629.091     1000 
 2976000   0.35697298   -2.9979884   0.53492401   -2.4630644    0.1348257    11506.976     1000 
 2978000   0.36129892   -2.9841096   0.54140643   -2.4427031   0.11856406    11608.881     1000 
 2980000   0.36273108   -3.0029175   0.54355253    -2.459365   0.12431821    11609.075     1000 
 2982000   0.35653771   -3.0573349   0.53427176   -2.5230631   0.13603569    11663.568     1000 
 2984000   0.36747698   -3.0474543   0.55066425     -2.49679   0.12686422    11624.966     1000 
 2986000   0.36739073   -3.0344045   0.55053501   -2.4838694     0.123333    11645.757     1000 
 2988000   0.34684824   -2.9810717   0.51975209   -2.4613197   0.13050882    11623.357     1000 
 2990000   0.34742297     -3.00005   0.52061332   -2.4794367   0.13174296    11544.224     1000 
 2992000   0.35468147   -3.0262009   0.53149018   -2.4947107   0.12412577    11662.393     1000 
 2994000   0.35576198    -3.011067   0.53310932   -2.4779577   0.12566999    11643.504     1000 
 2996000   0.35419889   -3.0027802   0.53076704   -2.4720132     0.129809    11671.556     1000 
 2998000    0.3647907   -3.0455624   0.54663887   -2.4989235   0.12373823    11720.701     1000 
 3000000   0.34838399   -2.9929721    0.5220534   -2.4709186   0.13800069    11635.352     1000 
Loop time of 1149.92 on 1 procs for 3000000 steps with 1000 atoms

Performance: 1127032.494 tau/day, 2608.872 timesteps/s
100.0% CPU use with 1 MPI tasks x 1 OpenMP threads

MPI task timing breakdown:
Section |  min time  |  avg time  |  max time  |%varavg| %total
---------------------------------------------------------------
Pair    | 905.24     | 905.24     | 905.24     |   0.0 | 78.72
Neigh   | 143.22     | 143.22     | 143.22     |   0.0 | 12.46
Comm    | 23.517     | 23.517     | 23.517     |   0.0 |  2.05
Output  | 0.017327   | 0.017327   | 0.017327   |   0.0 |  0.00
Modify  | 72.674     | 72.674     | 72.674     |   0.0 |  6.32
Other   |            | 5.255      |            |       |  0.46

Nlocal:        1000.00 ave        1000 max        1000 min
Histogram: 1 0 0 0 0 0 0 0 0 0
Nghost:        2221.00 ave        2221 max        2221 min
Histogram: 1 0 0 0 0 0 0 0 0 0
Neighs:        27121.0 ave       27121 max       27121 min
Histogram: 1 0 0 0 0 0 0 0 0 0

Total # of neighbors = 27121
Ave neighs/atom = 27.121000
Neighbor list builds = 150000
Dangerous builds not checked

Total wall time: 0:19:09
