LAMMPS (29 Sep 2021 - Update 2)
OMP_NUM_THREADS environment is not set. Defaulting to 1 thread. (src/comm.cpp:98)
  using 1 OpenMP thread(s) per MPI task
# ----------------------- Inicialização -----------------------

units			lj
atom_style 		atomic
dimension 		3
boundary 		p p p

# -------------------- Criação dos Átomos ---------------------

read_data 		topologia.txt
Reading data file ...
  orthogonal box = (0.0000000 0.0000000 0.0000000) to (21.540000 21.540000 21.540000)
  1 by 2 by 2 MPI processor grid
  reading atoms ...
  1000 atoms
  read_data CPU = 0.002 seconds

velocity 		all create ${temp} 87287 rot yes dist gaussian
velocity 		all create 0.50 87287 rot yes dist gaussian

# ------------------ Interação Interatômica -------------------

pair_style		table linear 2000
pair_coeff		1 1 force.table AA 10.0
WARNING: 3 of 2000 force values in table AA are inconsistent with -dE/dr.
WARNING:  Should only be flagged at inflection points (src/pair_table.cpp:465)
pair_coeff		1 2 force.table AB 10.0
WARNING: 1 of 2000 force values in table AB are inconsistent with -dE/dr.
WARNING:  Should only be flagged at inflection points (src/pair_table.cpp:465)
pair_coeff		2 2 force.table BB 10.0
pair_write		1 1 2000 r 0.008 10.0 table.check AA
Appending to table file table.check with DATE: 2023-08-03
Neighbor list info ...
  update every 1 steps, delay 10 steps, check yes
  max neighbors/atom: 2000, page size: 100000
  master list distance cutoff = 10.3
  ghost atom cutoff = 10.3
  binsize = 5.15, bins = 5 5 5
  1 neighbor lists, perpetual/occasional/extra = 1 0 0
  (1) pair table, perpetual
      attributes: half, newton on
      pair build: half/bin/atomonly/newton
      stencil: half/bin/3d
      bin: standard
pair_write		1 2 2000 r 0.008 10.0 table.check AB
Appending to table file table.check with DATE: 2023-08-03
pair_write		2 2 2000 r 0.008 10.0 table.check BB
Appending to table file table.check with DATE: 2023-08-03

neighbor 		0.3 bin
neigh_modify		every 20 delay 0 check no

# ------------------------- Ensemble --------------------------------------

fix 1			all npt temp ${temp} ${temp} 0.5 iso ${press} ${press} 5
fix 1			all npt temp 0.50 ${temp} 0.5 iso ${press} ${press} 5
fix 1			all npt temp 0.50 0.50 0.5 iso ${press} ${press} 5
fix 1			all npt temp 0.50 0.50 0.5 iso 0.13 ${press} 5
fix 1			all npt temp 0.50 0.50 0.5 iso 0.13 0.13 5

# ---------------------- Função de Distribuição Radial -----------------------

#compute RDF 		all rdf 2000 1 1 1 2 2 2
#fix 2 			all ave/time 1 2000 2000 c_RDF[*] file rdf.data mode vector

# ------------------------- Execução ---------------------------

timestep 		0.005
thermo_style		custom step temp pe ke etotal press vol atoms
thermo			2000
run			3000000
Per MPI rank memory allocation (min/avg/max) = 2.758 | 2.758 | 2.758 Mbytes
Step Temp PotEng KinEng TotEng Press Volume Atoms 
       0          0.5   0.72452996      0.74925      1.47378     1.179425    9993.9483     1000 
    2000   0.48766091   -2.3577072   0.73075988   -1.6269473   0.12596535    11418.992     1000 
    4000   0.48531451   -2.2978401    0.7272438   -1.5705963   0.12463965    11244.606     1000 
    6000   0.49893549   -2.3552241   0.74765484   -1.6075693   0.14695043    11358.847     1000 
    8000   0.49546886   -2.2557698   0.74246008   -1.5133098   0.12838898    11238.549     1000 
   10000   0.49423949   -2.3571142   0.74061787   -1.6164964   0.11804752     11507.18     1000 
   12000   0.50070865   -2.3440128   0.75031191   -1.5937009   0.13537987    11293.486     1000 
   14000   0.50459399   -2.2570613    0.7561341   -1.5009272   0.13345055    11222.468     1000 
   16000   0.49072402   -2.2897298   0.73534994   -1.5543798   0.12297866     11272.26     1000 
   18000   0.48390034   -2.3606768   0.72512466   -1.6355521   0.13524585    11345.316     1000 
   20000   0.50735366   -2.3439521   0.76026946   -1.5836827   0.13503166    11217.973     1000 
   22000   0.49774454   -2.3132769    0.7458702   -1.5674067   0.14209673    11246.331     1000 
   24000   0.51090438   -2.2913148   0.76559021   -1.5257246   0.13194957    11222.549     1000 
   26000   0.49798174   -2.3010433   0.74622564   -1.5548177   0.13338689     11299.64     1000 
   28000   0.49448476   -2.3165004   0.74098541    -1.575515   0.12106222    11367.722     1000 
   30000    0.5006957   -2.2903473   0.75029251   -1.5400548   0.12684547    11095.088     1000 
   32000   0.47421375     -2.36108    0.7106093   -1.6504707   0.11931504    11291.836     1000 
   34000   0.49402682    -2.339724   0.74029919   -1.5994248   0.12934163    11360.119     1000 
   36000   0.50252637    -2.363035   0.75303577   -1.6099992   0.13058662    11303.842     1000 
   38000   0.49490922   -2.3327198   0.74162147   -1.5910984    0.1396704     11193.41     1000 
   40000   0.51557328   -2.3354828   0.77258656   -1.5628963   0.11916555    11292.405     1000 
   42000   0.49802295    -2.290123   0.74628739   -1.5438356   0.12624676     11226.43     1000 
   44000   0.48926823   -2.3439614   0.73316844    -1.610793   0.13688831    11266.615     1000 
   46000   0.49936993   -2.2908405   0.74830584   -1.5425346   0.13408743    11140.766     1000 
   48000   0.50470871   -2.3615041   0.75630601   -1.6051981   0.12109402     11363.26     1000 
   50000   0.48730164   -2.2765258    0.7302215   -1.5463043   0.13324812     11278.89     1000 
   52000   0.50422379   -2.3020618   0.75557935   -1.5464825   0.13962565    11091.255     1000 
   54000   0.49998338   -2.3234803    0.7492251   -1.5742552   0.13770031    11193.726     1000 
   56000   0.50827643   -2.3537897   0.76165223   -1.5921375   0.11940644     11333.81     1000 
   58000   0.51762677   -2.3520103   0.77566371   -1.5763466   0.14130933     11258.62     1000 
   60000    0.5073289   -2.3376316   0.76023236   -1.5773993   0.12321467    11285.045     1000 
   62000   0.50511226   -2.3645806   0.75691073   -1.6076699    0.1372129    11207.721     1000 
   64000   0.49286725   -2.2758317   0.73856157   -1.5372701     0.134642    11160.517     1000 
   66000   0.52482702    -2.319773   0.78645329   -1.5333197    0.1422838    11160.177     1000 
   68000   0.48359942   -2.3627293   0.72467373   -1.6380556   0.12298274    11273.412     1000 
   70000   0.51109606   -2.3235636   0.76587745   -1.5576861   0.12469322    11325.791     1000 
   72000   0.50644816   -2.2642994   0.75891257   -1.5053868   0.12778566    11124.122     1000 
   74000   0.47812372    -2.306759    0.7164684   -1.5902906   0.12242102    11382.175     1000 
   76000   0.47639764   -2.3540341   0.71388187   -1.6401522   0.13404847    11255.867     1000 
   78000   0.49498489   -2.3204138   0.74173485   -1.5786789   0.12452784    11296.534     1000 
   80000   0.50833219    -2.280493   0.76173579   -1.5187572   0.13468905    11230.948     1000 
   82000   0.48101993   -2.3395549   0.72080837   -1.6187465   0.13179436    11319.669     1000 
   84000    0.4879454    -2.300549   0.73118618   -1.5693628   0.12296152    11284.947     1000 
   86000    0.5248343   -2.3783062   0.78646419    -1.591842    0.1188779    11462.358     1000 
   88000   0.51052292   -2.2751128    0.7650186   -1.5100942   0.14440103    11327.345     1000 
   90000   0.48930023   -2.3286957   0.73321639   -1.5954793   0.11944745    11225.966     1000 
   92000   0.48756815   -2.2704898   0.73062088   -1.5398689    0.1332378    11078.675     1000 
   94000   0.50475217   -2.3544722   0.75637112   -1.5981011   0.11407529    11373.875     1000 
   96000   0.48635626   -2.3207807   0.72880486   -1.5919759   0.15093975    11172.585     1000 
   98000    0.5117156   -2.3385488   0.76680583    -1.571743   0.13624342    11132.439     1000 
  100000   0.49440978   -2.3315071   0.74087305    -1.590634   0.13182938    11354.165     1000 
  102000   0.50104571   -2.3668154     0.750817   -1.6159984    0.1392757    11312.299     1000 
  104000   0.46787873   -2.3186168   0.70111628   -1.6175005   0.13170872    11208.467     1000 
  106000   0.48101487   -2.3434813   0.72080079   -1.6226805   0.12493745    11279.588     1000 
  108000   0.49226601    -2.300315   0.73766061   -1.5626544    0.1359193    11217.559     1000 
  110000   0.52606475   -2.3247599   0.78830802   -1.5364519   0.12596449    11339.613     1000 
  112000   0.49414202   -2.2786036   0.74047181   -1.5381318   0.12570177    11123.365     1000 
  114000   0.50077143   -2.2913208   0.75040599   -1.5409149    0.1380188    11114.431     1000 
  116000   0.51505693   -2.3457584   0.77181281   -1.5739456   0.13399395    11295.232     1000 
  118000   0.49011517    -2.328224   0.73443759   -1.5937864   0.13431762    11132.303     1000 
  120000   0.51795687   -2.3384512   0.77615838   -1.5622929   0.12870919    11258.981     1000 
  122000   0.52359652   -2.3171808   0.78460938   -1.5325714   0.12933312    11336.454     1000 
  124000   0.47047367   -2.3274895   0.70500479   -1.6224847   0.11514301    11384.334     1000 
  126000   0.48879692   -2.2747007   0.73246218   -1.5422385   0.13360353    11149.137     1000 
  128000   0.50608738   -2.2989279   0.75837194    -1.540556   0.12227931    11223.333     1000 
  130000   0.50397733   -2.3031403   0.75521002   -1.5479303   0.13050207    11231.483     1000 
  132000   0.47966354   -2.3151354   0.71877581   -1.5963596   0.13995043    11071.514     1000 
  134000   0.51181696   -2.3412347   0.76695771    -1.574277   0.11859229    11289.924     1000 
  136000   0.47887166   -2.2946106   0.71758918   -1.5770214   0.10614558     11450.08     1000 
  138000   0.49497835   -2.2886679   0.74172506   -1.5469428   0.13534856    11244.445     1000 
  140000   0.51490509   -2.3027409   0.77158528   -1.5311556   0.13784089    11180.461     1000 
  142000   0.48195609   -2.2856583    0.7222112   -1.5634471   0.14147506    11075.693     1000 
  144000   0.48604532   -2.3230614   0.72833892   -1.5947225   0.13582245    11306.405     1000 
  146000   0.49081057   -2.3084505   0.73547964   -1.5729708   0.12704198    11306.025     1000 
  148000   0.48794244   -2.3739727   0.73118175   -1.6427909   0.12909722    11267.062     1000 
  150000   0.50862294   -2.3546996   0.76217148   -1.5925281   0.12692474    11332.081     1000 
  152000   0.51346751   -2.3188771   0.76943107    -1.549446   0.12776023    11212.278     1000 
  154000   0.48592194   -2.3228107   0.72815403   -1.5946566   0.12197631    11203.813     1000 
  156000   0.48526693    -2.378757    0.7271725   -1.6515845   0.12074939    11383.566     1000 
  158000   0.49284504   -2.3571832    0.7385283   -1.6186549   0.13618914    11196.323     1000 
  160000   0.51437649    -2.355707   0.77079316   -1.5849138   0.13689777    11168.088     1000 
  162000    0.4882914   -2.2953426   0.73170467    -1.563638   0.12282443     11210.36     1000 
  164000   0.49080573   -2.3932692   0.73547239   -1.6577968   0.12907501    11303.509     1000 
  166000     0.490377   -2.3236476   0.73482993   -1.5888176   0.12471593    11259.148     1000 
  168000    0.4968066   -2.3426143   0.74446469   -1.5981496   0.13194273    11251.753     1000 
  170000   0.51967807   -2.3694528   0.77873759   -1.5907153   0.13573344    11254.369     1000 
  172000   0.48449442   -2.3264769   0.72601489    -1.600462   0.12424728    11244.701     1000 
  174000   0.49084686   -2.3302101   0.73553403   -1.5946761   0.13249678    11237.508     1000 
  176000    0.4873213   -2.3056891   0.73025097   -1.5754381   0.12461506    11268.229     1000 
  178000   0.52836521   -2.2699465   0.79175526   -1.4781912   0.13563162    11165.437     1000 
  180000   0.51011942   -2.3190247   0.76441394   -1.5546108   0.13708041    11257.112     1000 
  182000   0.48100476   -2.3268671   0.72078564   -1.6060814   0.13276409    11190.078     1000 
  184000   0.48280907   -2.3242897   0.72348939   -1.6008003   0.13593042    11164.838     1000 
  186000   0.50807513   -2.3266795   0.76135059   -1.5653289   0.12831424    11286.271     1000 
  188000   0.50497022   -2.3413983   0.75669787   -1.5847005   0.12173214    11460.806     1000 
  190000   0.50533509   -2.3543279   0.75724463   -1.5970833   0.12340126    11243.111     1000 
  192000   0.48183958   -2.3026043   0.72203661   -1.5805677   0.13038743    11154.345     1000 
  194000   0.49972736   -2.3230631   0.74884145   -1.5742217    0.1389725    11160.935     1000 
  196000   0.47981835   -2.3183356   0.71900779   -1.5993279   0.12790104    11358.546     1000 
  198000   0.50264851   -2.3292627   0.75321879   -1.5760439   0.12760923    11237.235     1000 
  200000   0.50240517   -2.2936936   0.75285415   -1.5408394   0.13663135    11215.658     1000 
  202000   0.49233386    -2.335067   0.73776229   -1.5973048   0.13003612    11246.204     1000 
  204000   0.49973264   -2.3000597   0.74884936   -1.5512103   0.13807792    11150.622     1000 
  206000   0.48945785   -2.3482148   0.73345259   -1.6147622    0.1208976    11301.932     1000 
  208000   0.49965975    -2.341403   0.74874013   -1.5926628   0.13199917     11144.22     1000 
  210000   0.45971585   -2.2613316   0.68888421   -1.5724474   0.13124915    11125.924     1000 
  212000   0.50537428   -2.3371961   0.75730336   -1.5798927   0.12741282    11143.642     1000 
  214000   0.50949716   -2.3412687   0.76348149   -1.5777872    0.1310161      11274.4     1000 
  216000   0.51510521   -2.3355773   0.77188516   -1.5636921   0.13666354    11083.636     1000 
  218000   0.50081692   -2.3293296   0.75047416   -1.5788554   0.12581723    11344.667     1000 
  220000   0.49230449   -2.3380143   0.73771828    -1.600296   0.10884204    11280.051     1000 
  222000   0.51883409   -2.3035083   0.77747289   -1.5260355   0.13207691    11284.516     1000 
  224000   0.50413925   -2.3903212   0.75545266   -1.6348685   0.12667857    11369.197     1000 
  226000   0.51382974   -2.3108453   0.76997387   -1.5408714   0.13147148    11415.605     1000 
  228000   0.48937625    -2.302518    0.7333303   -1.5691877   0.14516113    11210.467     1000 
  230000   0.51440953   -2.2294376   0.77084268    -1.458595   0.13957057    11177.572     1000 
  232000   0.49437516   -2.3343539   0.74082118   -1.5935328   0.12830718    11220.178     1000 
  234000   0.50130973   -2.3050649   0.75121263   -1.5538522   0.13656781    11134.322     1000 
  236000    0.5109027   -2.3221663   0.76558769   -1.5565787   0.12678303    11303.521     1000 
  238000   0.50010436   -2.3356959   0.74940638   -1.5862896   0.12697057    11207.632     1000 
  240000   0.51423882   -2.3444239   0.77058688    -1.573837   0.13495443    11247.642     1000 
  242000   0.49815581   -2.3383507   0.74648648   -1.5918642   0.13468298    11224.716     1000 
  244000   0.49465796   -2.3418436   0.74124496   -1.6005987   0.12585643    11254.752     1000 
  246000   0.49168914   -2.3431415   0.73679617   -1.6063454   0.12870219    11234.648     1000 
  248000   0.49016467   -2.2946485   0.73451175   -1.5601367   0.14031601    11189.968     1000 
  250000   0.49160106   -2.2927085   0.73666418   -1.5560443   0.13084217    11163.126     1000 
  252000   0.48228157   -2.3262797   0.72269893   -1.6035807   0.12777587    11201.931     1000 
  254000   0.50686981   -2.3047273   0.75954441   -1.5451829   0.14053103     11041.86     1000 
  256000    0.4976354   -2.3283831   0.74570664   -1.5826764   0.12450836    11191.365     1000 
  258000   0.48048341    -2.344286   0.72000439   -1.6242816   0.13106756    11199.904     1000 
  260000   0.51391203   -2.3090777   0.77009718   -1.5389805   0.14383224    11184.384     1000 
  262000   0.48140399    -2.332722   0.72138387   -1.6113381   0.12309527    11276.627     1000 
  264000   0.52590919   -2.3365933   0.78807493   -1.5485184   0.14023545    11238.141     1000 
  266000    0.5023432   -2.3020916   0.75276128   -1.5493303   0.11813271    11289.674     1000 
  268000   0.49015941    -2.299854   0.73450388   -1.5653502   0.12793466    11231.218     1000 
  270000   0.48003545   -2.2701238   0.71933312   -1.5507907   0.13686496    11202.149     1000 
  272000    0.5040944   -2.3424853   0.75538546   -1.5870998   0.12098507    11277.719     1000 
  274000   0.49458366   -2.3382183   0.74113361   -1.5970847   0.13574005    11126.585     1000 
  276000   0.49170524   -2.3561432    0.7368203   -1.6193229   0.12329198    11320.572     1000 
  278000   0.48596848   -2.3565244   0.72822377   -1.6283007   0.13373441    11235.263     1000 
  280000   0.46598554    -2.331228   0.69827933   -1.6329487    0.1125118    11363.533     1000 
  282000   0.48166359   -2.3256305    0.7217729   -1.6038576   0.13507595    11302.023     1000 
  284000   0.49423751   -2.3303003    0.7406149   -1.5896854   0.12279559    11262.449     1000 
  286000   0.48230253   -2.3020717   0.72273034   -1.5793413   0.13449109    11167.176     1000 
  288000   0.49752053   -2.3342232   0.74553451   -1.5886887   0.13862012    11310.422     1000 
  290000   0.52457982   -2.3601379   0.78608285    -1.574055   0.12929645    11248.693     1000 
  292000   0.49726905   -2.3245257   0.74515766    -1.579368   0.13477364    11324.416     1000 
  294000   0.52342686   -2.3710285   0.78435515   -1.5866734   0.13563397    11400.494     1000 
  296000   0.50484625   -2.3266798    0.7565121   -1.5701677    0.1366658    11247.166     1000 
  298000   0.51286528   -2.3326973   0.76852862   -1.5641687   0.14272542    11130.695     1000 
  300000   0.48623023   -2.3043388     0.728616   -1.5757228   0.13266827    11249.922     1000 
  302000   0.47652524   -2.3187802   0.71407307   -1.6047071   0.11703371    11211.409     1000 
  304000   0.50440064   -2.2992026   0.75584436   -1.5433582   0.12840458    11231.659     1000 
  306000   0.50381091   -2.3124514   0.75496065   -1.5574908   0.12365827    11388.464     1000 
  308000   0.48968201   -2.3292082   0.73378849   -1.5954197   0.11884508    11470.167     1000 
  310000   0.51217794    -2.346655   0.76749865   -1.5791564   0.12847496    11198.201     1000 
  312000   0.50439535   -2.2892609   0.75583642   -1.5334245   0.13602565    11096.137     1000 
  314000   0.51662628   -2.2911219   0.77416448   -1.5169574   0.13520856    11169.416     1000 
  316000   0.51518818   -2.3233043   0.77200949   -1.5512948   0.12505603    11086.846     1000 
  318000   0.50470764   -2.3159786   0.75630439   -1.5596742   0.11865666    11160.154     1000 
  320000   0.48909379   -2.2937028   0.73290705   -1.5607957   0.12944752    11157.722     1000 
  322000   0.50129645   -2.3486394   0.75119273   -1.5974467   0.12144601    11418.022     1000 
  324000   0.49382177   -2.3309445   0.73999192   -1.5909526    0.1194332    11321.562     1000 
  326000   0.49782995   -2.2993968   0.74599817   -1.5533986   0.13140498    11299.827     1000 
  328000   0.49783741   -2.2765578   0.74600936   -1.5305485   0.13051541     11273.69     1000 
  330000   0.47689108   -2.3459101   0.71462129   -1.6312888   0.12369583    11339.157     1000 
  332000   0.50258308   -2.3799923   0.75312074   -1.6268716   0.13503627    11333.056     1000 
  334000   0.48276222   -2.2930697   0.72341918   -1.5696505   0.14064605    11110.584     1000 
  336000   0.49306877   -2.3494326   0.73886355    -1.610569   0.13050528    11312.987     1000 
  338000   0.48346757   -2.3107519   0.72447615   -1.5862757   0.12911628    11193.673     1000 
  340000   0.51106194   -2.2842532   0.76582631   -1.5184269   0.12162839    11230.638     1000 
  342000   0.50915301   -2.3386536   0.76296579   -1.5756878   0.12066738     11380.49     1000 
  344000   0.48634715   -2.3223119    0.7287912   -1.5935207   0.12527981    11289.448     1000 
  346000   0.51273204   -2.3247362   0.76832897   -1.5564072   0.13659771     11090.96     1000 
  348000   0.52522285    -2.315873   0.78704644   -1.5288265   0.12886999    11299.474     1000 
  350000   0.52706099   -2.3496857   0.78980089   -1.5598848   0.13192644    11351.759     1000 
  352000   0.52264206   -2.2556677   0.78317912   -1.4724886   0.12730057     11149.32     1000 
  354000   0.50570094    -2.346267   0.75779286   -1.5884741   0.13006652    11278.852     1000 
  356000   0.49937885   -2.3214032    0.7483192    -1.573084   0.12035847     11315.18     1000 
  358000   0.50357328   -2.3295326   0.75460456   -1.5749281     0.129594     11343.91     1000 
  360000   0.50799629   -2.2998951   0.76123244   -1.5386627   0.13860097    11182.196     1000 
  362000   0.50819881   -2.3388061   0.76153592   -1.5772702   0.12182291    11409.016     1000 
  364000   0.49330048    -2.301457   0.73921076   -1.5622462   0.14162798    11154.635     1000 
  366000   0.50534306    -2.361272   0.75725657   -1.6040155   0.13819958    11124.178     1000 
  368000   0.48607428   -2.2818659   0.72838231   -1.5534836   0.13075985    11362.785     1000 
  370000   0.49723977   -2.2926069   0.74511379   -1.5474931   0.12994005    11247.941     1000 
  372000   0.48757047   -2.3103742   0.73062436   -1.5797498   0.12788058    11253.961     1000 
  374000   0.49739273   -2.2924059   0.74534301   -1.5470628   0.13610687     11178.84     1000 
  376000   0.49144908   -2.3369057   0.73643645   -1.6004692   0.13326457    11326.521     1000 
  378000   0.52586534   -2.3527804   0.78800921   -1.5647712    0.1185755    11291.776     1000 
  380000   0.49682639   -2.2874033   0.74449435    -1.542909   0.13924306    10971.831     1000 
  382000   0.47997627   -2.3448209   0.71924444   -1.6255765    0.1195019    11199.816     1000 
  384000    0.4900394   -2.2992851   0.73432403    -1.564961   0.13359031     11064.79     1000 
  386000    0.4835181   -2.3355894   0.72455187   -1.6110376   0.12313489    11219.104     1000 
  388000   0.52465357   -2.3119831   0.78619338   -1.5257898   0.14566711    11024.894     1000 
  390000   0.52724293    -2.311613   0.79007353   -1.5215395   0.13897222    11155.831     1000 
  392000   0.48146011   -2.3282367   0.72146797   -1.6067688   0.12799768    11263.786     1000 
  394000   0.52628114   -2.2873933    0.7886323    -1.498761   0.12022026    11376.218     1000 
  396000   0.48275476   -2.3325808   0.72340801   -1.6091728   0.14018621    11247.044     1000 
  398000   0.50528916    -2.315038    0.7571758   -1.5578622   0.12504714    11194.445     1000 
  400000   0.50769334   -2.2662196   0.76077847   -1.5054412   0.13408616    11130.469     1000 
  402000   0.50897008   -2.3519972   0.76269167   -1.5893055   0.13998686     11056.87     1000 
  404000   0.49344671   -2.3656624    0.7394299   -1.6262325   0.12243667    11270.654     1000 
  406000   0.51445581   -2.3487673   0.77091203   -1.5778552   0.11630312    11319.667     1000 
  408000   0.50353689   -2.3080816   0.75455003   -1.5535316   0.12910695     11270.61     1000 
  410000   0.51054384   -2.2519392   0.76504994   -1.4868892   0.13131432    11155.692     1000 
  412000   0.48354156   -2.3572764   0.72458702   -1.6326894   0.11787336    11400.655     1000 
  414000   0.48210813   -2.3233768   0.72243903   -1.6009378   0.11977822    11240.857     1000 
  416000   0.50443674   -2.2756699   0.75589846   -1.5197715   0.12344594    11167.749     1000 
  418000   0.48571116   -2.3468617   0.72783817   -1.6190235   0.12376075    11345.287     1000 
  420000   0.50882543    -2.273669   0.76247491   -1.5111941   0.13293675    11192.713     1000 
  422000   0.50440165   -2.3306187   0.75584587   -1.5747728   0.12205608    11285.806     1000 
  424000   0.49962999   -2.2943035   0.74869554    -1.545608   0.13063292    11194.512     1000 
  426000   0.50918667   -2.2715715   0.76301623   -1.5085553   0.13595366    11159.576     1000 
  428000   0.49290149   -2.2957894   0.73861288   -1.5571766   0.13902503    10998.331     1000 
  430000   0.50580342   -2.3391788   0.75794642   -1.5812324    0.1339749    11165.403     1000 
  432000    0.4961625   -2.3138218   0.74349951   -1.5703223   0.13074945     11207.62     1000 
  434000   0.49740453   -2.3221294   0.74536069   -1.5767688   0.13499443    11315.207     1000 
  436000   0.48772163   -2.3232072   0.73085086   -1.5923563   0.12597976     11242.41     1000 
  438000   0.48853967   -2.3004233    0.7320767   -1.5683466   0.14196921    11190.546     1000 
  440000   0.50882869   -2.3189549   0.76247979   -1.5564751   0.12053743    11318.502     1000 
  442000   0.49797665   -2.3492738   0.74621802   -1.6030558   0.11856511     11389.87     1000 
  444000   0.48215176    -2.320997   0.72250441   -1.5984926   0.12825985     11255.25     1000 
  446000   0.48159956   -2.3224669   0.72167694   -1.6007899   0.14164845    11135.001     1000 
  448000    0.4975462   -2.2748633   0.74557298   -1.5292904    0.1326661      11166.1     1000 
  450000   0.49953432   -2.3712029   0.74855218   -1.6226507   0.11751418    11305.922     1000 
  452000   0.49639325   -2.3530081   0.74384528   -1.6091628   0.13823996    11154.292     1000 
  454000   0.49712428    -2.341544   0.74494073   -1.5966033   0.13530911    11188.422     1000 
  456000   0.49293305    -2.302161   0.73866018   -1.5635008   0.13735741     11129.16     1000 
  458000   0.50527304   -2.3599495   0.75715165   -1.6027978   0.13773812    11177.522     1000 
  460000   0.47331633   -2.3244492   0.70926452   -1.6151847   0.11848553    11254.725     1000 
  462000   0.49150228    -2.351323   0.73651617   -1.6148069   0.12136201    11313.978     1000 
  464000   0.49090352    -2.337748   0.73561893   -1.6021291   0.11867748    11327.093     1000 
  466000   0.50572043   -2.2925904   0.75782206   -1.5347683   0.13377442    11194.921     1000 
  468000   0.49782871   -2.3091945   0.74599632   -1.5631982   0.12657451    11260.227     1000 
  470000   0.49814124   -2.2960233   0.74646464   -1.5495587   0.13045602    11272.428     1000 
  472000   0.50686503    -2.311636   0.75953724   -1.5520988   0.13178819    11284.465     1000 
  474000   0.49614994   -2.3216753   0.74348069   -1.5781946   0.11844669    11281.451     1000 
  476000   0.49293298   -2.3254121   0.73866007    -1.586752   0.12559939    11389.589     1000 
  478000    0.5014802   -2.3619448   0.75146808   -1.6104767   0.12251765    11182.305     1000 
  480000   0.49344379   -2.3042826   0.73942552   -1.5648571   0.12933008    11315.349     1000 
  482000   0.48382822   -2.3144569   0.72501659   -1.5894403   0.11733079    11369.525     1000 
  484000   0.50524439   -2.3079708   0.75710872   -1.5508621   0.12505892    11187.079     1000 
  486000   0.49484944    -2.311535   0.74153188   -1.5700031   0.13471923    11198.556     1000 
  488000   0.49932864    -2.348794   0.74824397     -1.60055   0.13317489    11214.005     1000 
  490000   0.52153613   -2.2875437   0.78152189   -1.5060218   0.13475715    11287.822     1000 
  492000   0.49937443   -2.3521664   0.74831258   -1.6038538   0.12518434    11383.402     1000 
  494000   0.51146018   -2.3256935   0.76642309   -1.5592704   0.12340932     11473.26     1000 
  496000   0.52138938   -2.3151245   0.78130198   -1.5338226   0.12842396    11384.171     1000 
  498000   0.49473763    -2.345787   0.74136435   -1.6044227   0.12308452    11304.319     1000 
  500000   0.52020958   -2.2926154   0.77953406   -1.5130814   0.14013907    11160.517     1000 
  502000   0.49756095   -2.3353159   0.74559508   -1.5897208   0.13031993    11261.949     1000 
  504000    0.5191612   -2.3052051   0.77796307   -1.5272421   0.12961268    11286.096     1000 
  506000   0.49725185   -2.3247189    0.7451319    -1.579587    0.1311567     11236.51     1000 
  508000   0.49421613   -2.3084758   0.74058287    -1.567893   0.13421549     11277.13     1000 
  510000   0.49094488   -2.3752638    0.7356809   -1.6395829   0.12510812    11360.448     1000 
  512000   0.49846575   -2.3108428   0.74695092   -1.5638919   0.12052626    11185.607     1000 
  514000   0.49811044   -2.3500472   0.74641849   -1.6036287   0.12314469     11283.77     1000 
  516000    0.5111631   -2.3294254   0.76597791   -1.5634475   0.11580711    11391.947     1000 
  518000   0.49247397    -2.291687   0.73797225   -1.5537147   0.12260301    11329.156     1000 
  520000   0.48926831   -2.3284344   0.73316856   -1.5952659   0.12269982    11263.912     1000 
  522000   0.48416516   -2.3256148    0.7255215   -1.6000933   0.13827215    11235.693     1000 
  524000   0.52006228   -2.3222421   0.77931333   -1.5429287   0.11959431    11271.917     1000 
  526000   0.51016906   -2.3069771   0.76448833   -1.5424888   0.12641149    11410.566     1000 
  528000   0.48679581   -2.3560153   0.72946352   -1.6265518   0.12480278    11419.117     1000 
  530000   0.49529242   -2.3253824   0.74219569   -1.5831867   0.13071579    11283.001     1000 
  532000    0.4992512   -2.3225704   0.74812792   -1.5744425   0.13454912    11128.524     1000 
  534000   0.51102547   -2.2881428   0.76577167   -1.5223711   0.12873572    11212.547     1000 
  536000   0.48434645   -2.2787603   0.72579315   -1.5529671   0.12813018    11247.611     1000 
  538000   0.49719556   -2.3101842   0.74504754   -1.5651366   0.11948121    11255.106     1000 
  540000   0.49412497   -2.2838352   0.74044626   -1.5433889   0.14319041    11187.341     1000 
  542000   0.49378555   -2.3630183   0.73993764   -1.6230806   0.13853067     11247.87     1000 
  544000   0.48991973    -2.378628   0.73414471   -1.6444832    0.1249163     11399.95     1000 
  546000   0.50434083   -2.2968527   0.75575473   -1.5410979   0.14011624    11255.426     1000 
  548000   0.50347503   -2.3202218   0.75445733   -1.5657644   0.11696969    11402.084     1000 
  550000   0.51922806   -2.2786105   0.77806324   -1.5005472   0.13460515    11086.137     1000 
  552000     0.489658   -2.3257569   0.73375252   -1.5920044   0.14349173    11235.302     1000 
  554000   0.51037286   -2.3283776   0.76479373   -1.5635839   0.12800164    11312.165     1000 
  556000   0.47626392   -2.2875975   0.71368149    -1.573916   0.12481492    11219.681     1000 
  558000    0.4840973   -2.3446478    0.7254198    -1.619228   0.13473231     11248.46     1000 
  560000   0.49899929   -2.2862939   0.74775043   -1.5385434   0.12997953    11365.296     1000 
  562000   0.51726906   -2.3174039   0.77512768   -1.5422762   0.12149186    11249.355     1000 
  564000   0.51572666   -2.3175936    0.7728164   -1.5447772   0.14082371    11134.256     1000 
  566000   0.49139312   -2.2943958   0.73635259   -1.5580433   0.12203617    11279.393     1000 
  568000   0.48619385   -2.2864889   0.72856149   -1.5579274   0.12235673    11265.876     1000 
  570000   0.49802937   -2.3640192   0.74629702   -1.6177222   0.13441683     11207.77     1000 
  572000   0.50510732   -2.3299684   0.75690332   -1.5730651   0.11975539    11324.306     1000 
  574000   0.50646918   -2.3058844   0.75894406   -1.5469404   0.14077146    11165.626     1000 
  576000   0.48887227   -2.3163901   0.73257509    -1.583815   0.13367507    11312.011     1000 
  578000   0.49514814   -2.2514112   0.74197949   -1.5094317   0.14189593    11116.633     1000 
  580000   0.49363546   -2.3197879   0.73971274   -1.5800752   0.12347352    11228.609     1000 
  582000   0.50475556   -2.3056725   0.75637621   -1.5492963   0.12772712    11170.824     1000 
  584000   0.51192952   -2.3200783   0.76712639   -1.5529519   0.13169388    11162.356     1000 
  586000   0.51439857   -2.3149868   0.77082626   -1.5441605   0.12080856    11481.957     1000 
  588000   0.49818208   -2.2631812   0.74652585   -1.5166554   0.13959141     11337.24     1000 
  590000   0.50253208    -2.310121   0.75304433   -1.5570767     0.132038    11264.752     1000 
  592000   0.50304273   -2.3049632   0.75380953   -1.5511537   0.14359509     11010.94     1000 
  594000   0.47394154   -2.3386544    0.7102014    -1.628453   0.13153926    11230.927     1000 
  596000   0.49047147   -2.3092309    0.7349715   -1.5742594   0.12973885    11207.152     1000 
  598000    0.4907921   -2.3412064   0.73545196   -1.6057544   0.13153899    11327.134     1000 
  600000   0.51549226   -2.3103837   0.77246515   -1.5379185   0.12447835     11201.26     1000 
  602000   0.49837853   -2.3109486   0.74682023   -1.5641284   0.12381642    11156.212     1000 
  604000    0.4912861   -2.3491214   0.73619222   -1.6129292   0.12893422    11358.042     1000 
  606000   0.49814567   -2.3337115   0.74647129   -1.5872402   0.13389261    11276.951     1000 
  608000   0.48755532   -2.3032222   0.73060165   -1.5726206   0.14308294     11158.66     1000 
  610000   0.51172071   -2.2981411   0.76681349   -1.5313276   0.12563869    11395.413     1000 
  612000   0.51561951   -2.3204164   0.77265583   -1.5477606   0.13929134    11085.622     1000 
  614000   0.48981687    -2.277002   0.73399058   -1.5430114   0.12295335    11157.495     1000 
  616000   0.50626417   -2.3388769   0.75863685   -1.5802401   0.13427742    11314.752     1000 
  618000   0.50398639    -2.351477   0.75522361   -1.5962534    0.1208052    11423.328     1000 
  620000   0.47685151   -2.3324339   0.71456198   -1.6178719    0.1339236    11196.725     1000 
  622000   0.49363238   -2.3236923   0.73970812   -1.5839842   0.12767714    11319.798     1000 
  624000   0.48218615   -2.3347274   0.72255595   -1.6121715   0.11915802    11323.396     1000 
  626000   0.50027906   -2.3447303   0.74966817   -1.5950621   0.12361932    11132.011     1000 
  628000   0.51420567   -2.3024605    0.7705372   -1.5319233   0.12907949    11141.052     1000 
  630000    0.5148914   -2.3266174   0.77156476   -1.5550527   0.12013411    11361.485     1000 
  632000   0.49068697   -2.3017254   0.73529443    -1.566431   0.12669791    11122.214     1000 
  634000   0.52760778    -2.352971   0.79062026   -1.5623507   0.13513104    11233.106     1000 
  636000   0.49649163   -2.3393169   0.74399271   -1.5953242   0.13902089    11261.825     1000 
  638000   0.49067935   -2.3546971   0.73528301   -1.6194141   0.11998876     11450.82     1000 
  640000   0.48894465   -2.2541595   0.73268356    -1.521476    0.1412998    11116.978     1000 
  642000   0.48623714   -2.3512812   0.72862636   -1.6226548   0.11548929    11396.982     1000 
  644000   0.50115065   -2.3309465   0.75097424   -1.5799723   0.11680492     11384.93     1000 
  646000   0.48394007   -2.3173401   0.72518419    -1.592156   0.13303653    11196.745     1000 
  648000   0.49968182   -2.3568128   0.74877321   -1.6080396   0.12289132    11408.606     1000 
  650000   0.52233217   -2.3431958   0.78271475    -1.560481   0.13601832    11324.948     1000 
  652000   0.49642071   -2.3483434   0.74388644   -1.6044569   0.11774507    11412.425     1000 
  654000   0.48847382   -2.3230548   0.73197802   -1.5910768   0.13391759     11156.79     1000 
  656000   0.48898137   -2.3331374   0.73273858   -1.6003989   0.12786806    11347.528     1000 
  658000   0.49522464   -2.3570465   0.74209413   -1.6149523   0.11827763    11257.043     1000 
  660000   0.48772861   -2.3580317   0.73086132   -1.6271704   0.13480299    11227.648     1000 
  662000   0.49877255   -2.3517005   0.74741066   -1.6042898   0.11256136    11379.495     1000 
  664000   0.51342176   -2.2956658   0.76936251   -1.5263033   0.13852432     11116.98     1000 
  666000   0.51503909   -2.3117967   0.77178608   -1.5400106   0.12471214    11346.074     1000 
  668000   0.50542639   -2.3588051   0.75738145   -1.6014237   0.11939971    11297.391     1000 
  670000   0.47882324   -2.3229842   0.71751662   -1.6054676   0.13520494    11149.645     1000 
  672000    0.5114931   -2.3184358   0.76647241   -1.5519634   0.12321058    11244.595     1000 
  674000   0.49867357   -2.3193269   0.74726235   -1.5720645   0.12910602    11230.969     1000 
  676000   0.51952959    -2.309883   0.77851509   -1.5313679   0.13649725    11131.318     1000 
  678000   0.50869728    -2.332334   0.76228288   -1.5700511   0.13345546    11222.567     1000 
  680000   0.48994178   -2.3284309   0.73417776   -1.5942531   0.13963399    11205.036     1000 
  682000    0.4923533   -2.3439378   0.73779141   -1.6061464   0.12250449    11384.906     1000 
  684000   0.49868378   -2.3201919   0.74727765   -1.5729143   0.13381468    11141.757     1000 
  686000   0.51636298   -2.3749456   0.77376993   -1.6011756   0.12167112    11443.621     1000 
  688000   0.50466941   -2.3647367   0.75624711   -1.6084896   0.13579781    11119.334     1000 
  690000   0.47480584   -2.3242535   0.71149656   -1.6127569   0.12211123    11338.889     1000 
  692000   0.49630374   -2.3523615   0.74371115   -1.6086503   0.12873031     11307.45     1000 
  694000   0.51106368   -2.3237664   0.76582892   -1.5579375   0.11959176    11225.965     1000 
  696000   0.51090574   -2.3005476   0.76559225   -1.5349554   0.12829238    11386.646     1000 
  698000   0.48772835   -2.3195959   0.73086093   -1.5887349   0.11905232    11253.326     1000 
  700000   0.50036853   -2.3426651   0.74980224   -1.5928629   0.11372645    11427.428     1000 
  702000   0.48634931   -2.3275994   0.72879443    -1.598805   0.12190148    11282.362     1000 
  704000   0.50787916   -2.3204946   0.76105692   -1.5594376   0.13959041    11105.187     1000 
  706000   0.49632911    -2.344838   0.74374917   -1.6010888   0.12814572    11374.263     1000 
  708000   0.50567979   -2.3474911   0.75776117   -1.5897299   0.12574006    11404.674     1000 
  710000   0.48796955   -2.3070554   0.73122236    -1.575833   0.12852882    11349.832     1000 
  712000   0.50110959   -2.3218302   0.75091273   -1.5709175   0.13395126    11261.685     1000 
  714000   0.50114484   -2.3005052   0.75096554   -1.5495397   0.13690105    11330.413     1000 
  716000    0.4683167   -2.3146578   0.70177258   -1.6128852   0.11713414    11311.818     1000 
  718000   0.49160035   -2.2802599   0.73666312   -1.5435968   0.13552473    11116.301     1000 
  720000   0.51435477   -2.3336461   0.77076063   -1.5628855    0.1225471    11427.815     1000 
  722000   0.48951494   -2.3281185   0.73353813   -1.5945803   0.12352492    11337.898     1000 
  724000   0.51070638   -2.3074648   0.76529352   -1.5421712   0.11782947    11380.104     1000 
  726000   0.47854139    -2.331097   0.71709428   -1.6140027   0.12508691    11100.003     1000 
  728000   0.49969332   -2.3200415   0.74879044   -1.5712511   0.12226311    11232.164     1000 
  730000   0.50884656   -2.2975848   0.76250658   -1.5350782   0.12869666    11119.604     1000 
  732000   0.50153922   -2.2899427   0.75155653   -1.5383862   0.13780079    11207.144     1000 
  734000    0.4652974   -2.3141967   0.69724815   -1.6169486   0.13787938    11126.629     1000 
  736000    0.5069975   -2.3469945   0.75973575   -1.5872588   0.13615801    11322.992     1000 
  738000   0.49452376   -2.3110521   0.74104386   -1.5700083    0.1290901    11243.826     1000 
  740000   0.48890751   -2.2825912   0.73262791   -1.5499633   0.11820467    11349.506     1000 
  742000   0.50485757   -2.2910426   0.75652907   -1.5345135   0.13132799    11146.198     1000 
  744000   0.50266288   -2.3282506   0.75324032   -1.5750103   0.12924239    11197.158     1000 
  746000   0.49463847   -2.3013097   0.74121575   -1.5600939   0.13175785    11238.577     1000 
  748000   0.50429796   -2.2885884    0.7556905   -1.5328979    0.1342779    11288.972     1000 
  750000   0.48811701   -2.2486362   0.73144334   -1.5171929   0.12980962    11178.727     1000 
  752000   0.48924648   -2.2652502   0.73313585   -1.5321144     0.125819    11211.942     1000 
  754000   0.49631232   -2.3481854   0.74372401   -1.6044614   0.13920766    11212.749     1000 
  756000   0.50035488   -2.3073933   0.74978178   -1.5576115   0.12982326    11129.996     1000 
  758000   0.50885823   -2.3333564   0.76252405   -1.5708324   0.12876032    11341.996     1000 
  760000   0.50465537   -2.3244568   0.75622608   -1.5682308   0.12243269    11153.117     1000 
  762000   0.50813602    -2.278779   0.76144182   -1.5173372   0.13227095    11275.701     1000 
  764000   0.49659715   -2.3277645   0.74415083   -1.5836137   0.12835469    11310.072     1000 
  766000   0.50327235   -2.3358513   0.75415361   -1.5816977   0.13848042    11342.518     1000 
  768000   0.51790029   -2.3159934   0.77607358   -1.5399198   0.12552395    11380.679     1000 
  770000   0.48929914   -2.2750945   0.73321477   -1.5418797   0.12878587    11212.094     1000 
  772000   0.49792472   -2.2736718   0.74614019   -1.5275316    0.1393426    11084.207     1000 
  774000   0.49537587   -2.3324759   0.74232074   -1.5901552   0.12717468    11390.978     1000 
  776000    0.4910992   -2.2971908   0.73591215   -1.5612786   0.13088709    11188.672     1000 
  778000   0.51756865   -2.3070627   0.77557662    -1.531486   0.13087473    11181.388     1000 
  780000   0.47708898   -2.3325928   0.71491784   -1.6176749   0.12140848    11213.094     1000 
  782000   0.49911682   -2.3721808   0.74792655   -1.6242543   0.12515096    11383.428     1000 
  784000   0.50452208   -2.2901966   0.75602634   -1.5341703   0.15190419    11019.959     1000 
  786000   0.49557111   -2.3426112   0.74261331   -1.5999979   0.13523613    11191.304     1000 
  788000   0.50535272    -2.283291   0.75727105   -1.5260199   0.13313009    11192.372     1000 
  790000   0.49987766   -2.3105714   0.74906667   -1.5615047   0.14231681    11299.176     1000 
  792000    0.4757347   -2.3340684   0.71288846   -1.6211799   0.12213938    11482.454     1000 
  794000   0.51449721   -2.3335402   0.77097407   -1.5625661   0.12900294    11305.561     1000 
  796000   0.52473834   -2.2995514    0.7863204    -1.513231   0.12929927    11317.496     1000 
  798000   0.50944804    -2.314338   0.76340789   -1.5509301   0.12900283    11262.279     1000 
  800000    0.4999743    -2.341545   0.74921149   -1.5923335   0.11569623    11339.036     1000 
  802000   0.50675645   -2.3429992   0.75937455   -1.5836247   0.12136606    11246.958     1000 
  804000   0.50444962   -2.3079529   0.75591776   -1.5520351   0.14377867    11305.121     1000 
  806000   0.48587674   -2.3390338   0.72808629   -1.6109475   0.12164982    11333.065     1000 
  808000   0.49552835   -2.3377896   0.74254923   -1.5952404   0.12452629    11293.961     1000 
  810000   0.51408255    -2.329149    0.7703527   -1.5587963   0.13987097    11264.724     1000 
  812000   0.51940003   -2.3679516   0.77832095   -1.5896306   0.12868505    11429.178     1000 
  814000    0.5114673   -2.3716941   0.76643374   -1.6052603    0.1220307    11304.473     1000 
  816000   0.51714169   -2.3669566   0.77493682   -1.5920198   0.12048684    11381.479     1000 
  818000    0.5016163   -2.3553948   0.75167203   -1.6037227    0.1430868    11090.641     1000 
  820000   0.50049261    -2.309899   0.74998818   -1.5599108   0.12212844    11305.752     1000 
  822000   0.50095744   -2.3498886   0.75068472   -1.5992039   0.12358417    11257.184     1000 
  824000    0.5053924   -2.3413278   0.75733052   -1.5839972   0.14218217    11257.547     1000 
  826000   0.50728764   -2.3033294   0.76017053   -1.5431589   0.12267614    11145.606     1000 
  828000   0.50846444   -2.3347753   0.76193396   -1.5728414   0.12313839    11277.843     1000 
  830000   0.48694677   -2.3484674   0.72968973   -1.6187776   0.13046558    11333.938     1000 
  832000   0.51004701   -2.3764595   0.76430544    -1.612154   0.12936062    11387.074     1000 
  834000   0.47147841   -2.3102481    0.7065104   -1.6037377   0.14478328    11144.745     1000 
  836000   0.49050109   -2.3304411   0.73501588   -1.5954253   0.13923279    11205.678     1000 
  838000   0.50630869   -2.2529538   0.75870357   -1.4942502    0.1353184    11077.841     1000 
  840000   0.52135675   -2.2870401   0.78125309    -1.505787   0.12612693    11261.001     1000 
  842000   0.50539077   -2.3376677   0.75732807   -1.5803396   0.13238303    11161.993     1000 
  844000   0.50231214   -2.3607821   0.75271474   -1.6080674   0.14455157    11158.161     1000 
  846000   0.52298708   -2.3128086   0.78369614   -1.5291125   0.14558449    11148.634     1000 
  848000   0.48390498   -2.2934493   0.72513161   -1.5683177   0.13690411    11129.316     1000 
  850000   0.50808171   -2.3201586   0.76136045   -1.5587982   0.13685153    11180.183     1000 
  852000   0.50756992   -2.3257325   0.76059353    -1.565139   0.13470997    11171.957     1000 
  854000   0.47668503   -2.3217709   0.71431252   -1.6074584   0.14050593    11065.201     1000 
  856000   0.50588894   -2.2875835   0.75807458    -1.529509   0.14624323    10945.676     1000 
  858000   0.49788065    -2.328942   0.74607415   -1.5828678   0.12855438     11140.67     1000 
  860000   0.49276542   -2.2791296   0.73840898   -1.5407207   0.13392371    11304.293     1000 
  862000   0.49117959   -2.3303304   0.73603262   -1.5942978   0.11448881    11352.846     1000 
  864000   0.50223414   -2.2885131   0.75259786   -1.5359152    0.1415614    11117.746     1000 
  866000   0.51482828   -2.2892678   0.77147018   -1.5177976    0.1323166     11336.53     1000 
  868000   0.49436403   -2.3177311    0.7408045   -1.5769266    0.1348555    11277.267     1000 
  870000   0.46276106   -2.3154668   0.69344745   -1.6220194   0.13086382    11073.366     1000 
  872000   0.49572789   -2.3736141   0.74284825   -1.6307659   0.13241143    11290.196     1000 
  874000   0.50625554   -2.3511207   0.75862393   -1.5924967   0.12326834     11338.91     1000 
  876000   0.49237614   -2.3453012   0.73782565   -1.6074755   0.12111186    11387.889     1000 
  878000   0.49116316   -2.2759676     0.736008   -1.5399596   0.13290176    11174.046     1000 
  880000   0.49748239   -2.2404027   0.74547736   -1.4949253   0.13932341    10949.198     1000 
  882000   0.49520112   -2.3456422   0.74205888   -1.6035833   0.12571856     11318.97     1000 
  884000   0.50351924   -2.3291904   0.75452359   -1.5746668    0.1204123    11285.651     1000 
  886000   0.50898545   -2.3263659   0.76271469   -1.5636512   0.13465062    11211.803     1000 
  888000   0.51991442   -2.3577865   0.77909176   -1.5786947   0.13180343    11278.709     1000 
  890000   0.50662862   -2.3615653   0.75918299   -1.6023823   0.12039635    11359.684     1000 
  892000   0.49065044   -2.3344934   0.73523968   -1.5992537   0.12180712    11268.741     1000 
  894000   0.48987784   -2.3240108   0.73408195   -1.5899288    0.1335208    11204.835     1000 
  896000   0.51391975   -2.3038508   0.77010875    -1.533742    0.1268609    11248.283     1000 
  898000   0.50711119   -2.3421378   0.75990612   -1.5822317   0.11730551    11437.795     1000 
  900000   0.52658236   -2.2754181   0.78908366   -1.4863345   0.13073044    11282.025     1000 
  902000   0.50606342   -2.3272888   0.75833603   -1.5689528    0.1341238    11188.789     1000 
  904000   0.49829174   -2.2549039   0.74669018   -1.5082137   0.13957644    11114.144     1000 
  906000   0.51311077   -2.3649755   0.76889649    -1.596079   0.12794955    11382.832     1000 
  908000   0.49317807   -2.2547608   0.73902734   -1.5157335   0.12398411    11205.855     1000 
  910000   0.48534768   -2.3297861    0.7272935   -1.6024926   0.11417846    11369.766     1000 
  912000   0.49712696   -2.3012028   0.74494475   -1.5562581   0.13087035    11182.017     1000 
  914000   0.51043248   -2.3292038   0.76488307   -1.5643208   0.13567753    11092.523     1000 
  916000    0.4893096    -2.304487   0.73323044   -1.5712566   0.13420301      11237.8     1000 
  918000   0.49371569   -2.3373306   0.73983295   -1.5974976   0.11965775    11374.539     1000 
  920000   0.49206813   -2.3619516    0.7373641   -1.6245875   0.12248591    11348.959     1000 
  922000    0.5156992   -2.3391559   0.77277526   -1.5663807   0.12621593    11227.957     1000 
  924000   0.50884381   -2.3437929   0.76250245   -1.5812905   0.13005898    11213.813     1000 
  926000   0.50765977   -2.3330055   0.76072816   -1.5722773   0.13142211    11246.716     1000 
  928000   0.52191335    -2.371405   0.78208715   -1.5893178   0.12319714     11316.97     1000 
  930000   0.49632232   -2.3391634   0.74373899   -1.5954245   0.13132173    11396.659     1000 
  932000   0.48704867   -2.3419252   0.72984243   -1.6120827   0.13833262    11163.857     1000 
  934000   0.49670491    -2.356684   0.74431231   -1.6123717   0.12329353    11315.332     1000 
  936000   0.49294776   -2.2925538   0.73868222   -1.5538716   0.13723347    11065.314     1000 
  938000   0.48308301   -2.2914493   0.72389989   -1.5675494   0.12716752    11131.797     1000 
  940000   0.52216531   -2.3391592   0.78246471   -1.5566945   0.11301129    11290.066     1000 
  942000   0.48984578   -2.3149156   0.73403389   -1.5808817   0.14405154    11109.377     1000 
  944000   0.48054417   -2.3154473   0.72009545   -1.5953518   0.14004117    11117.682     1000 
  946000   0.49198806   -2.3027482   0.73724411   -1.5655041   0.12147706    11343.553     1000 
  948000    0.4920167   -2.3745785   0.73728702   -1.6372915   0.12568041    11286.793     1000 
  950000   0.48525846   -2.3049265    0.7271598   -1.5777667   0.13177246    11280.243     1000 
  952000   0.48016111   -2.3248767   0.71952143   -1.6053552   0.11709108    11224.717     1000 
  954000   0.49004786   -2.3245068   0.73433672   -1.5901701   0.12357101    11241.544     1000 
  956000   0.49767012   -2.2768446   0.74575868    -1.531086   0.14292673     11137.04     1000 
  958000   0.51448954   -2.3082492   0.77096257   -1.5372866   0.12896716    11212.637     1000 
  960000   0.50761929   -2.3115919   0.76066751   -1.5509244   0.14560725    11188.773     1000 
  962000   0.48149776   -2.3414949   0.72152439   -1.6199705   0.12931532    11215.654     1000 
  964000   0.51278649   -2.3672513   0.76841055   -1.5988407   0.12406086    11445.483     1000 
  966000   0.51230314   -2.3325261   0.76768625   -1.5648398   0.12346812    11200.925     1000 
  968000   0.50702452   -2.3254945   0.75977624   -1.5657183   0.12006265    11191.783     1000 
  970000   0.47680703   -2.3181746   0.71449533   -1.6036793   0.13312057    11237.038     1000 
  972000   0.51474929    -2.337245   0.77135182   -1.5658932   0.13009592    11264.342     1000 
  974000   0.48706564   -2.3112117   0.72986786   -1.5813438    0.1344008    11224.064     1000 
  976000   0.51098533   -2.3567325   0.76571152    -1.591021    0.1268785    11283.137     1000 
  978000    0.4920634   -2.2951607   0.73735701   -1.5578037   0.12418737    11268.962     1000 
  980000   0.49983928   -2.3564815   0.74900916   -1.6074723   0.12209715    11385.654     1000 
  982000   0.48505426   -2.3432682   0.72685381   -1.6164144   0.12436165    11175.572     1000 
  984000    0.5010712   -2.3023319   0.75085519   -1.5514767   0.12823201    11375.541     1000 
  986000   0.48537505   -2.3730063   0.72733451   -1.6456718   0.13613707    11272.991     1000 
  988000   0.50405168   -2.3036473   0.75532144   -1.5483258   0.11479259     11451.06     1000 
  990000   0.48956966   -2.3017491   0.73362014    -1.568129   0.12617223    11407.706     1000 
  992000   0.48519563   -2.2882844   0.72706565   -1.5612187    0.1244224    11255.416     1000 
  994000   0.50410452   -2.3190592   0.75540062   -1.5636586   0.12651676    11328.089     1000 
  996000   0.47930187   -2.3372083   0.71823385   -1.6189744   0.12668907    11290.528     1000 
  998000   0.49103223   -2.2891826   0.73581179   -1.5533708   0.12235085    11341.258     1000 
 1000000   0.48859559   -2.3121563    0.7321605   -1.5799958    0.1213077    11315.771     1000 
 1002000   0.48908264   -2.3331546   0.73289033   -1.6002643   0.12655726    11213.538     1000 
 1004000   0.51821892    -2.305754   0.77655105    -1.529203   0.12759411    11259.064     1000 
 1006000   0.50791425   -2.3403254    0.7611095   -1.5792159   0.13448331    11305.666     1000 
 1008000   0.50367565   -2.3256805   0.75475796   -1.5709226   0.12255202    11366.534     1000 
 1010000   0.50206133   -2.3674495    0.7523389   -1.6151106   0.11882229    11223.158     1000 
 1012000   0.50374919   -2.3213986   0.75486817   -1.5665304   0.12755092    11190.552     1000 
 1014000   0.48585567   -2.3319485   0.72805472   -1.6038938   0.12114067    11410.628     1000 
 1016000   0.49122189   -2.2993408   0.73609601   -1.5632448   0.12315826    11241.879     1000 
 1018000   0.48936398   -2.3150582   0.73331193   -1.5817463   0.12927191    11177.284     1000 
 1020000    0.4706099   -2.3242503   0.70520893   -1.6190413   0.11384971    11375.991     1000 
 1022000   0.50379459   -2.3125937   0.75493619   -1.5576575   0.13075864    11368.685     1000 
 1024000   0.49834124   -2.2979364   0.74676436   -1.5511721   0.13035861    11210.911     1000 
 1026000     0.486318   -2.2809507   0.72874752   -1.5522032    0.1331877    11201.205     1000 
 1028000   0.49604398   -2.2836694    0.7433219   -1.5403475   0.12794187    11204.657     1000 
 1030000   0.50450487   -2.3112339   0.75600054   -1.5552334   0.13204744    11252.618     1000 
 1032000   0.48794063   -2.2770414   0.73117903   -1.5458623   0.13827701     11337.26     1000 
 1034000   0.49922562   -2.3456921   0.74808958   -1.5976025   0.12153545    11312.546     1000 
 1036000   0.50959027   -2.3128323   0.76362102   -1.5492112   0.14018289     11061.72     1000 
 1038000   0.49920989    -2.300864   0.74806603   -1.5527979   0.11392711    11332.306     1000 
 1040000   0.53708328   -2.3348325    0.8048193   -1.5300132   0.14147838    11161.108     1000 
 1042000    0.4733916    -2.341037   0.70937731   -1.6316597   0.12648122    11262.145     1000 
 1044000   0.49580948   -2.3545693   0.74297051   -1.6115988   0.12828121    11309.499     1000 
 1046000   0.49480019   -2.3367633   0.74145809   -1.5953052   0.11209728    11474.288     1000 
 1048000   0.50095822   -2.3365137   0.75068589   -1.5858278   0.12590541    11202.438     1000 
 1050000    0.5096666   -2.3176563    0.7637354   -1.5539209   0.13270733    11187.049     1000 
 1052000   0.48278786   -2.3409752   0.72345761   -1.6175176   0.12135719    11376.423     1000 
 1054000   0.50179813   -2.3036428    0.7519445   -1.5516983   0.14214283    11170.963     1000 
 1056000   0.50794684   -2.3345423   0.76115834    -1.573384   0.13530131    11083.246     1000 
 1058000   0.50132147   -2.2814611   0.75123023   -1.5302309   0.13333302    11391.062     1000 
 1060000   0.50190444   -2.2968277   0.75210381   -1.5447239   0.14026788    11135.082     1000 
 1062000   0.48617958   -2.3176672    0.7285401   -1.5891271   0.12805253    11241.884     1000 
 1064000   0.50236218   -2.3292368   0.75278973   -1.5764471   0.14028066    11195.971     1000 
 1066000   0.49068943   -2.2976178   0.73529812   -1.5623197   0.11035982    11356.793     1000 
 1068000   0.51158048   -2.3134266   0.76660334   -1.5468233   0.13278048    11330.178     1000 
 1070000   0.50531211   -2.3690845   0.75721019   -1.6118743   0.14189393    11147.815     1000 
 1072000   0.49312064   -2.3433072   0.73894128   -1.6043659   0.14456343    11146.006     1000 
 1074000   0.48017738   -2.3439574    0.7195458   -1.6244116   0.11541954    11467.619     1000 
 1076000   0.52997526   -2.3471955   0.79416793   -1.5530276   0.15169598    11208.423     1000 
 1078000   0.50554754   -2.3210431   0.75756298   -1.5634801   0.12494716    11249.617     1000 
 1080000   0.48269783   -2.3519738   0.72332269   -1.6286511    0.1298386    11314.245     1000 
 1082000   0.49454538   -2.2586503   0.74107626    -1.517574   0.13662887    11259.379     1000 
 1084000   0.50082025   -2.3277965   0.75047915   -1.5773173   0.12811944    11297.877     1000 
 1086000   0.52840927   -2.2794598   0.79182129   -1.4876385   0.12732331    11213.951     1000 
 1088000   0.50395977   -2.3410851   0.75518372   -1.5859014   0.11484468    11431.549     1000 
 1090000   0.51148407   -2.3489446   0.76645887   -1.5824857   0.11992737    11307.583     1000 
 1092000    0.5457027    -2.279406   0.81773549   -1.4616705   0.13612363    11161.742     1000 
 1094000    0.5148565   -2.2762428   0.77151247   -1.5047303   0.12646104     11192.24     1000 
 1096000   0.48656954   -2.2920262   0.72912446   -1.5629017   0.14134768     11177.05     1000 
 1098000   0.50548266   -2.3343814   0.75746576   -1.5769157   0.13039917    11193.626     1000 
 1100000   0.49458202    -2.280049   0.74113115   -1.5389178   0.12295686    11264.001     1000 
 1102000   0.50723118   -2.3075861   0.76008593   -1.5475002   0.13575801    11163.546     1000 
 1104000   0.50549744   -2.3387496   0.75748792   -1.5812617   0.12474409    11256.558     1000 
 1106000   0.48964549    -2.250512   0.73373377   -1.5167782   0.13579663    11129.026     1000 
 1108000   0.52344224   -2.3143021    0.7843782   -1.5299239   0.13634357    11226.781     1000 
 1110000   0.50924768   -2.3308727   0.76310764   -1.5677651   0.13346964    11166.698     1000 
 1112000   0.48271502    -2.414218   0.72334846   -1.6908695   0.11716596    11456.696     1000 
 1114000   0.50487482   -2.3537942   0.75655491   -1.5972393   0.13725387    11365.242     1000 
 1116000   0.49616266    -2.335098   0.74349975   -1.5915982   0.12216208    11396.024     1000 
 1118000   0.51602531   -2.3062401   0.77326392   -1.5329762   0.13432035    11297.694     1000 
 1120000   0.49516718    -2.369781   0.74200802    -1.627773   0.12545361    11366.919     1000 
 1122000   0.49976715    -2.294524   0.74890107    -1.545623   0.12813838    11209.427     1000 
 1124000   0.47536484   -2.3434148   0.71233422   -1.6310805   0.12497512    11134.065     1000 
 1126000   0.51956344   -2.3906719   0.77856582   -1.6121061   0.13534462    11196.929     1000 
 1128000   0.49558645   -2.3337305    0.7426363   -1.5910942   0.12790368     11285.96     1000 
 1130000   0.51227775   -2.3337813    0.7676482   -1.5661331   0.13739512    11281.857     1000 
 1132000    0.5062531   -2.3058317   0.75862027   -1.5472114   0.15070058    11029.475     1000 
 1134000   0.52327715   -2.3489709   0.78413081   -1.5648401   0.12533913    11301.099     1000 
 1136000   0.49007006   -2.3284982   0.73436998   -1.5941283   0.12876377    11248.095     1000 
 1138000    0.4963499   -2.2735496   0.74378032   -1.5297692   0.14215974     11080.88     1000 
 1140000    0.5047483   -2.3531342   0.75636533   -1.5967689   0.13293249    11178.152     1000 
 1142000   0.48636511   -2.2883534   0.72881812   -1.5595353   0.13344183    11190.464     1000 
 1144000   0.48510813   -2.3092898   0.72693453   -1.5823553   0.12030238    11238.393     1000 
 1146000   0.49375016   -2.2735006   0.73988461    -1.533616    0.1359198    11118.671     1000 
 1148000   0.51153865    -2.282543   0.76654067   -1.5160023   0.12825083    11185.636     1000 
 1150000   0.52090416    -2.362568   0.78057489   -1.5819932   0.12475288    11253.477     1000 
 1152000   0.51410582   -2.2854519   0.77038757   -1.5150644   0.14105325    11112.971     1000 
 1154000   0.50284608   -2.3055433   0.75351485   -1.5520285    0.1371457    11231.239     1000 
 1156000   0.50595102   -2.3346416    0.7581676    -1.576474    0.1344444    11236.422     1000 
 1158000   0.49939332   -2.3292233   0.74834089   -1.5808824   0.14400946     11153.48     1000 
 1160000   0.49383736   -2.2943186   0.74001529   -1.5543033   0.13023187    11294.325     1000 
 1162000   0.50860605   -2.2857787   0.76214617   -1.5236326   0.13389844    11170.495     1000 
 1164000   0.49203458   -2.2668727   0.73731381   -1.5295589   0.12465429    11206.948     1000 
 1166000   0.49927542   -2.3464019   0.74816422   -1.5982377   0.14703094    11079.946     1000 
 1168000   0.51376271    -2.330816   0.76987342   -1.5609426   0.12532861    11319.781     1000 
 1170000   0.49839656   -2.2890795   0.74684725   -1.5422322    0.1286139     11143.11     1000 
 1172000   0.47659956   -2.3946836   0.71418444   -1.6804992   0.11649849    11484.698     1000 
 1174000    0.4946922   -2.3113726   0.74129627   -1.5700763   0.14540728    11139.421     1000 
 1176000   0.50378819   -2.3160308    0.7549266   -1.5611042    0.1380492    11176.232     1000 
 1178000   0.50702604   -2.3624531   0.75977852   -1.6026746    0.1260927    11281.993     1000 
 1180000    0.5046825   -2.3387112   0.75626673   -1.5824444   0.12252299    11413.264     1000 
 1182000   0.51065047   -2.3289557   0.76520973    -1.563746   0.12294973     11253.18     1000 
 1184000   0.50770239   -2.3260624   0.76079203   -1.5652704   0.14111709    11172.138     1000 
 1186000   0.50795268   -2.3097165    0.7611671   -1.5485494   0.14470757    11121.211     1000 
 1188000   0.49400632   -2.2970669   0.74026847   -1.5567984   0.14328447    11115.395     1000 
 1190000   0.51509203   -2.2996363   0.77186541   -1.5277709   0.14331661    11172.616     1000 
 1192000   0.47606676   -2.2722723   0.71338604   -1.5588863   0.12329571    11251.456     1000 
 1194000   0.50882058    -2.290056   0.76246764   -1.5275884   0.14494931    11228.988     1000 
 1196000   0.52997785   -2.3205966   0.79417181   -1.5264247   0.15201598    11159.107     1000 
 1198000    0.4849107   -2.3209672   0.72663869   -1.5943285   0.11878383    11303.841     1000 
 1200000   0.48953249   -2.3409197   0.73356444   -1.6073553   0.12723831    11308.763     1000 
 1202000    0.5321846   -2.3131707   0.79747862   -1.5156921    0.1409861    11158.318     1000 
 1204000   0.47921242   -2.3072386   0.71809981   -1.5891388   0.12488066     11361.26     1000 
 1206000   0.51215159   -2.3443311   0.76745916    -1.576872   0.13766654    11163.057     1000 
 1208000   0.50890631   -2.3269862   0.76259611     -1.56439   0.11778743    11411.903     1000 
 1210000   0.49582447   -2.2397463   0.74299297   -1.4967533   0.13195126    11055.424     1000 
 1212000   0.52293396   -2.2872835   0.78361653   -1.5036669   0.13416333    11155.063     1000 
 1214000   0.48009791   -2.2856197   0.71942672   -1.5661929   0.11389772    11417.464     1000 
 1216000    0.5107236   -2.2971588   0.76531931   -1.5318395   0.13246537      11076.3     1000 
 1218000   0.50076071   -2.3393676   0.75038992   -1.5889777   0.13579488    11233.406     1000 
 1220000   0.52558676   -2.3733857   0.78759177   -1.5857939   0.12137764    11274.488     1000 
 1222000   0.51294547   -2.2762691   0.76864878   -1.5076203   0.12455497     11235.17     1000 
 1224000   0.50426637   -2.3309632   0.75564316   -1.5753201   0.14784798    11050.726     1000 
 1226000   0.50269148   -2.2813334   0.75328318   -1.5280503    0.1319098    11152.586     1000 
 1228000   0.47446045   -2.2854321   0.71097898   -1.5744531   0.13509686    11177.711     1000 
 1230000   0.49580247   -2.3132849      0.74296   -1.5703249   0.12617871    11390.198     1000 
 1232000   0.50803726   -2.3231312   0.76129384   -1.5618374   0.12432603    11327.037     1000 
 1234000   0.50433299   -2.3227739   0.75574299   -1.5670309   0.13463769    11192.133     1000 
 1236000   0.48312369   -2.3578238   0.72396084    -1.633863   0.12584483    11337.102     1000 
 1238000   0.51282305   -2.3197423   0.76846534    -1.551277   0.14781727    11184.452     1000 
 1240000   0.49819643    -2.300349   0.74654734   -1.5538016   0.12391738    11234.701     1000 
 1242000   0.52801685   -2.3554632   0.79123325     -1.56423   0.13639732    11277.103     1000 
 1244000    0.4910015   -2.3099032   0.73576575   -1.5741374   0.10418572    11397.551     1000 
 1246000   0.50124773    -2.336648   0.75111973   -1.5855283    0.1178107    11340.685     1000 
 1248000   0.48958728   -2.3716123   0.73364654   -1.6379658   0.11808688    11286.546     1000 
 1250000   0.48942171   -2.3010303   0.73339843   -1.5676319   0.12614175    11304.662     1000 
 1252000   0.52568594   -2.2780408   0.78774039   -1.4903004   0.14321594    11183.909     1000 
 1254000   0.48217952   -2.3093333   0.72254601   -1.5867873   0.11691662    11298.034     1000 
 1256000    0.5301809   -2.2655666   0.79447608   -1.4710905   0.14141048    11104.217     1000 
 1258000   0.51455076    -2.364962   0.77105432   -1.5939077   0.12513888    11390.103     1000 
 1260000   0.49193638   -2.3214838   0.73716667   -1.5843171   0.12653921    11265.808     1000 
 1262000    0.5188087   -2.3382537   0.77743484   -1.5608188   0.10705338    11433.774     1000 
 1264000   0.50044583   -2.3530255   0.74991808   -1.6031074   0.12875356    11296.362     1000 
 1266000   0.47067251   -2.3479377   0.70530276    -1.642635   0.13444146     11364.51     1000 
 1268000   0.48170584   -2.3167488   0.72183621   -1.5949126   0.13439142    11256.273     1000 
 1270000   0.50464056   -2.3330486   0.75620388   -1.5768447    0.1395402    11121.145     1000 
 1272000   0.48145752   -2.3856073   0.72146409   -1.6641432   0.11226743    11382.081     1000 
 1274000   0.50657824   -2.3562337   0.75910749   -1.5971262   0.13807207    11377.669     1000 
 1276000   0.50526656   -2.3108478   0.75714194   -1.5537058   0.12757176    11178.728     1000 
 1278000   0.47771068   -2.2525985   0.71584946    -1.536749   0.14029044    11103.608     1000 
 1280000   0.49419232   -2.3541711   0.74054719    -1.613624    0.1323151    11380.081     1000 
 1282000   0.49997391   -2.2901227   0.74921091   -1.5409118   0.13305783    11299.153     1000 
 1284000   0.52108705   -2.3024976   0.78084894   -1.5216487   0.13790175    11259.627     1000 
 1286000   0.50125237    -2.311369   0.75112667   -1.5602424   0.12707268    11256.713     1000 
 1288000   0.49724386   -2.3660499   0.74511992   -1.6209299   0.11419162    11430.116     1000 
 1290000    0.4989316   -2.3259739     0.747649   -1.5783249   0.14497262    11174.673     1000 
 1292000   0.51064617   -2.2905107   0.76520329   -1.5253074   0.14850269    10938.361     1000 
 1294000   0.49078121   -2.2853936   0.73543565   -1.5499579   0.13022202    11277.295     1000 
 1296000   0.52293276   -2.3305665   0.78361475   -1.5469518    0.1331242    11175.003     1000 
 1298000   0.52212635   -2.2390385   0.78240634   -1.4566322   0.14048303    11138.836     1000 
 1300000   0.50429196   -2.3549818   0.75568151   -1.5993003   0.13327992    11194.539     1000 
 1302000   0.49577621   -2.3065942   0.74292066   -1.5636735   0.11699234    11302.217     1000 
 1304000   0.48177905   -2.3348446   0.72194591   -1.6128987   0.11787614    11318.095     1000 
 1306000   0.50122573   -2.3104887   0.75108675    -1.559402    0.1183025    11285.599     1000 
 1308000    0.4797998    -2.266131      0.71898    -1.547151   0.12145595     11352.51     1000 
 1310000   0.49728693   -2.2428759   0.74518447   -1.4976914   0.13541797    11150.337     1000 
 1312000   0.50909815   -2.3964293   0.76288358   -1.6335457   0.12340161    11377.892     1000 
 1314000   0.49252964   -2.3384611   0.73805567   -1.6004054   0.12272138    11275.082     1000 
 1316000   0.50087583   -2.2625978   0.75056244   -1.5120353   0.12821676    11204.683     1000 
 1318000   0.49847078   -2.2576916   0.74695846   -1.5107332   0.13730855     11145.87     1000 
 1320000   0.48444615   -2.3059918   0.72594255   -1.5800492   0.13829667    11338.343     1000 
 1322000   0.52382557   -2.3160356   0.78495262    -1.531083   0.13537963    11145.081     1000 
 1324000   0.50006892   -2.3729446   0.74935328   -1.6235913   0.13054283    11231.511     1000 
 1326000   0.52103777   -2.2598312    0.7807751   -1.4790561   0.13615851    11162.611     1000 
 1328000   0.48292965   -2.3341557   0.72367008   -1.6104856   0.13265178    11193.606     1000 
 1330000   0.48236283   -2.3036191   0.72282071   -1.5807984   0.13309424     11273.71     1000 
 1332000   0.49752942   -2.3323456   0.74554784   -1.5867978   0.12217885    11344.685     1000 
 1334000   0.49148957   -2.3377543   0.73649712   -1.6012571   0.12510718    11350.752     1000 
 1336000   0.50185982   -2.2939032   0.75203693   -1.5418662   0.13656747    11082.713     1000 
 1338000   0.48792443   -2.3318808   0.73115477    -1.600726   0.12553825    11160.554     1000 
 1340000   0.48344512   -2.2926239   0.72444251   -1.5681814   0.13270323    11134.421     1000 
 1342000   0.48613588   -2.3094777   0.72847461   -1.5810031   0.13257239    11348.007     1000 
 1344000   0.51130923   -2.3239972   0.76619687   -1.5578004   0.12034415    11501.789     1000 
 1346000   0.52610873   -2.2977062   0.78837393   -1.5093323   0.11148989    11373.419     1000 
 1348000    0.5182557   -2.2944843   0.77660616   -1.5178782   0.14128472    11206.731     1000 
 1350000   0.47409745   -2.3332305   0.71043503   -1.6227954   0.12466204    11355.159     1000 
 1352000   0.49347652    -2.301216   0.73947457   -1.5617414   0.13631837    11169.901     1000 
 1354000   0.50112934   -2.3313925   0.75094232   -1.5804502   0.12706589    11293.569     1000 
 1356000   0.50841255   -2.4161862    0.7618562     -1.65433    0.1427108    11238.501     1000 
 1358000   0.48865119   -2.2645356    0.7322438   -1.5322918   0.13535632    11082.174     1000 
 1360000   0.50346369   -2.3764683   0.75444034   -1.6220279   0.11424185    11358.122     1000 
 1362000   0.51531879   -2.3336288   0.77220521   -1.5614236   0.12993372    11254.284     1000 
 1364000   0.48960804   -2.2944219   0.73367765   -1.5607443    0.1267056    11165.888     1000 
 1366000   0.47859766   -2.3101861   0.71717859   -1.5930075   0.12763073    11375.682     1000 
 1368000   0.49944326   -2.3096638   0.74841573   -1.5612481   0.13542039    11180.042     1000 
 1370000   0.49400027   -2.2952556    0.7402594   -1.5549962   0.13275568    11175.434     1000 
 1372000   0.49256097   -2.3684635   0.73810261   -1.6303609   0.11481742    11417.726     1000 
 1374000   0.51275111   -2.2795769   0.76835754   -1.5112193   0.14740406    11024.401     1000 
 1376000   0.51218625   -2.3073976    0.7675111   -1.5398865   0.13453993    11247.904     1000 
 1378000   0.50163395   -2.3339515   0.75169847   -1.5822531   0.14227702    11151.584     1000 
 1380000   0.50767674   -2.3320422   0.76075359   -1.5712886   0.12723519    11440.601     1000 
 1382000   0.49404365   -2.3015976   0.74032441   -1.5612732    0.1401485    11222.383     1000 
 1384000    0.5029841   -2.2798186   0.75372167   -1.5260969    0.1262381    11227.374     1000 
 1386000   0.49294441   -2.3334744    0.7386772   -1.5947972    0.1200107    11303.877     1000 
 1388000   0.51238374   -2.3302502   0.76780704   -1.5624431   0.12220212    11274.502     1000 
 1390000    0.5038125   -2.3027626   0.75496304   -1.5477996   0.10836201    11428.884     1000 
 1392000   0.48330256    -2.286645   0.72422889   -1.5624161   0.12113999    11268.613     1000 
 1394000   0.48982074    -2.337719   0.73399639   -1.6037226   0.12241746    11291.902     1000 
 1396000   0.51496579   -2.2779138   0.77167624   -1.5062376   0.14958399    11087.411     1000 
 1398000   0.49604285   -2.3411611   0.74332021   -1.5978409   0.12029642    11443.364     1000 
 1400000   0.49220939   -2.3036038   0.73757577    -1.566028   0.13923644    11201.591     1000 
 1402000   0.50129902   -2.3368473   0.75119659   -1.5856507   0.12524956    11196.382     1000 
 1404000   0.51025853   -2.3475415   0.76462241   -1.5829191   0.13283444    11265.661     1000 
 1406000    0.4967147   -2.3355262   0.74432698   -1.5911993    0.1482106    11064.236     1000 
 1408000   0.49408086   -2.3698499   0.74038018   -1.6294697   0.12418343    11305.749     1000 
 1410000    0.5130667   -2.3152617   0.76883045   -1.5464313   0.13825261    11156.993     1000 
 1412000   0.49407565   -2.2725493   0.74037235    -1.532177   0.13021598    11088.879     1000 
 1414000   0.48954197   -2.3068898   0.73357865   -1.5733111   0.12554447    11316.171     1000 
 1416000   0.52151042   -2.3541567   0.78148337   -1.5726733   0.13239166    11179.274     1000 
 1418000     0.493382   -2.3401784   0.73933293   -1.6008455   0.13639287    11064.962     1000 
 1420000   0.49195845   -2.3235865   0.73719974   -1.5863867   0.12549432    11201.724     1000 
 1422000   0.50053271   -2.3430954   0.75004826   -1.5930472   0.11846336    11322.289     1000 
 1424000   0.48734762   -2.3240766    0.7302904   -1.5937862   0.13235749    11311.994     1000 
 1426000   0.50473171   -2.3213693   0.75634046   -1.5650288   0.11603402    11358.668     1000 
 1428000     0.504806   -2.3125427   0.75645179   -1.5560909   0.11160649    11365.018     1000 
 1430000   0.48368827   -2.3610567   0.72480687   -1.6362499   0.12207845    11439.405     1000 
 1432000   0.51310354   -2.3134338   0.76888566   -1.5445481   0.13403946    11194.674     1000 
 1434000   0.51537274   -2.3025288   0.77228606   -1.5302428   0.13684902     11279.94     1000 
 1436000    0.5010355   -2.3127794   0.75080169   -1.5619778   0.13563161    11167.371     1000 
 1438000   0.49593093   -2.2486931    0.7431525   -1.5055406   0.12604682    11360.894     1000 
 1440000   0.49321906   -2.3314439   0.73908876   -1.5923551     0.131129    11148.506     1000 
 1442000     0.496435   -2.3309158   0.74390785    -1.587008   0.12405502    11324.458     1000 
 1444000   0.49730619   -2.3123115   0.74521332   -1.5670982   0.11180028    11452.626     1000 
 1446000   0.45781274   -2.3195193   0.68603239   -1.6334869   0.12960417    11231.982     1000 
 1448000   0.49394315   -2.3270906   0.74017381   -1.5869168   0.13622849    11155.418     1000 
 1450000   0.49287155   -2.3234954   0.73856801   -1.5849274   0.12293925    11352.577     1000 
 1452000    0.5033188   -2.3227243   0.75422323   -1.5685011   0.12296724    11327.421     1000 
 1454000   0.49376341   -2.2979024   0.73990447   -1.5579979   0.12763078    11284.351     1000 
 1456000   0.50932208     -2.29223   0.76321914   -1.5290109   0.12949012     11370.47     1000 
 1458000   0.50226632   -2.3279637   0.75264607   -1.5753177   0.13155654    11348.378     1000 
 1460000   0.46906518   -2.2988889   0.70289417   -1.5959947   0.13171881    11273.392     1000 
 1462000   0.49167927   -2.2720837   0.73678139   -1.5353023   0.13583736    11049.166     1000 
 1464000   0.50394608   -2.2630816    0.7551632   -1.5079184   0.12028897    11149.055     1000 
 1466000   0.49236231   -2.3600978   0.73780493   -1.6222928   0.11187899     11428.52     1000 
 1468000    0.4983226   -2.3204193   0.74673642   -1.5736829   0.12805168    11361.677     1000 
 1470000   0.51342348   -2.3448371   0.76936508   -1.5754721   0.13003887    11319.776     1000 
 1472000   0.47739547   -2.3332227   0.71537711   -1.6178456   0.12116408    11386.894     1000 
 1474000    0.5045696   -2.2532244   0.75609754   -1.4971269   0.14078373    11228.185     1000 
 1476000   0.50027248   -2.3371367   0.74965831   -1.5874784   0.13650545    11102.919     1000 
 1478000    0.5134315   -2.2887662    0.7693771   -1.5193891   0.12912635    11186.935     1000 
 1480000   0.50777407   -2.3705047   0.76089945   -1.6096053   0.13139844    11380.661     1000 
 1482000   0.50906329   -2.3010886   0.76283134   -1.5382573   0.13256767    11327.595     1000 
 1484000   0.48268454   -2.3205135   0.72330279   -1.5972107   0.12810307      11128.7     1000 
 1486000   0.50460732   -2.2576247   0.75615407   -1.5014706   0.14446587    11163.397     1000 
 1488000   0.50641779   -2.3220444   0.75886705   -1.5631774   0.12632066    11275.799     1000 
 1490000   0.51073102   -2.3306064   0.76533044    -1.565276   0.13010955    11284.212     1000 
 1492000   0.51933477   -2.2752647   0.77822315   -1.4970416   0.12664237     11263.45     1000 
 1494000   0.49850773   -2.3689169   0.74701383   -1.6219031   0.12552416    11325.185     1000 
 1496000   0.50008933   -2.3391239   0.74938386   -1.5897401   0.12966412    11258.527     1000 
 1498000   0.49350852   -2.2725798   0.73952251   -1.5330573   0.13738396    10987.459     1000 
 1500000   0.48579069   -2.3494989   0.72795735   -1.6215416   0.12927619    11331.421     1000 
 1502000   0.50340139   -2.3144987   0.75434699   -1.5601517   0.14218129    11329.997     1000 
 1504000   0.50000074   -2.3341489   0.74925111   -1.5848978   0.11372734    11511.129     1000 
 1506000   0.50198999   -2.3329433     0.752232   -1.5807113   0.14519358    11359.735     1000 
 1508000   0.47915324   -2.2942439   0.71801113   -1.5762327   0.13352899    11171.779     1000 
 1510000   0.52061894   -2.2892196   0.78014748   -1.5090721    0.1311989    11217.532     1000 
 1512000    0.4771864   -2.3150531   0.71506383   -1.5999893   0.12601244    11288.511     1000 
 1514000   0.49502671   -2.3018602   0.74179753   -1.5600627   0.12762839    11237.497     1000 
 1516000   0.48735075   -2.3428217    0.7302951   -1.6125266   0.13207111    11277.713     1000 
 1518000   0.51381994   -2.2435797   0.76995918   -1.4736206   0.12208414    11178.659     1000 
 1520000   0.48902653   -2.3746853   0.73280625    -1.641879   0.13044646    11337.756     1000 
 1522000    0.5135156   -2.3868544   0.76950312   -1.6173512    0.1242332    11352.732     1000 
 1524000    0.4967979   -2.3318315   0.74445166   -1.5873799     0.125904    11474.851     1000 
 1526000    0.5121414   -2.3158645   0.76744389   -1.5484206   0.13140516    11185.168     1000 
 1528000   0.51903087   -2.3206846   0.77776775   -1.5429169   0.12706832    11327.085     1000 
 1530000   0.49278144   -2.2718656   0.73843299   -1.5334326   0.13096756    11109.625     1000 
 1532000   0.48851117   -2.3686605   0.73203398   -1.6366265   0.12665774    11290.378     1000 
 1534000   0.48540992   -2.2584138   0.72738676   -1.5310271   0.13268192    11141.354     1000 
 1536000   0.49924369   -2.3358723   0.74811667   -1.5877556   0.12664349     11293.63     1000 
 1538000   0.50094511   -2.3686081   0.75066624   -1.6179419   0.12181936    11243.365     1000 
 1540000   0.50202035   -2.3420463   0.75227749   -1.5897688   0.12943008    11357.588     1000 
 1542000   0.49464117   -2.3388163   0.74121979   -1.5975965   0.13778507    11258.739     1000 
 1544000   0.47763435   -2.3475464   0.71573507   -1.6318114   0.13179955    11218.274     1000 
 1546000   0.48766872   -2.3091499   0.73077158   -1.5783783   0.13407121    11136.738     1000 
 1548000   0.50938911    -2.357526   0.76331959   -1.5942064   0.11791583    11327.738     1000 
 1550000   0.48815317   -2.3342793   0.73149752   -1.6027818    0.1433485    11284.337     1000 
 1552000   0.49076609   -2.2848602   0.73541298   -1.5494472   0.12237765    11296.567     1000 
 1554000   0.52364196   -2.2777866   0.78467748   -1.4931091   0.12920691    11241.984     1000 
 1556000   0.50950331   -2.3556365    0.7634907   -1.5921458   0.14286552    11197.437     1000 
 1558000   0.49432515    -2.300298   0.74074624   -1.5595517   0.13506758    11206.533     1000 
 1560000   0.51588323   -2.2649459   0.77305101   -1.4918949   0.13706395     10997.81     1000 
 1562000   0.49293806   -2.3589453   0.73866768   -1.6202776   0.12708172    11252.379     1000 
 1564000    0.5134575   -2.3868073   0.76941607   -1.6173913   0.13356878    11337.957     1000 
 1566000   0.51436051   -2.2802657   0.77076923   -1.5094964   0.15126326    11110.398     1000 
 1568000   0.50116579   -2.3236761   0.75099694   -1.5726792   0.13613283    11197.532     1000 
 1570000   0.50227962    -2.297611   0.75266601    -1.544945   0.13524693    11185.027     1000 
 1572000   0.52517762   -2.3317291   0.78697867   -1.5447504   0.13441114    11298.367     1000 
 1574000   0.50651999   -2.2967522   0.75902021    -1.537732   0.13080404     11212.33     1000 
 1576000   0.49751898    -2.322483   0.74553219   -1.5769508   0.14300468    11104.231     1000 
 1578000   0.51137766   -2.3604977   0.76629942   -1.5941983   0.11970615    11327.574     1000 
 1580000   0.50285175   -2.3050619   0.75352335   -1.5515385   0.12337436    11303.963     1000 
 1582000   0.48939507   -2.2810723   0.73335852   -1.5477138   0.14314947     11021.38     1000 
 1584000   0.51867236   -2.3258404   0.77723053   -1.5486099   0.13520814    11157.356     1000 
 1586000   0.48329718   -2.2733416   0.72422083   -1.5491208    0.1326323    11266.718     1000 
 1588000   0.45873873   -2.3432614   0.68741999   -1.6558414   0.12461132    11276.165     1000 
[...]
 2614000   0.51374088   -2.4009072   0.76984071   -1.6310665   0.13576251     11384.01     1000 
 2616000   0.49736755   -2.3361837   0.74530528   -1.5908784   0.11819668    11425.571     1000 
 2618000    0.5013765   -2.3096324   0.75131268   -1.5583197   0.12976731     11321.31     1000 
 2620000   0.47984849    -2.349723   0.71905296   -1.6306701   0.13246892    11172.647     1000 
 2622000   0.48740259   -2.3462543   0.73037279   -1.6158815    0.1346267     11146.24     1000 
 2624000   0.48683467    -2.252826   0.72952175   -1.5233042   0.12538182    11239.149     1000 
 2626000   0.51054537   -2.3276004   0.76505224   -1.5625482   0.12995826    11323.788     1000 
 2628000   0.50965686   -2.3232041   0.76372081   -1.5594833   0.13148965    11221.435     1000 
 2630000   0.51131518   -2.2990375    0.7662058   -1.5328317   0.13647108    11039.541     1000 
 2632000   0.52176577   -2.2898869     0.781866   -1.5080209   0.13055717    11200.369     1000 
 2634000   0.49736562    -2.329107   0.74530238   -1.5838046   0.11715752    11396.446     1000 
 2636000   0.49718298   -2.3041026    0.7450287   -1.5590739   0.11981576    11250.202     1000 
 2638000   0.50475924   -2.3443131   0.75638172   -1.5879314   0.13306397    11311.317     1000 
 2640000   0.52657598   -2.3452108   0.78907411   -1.5561367   0.12027219    11402.648     1000 
 2642000   0.49907017    -2.340983   0.74785665   -1.5931263    0.1379234    11333.619     1000 
 2644000   0.49401081   -2.3164462    0.7402752    -1.576171   0.12539169     11265.82     1000 
 2646000   0.51007809   -2.2728262   0.76435201   -1.5084741   0.13287843    11137.663     1000 
 2648000   0.50259631   -2.2983976   0.75314056   -1.5452571   0.14227353     11149.31     1000 
 2650000   0.49109782   -2.3047237   0.73591009   -1.5688136   0.13660038    11136.429     1000 
 2652000   0.50593711   -2.2867105   0.75814676   -1.5285638   0.13097067    11302.896     1000 
 2654000   0.50551928    -2.306332   0.75752064   -1.5488113   0.13861646    11249.433     1000 
 2656000   0.50731611   -2.3234145   0.76021319   -1.5632013   0.12466451    11345.223     1000 
 2658000   0.52313781   -2.2971812     0.783922   -1.5132592    0.1225865    11230.892     1000 
 2660000   0.49719253    -2.305594   0.74504301    -1.560551   0.13694288    11274.915     1000 
 2662000   0.49737625   -2.3509324   0.74531832   -1.6056141    0.1231576    11282.534     1000 
 2664000   0.50054761   -2.3264286   0.75007059    -1.576358   0.13960891    11214.189     1000 
 2666000    0.4818821   -2.2902391   0.72210032   -1.5681388   0.12374685    11092.216     1000 
 2668000   0.51371706   -2.3486365   0.76980502   -1.5788315   0.12945699    11297.054     1000 
 2670000   0.49607647   -2.3226119   0.74337059   -1.5792413    0.1206442    11318.989     1000 
 2672000   0.50182471   -2.3659382   0.75198432   -1.6139539   0.12706161    11409.668     1000 
 2674000   0.52756389   -2.3414179   0.79055448   -1.5508635   0.12965875    11298.038     1000 
 2676000   0.50728645   -2.3034154   0.76016875   -1.5432467   0.14009057     11043.44     1000 
 2678000   0.49690768   -2.3609166   0.74461615   -1.6163004    0.1236052     11310.89     1000 
 2680000   0.49260562   -2.3824321   0.73816952   -1.6442626   0.12150158     11498.47     1000 
 2682000   0.50738981   -2.3378896   0.76032363    -1.577566   0.13338225    11275.479     1000 
 2684000   0.49477191   -2.2707023   0.74141571   -1.5292866   0.13291615    11216.579     1000 
 2686000   0.50569917   -2.3339673    0.7577902   -1.5761771   0.12183697    11368.286     1000 
 2688000   0.48602445   -2.2840133   0.72830763   -1.5557056   0.12802689    11226.079     1000 
 2690000   0.48114549   -2.3182174   0.72099651   -1.5972208   0.12970459    11211.554     1000 
 2692000   0.48365669   -2.3182346   0.72475954   -1.5934751    0.1195237    11280.724     1000 
 2694000   0.51407874   -2.3026481   0.77034699   -1.5323011   0.12241193    11218.099     1000 
 2696000   0.52118799   -2.3213883   0.78100021   -1.5403881   0.12637068    11365.762     1000 
 2698000   0.50690706   -2.3277803   0.75960024   -1.5681801   0.12586147    11474.131     1000 
 2700000   0.48308837    -2.337834   0.72390792   -1.6139261   0.12980938    11279.056     1000 
 2702000   0.49042601   -2.3403933   0.73490337   -1.6054899   0.13056659    11203.271     1000 
 2704000   0.51700373    -2.299764   0.77473009   -1.5250339   0.12342025    11224.422     1000 
 2706000   0.49329934    -2.278155   0.73920906    -1.538946     0.147215    11070.929     1000 
 2708000   0.49767421   -2.2915474   0.74576481   -1.5457826   0.12111669    11206.622     1000 
 2710000   0.50145672   -2.3009087   0.75143289   -1.5494758   0.13830707    11181.649     1000 
 2712000   0.50803549   -2.3294022   0.76129119    -1.568111   0.13008747    11173.187     1000 
 2714000   0.50358637   -2.3168418   0.75462417   -1.5622177   0.12511531    11196.828     1000 
 2716000   0.50126232   -2.3500907   0.75114159   -1.5989491   0.12985885     11192.98     1000 
 2718000   0.49958195   -2.3136597   0.74862356   -1.5650362   0.13386603    11181.211     1000 
 2720000   0.50549067   -2.3268024   0.75747777   -1.5693247   0.13938723    11085.763     1000 
 2722000   0.49251042   -2.3177964   0.73802687   -1.5797695   0.13885444    11115.487     1000 
 2724000   0.50555144    -2.366913   0.75756883   -1.6093442   0.12186428    11319.957     1000 
 2726000   0.51015554    -2.295053   0.76446808    -1.530585   0.12401643    11193.811     1000 
 2728000   0.49097535   -2.3464641   0.73572656   -1.6107375    0.1320441    11340.715     1000 
 2730000   0.49605585    -2.292053    0.7433397   -1.5487133   0.13789773    11218.401     1000 
 2732000   0.49713943   -2.2714833   0.74496344   -1.5265198   0.12637461    11209.063     1000 
 2734000   0.51013041   -2.2912986   0.76443043   -1.5268682   0.13635137     11197.88     1000 
 2736000   0.49153102   -2.3746882   0.73655923    -1.638129   0.12881011    11334.279     1000 
 2738000   0.49372124   -2.3246714   0.73984128   -1.5848301   0.13601338    11351.962     1000 
 2740000   0.48282803   -2.3538898    0.7235178    -1.630372   0.12333393    11363.194     1000 
 2742000   0.49641509   -2.3546839   0.74387801   -1.6108059   0.13761241    11128.323     1000 
 2744000   0.49600433   -2.2823589   0.74326249   -1.5390964   0.14022861    11123.289     1000 
 2746000   0.49894125   -2.2999602   0.74766347   -1.5522967   0.13405754    11273.306     1000 
 2748000   0.49850643    -2.344615   0.74701188   -1.5976031   0.12660294    11285.994     1000 
 2750000   0.50683637   -2.3443136    0.7594943   -1.5848193   0.14493615    11157.748     1000 
 2752000   0.51018684   -2.3055051   0.76451498   -1.5409902   0.13534663    11311.423     1000 
 2754000   0.49466267   -2.3416039   0.74125201   -1.6003519   0.13587198    11361.662     1000 
 2756000   0.49930705   -2.3349378   0.74821162   -1.5867262   0.13241343    11267.357     1000 
 2758000   0.50270304   -2.3065007   0.75330051   -1.5532002   0.12792961    11218.879     1000 
 2760000   0.49815284   -2.2815412   0.74648203   -1.5350592   0.13413139    11142.283     1000 
 2762000   0.49113539   -2.3248939   0.73596638   -1.5889276   0.11794744    11305.449     1000 
 2764000   0.48408996   -2.3371917   0.72540881   -1.6117829   0.14365859    11097.238     1000 
 2766000   0.49907298   -2.2860786   0.74786086   -1.5382177   0.12445139    11238.397     1000 
 2768000   0.49495441   -2.3237553   0.74168919   -1.5820661   0.12613866    11384.628     1000 
 2770000   0.52390325   -2.3037533   0.78506902   -1.5186842   0.12733015    11221.124     1000 
 2772000   0.48857777    -2.343697   0.73213379   -1.6115632   0.12619142    11373.724     1000 
 2774000   0.48736541   -2.3076111   0.73031707    -1.577294   0.12678743    11270.123     1000 
 2776000   0.50335825   -2.3008064   0.75428234   -1.5465241   0.13986808    11009.929     1000 
 2778000   0.50603584   -2.2794976    0.7582947   -1.5212029    0.1266165    11186.868     1000 
 2780000   0.50904283    -2.285311   0.76280067   -1.5225104   0.13958017    11200.379     1000 
 2782000   0.48734608   -2.3402015    0.7302881   -1.6099134   0.12517397    11270.967     1000 
 2784000   0.50631338   -2.3617492    0.7587106   -1.6030386   0.13949648    11141.232     1000 
 2786000    0.5007894    -2.307714   0.75043292   -1.5572811   0.13003333    11179.363     1000 
 2788000    0.5076488   -2.3402224   0.76071172   -1.5795106   0.13591582    11316.627     1000 
 2790000     0.506763   -2.3466945   0.75938436   -1.5873102    0.1373269    11163.579     1000 
 2792000   0.48557339   -2.3059844   0.72763173   -1.5783527   0.11896694    11342.772     1000 
 2794000   0.49438654   -2.3260919   0.74083823   -1.5852537   0.13853498     11128.11     1000 
 2796000   0.48295926   -2.3509513   0.72371445   -1.6272368   0.11440911    11416.265     1000 
 2798000   0.48668443   -2.3464631   0.72929662   -1.6171664   0.12659731    11332.056     1000 
 2800000   0.49498064   -2.3213101   0.74172848   -1.5795816   0.11221154    11380.651     1000 
 2802000   0.50038358   -2.3379481   0.74982479   -1.5881233   0.12147513    11217.807     1000 
 2804000   0.51066776   -2.3388348   0.76523565   -1.5735991    0.1359984    11180.959     1000 
 2806000   0.48912367   -2.3289257   0.73295182   -1.5959739   0.12575725    11152.447     1000 
 2808000   0.48696764   -2.3111958   0.72972101   -1.5814748   0.13893567    11160.936     1000 
 2810000   0.49628072   -2.2770418   0.74367666   -1.5333651   0.12115276    11160.654     1000 
 2812000   0.49404907   -2.2858245   0.74033254   -1.5454919   0.12727543    11217.473     1000 
 2814000   0.49741702    -2.360479    0.7453794   -1.6150996   0.11599618    11409.869     1000 
 2816000   0.48521693    -2.334855   0.72709758   -1.6077575   0.10698547    11453.443     1000 
 2818000   0.51038428   -2.2867574   0.76481084   -1.5219466   0.13053591    11086.094     1000 
 2820000   0.50332106    -2.294494   0.75422661   -1.5402674   0.13629144    11123.234     1000 
 2822000   0.49848855   -2.2945721   0.74698508    -1.547587   0.13546987     11187.82     1000 
 2824000   0.49968817   -2.3223251   0.74878272   -1.5735424   0.13349853    11314.913     1000 
 2826000   0.48818034   -2.3090444   0.73153824   -1.5775061   0.13114861    11061.994     1000 
 2828000    0.5002357   -2.3776374    0.7496032   -1.6280342    0.1114826    11437.022     1000 
 2830000   0.50881582   -2.3352273   0.76246051   -1.5727668   0.13134119    11230.566     1000 
 2832000   0.53322797   -2.3865863   0.79904211   -1.5875442   0.13462675     11310.41     1000 
 2834000   0.49571768   -2.3120412   0.74283295   -1.5692083   0.14572055    11144.223     1000 
 2836000   0.49777361   -2.3691329   0.74591375   -1.6232192   0.13228163    11268.189     1000 
 2838000   0.49675474   -2.3430865   0.74438698   -1.5986995    0.1195349     11443.33     1000 
 2840000    0.5068488   -2.3390091   0.75951292   -1.5794962   0.13596353     11201.97     1000 
 2842000   0.50841399   -2.3366471   0.76185836   -1.5747888   0.12611771    11307.385     1000 
 2844000   0.51051164   -2.3248704    0.7650017   -1.5598687   0.12466469    11428.382     1000 
 2846000   0.49863718   -2.2890701   0.74720781   -1.5418623   0.13399584    11119.804     1000 
 2848000   0.50959691   -2.2806079   0.76363097   -1.5169769   0.12114703    11213.181     1000 
 2850000   0.50731096   -2.2976898   0.76020548   -1.5374844   0.12895037    11095.009     1000 
 2852000   0.49774975   -2.3125236   0.74587799   -1.5666456   0.12460586    11377.785     1000 
 2854000   0.49252541   -2.3485136   0.73804933   -1.6104643   0.11394148    11258.241     1000 
 2856000   0.51627775   -2.3167355   0.77364221   -1.5430933   0.14916563    11096.465     1000 
 2858000   0.52336814    -2.294094   0.78426717   -1.5098268   0.13396641    11210.478     1000 
 2860000   0.50474094    -2.298371    0.7563543   -1.5420167   0.13921736    11156.244     1000 
 2862000   0.48537804   -2.3204923   0.72733899   -1.5931533   0.14582196    11269.865     1000 
 2864000   0.48967232   -2.3420025   0.73377396   -1.6082285   0.12953746    11395.075     1000 
 2866000   0.47702314   -2.2755697   0.71481918   -1.5607506   0.12439058    11223.764     1000 
 2868000   0.50288983   -2.2875784   0.75358041    -1.533998   0.13165827     11205.95     1000 
 2870000   0.51118726   -2.2995101   0.76601411    -1.533496   0.14011695    11133.476     1000 
 2872000   0.50036346   -2.3170178   0.74979464   -1.5672232   0.12270439    11281.453     1000 
 2874000   0.49792755   -2.2805573   0.74614443   -1.5344128   0.13359599    11293.157     1000 
 2876000   0.49030284   -2.3456367    0.7347188   -1.6109179   0.11585386    11460.223     1000 
 2878000   0.48026836   -2.3112146   0.71968214   -1.5915325   0.12224673    11354.001     1000 
 2880000   0.52598561   -2.3194881   0.78818944   -1.5312987   0.12761059    11310.814     1000 
 2882000   0.47421157   -2.2912068   0.71060604   -1.5806008    0.1331082    11228.371     1000 
 2884000   0.50992028   -2.3122421   0.76411554   -1.5481266   0.13032242    11210.914     1000 
 2886000   0.50191595   -2.3113915   0.75212104   -1.5592704   0.13087952    11165.601     1000 
 2888000   0.50902645   -2.3395903   0.76277614   -1.5768142   0.12293791    11341.506     1000 
 2890000   0.50305195   -2.2788773   0.75382335   -1.5250539   0.12851195    11154.742     1000 
 2892000   0.50722485   -2.3375473   0.76007643   -1.5774708   0.11899772    11298.514     1000 
 2894000    0.4964044   -2.2741462     0.743862   -1.5302842   0.13379744    11156.462     1000 
 2896000    0.5096714   -2.3060231   0.76374259   -1.5422805   0.13553362    11285.049     1000 
 2898000   0.51069709   -2.3653367   0.76527958   -1.6000571   0.12236935    11359.661     1000 
 2900000   0.51415324   -2.3041373   0.77045863   -1.5336786   0.14467793    11088.491     1000 
 2902000   0.49662245   -2.2938982   0.74418874   -1.5497095   0.12535612    11358.406     1000 
 2904000   0.48548251   -2.2967483   0.72749554   -1.5692528   0.12589209    11189.662     1000 
 2906000   0.49285522   -2.2675793   0.73854354   -1.5290358   0.14172047    11080.905     1000 
 2908000   0.50026076   -2.3114921   0.74964074   -1.5618514   0.12732488    11153.111     1000 
 2910000   0.48506777   -2.3418876   0.72687406   -1.6150135   0.12970769    11310.854     1000 
 2912000   0.49936293   -2.3396438   0.74829534   -1.5913484   0.14086417    11164.419     1000 
 2914000   0.50715372    -2.396103   0.75996985   -1.6361331   0.12951995     11404.16     1000 
 2916000   0.50446713   -2.3649487   0.75594399   -1.6090047   0.13567103    11269.077     1000 
 2918000    0.5078535   -2.3405777   0.76101847   -1.5795592   0.12621028    11278.615     1000 
 2920000   0.50040916   -2.3292106   0.74986312   -1.5793475   0.12329376    11368.488     1000 
 2922000   0.48926139   -2.3520932   0.73315819    -1.618935   0.13747315    11126.764     1000 
 2924000   0.50147263    -2.318247   0.75145673   -1.5667903   0.12292453    11408.775     1000 
 2926000   0.50474402   -2.3021591   0.75635891   -1.5458002   0.13440974    11134.577     1000 
 2928000   0.50696911   -2.3584291   0.75969322   -1.5987359   0.12623561    11381.474     1000 
 2930000   0.50132342    -2.349013   0.75123315   -1.5977798   0.13805299    11256.519     1000 
 2932000   0.49304387   -2.3239649   0.73882624   -1.5851386   0.14743403    11163.146     1000 
 2934000   0.48680335   -2.3162009   0.72947483   -1.5867261   0.13146466    11317.282     1000 
 2936000   0.49355352   -2.2971707   0.73958994   -1.5575808   0.13762883    11104.539     1000 
 2938000   0.50406294   -2.2825448   0.75533831   -1.5272065   0.14390364    11014.901     1000 
 2940000   0.49973305   -2.3189683   0.74884998   -1.5701183   0.13464001    11227.043     1000 
 2942000   0.48377319    -2.317587   0.72493412   -1.5926529   0.11646551    11309.657     1000 
 2944000   0.50740163   -2.3571801   0.76034135   -1.5968387   0.12696998    11256.354     1000 
 2946000   0.51514813   -2.2957794   0.77194947   -1.5238299   0.13379747    11129.677     1000 
 2948000   0.50689524   -2.2778498   0.75958251   -1.5182673   0.12647571    11335.126     1000 
 2950000   0.49806179   -2.3298903   0.74634559   -1.5835447   0.12410372    11379.029     1000 
 2952000   0.49250356    -2.318446   0.73801658   -1.5804294   0.13347251    11217.695     1000 
 2954000   0.51015322   -2.3060161    0.7644646   -1.5415515   0.11620662    11417.248     1000 
 2956000   0.53225754    -2.294081   0.79758793   -1.4964931   0.14349987    11113.229     1000 
 2958000   0.49448967   -2.3539026   0.74099277   -1.6129098   0.11862137    11300.934     1000 
 2960000   0.49196459   -2.3472051   0.73720894   -1.6099961   0.12681025    11366.085     1000 
 2962000   0.49518674   -2.3865157   0.74203733   -1.6444783   0.13206993    11342.167     1000 
 2964000   0.51242813   -2.3142723   0.76787356   -1.5463987     0.108667    11414.108     1000 
 2966000     0.502584   -2.3024085   0.75312212   -1.5492864   0.13629203    11074.096     1000 
 2968000   0.51016303   -2.2823805    0.7644793   -1.5179012   0.13226294    11247.155     1000 
 2970000   0.49548123   -2.3318251   0.74247862   -1.5893465   0.13434525    11227.538     1000 
 2972000   0.50266201    -2.327988   0.75323902    -1.574749   0.13409959    11199.587     1000 
 2974000   0.50264725    -2.294454   0.75321691   -1.5412371    0.1411514    11203.095     1000 
 2976000   0.50335026   -2.3136945   0.75427037   -1.5594241   0.12795528    11340.424     1000 
 2978000    0.5069705    -2.312351    0.7596953   -1.5526557    0.1397734    11165.366     1000 
 2980000   0.49507374   -2.4022741     0.741868   -1.6604061    0.1175066    11419.774     1000 
 2982000   0.49022963   -2.3130991    0.7346091     -1.57849   0.13931697    11158.134     1000 
 2984000   0.48204192   -2.3129913   0.72233982   -1.5906515   0.12590523    11337.823     1000 
 2986000   0.50872531    -2.299035   0.76232488   -1.5367102   0.12274893    11359.482     1000 
 2988000   0.49270883   -2.3272536   0.73832418   -1.5889294   0.12783997    11296.846     1000 
 2990000   0.48667563    -2.337613   0.72928343   -1.6083296   0.12334169    11246.643     1000 
 2992000   0.51907349   -2.3781222   0.77783163   -1.6002906   0.12508515    11396.476     1000 
 2994000   0.49806482   -2.3060728   0.74635014   -1.5597227   0.13596443    11130.671     1000 
 2996000     0.480819   -2.2932728   0.72050727   -1.5727655   0.13328765    11242.186     1000 
 2998000   0.48753606   -2.3669437   0.73057279   -1.6363709   0.12791776    11157.697     1000 
 3000000     0.491829    -2.261655   0.73700576   -1.5246492   0.12050915    11257.698     1000 
Loop time of 3294.15 on 4 procs for 3000000 steps with 1000 atoms

Performance: 393424.319 tau/day, 910.704 timesteps/s
97.4% CPU use with 4 MPI tasks x 1 OpenMP threads

MPI task timing breakdown:
Section |  min time  |  avg time  |  max time  |%varavg| %total
---------------------------------------------------------------
Pair    | 2747.1     | 2765.7     | 2788.9     |  34.9 | 83.96
Neigh   | 181.08     | 181.54     | 182.13     |   2.8 |  5.51
Comm    | 262.63     | 285.8      | 303.62     | 107.1 |  8.68
Output  | 0.028647   | 0.033228   | 0.046555   |   4.2 |  0.00
Modify  | 47.186     | 47.634     | 48.175     |   5.2 |  1.45
Other   |            | 13.46      |            |       |  0.41

Nlocal:        250.000 ave         251 max         249 min
Histogram: 1 0 0 0 0 2 0 0 0 1
Nghost:        3621.50 ave        3633 max        3605 min
Histogram: 1 0 0 0 0 0 2 0 0 1
Neighs:        50661.2 ave       51056 max       50328 min
Histogram: 1 0 0 1 1 0 0 0 0 1

Total # of neighbors = 202645
Ave neighs/atom = 202.64500
Neighbor list builds = 150000
Dangerous builds not checked

Total wall time: 0:54:54
