LAMMPS (3 Mar 2020)
# ----------------------- Inicialização -----------------------

units			lj
atom_style 		atomic
dimension 		3
boundary 		p p p

# -------------------- Criação dos Átomos ---------------------

read_data 		topologia.txt
  orthogonal box = (0 0 0) to (21.54 21.54 21.54)
  1 by 2 by 2 MPI processor grid
  reading atoms ...
  1000 atoms
  read_data CPU = 0.00326164 secs

velocity 		all create ${temp} 87287 rot yes dist gaussian
velocity 		all create 0.34 87287 rot yes dist gaussian

# ------------------ Interação Interatômica -------------------

pair_style		table linear 1300
pair_coeff		1 1 force.table AA 6.5
WARNING: 2 of 1300 force values in table are inconsistent with -dE/dr.
  Should only be flagged at inflection points (src/pair_table.cpp:483)
pair_coeff		1 2 force.table AB 6.5
WARNING: 1 of 1300 force values in table are inconsistent with -dE/dr.
  Should only be flagged at inflection points (src/pair_table.cpp:483)
pair_coeff		2 2 force.table BB 6.5
pair_write		1 1 1600 r 0.008 6.5 table.check AA
Neighbor list info ...
  update every 1 steps, delay 10 steps, check yes
  max neighbors/atom: 2000, page size: 100000
  master list distance cutoff = 6.8
  ghost atom cutoff = 6.8
  binsize = 3.4, bins = 7 7 7
  1 neighbor lists, perpetual/occasional/extra = 1 0 0
  (1) pair table, perpetual
      attributes: half, newton on
      pair build: half/bin/atomonly/newton
      stencil: half/bin/3d/newton
      bin: standard
pair_write		1 2 1600 r 0.008 6.5 table.check AB
pair_write		2 2 1600 r 0.008 6.5 table.check BB

neighbor 		0.3 bin
neigh_modify	every 20 delay 0 check no

# ------------------------- Ensemble --------------------------------------

fix 1			all npt temp ${temp} ${temp} 0.5 iso ${press} ${press} 5
fix 1			all npt temp 0.34 ${temp} 0.5 iso ${press} ${press} 5
fix 1			all npt temp 0.34 0.34 0.5 iso ${press} ${press} 5
fix 1			all npt temp 0.34 0.34 0.5 iso 0.13 ${press} 5
fix 1			all npt temp 0.34 0.34 0.5 iso 0.13 0.13 5

# ---------------------- Função de Distribuição Radial -----------------------

#compute RDF 	all rdf 2000 1 1 1 2 2 2
#fix 2 			all ave/time 1 2000 2000 c_RDF[*] file rdf.data mode vector

# ------------------------- Execução ---------------------------

timestep 		0.005
thermo_style	custom step temp pe ke etotal press vol atoms
thermo			2000
run				3000000
Per MPI rank memory allocation (min/avg/max) = 2.675 | 2.675 | 2.675 Mbytes
Step Temp PotEng KinEng TotEng Press Volume Atoms 
       0         0.34  0.033849932      0.50949   0.54333993   0.71205872    9993.9483     1000 
    2000   0.36156259   -2.5539071   0.54180154   -2.0121055   0.12684719    11511.897     1000 
    4000   0.35910815    -2.548896   0.53812356   -2.0107725   0.13365753    11415.131     1000 
    6000   0.33190717   -2.5484491   0.49736289   -2.0510862   0.13093036    11476.308     1000 
    8000    0.3233531   -2.5850904   0.48454463   -2.1005458   0.12684848    11537.369     1000 
   10000    0.3578954   -2.5823088   0.53630626   -2.0460025   0.13216655    11517.572     1000 
   12000   0.33837972   -2.5822687   0.50706201   -2.0752067   0.12272017    11599.096     1000 
   14000   0.34181525   -2.5819504   0.51221015   -2.0697402   0.12274436    11599.708     1000 
   16000   0.32915065   -2.5620231   0.49323225   -2.0687908      0.14058    11396.915     1000 
   18000   0.33308376   -2.5711883   0.49912601   -2.0720623   0.13334207    11430.132     1000 
   20000   0.34127772   -2.5857463   0.51140467   -2.0743416   0.12712534    11531.413     1000 
   22000   0.33412031   -2.5834782   0.50067929   -2.0827989   0.12361744    11460.754     1000 
   24000   0.34253289   -2.6093961   0.51328553   -2.0961106   0.13227138    11497.809     1000 
   26000   0.33700816   -2.5799521   0.50500673   -2.0749454   0.13560491    11467.228     1000 
   28000   0.34343698   -2.5872323   0.51464032    -2.072592   0.12700348    11512.642     1000 
   30000   0.32341123   -2.6314751   0.48463173   -2.1468434   0.11721361    11624.179     1000 
   32000   0.34370011   -2.5980364   0.51503461   -2.0830018   0.13759641    11495.037     1000 
   34000   0.35173216   -2.6167815   0.52707064   -2.0897108   0.13741679    11495.046     1000 
   36000   0.33051769   -2.5852214   0.49528076   -2.0899406   0.12366719    11553.397     1000 
   38000   0.34085023   -2.5552462   0.51076408   -2.0444821   0.13600785    11372.493     1000 
   40000   0.32784299   -2.5891447   0.49127273    -2.097872   0.13506719    11480.645     1000 
   42000     0.329534   -2.5819121   0.49380671   -2.0881054   0.14034205    11416.618     1000 
   44000   0.33014439   -2.5632388   0.49472137   -2.0685175   0.12780342    11411.831     1000 
   46000   0.35129124   -2.5891686   0.52640992   -2.0627587   0.12045269    11607.105     1000 
   48000   0.33245445   -2.5723263     0.498183   -2.0741433   0.13310143    11452.046     1000 
   50000   0.32884899   -2.6144694   0.49278021   -2.1216891   0.12981345    11506.759     1000 
   52000   0.33994153   -2.5880621   0.50940238   -2.0786597   0.12619259    11513.494     1000 
   54000   0.32809369   -2.6001792   0.49164839   -2.1085308    0.1370871    11447.475     1000 
   56000   0.33264285   -2.6017094   0.49846531   -2.1032441   0.11938727     11611.61     1000 
   58000   0.34516873   -2.5804196   0.51723533   -2.0631843   0.12546261    11475.664     1000 
   60000    0.3506891   -2.5846936   0.52550762    -2.059186   0.13193929    11508.906     1000 
   62000   0.34829745   -2.5975987   0.52192373    -2.075675   0.13048855    11596.617     1000 
   64000   0.34527199   -2.6338938   0.51739008   -2.1165037   0.11858878    11588.192     1000 
   66000   0.34739428   -2.6033777   0.52057032   -2.0828073   0.11999484    11533.972     1000 
   68000   0.34616032   -2.5784465   0.51872123   -2.0597253   0.13416877    11481.908     1000 
   70000   0.34552183   -2.5599299   0.51776447   -2.0421654    0.1387781    11383.028     1000 
   72000     0.338775   -2.5904075   0.50765433   -2.0827532   0.13630959    11461.253     1000 
   74000   0.35379696   -2.6336168   0.53016475    -2.103452    0.1364627    11548.051     1000 
   76000   0.34765875   -2.5890216   0.52096664    -2.068055    0.1362851    11399.307     1000 
   78000   0.34504174   -2.6159944   0.51704505   -2.0989494   0.13162393    11546.892     1000 
   80000   0.35560992   -2.6123399   0.53288147   -2.0794585   0.10911289    11665.417     1000 
   82000   0.33907605    -2.615458   0.50810547   -2.1073526   0.12709798    11434.073     1000 
   84000   0.35004023   -2.6191322   0.52453529    -2.094597   0.12764534    11489.151     1000 
   86000   0.33607836   -2.5917758   0.50361342   -2.0881624   0.13617693    11473.053     1000 
   88000   0.32610679   -2.6288401   0.48867102   -2.1401691   0.12255342    11470.742     1000 
   90000   0.33018319   -2.6050231   0.49477951   -2.1102436   0.12328781      11523.4     1000 
   92000   0.33703022   -2.6299645   0.50503979   -2.1249247   0.12271642    11599.378     1000 
   94000   0.35309371   -2.5857921   0.52911093   -2.0566812   0.14386425    11340.809     1000 
   96000    0.3522443   -2.6233932   0.52783809   -2.0955551   0.13559012      11503.1     1000 
   98000   0.35202921   -2.6256748   0.52751577    -2.098159   0.13064092     11458.97     1000 
  100000   0.33829928   -2.6153677   0.50694148   -2.1084262   0.11884182    11532.343     1000 
  102000   0.33033663   -2.5784125   0.49500944    -2.083403   0.14436396    11390.489     1000 
  104000   0.34842607   -2.6360398   0.52211646   -2.1139233   0.13570071    11434.501     1000 
  106000   0.34191743    -2.569785   0.51236327   -2.0574218   0.13539226    11507.537     1000 
  108000   0.34625584   -2.6232349   0.51886437   -2.1043706   0.12296306    11652.034     1000 
  110000   0.34563874   -2.5948034   0.51793966   -2.0768637   0.13944946    11430.195     1000 
  112000   0.34800174   -2.5698329    0.5214806   -2.0483523   0.13420622    11492.066     1000 
  114000   0.31962333   -2.5860499   0.47895557   -2.1070943    0.1377418    11369.674     1000 
  116000   0.33944348   -2.5682704   0.50865606   -2.0596144   0.12992635    11436.766     1000 
  118000   0.34808372   -2.6033835   0.52160346   -2.0817801   0.12124812    11558.404     1000 
  120000   0.35128622   -2.5726883    0.5264024   -2.0462859   0.14247587    11363.192     1000 
  122000   0.34594088   -2.5826278   0.51839241   -2.0642353   0.12043666     11556.08     1000 
  124000   0.34883728   -2.5632901   0.52273266   -2.0405574   0.13898069    11389.598     1000 
  126000   0.34059179   -2.6082814    0.5103768   -2.0979046   0.12798192    11526.701     1000 
  128000   0.33671907   -2.5924539   0.50457352   -2.0878803   0.13856015    11471.549     1000 
  130000   0.34386322   -2.6138165   0.51527904   -2.0985375   0.13562083     11507.58     1000 
  132000   0.33080478   -2.6024525   0.49571097   -2.1067415   0.12734765    11427.337     1000 
  134000   0.34786862   -2.6259107   0.52128113   -2.1046295   0.12842479    11547.521     1000 
  136000   0.34722227   -2.5560166   0.52031256    -2.035704    0.1354791     11430.95     1000 
  138000    0.3462749   -2.5804555   0.51889294   -2.0615626   0.13072882    11489.887     1000 
  140000   0.33690054   -2.6079958   0.50484546   -2.1031504   0.12568151    11542.534     1000 
  142000   0.33999725   -2.6167965   0.50948588   -2.1073106   0.12758722    11468.877     1000 
  144000   0.35836667   -2.6310612   0.53701246   -2.0940488   0.14025647    11462.349     1000 
  146000   0.35856728   -2.6327055   0.53731307   -2.0953925   0.12846858    11570.109     1000 
  148000   0.34453143   -2.6274203   0.51628035     -2.11114   0.11183114    11615.858     1000 
  150000   0.32761686   -2.6057301   0.49093386   -2.1147963   0.12753095    11525.691     1000 
  152000   0.35199896   -2.6334939   0.52747045   -2.1060235   0.13292061    11435.087     1000 
  154000   0.34188306   -2.6034397   0.51231177    -2.091128   0.12425487    11586.622     1000 
  156000   0.33327059   -2.5878155   0.49940598   -2.0884095   0.13208261    11454.703     1000 
  158000   0.35254031   -2.6028836   0.52828166   -2.0746019    0.1211159    11601.108     1000 
  160000   0.35206617   -2.6190022   0.52757115    -2.091431   0.13449195    11452.096     1000 
  162000    0.3370854   -2.5862344   0.50512248   -2.0811119   0.13218952    11488.763     1000 
  164000   0.34461746   -2.6179094   0.51640927   -2.1015002   0.13036654    11437.769     1000 
  166000   0.32582903   -2.6224982    0.4882548   -2.1342434   0.12069902    11576.737     1000 
  168000   0.34020504   -2.6055817   0.50979726   -2.0957844    0.1310343    11517.557     1000 
  170000   0.33757955   -2.5894325   0.50586296   -2.0835695   0.13401237    11419.909     1000 
  172000   0.34507463   -2.6081337   0.51709433   -2.0910393   0.11058864    11644.233     1000 
  174000   0.33796343   -2.6135547    0.5064382   -2.1071165   0.13436993    11414.835     1000 
  176000   0.33542285   -2.6048964   0.50263113   -2.1022653   0.12346918    11447.222     1000 
  178000   0.34254163   -2.6189194   0.51329864   -2.1056208   0.12990078    11558.207     1000 
  180000   0.32019788   -2.5924593   0.47981653   -2.1126428   0.12778798    11444.909     1000 
  182000   0.33641234   -2.6009784   0.50411389   -2.0968645    0.1297843    11559.957     1000 
  184000   0.34654456   -2.5723832   0.51929702   -2.0530862   0.13694992    11419.758     1000 
  186000   0.35820877   -2.5994214   0.53677584   -2.0626456   0.13405393    11507.421     1000 
  188000   0.31554644   -2.5725131   0.47284634   -2.0996667   0.13883761     11397.38     1000 
  190000   0.33556258   -2.5999555   0.50284052    -2.097115   0.14166063    11405.365     1000 
  192000   0.33477824   -2.5743765   0.50166519   -2.0727113   0.12939594     11418.86     1000 
  194000   0.34468031   -2.5634085   0.51650345    -2.046905   0.13151266    11467.571     1000 
  196000   0.34102463   -2.6019199   0.51102542   -2.0908945   0.12579572    11550.525     1000 
  198000   0.34240873   -2.5813621   0.51309947   -2.0682626   0.13204142    11447.291     1000 
  200000   0.34839507   -2.5832053   0.52207001   -2.0611353   0.12688936    11455.732     1000 
  202000   0.34316639   -2.5783041   0.51423483   -2.0640692   0.12219633    11555.356     1000 
  204000   0.35177905   -2.6017421   0.52714091   -2.0746011   0.12030909    11595.536     1000 
  206000   0.33384359   -2.6232674   0.50026462   -2.1230028   0.11753601    11632.135     1000 
  208000   0.34051936   -2.6021634   0.51026826   -2.0918951   0.13464751     11448.35     1000 
  210000   0.32307204   -2.5925222   0.48412346   -2.1083988    0.1254154     11548.91     1000 
  212000   0.33572051   -2.5765703   0.50307718   -2.0734931   0.12090455    11493.062     1000 
  214000   0.34667333   -2.5675916   0.51948998   -2.0481016   0.12534208    11461.147     1000 
  216000   0.32941681   -2.6066013    0.4936311   -2.1129702   0.14156348     11508.75     1000 
  218000    0.3389378   -2.5788546   0.50789829   -2.0709563   0.13391652    11391.301     1000 
  220000   0.33751797   -2.6110109   0.50577068   -2.1052402    0.1209984    11587.674     1000 
  222000   0.35121889   -2.5982814   0.52630151   -2.0719799   0.11889022    11565.564     1000 
  224000   0.34028606   -2.5801611   0.50991865   -2.0702425   0.12711823    11480.233     1000 
  226000   0.34243893   -2.5791581   0.51314474   -2.0660133    0.1245187    11490.269     1000 
  228000   0.33433779     -2.54533   0.50100517   -2.0443249   0.12464525    11454.274     1000 
  230000   0.32944203   -2.5926921   0.49366888   -2.0990232   0.12682497    11524.514     1000 
  232000   0.33920618   -2.5825057   0.50830046   -2.0742052   0.12018119    11493.851     1000 
  234000   0.34616907   -2.5819713   0.51873435    -2.063237   0.13284787    11427.834     1000 
  236000   0.33955574   -2.6498439   0.50882427   -2.1410196   0.13296782    11508.429     1000 
  238000   0.33451778   -2.5774887   0.50127489   -2.0762138   0.14114953    11313.763     1000 
  240000   0.34536473    -2.579432   0.51752905   -2.0619029    0.1432549     11429.18     1000 
  242000   0.33826444   -2.5997714   0.50688926   -2.0928821   0.11790433    11596.157     1000 
  244000   0.33146486   -2.6097306   0.49670009   -2.1130305   0.12833425    11512.872     1000 
  246000   0.33811935   -2.5807822   0.50667185   -2.0741103    0.1353262    11439.159     1000 
  248000   0.32742322   -2.6048751   0.49064369   -2.1142314   0.12164045    11499.134     1000 
  250000   0.33262203   -2.5574229   0.49843411   -2.0589888   0.13545253    11443.265     1000 
  252000   0.34671551   -2.5925161   0.51955319   -2.0729629   0.13115678    11549.823     1000 
  254000   0.33161803   -2.6118871   0.49692962   -2.1149575   0.12987151    11558.667     1000 
  256000   0.32955388   -2.5953902   0.49383649   -2.1015537   0.13776338    11451.483     1000 
  258000   0.33834788   -2.5900379    0.5070143   -2.0830236   0.13041503    11476.688     1000 
  260000   0.34984614   -2.5654465   0.52424444   -2.0412021   0.12231555    11548.163     1000 
  262000   0.34075288   -2.5620417   0.51061819   -2.0514235   0.12677761    11496.799     1000 
  264000     0.324304    -2.548875   0.48596954   -2.0629055   0.12626771     11443.73     1000 
  266000   0.34884124   -2.5787081    0.5227386   -2.0559695   0.14449402    11383.995     1000 
  268000   0.35381874   -2.5712025   0.53019739   -2.0410051   0.12701924    11492.244     1000 
  270000   0.34820203   -2.5912427   0.52178073   -2.0694619   0.12553836     11537.26     1000 
  272000   0.33148485   -2.6057527   0.49673005   -2.1090226   0.13382915    11498.926     1000 
  274000   0.34140078   -2.6000969   0.51158907   -2.0885078   0.12683761    11555.064     1000 
  276000   0.33713797   -2.5837815   0.50520125   -2.0785802   0.13160797     11454.24     1000 
  278000   0.33714748    -2.611893   0.50521549   -2.1066775   0.12634585    11516.315     1000 
  280000   0.36100316   -2.5968346   0.54096324   -2.0558714   0.12930338    11504.307     1000 
  282000   0.34134956   -2.5926236   0.51151231   -2.0811113   0.13150199     11500.52     1000 
  284000   0.34633146   -2.5588781    0.5189777   -2.0399004   0.13526937    11384.661     1000 
  286000   0.34762053   -2.6044451   0.52090937   -2.0835357   0.12604112    11557.173     1000 
  288000   0.33376247    -2.560054   0.50014307   -2.0599109   0.12677666    11450.689     1000 
  290000    0.3431111   -2.5492528   0.51415198   -2.0351008   0.15148173    11287.003     1000 
  292000   0.34015969    -2.593191    0.5097293   -2.0834617   0.14461001    11368.235     1000 
  294000   0.34424112   -2.5761277   0.51584532   -2.0602824   0.13829567     11430.18     1000 
  296000   0.33433144   -2.5724896   0.50099567   -2.0714939   0.12947503    11525.729     1000 
  298000   0.33324291   -2.5962983   0.49936451   -2.0969338   0.12629971    11529.803     1000 
  300000   0.33811211   -2.5834941     0.506661   -2.0768331   0.13695724    11378.246     1000 
  302000    0.3392409   -2.5559127   0.50835249   -2.0475602   0.12447139    11487.109     1000 
  304000   0.34386775    -2.584516   0.51528582   -2.0692302   0.13197741    11432.146     1000 
  306000   0.33656307   -2.5988876   0.50433977   -2.0945478   0.13762031    11477.236     1000 
  308000    0.3383878   -2.5786238   0.50707412   -2.0715497   0.11720354    11601.257     1000 
  310000   0.34896029    -2.590915     0.522917    -2.067998    0.1311127    11503.244     1000 
  312000   0.34769641   -2.6186713   0.52102308   -2.0976482   0.13113041    11457.159     1000 
  314000   0.33441448   -2.5937745    0.5011201   -2.0926544   0.13848513    11431.869     1000 
  316000   0.32838546   -2.5832777    0.4920856   -2.0911921   0.14284458    11433.574     1000 
  318000   0.33889928   -2.5531789   0.50784057   -2.0453384   0.12829922    11433.148     1000 
  320000   0.35302845   -2.5942001   0.52901313   -2.0651869   0.11715156    11564.563     1000 
  322000   0.33842943   -2.5942608    0.5071365   -2.0871243   0.13677401     11474.22     1000 
  324000    0.3455445    -2.614018   0.51779843   -2.0962196   0.12279848    11544.158     1000 
  326000     0.333565   -2.5655004   0.49984715   -2.0656533   0.13537238    11466.386     1000 
  328000   0.33789307   -2.6219334   0.50633276   -2.1156006   0.13733436    11482.743     1000 
  330000    0.3275593    -2.640864   0.49084761   -2.1500163   0.12233565    11633.817     1000 
  332000   0.35255235   -2.5454783   0.52829969   -2.0171786   0.12920244    11461.719     1000 
  334000   0.32263901    -2.587614   0.48347456   -2.1041395   0.12792834    11507.874     1000 
  336000   0.34070805   -2.5927735   0.51055102   -2.0822225   0.12492087    11537.535     1000 
  338000   0.33927524    -2.628711   0.50840394   -2.1203071   0.12564186    11581.171     1000 
  340000   0.33673572   -2.5769972   0.50459848   -2.0723987   0.13786988    11474.929     1000 
  342000    0.3400007    -2.628796   0.50949104    -2.119305   0.14468869    11414.109     1000 
  344000   0.33730595   -2.5781369   0.50545296    -2.072684   0.13473551    11449.713     1000 
  346000   0.33041464    -2.587046   0.49512634   -2.0919196   0.12595195    11521.181     1000 
  348000    0.3326904   -2.5988725   0.49853656   -2.1003359   0.12689883    11470.645     1000 
  350000   0.33354224   -2.5966617   0.49981304   -2.0968487   0.12606247    11539.257     1000 
  352000   0.35234786   -2.6123348   0.52799327   -2.0843415   0.13067798    11502.903     1000 
  354000   0.33474903   -2.5915374   0.50162143    -2.089916   0.13524973    11492.739     1000 
  356000   0.34192695   -2.6179423   0.51237753   -2.1055647     0.121383    11601.498     1000 
  358000   0.34614223   -2.6172176   0.51869414   -2.0985235   0.12820993    11559.305     1000 
  360000   0.33115989   -2.6034354    0.4962431   -2.1071923   0.13984427    11487.851     1000 
  362000   0.34447949   -2.6412251   0.51620252   -2.1250226   0.13221855    11544.352     1000 
  364000   0.33376216   -2.6157854   0.50014259   -2.1156428   0.14737813    11425.961     1000 
  366000   0.35714313   -2.5781273   0.53517899   -2.0429484   0.13462118     11413.94     1000 
  368000   0.33829793   -2.6071655   0.50693944   -2.1002261   0.12850766    11528.288     1000 
  370000   0.34269732   -2.5894606   0.51353194   -2.0759287   0.12728887    11460.744     1000 
  372000    0.3485797    -2.620097   0.52234669   -2.0977503    0.1409642    11418.929     1000 
  374000    0.3428845   -2.5687787   0.51381242   -2.0549663   0.13524841    11408.205     1000 
  376000   0.34119422   -2.5918158   0.51127954   -2.0805362   0.13032969    11495.195     1000 
  378000   0.34798746   -2.6099961   0.52145922   -2.0885369   0.13002831    11501.343     1000 
  380000   0.33399312   -2.6183273    0.5004887   -2.1178386   0.12009743      11514.9     1000 
  382000   0.35337612   -2.5704415   0.52953412   -2.0409073   0.11337315     11547.96     1000 
  384000   0.33727781     -2.60649    0.5054108   -2.1010792   0.12338374    11512.144     1000 
  386000   0.34588735    -2.605109   0.51831219   -2.0867968   0.13057142    11466.191     1000 
  388000   0.33670752   -2.5842344   0.50455622   -2.0796782    0.1454184    11327.978     1000 
  390000   0.34126652   -2.5848264   0.51138788   -2.0734385   0.11663471     11537.32     1000 
  392000   0.35443915   -2.6264156   0.53112706   -2.0952886   0.12309249    11520.799     1000 
  394000   0.34153143   -2.5836994   0.51178484   -2.0719146   0.12816987    11518.175     1000 
  396000   0.34712772    -2.580917   0.52017089   -2.0607461   0.13527444    11456.301     1000 
  398000   0.33164678   -2.5999133    0.4969727   -2.1029406   0.13462628    11461.923     1000 
  400000    0.3359219   -2.6136718   0.50337896   -2.1102928   0.11461228    11504.093     1000 
  402000   0.32979723   -2.5801643   0.49420115   -2.0859632   0.13574231    11478.242     1000 
  404000   0.33097217   -2.6166835   0.49596179   -2.1207217   0.13155414    11461.616     1000 
  406000   0.34977508   -2.5947114   0.52413795   -2.0705734   0.12926128      11457.9     1000 
  408000    0.3411075   -2.5540736   0.51114958    -2.042924   0.14764582    11351.879     1000 
  410000   0.34316893   -2.5947378   0.51423864   -2.0804992   0.13373156    11427.039     1000 
  412000   0.32953814   -2.5918332   0.49381291   -2.0980203    0.1260607     11530.54     1000 
  414000   0.34171234    -2.616357   0.51205594    -2.104301    0.1273642    11512.715     1000 
  416000   0.31956232   -2.5966586   0.47886414   -2.1177944   0.13890256    11446.409     1000 
  418000   0.35503744   -2.6190432    0.5320236   -2.0870196   0.13384955    11543.516     1000 
  420000   0.34398238    -2.604729    0.5154576   -2.0892714   0.13408309    11511.328     1000 
  422000   0.34780446   -2.6131079   0.52118498   -2.0919229   0.12835668    11526.992     1000 
  424000   0.32508095   -2.5896299    0.4871338   -2.1024961   0.12538752    11481.335     1000 
  426000   0.34807512   -2.5862774   0.52159056   -2.0646869   0.13956892    11378.321     1000 
  428000   0.33236551   -2.5972624   0.49804971   -2.0992127   0.13286869    11466.179     1000 
  430000   0.33040844    -2.606976   0.49511704   -2.1118589   0.13040423    11490.617     1000 
  432000   0.33738073   -2.5623117   0.50556502   -2.0567467   0.13549378    11451.724     1000 
  434000   0.32971476   -2.5852772   0.49407757   -2.0911997   0.13429854    11444.769     1000 
  436000    0.3340794   -2.5908683   0.50061798   -2.0902503   0.11263604    11649.509     1000 
  438000   0.35291544   -2.6108364   0.52884378   -2.0819927   0.13051874    11542.713     1000 
  440000   0.33172477    -2.584173   0.49708956   -2.0870835   0.12193438    11498.474     1000 
  442000   0.33690183   -2.5673253   0.50484739   -2.0624779   0.13271028    11447.327     1000 
  444000   0.33510098   -2.6061522   0.50214882   -2.1040034   0.13318378     11492.51     1000 
  446000   0.33340856   -2.5839881   0.49961273   -2.0843753   0.13154983    11466.019     1000 
  448000   0.33186254   -2.6133173   0.49729602   -2.1160213   0.13230769    11536.942     1000 
  450000   0.34119362   -2.5889068   0.51127864   -2.0776281   0.12640638    11484.805     1000 
  452000   0.33315797   -2.5936994   0.49923722   -2.0944622    0.1324912    11481.459     1000 
  454000   0.34513881    -2.599011   0.51719051   -2.0818205   0.13339573    11494.936     1000 
  456000   0.34849029   -2.6326704    0.5222127   -2.1104577   0.12249172     11548.53     1000 
  458000   0.33992089   -2.5868103   0.50937146   -2.0774388     0.142029    11391.529     1000 
  460000    0.3353501   -2.5896522   0.50252213   -2.0871301   0.14138209    11345.042     1000 
  462000   0.33468833   -2.6127155   0.50153046    -2.111185   0.12942028    11449.401     1000 
  464000   0.32714438   -2.5886579   0.49022586   -2.0984321   0.13937539    11412.546     1000 
  466000   0.34150197   -2.5922849    0.5117407   -2.0805442    0.1228587    11534.976     1000 
  468000   0.32874426   -2.6030514   0.49262327   -2.1104281   0.12670531    11420.017     1000 
  470000   0.34093244   -2.6195631   0.51088726   -2.1086759   0.12171814    11615.145     1000 
  472000   0.34619781   -2.6042023   0.51877741   -2.0854249   0.13511177    11503.689     1000 
  474000   0.34594974   -2.5697835   0.51840568   -2.0513778   0.14654222    11346.343     1000 
  476000   0.33737886   -2.6037246   0.50556223   -2.0981624   0.13561424     11410.63     1000 
  478000   0.34091333   -2.5698692   0.51085862   -2.0590106   0.12446818    11487.641     1000 
  480000   0.35634376   -2.5780593   0.53398113   -2.0440781   0.13776562    11429.419     1000 
  482000   0.33808089   -2.6142239   0.50661421   -2.1076097    0.1140986    11591.589     1000 
  484000   0.32990941   -2.5743803   0.49436925    -2.080011   0.13312539    11442.194     1000 
  486000    0.3392994   -2.6325715   0.50844015   -2.1241313   0.14232144    11459.919     1000 
  488000   0.33710143   -2.6071102    0.5051465   -2.1019637   0.12604329    11555.679     1000 
  490000   0.35468518   -2.5572516   0.53149575   -2.0257558    0.1284585    11439.341     1000 
  492000   0.34326679   -2.5360248   0.51438528   -2.0216395   0.14275591     11333.58     1000 
  494000   0.34659457   -2.6100898   0.51937197   -2.0907178   0.13490691    11488.069     1000 
  496000   0.32587104    -2.580755   0.48831776   -2.0924373   0.12848888    11464.327     1000 
  498000   0.33982522   -2.6348088    0.5092281   -2.1255807   0.13674172    11497.449     1000 
  500000   0.34224155   -2.5957333   0.51284896   -2.0828843   0.12364543     11552.67     1000 
  502000   0.33128369   -2.6012242   0.49642861   -2.1047956   0.14367399    11385.823     1000 
  504000   0.34246969   -2.6323538   0.51319083    -2.119163   0.12100554    11605.596     1000 
  506000   0.34996713   -2.5873769   0.52442575   -2.0629511     0.130366      11511.8     1000 
  508000   0.34747951   -2.6539274   0.52069805   -2.1332293   0.12020207    11643.104     1000 
  510000   0.33499926   -2.5757505    0.5019964   -2.0737541   0.14545757    11338.186     1000 
  512000   0.35013994   -2.5711107   0.52468469    -2.046426   0.12510085    11588.013     1000 
  514000   0.33065515    -2.602068   0.49548674   -2.1065812   0.13893686    11399.475     1000 
  516000   0.33282577   -2.5886991   0.49873942   -2.0899596     0.140163    11473.897     1000 
  518000   0.35603853   -2.6063241   0.53352374   -2.0728004   0.14121185    11495.637     1000 
  520000   0.34143768   -2.6399923   0.51164436    -2.128348   0.13376081    11440.256     1000 
  522000   0.34596667    -2.581652   0.51843106   -2.0632209   0.13712342      11418.2     1000 
  524000   0.32945061   -2.5942519   0.49368174   -2.1005702    0.1197468    11566.256     1000 
  526000   0.32457481    -2.576845   0.48637535   -2.0904696   0.11704113    11505.222     1000 
  528000   0.35545078   -2.5910395   0.53264299   -2.0583965   0.13210682    11493.217     1000 
  530000   0.33146755   -2.5749727   0.49670412   -2.0782685   0.13080033    11366.294     1000 
  532000   0.33271755   -2.6093283   0.49857726   -2.1107511   0.13090602    11517.019     1000 
  534000   0.34610247   -2.5836449   0.51863455   -2.0650104    0.1283823    11469.206     1000 
  536000   0.34709486   -2.6009872   0.52012164   -2.0808655   0.12959804    11488.244     1000 
  538000   0.33829034   -2.5980388   0.50692808   -2.0911107    0.1402348    11449.382     1000 
  540000   0.33713274   -2.5881269   0.50519341   -2.0829335     0.136465    11462.638     1000 
  542000   0.34494622   -2.6093039   0.51690191    -2.092402   0.13437012    11519.018     1000 
  544000   0.36057327   -2.6010597   0.54031905   -2.0607407    0.1193656    11530.476     1000 
  546000   0.34039798   -2.6236782   0.51008638   -2.1135918   0.12466102    11593.782     1000 
  548000   0.32552968   -2.6350076   0.48780622   -2.1472014   0.12801187    11493.447     1000 
  550000   0.33646672    -2.646507   0.50419538   -2.1423116     0.128181    11524.894     1000 
  552000    0.3308591   -2.6167741   0.49579236   -2.1209818   0.13959704    11446.708     1000 
  554000   0.34257096   -2.5888095   0.51334259   -2.0754669   0.13072972    11383.297     1000 
  556000   0.34532775   -2.6439751   0.51747363   -2.1265014   0.11985205    11624.948     1000 
  558000   0.33171537   -2.6483178   0.49707548   -2.1512423   0.13841005    11513.131     1000 
  560000   0.33195531   -2.6106337   0.49743503   -2.1131987   0.12448832     11526.67     1000 
  562000   0.32560004    -2.567587   0.48791166   -2.0796754   0.13433209    11466.723     1000 
  564000   0.34110928   -2.6337923   0.51115225   -2.1226401   0.12031008    11536.086     1000 
  566000   0.33141736   -2.5925927   0.49662892   -2.0959637   0.12020847    11538.207     1000 
  568000    0.3394509    -2.619532   0.50866718   -2.1108648   0.13422945    11463.943     1000 
  570000   0.33035767   -2.5986802   0.49504096   -2.1036392   0.12682472    11537.849     1000 
  572000   0.33318796   -2.5960974   0.49928216   -2.0968152   0.13026905    11472.823     1000 
  574000   0.34859596   -2.5963769   0.52237105   -2.0740059   0.11892945    11596.991     1000 
  576000   0.34239625   -2.5801738   0.51308078    -2.067093   0.13784322    11426.539     1000 
  578000   0.32869509   -2.5639966   0.49254959    -2.071447   0.11682538    11592.035     1000 
  580000   0.34942543   -2.5283693     0.523614   -2.0047553   0.13531112    11439.323     1000 
  582000   0.33492171   -2.5992007   0.50188018   -2.0973205    0.1270514     11492.68     1000 
  584000   0.33472996   -2.5913437   0.50159284   -2.0897509   0.12511102    11542.437     1000 
  586000   0.33880217   -2.5775064   0.50769506   -2.0698114   0.13734419    11393.812     1000 
  588000   0.34885074   -2.5714234   0.52275283   -2.0486706   0.11888571    11554.915     1000 
  590000      0.33774   -2.6335182   0.50610339   -2.1274148   0.12829663    11551.094     1000 
  592000   0.34833339   -2.6218582   0.52197759   -2.0998806   0.13362321    11455.348     1000 
  594000   0.33592605   -2.5908697   0.50338519   -2.0874845   0.13693027    11441.284     1000 
  596000   0.34246946   -2.5725013   0.51319049   -2.0593108   0.14204241    11431.509     1000 
  598000   0.35017612   -2.6275589   0.52473892     -2.10282   0.13043919     11523.03     1000 
  600000   0.34628074   -2.6181538   0.51890169   -2.0992521   0.12651101     11539.87     1000 
  602000   0.34664066   -2.6574033   0.51944103   -2.1379623    0.1272922    11569.478     1000 
  604000   0.33397176   -2.6666221   0.50045669   -2.1661654   0.11531558    11662.489     1000 
  606000   0.34932241   -2.6059861   0.52345964   -2.0825265    0.1254073    11586.985     1000 
  608000   0.34246855   -2.5874846   0.51318912   -2.0742954    0.1353407    11388.847     1000 
  610000   0.34188822   -2.6142725    0.5123195    -2.101953   0.12396366    11555.095     1000 
  612000    0.3378596   -2.6185777   0.50628261   -2.1122951   0.14229511    11399.607     1000 
  614000   0.32907934   -2.6048245   0.49312539   -2.1116991   0.12533858    11518.753     1000 
  616000   0.34289116   -2.6053105   0.51382241   -2.0914881   0.12639784     11488.36     1000 
  618000   0.33693771   -2.5999434   0.50490115   -2.0950422    0.1349557    11481.971     1000 
  620000   0.34881888   -2.6514398   0.52270509   -2.1287347   0.11850979    11589.264     1000 
  622000   0.32270082   -2.5997424   0.48356718   -2.1161752   0.12444566    11485.504     1000 
  624000   0.34574648   -2.5978995    0.5181011   -2.0797984    0.1295292    11482.224     1000 
  626000   0.34047298   -2.5599722   0.51019877   -2.0497735   0.13877707     11421.75     1000 
  628000   0.34582511   -2.5618734   0.51821893   -2.0436544   0.12266324    11555.347     1000 
  630000   0.34262492   -2.5850989   0.51342344   -2.0716755   0.13698252    11427.116     1000 
  632000   0.34734179   -2.6100936   0.52049167   -2.0896019   0.13383559    11468.598     1000 
  634000   0.33196542   -2.5845047   0.49745018   -2.0870545   0.12704233    11503.287     1000 
  636000   0.33953291   -2.5926299   0.50879006   -2.0838399   0.12846892    11550.753     1000 
  638000   0.33744652    -2.604725   0.50566361   -2.0990614   0.13291264    11532.201     1000 
  640000   0.33183999   -2.5886873   0.49726223   -2.0914251    0.1266411    11457.055     1000 
  642000   0.35368666   -2.5789971   0.52999946   -2.0489976   0.13542533    11439.788     1000 
  644000   0.34486325   -2.5593821   0.51677759   -2.0426045   0.14181406    11469.638     1000 
  646000   0.33698764   -2.5884536   0.50497598   -2.0834776    0.1395842    11472.134     1000 
  648000   0.34222176   -2.6052282   0.51281931   -2.0924089   0.12187706    11620.479     1000 
  650000   0.34405967    -2.593368   0.51557341   -2.0777946   0.13294568    11460.118     1000 
  652000   0.34263467   -2.6222848   0.51343805   -2.1088468   0.11906683    11514.548     1000 
  654000    0.3521417    -2.625895   0.52768434   -2.0982106   0.12721654    11519.783     1000 
  656000   0.34457385   -2.6180288   0.51634392   -2.1016849   0.11748663    11551.846     1000 
  658000   0.32407607   -2.6311968   0.48562799   -2.1455688    0.1244769    11413.953     1000 
  660000   0.34218351   -2.6264609   0.51276199   -2.1136989   0.12929036    11498.041     1000 
  662000   0.33389665   -2.5864639   0.50034412   -2.0861198   0.13268784    11457.979     1000 
  664000   0.34579179   -2.5899771     0.518169   -2.0718081   0.13051083    11463.247     1000 
  666000   0.33260345   -2.6129822   0.49840627   -2.1145759   0.11801777    11586.813     1000 
  668000   0.33638149   -2.6149907   0.50406766    -2.110923   0.13499564     11472.93     1000 
  670000    0.3409918   -2.6094996   0.51097622   -2.0985234   0.12712636    11546.391     1000 
  672000   0.34470294      -2.5781   0.51653735   -2.0615627   0.12540136     11442.26     1000 
  674000   0.33223534   -2.5787442   0.49785466   -2.0808895   0.13836651    11391.738     1000 
  676000   0.35968084   -2.5910325   0.53898174   -2.0520507   0.13453182    11491.895     1000 
  678000   0.32091813   -2.5894251   0.48089581   -2.1085293    0.1151558    11592.662     1000 
  680000   0.33871027   -2.6412041   0.50755734   -2.1336468   0.12769816    11581.961     1000 
  682000   0.34197754    -2.630932   0.51245334   -2.1184787   0.13396906    11442.748     1000 
  684000   0.34080872   -2.6426893   0.51070187   -2.1319874   0.13120725    11508.803     1000 
  686000   0.33483773   -2.5872111   0.50175434   -2.0854568   0.13399995    11428.026     1000 
  688000   0.34389812   -2.6034459   0.51533134   -2.0881146   0.12221389    11564.715     1000 
  690000   0.33624053   -2.6305123   0.50385643   -2.1266559   0.13785142    11469.571     1000 
  692000   0.33356617   -2.6391731   0.49984891   -2.1393242   0.13047723    11499.544     1000 
  694000   0.34482748   -2.5914062   0.51672398   -2.0746823   0.13039778    11419.798     1000 
  696000   0.34458956   -2.5855998   0.51636746   -2.0692323   0.13402802    11489.588     1000 
  698000   0.34365058   -2.6091806   0.51496039   -2.0942202   0.11933755    11439.838     1000 
  700000   0.33913536   -2.6073502   0.50819433   -2.0991559   0.13923233    11472.487     1000 
  702000   0.34980498   -2.6222681   0.52418277   -2.0980853   0.12266227    11638.869     1000 
  704000   0.34971153   -2.5946503   0.52404274   -2.0706075   0.13113079    11494.206     1000 
  706000   0.33871027   -2.6050509   0.50755735   -2.0974935   0.14336116    11418.612     1000 
  708000   0.34848512   -2.5946908   0.52220495   -2.0724859   0.12632055    11459.453     1000 
  710000   0.34127105   -2.5374827   0.51139467    -2.026088   0.13394492    11461.398     1000 
  712000   0.34903275    -2.569008   0.52302558   -2.0459824   0.14017548     11417.01     1000 
  714000   0.33989395   -2.6050504   0.50933109   -2.0957193   0.12819384    11507.811     1000 
  716000   0.33445889   -2.5915408   0.50118664   -2.0903542   0.12849948    11544.607     1000 
  718000    0.3382275   -2.5827883   0.50683391   -2.0759544   0.13273744    11495.962     1000 
  720000   0.33994487   -2.5840647   0.50940739   -2.0746573   0.13896877    11473.655     1000 
  722000   0.33403168   -2.5672122   0.50054648   -2.0666658   0.12667835    11513.816     1000 
  724000   0.33624406   -2.5988756   0.50386173   -2.0950139   0.12554247    11571.603     1000 
  726000   0.34175619   -2.6076756   0.51212165   -2.0955539   0.12425898     11492.15     1000 
  728000   0.32618633    -2.581075   0.48879021   -2.0922847   0.12478826    11486.032     1000 
  730000   0.34284108   -2.5922685   0.51374736   -2.0785211   0.12239352    11568.284     1000 
  732000    0.3436775   -2.5739263   0.51500074   -2.0589255    0.1274189    11527.615     1000 
  734000   0.33242247   -2.5937409   0.49813507   -2.0956059    0.1315489    11478.044     1000 
  736000    0.3415458   -2.6199627   0.51180638   -2.1081563   0.13426274    11510.923     1000 
  738000   0.34000119   -2.5867248   0.50949178    -2.077233   0.13711153    11430.311     1000 
  740000    0.3296215    -2.597732   0.49393782   -2.1037942   0.12699886     11538.89     1000 
  742000   0.33672201   -2.6271978   0.50457794   -2.1226198   0.12507913    11607.206     1000 
  744000   0.34536659   -2.5838363   0.51753183   -2.0663044   0.13200073    11455.188     1000 
  746000   0.33974358    -2.580363   0.50910576   -2.0712572   0.12583806    11542.487     1000 
  748000    0.3446974   -2.6035394   0.51652905   -2.0870103   0.13115761    11496.036     1000 
  750000   0.35481533   -2.6042024   0.53169077   -2.0725116   0.13738625    11412.031     1000 
  752000   0.33427799   -2.5966102   0.50091557   -2.0956946   0.12965523     11566.68     1000 
  754000   0.34873073   -2.5882882   0.52257299   -2.0657152   0.13482784    11481.411     1000 
  756000   0.33329227   -2.6358327   0.49943846   -2.1363942   0.12952062    11424.162     1000 
  758000    0.3423884   -2.5649252   0.51306902   -2.0518562   0.11668786    11547.214     1000 
  760000   0.32293996   -2.5733431   0.48392553   -2.0894176   0.12194817    11599.824     1000 
  762000   0.34205148   -2.5596102   0.51256414   -2.0470461   0.11138714    11618.185     1000 
  764000   0.33121364   -2.5958141   0.49632363   -2.0994905   0.12322219    11623.819     1000 
  766000   0.34512654   -2.6338646   0.51717213   -2.1166925    0.1357348    11499.797     1000 
  768000   0.33210483   -2.5965062   0.49765909   -2.0988472   0.13343836    11471.276     1000 
  770000   0.35799315   -2.5922257   0.53645273    -2.055773   0.11827924    11585.821     1000 
  772000   0.32763788   -2.6115658   0.49096537   -2.1206004     0.129299    11465.178     1000 
  774000   0.34112412   -2.5951863   0.51117449   -2.0840119     0.134792    11468.504     1000 
  776000   0.33723057   -2.5691187   0.50534001   -2.0637787   0.13480891    11418.227     1000 
  778000   0.33882001   -2.6173083   0.50772179   -2.1095865   0.13376055    11488.054     1000 
  780000   0.35366688   -2.5768732   0.52996982   -2.0469034   0.12260751    11543.431     1000 
  782000   0.33639389   -2.5749897   0.50408625   -2.0709034   0.12017508    11508.737     1000 
  784000   0.33533732   -2.5842638   0.50250298   -2.0817608   0.12724098    11508.159     1000 
  786000   0.34203717   -2.6100249    0.5125427   -2.0974822   0.14035123    11449.464     1000 
  788000   0.35121342   -2.6398944   0.52629331   -2.1136011   0.12951616    11453.031     1000 
  790000   0.34965672   -2.6141966    0.5239606    -2.090236   0.11858071     11610.98     1000 
  792000   0.34179328   -2.5899733   0.51217724   -2.0777961   0.13638023     11359.41     1000 
  794000   0.33527959   -2.5812958   0.50241646   -2.0788793   0.13324126    11465.443     1000 
  796000   0.33230866   -2.5847931   0.49796453   -2.0868285   0.13455766    11325.033     1000 
  798000   0.33997943   -2.5838906   0.50945918   -2.0744314   0.14065742    11405.243     1000 
  800000   0.32531978   -2.6112305    0.4874917   -2.1237388   0.13508422    11446.457     1000 
  802000   0.31890695   -2.6045834   0.47788207   -2.1267013   0.11682492    11597.569     1000 
  804000   0.35354696   -2.5800828   0.52979011   -2.0502927   0.13710986    11408.537     1000 
  806000   0.33974995   -2.5998156    0.5091153   -2.0907003   0.12992761    11504.096     1000 
  808000   0.34129418   -2.6016009   0.51142933   -2.0901715   0.13532319    11454.693     1000 
  810000   0.33967376    -2.560644   0.50900113   -2.0516429   0.12705306    11446.701     1000 
  812000   0.34871883   -2.6276983   0.52255516   -2.1051432   0.12901688    11503.901     1000 
  814000   0.33263798   -2.5839681   0.49845802   -2.0855101   0.13916487    11347.915     1000 
  816000   0.34238443   -2.6127625   0.51306307   -2.0996994   0.12164945    11538.253     1000 
  818000   0.34182933   -2.6110647   0.51223126   -2.0988335   0.11522821    11610.342     1000 
  820000   0.35012901   -2.6087334   0.52466832   -2.0840651   0.13558356    11415.968     1000 
  822000    0.3345873   -2.5748585   0.50137907   -2.0734795   0.12535122    11563.847     1000 
  824000   0.33825498   -2.6220941   0.50687509   -2.1152191   0.12764902    11480.512     1000 
  826000   0.33549881   -2.5790001   0.50274497   -2.0762551   0.12591526    11490.679     1000 
  828000   0.33684225   -2.6345546   0.50475811   -2.1297965   0.12955111    11485.947     1000 
  830000   0.34281231   -2.5885442   0.51370425   -2.0748399   0.11813642    11574.912     1000 
  832000   0.33230975   -2.6077641   0.49796616    -2.109798   0.12628572    11558.021     1000 
  834000    0.3352725   -2.6019758   0.50240584   -2.0995699   0.13873114    11534.928     1000 
  836000   0.35970281   -2.5655945   0.53901465   -2.0265799   0.12716422     11565.73     1000 
  838000   0.34831787   -2.6018141   0.52195433   -2.0798598   0.12151982    11517.832     1000 
  840000   0.32283165   -2.6096705   0.48376323   -2.1259072   0.12269777    11597.786     1000 
  842000   0.33033291   -2.6159276   0.49500386   -2.1209238   0.14880672    11424.828     1000 
  844000   0.34539384   -2.6298281   0.51757267   -2.1122554   0.13260842    11553.732     1000 
  846000   0.35021004   -2.5824732   0.52478974   -2.0576834   0.13893262    11509.259     1000 
  848000   0.35234975   -2.5795817    0.5279961   -2.0515856   0.12718213    11467.279     1000 
  850000   0.32078631   -2.6100313   0.48069829    -2.129333   0.13360611    11498.245     1000 
  852000   0.32447117   -2.5965733   0.48622005   -2.1103532   0.12492562    11533.548     1000 
  854000   0.33488545   -2.5988982   0.50182585   -2.0970724   0.13196719    11451.494     1000 
  856000   0.33873631   -2.5732623   0.50759637    -2.065666   0.14674718    11331.217     1000 
  858000   0.33754628    -2.621722    0.5058131   -2.1159089   0.12410129    11508.939     1000 
  860000   0.33008932   -2.5903806   0.49463884   -2.0957418    0.1289644    11472.524     1000 
  862000   0.36045635   -2.5950507   0.54014383   -2.0549069   0.13257459    11486.762     1000 
  864000   0.33719431   -2.5858131   0.50528567   -2.0805274   0.12980431    11403.584     1000 
  866000   0.33279407   -2.6187585   0.49869192   -2.1200666   0.13487802    11452.131     1000 
  868000   0.32828823   -2.5919018   0.49193991   -2.0999619   0.14061555    11410.714     1000 
  870000   0.34006788   -2.6678964   0.50959172   -2.1583047   0.12644397    11524.927     1000 
  872000   0.33263891   -2.6056196   0.49845941   -2.1071602   0.14011177    11482.522     1000 
  874000   0.32725515   -2.6140176   0.49039184   -2.1236257   0.12359742    11569.869     1000 
  876000   0.33667409   -2.6300025   0.50450612   -2.1254964   0.13142324     11473.79     1000 
  878000   0.33239866   -2.5992124    0.4980994    -2.101113   0.11961412    11506.317     1000 
  880000   0.35460943   -2.5633143   0.53138223   -2.0319321   0.13506576    11420.032     1000 
  882000   0.32892298   -2.5758435   0.49289108   -2.0829524   0.13915241    11441.465     1000 
  884000   0.33483895   -2.6304415   0.50175617   -2.1286853   0.12864368    11532.384     1000 
  886000   0.35096023   -2.5902086   0.52591391   -2.0642947   0.13673787    11452.326     1000 
  888000   0.33236607   -2.6020381   0.49805055   -2.1039875   0.12786604    11514.809     1000 
  890000   0.34974943   -2.6065371   0.52409952   -2.0824376   0.12111508    11521.255     1000 
  892000   0.32806304    -2.594339   0.49160246   -2.1027366   0.12725307    11561.109     1000 
  894000   0.33251441   -2.6067657   0.49827285   -2.1084928   0.12407259    11574.232     1000 
  896000   0.34862067   -2.5723052   0.52240807   -2.0498971   0.12958477    11540.621     1000 
  898000   0.35706286   -2.5786791   0.53505869   -2.0436204   0.13153137    11458.227     1000 
  900000   0.34407681    -2.578061    0.5155991   -2.0624619   0.13013384    11591.824     1000 
  902000   0.34047572   -2.6098907   0.51020287   -2.0996878   0.12284069    11517.259     1000 
  904000   0.35722877   -2.5846556   0.53530732   -2.0493483   0.13480653    11435.531     1000 
  906000   0.34632241   -2.5917817   0.51896413   -2.0728176   0.13688039     11437.69     1000 
  908000   0.34941227   -2.6186753   0.52359428   -2.0950811   0.11829368    11643.433     1000 
  910000   0.33301403   -2.6280635   0.49902152    -2.129042    0.1339027    11503.439     1000 
  912000   0.35180031   -2.5645778   0.52717277   -2.0374051   0.13379796    11431.449     1000 
  914000   0.34317319   -2.6122002   0.51424503   -2.0979552   0.12077284    11524.177     1000 
  916000   0.34410546    -2.632089   0.51564203    -2.116447   0.12950248    11453.559     1000 
  918000   0.35178274   -2.6283835   0.52714644   -2.1012371   0.12118431    11551.275     1000 
  920000   0.34373124   -2.6133843   0.51508126    -2.098303   0.12348334    11527.752     1000 
  922000   0.33764821    -2.608854   0.50596584   -2.1028881   0.13367853    11442.685     1000 
  924000   0.33055431   -2.5629288   0.49533564   -2.0675932    0.1272033    11492.572     1000 
  926000   0.34031519   -2.6144349   0.50996231   -2.1044726   0.12614733    11534.148     1000 
  928000   0.33301039   -2.5894235   0.49901607   -2.0904074   0.13408253    11499.004     1000 
  930000   0.32827607    -2.600027   0.49192169   -2.1081053   0.12926443    11511.926     1000 
  932000   0.33162823    -2.639284   0.49694491   -2.1423391   0.11806563    11614.829     1000 
  934000    0.3383743    -2.594156   0.50705389   -2.0871021   0.12496742    11494.691     1000 
  936000    0.3469088    -2.574667   0.51984283   -2.0548242   0.13224485    11490.895     1000 
  938000   0.34817285   -2.5686777   0.52173701   -2.0469407   0.12375909    11526.252     1000 
  940000   0.34356728   -2.5940255   0.51483558   -2.0791899   0.14590021     11423.56     1000 
  942000   0.34464089   -2.5957433   0.51644438    -2.079299   0.13201449    11468.859     1000 
  944000   0.35207685    -2.587495   0.52758716   -2.0599078    0.1284321    11532.886     1000 
  946000   0.32861051   -2.6331155   0.49242285   -2.1406927   0.10967504    11613.729     1000 
  948000   0.34241137   -2.5877327   0.51310343   -2.0746292   0.11878174    11569.128     1000 
  950000   0.33601581    -2.622037    0.5035197   -2.1185173   0.13410849    11483.088     1000 
  952000   0.34100056   -2.5833759   0.51098934   -2.0723865   0.11167914    11682.477     1000 
  954000   0.34030744   -2.6053391    0.5099507   -2.0953884   0.13258263    11440.218     1000 
  956000   0.34125339   -2.5670399   0.51136821   -2.0556717   0.14028455     11459.44     1000 
  958000   0.34961701   -2.5950694   0.52390109   -2.0711683   0.13440518    11437.786     1000 
  960000   0.34667864   -2.5755965   0.51949794   -2.0560986    0.1267856    11543.692     1000 
  962000   0.34719037   -2.5242507   0.52026477   -2.0039859   0.12818319    11483.025     1000 
  964000   0.33702191    -2.573351   0.50502733   -2.0683237   0.13594383    11538.526     1000 
  966000   0.34777892    -2.583673   0.52114672   -2.0625263   0.13109479    11452.249     1000 
  968000   0.35174054   -2.6049392   0.52708319   -2.0778561    0.1197035    11530.643     1000 
  970000   0.33596651   -2.5799303   0.50344582   -2.0764845   0.13283174    11468.824     1000 
  972000    0.3315699    -2.607271   0.49685749   -2.1104135   0.12623771    11482.104     1000 
  974000   0.33012162   -2.5841047   0.49468725   -2.0894175    0.1235834    11452.957     1000 
  976000   0.35337157   -2.5982332    0.5295273   -2.0687059   0.14380343    11409.015     1000 
  978000   0.34392168   -2.6262575   0.51536664   -2.1108908   0.12737504    11491.029     1000 
  980000   0.33920144   -2.5785249   0.50829336   -2.0702316   0.12752641    11443.786     1000 
  982000   0.33024718   -2.5984861    0.4948754   -2.1036107   0.12676884    11460.247     1000 
  984000   0.33475687   -2.5818256   0.50163316   -2.0801925     0.124331    11461.107     1000 
  986000   0.33729444   -2.5855109   0.50543572   -2.0800752    0.1290467    11499.129     1000 
  988000   0.34427934   -2.5691085   0.51590259   -2.0532059   0.13232081    11486.319     1000 
  990000   0.36783265   -2.6192522   0.55119723    -2.068055   0.12222466    11601.434     1000 
  992000   0.34303775   -2.5911134   0.51404207   -2.0770713   0.13337693    11428.414     1000 
  994000   0.34027095   -2.5962768   0.50989602   -2.0863808   0.12393616    11534.441     1000 
  996000   0.34703314   -2.5955745   0.52002915   -2.0755454   0.12518397    11527.538     1000 
  998000   0.34671913   -2.5858647   0.51955862   -2.0663061   0.13893829    11444.157     1000 
 1000000     0.339401   -2.6064187    0.5085924   -2.0978263   0.12747282    11458.096     1000 
 1002000   0.34818281   -2.5697156   0.52175194   -2.0479637   0.12958534    11568.934     1000 
 1004000   0.34019403   -2.5708752   0.50978076   -2.0610944   0.14020132    11384.392     1000 
 1006000   0.35030459    -2.611499   0.52493143   -2.0865676   0.13232103    11513.493     1000 
 1008000   0.33214054   -2.6049618    0.4977126   -2.1072492   0.13275967     11476.03     1000 
 1010000   0.32687355   -2.5736228   0.48982001   -2.0838028   0.14198085     11339.74     1000 
 1012000   0.33097781   -2.6186398   0.49597025   -2.1226696   0.12938167    11464.362     1000 
 1014000    0.3445071   -2.6027778   0.51624388    -2.086534   0.13320123    11494.876     1000 
 1016000   0.34936081   -2.6050204   0.52351718   -2.0815032   0.12806949    11483.018     1000 
 1018000    0.3585988   -2.5977439    0.5373603   -2.0603836    0.1290647    11457.182     1000 
 1020000   0.36055901   -2.6023292   0.54029768   -2.0620315   0.13776092    11425.595     1000 
 1022000   0.33533875   -2.5980642   0.50250512    -2.095559   0.12283728    11511.313     1000 
 1024000   0.35460223   -2.5773542   0.53137144   -2.0459828   0.11790094    11536.109     1000 
 1026000   0.34124703   -2.5628478   0.51135868   -2.0514891   0.13225176    11476.831     1000 
 1028000   0.35144473   -2.5928326   0.52663993   -2.0661927   0.12228718     11543.57     1000 
 1030000   0.33701825   -2.5799524   0.50502185   -2.0749305   0.13578536     11426.01     1000 
 1032000   0.34039459   -2.6004209   0.51008129   -2.0903397   0.13256039     11487.22     1000 
 1034000   0.34299378   -2.6115096   0.51397618   -2.0975334   0.12737567    11507.115     1000 
 1036000   0.32880119   -2.5686623   0.49270859   -2.0759537   0.13670625    11451.145     1000 
 1038000    0.3524975   -2.6064824    0.5282175   -2.0782649   0.12831321    11518.291     1000 
 1040000   0.33308129   -2.6032109   0.49912231   -2.1040886   0.13639134    11407.457     1000 
 1042000   0.33536168   -2.5984869   0.50253947   -2.0959475   0.12696356    11519.336     1000 
 1044000   0.34818472   -2.5824637   0.52175481   -2.0607089   0.13313967    11460.229     1000 
 1046000   0.34332699   -2.6313172    0.5144755   -2.1168417   0.11845562    11553.886     1000 
 1048000   0.33485307   -2.5499653   0.50177732    -2.048188   0.13649731    11386.611     1000 
 1050000   0.35209053   -2.6246357   0.52760766    -2.097028   0.13127132    11493.239     1000 
 1052000   0.34038493   -2.6231867   0.51006681   -2.1131199   0.13539732    11497.849     1000 
 1054000   0.34609464   -2.6204916   0.51862282   -2.1018687   0.12190893    11545.095     1000 
 1056000   0.34730022     -2.57513   0.52042938   -2.0547007   0.13394113    11397.861     1000 
 1058000   0.34325758    -2.613943   0.51437149   -2.0995716   0.12355893    11614.429     1000 
 1060000   0.33477939   -2.5586646   0.50166692   -2.0569976   0.13916553    11415.644     1000 
 1062000   0.34795594   -2.6112743   0.52141198   -2.0898623   0.13535828    11491.764     1000 
 1064000   0.35054113   -2.6206734   0.52528588   -2.0953875   0.12122955    11544.664     1000 
 1066000   0.34741449   -2.6080779   0.52060062   -2.0874773   0.13921301    11420.557     1000 
 1068000   0.32893128   -2.5833316   0.49290352   -2.0904281   0.12259561    11560.661     1000 
 1070000   0.33831107   -2.6102533   0.50695913   -2.1032942   0.12125523    11541.504     1000 
 1072000   0.32779103    -2.617052   0.49119486   -2.1258571   0.13347485    11468.371     1000 
 1074000   0.32906473   -2.5820641   0.49310349   -2.0889606   0.13432572     11396.89     1000 
 1076000   0.33508184   -2.6030149   0.50212013   -2.1008948   0.12914148    11529.045     1000 
 1078000   0.33936721   -2.5676059   0.50854176   -2.0590641   0.13931287     11445.23     1000 
 1080000   0.34954731   -2.5481367   0.52379665   -2.0243401   0.13560391    11408.677     1000 
 1082000   0.35218958    -2.610506   0.52775609   -2.0827499   0.13889376    11446.715     1000 
 1084000    0.3242287   -2.5672057    0.4858567    -2.081349   0.13825702    11418.487     1000 
 1086000   0.33581502   -2.5515191   0.50321881   -2.0483003   0.13858625    11399.456     1000 
 1088000   0.35185575   -2.6165132   0.52725585   -2.0892574   0.13362651    11471.213     1000 
 1090000   0.33547541   -2.6058276    0.5027099   -2.1031177   0.12512877    11557.757     1000 
 1092000   0.34004361   -2.5947289   0.50955535   -2.0851735   0.14368448     11414.74     1000 
 1094000   0.35444369   -2.6196821   0.53113387   -2.0885483   0.12159299    11573.265     1000 
 1096000   0.33416342   -2.5844813   0.50074389   -2.0837375   0.12822938    11518.899     1000 
 1098000   0.33324339   -2.6002842   0.49936522   -2.1009189   0.12392247     11523.49     1000 
 1100000   0.35058596   -2.6328064   0.52535306   -2.1074533   0.12627758    11573.557     1000 
 1102000   0.34952094   -2.5753781   0.52375713   -2.0516209   0.12495939    11463.752     1000 
 1104000   0.33595367   -2.5919257   0.50342657   -2.0884991   0.12900225    11474.527     1000 
 1106000   0.33183399    -2.581698   0.49725323   -2.0844447   0.13256396    11457.917     1000 
 1108000   0.33098302   -2.5731865   0.49597806   -2.0772084   0.13128261    11434.092     1000 
 1110000   0.34170792   -2.5755139   0.51204932   -2.0634645   0.12926074    11526.441     1000 
 1112000   0.34137081   -2.5912552   0.51154415   -2.0797111   0.12525575    11576.017     1000 
 1114000   0.34316359   -2.5936836   0.51423065   -2.0794529   0.14595699     11448.67     1000 
 1116000   0.33688535   -2.5976124   0.50482269   -2.0927897   0.11997514    11508.974     1000 
 1118000   0.33522996    -2.599939    0.5023421   -2.0975969   0.13847008    11497.593     1000 
 1120000   0.33052675     -2.62396   0.49529433   -2.1286656   0.12638145    11615.873     1000 
 1122000     0.340467   -2.6372512    0.5101898   -2.1270614    0.1270827    11595.833     1000 
 1124000   0.35940958   -2.6024712   0.53857526    -2.063896   0.12465358    11575.929     1000 
 1126000   0.33400121   -2.5845152   0.50050082   -2.0840143   0.12769132    11503.674     1000 
 1128000   0.34652889   -2.6090799   0.51927354   -2.0898064   0.12906281     11446.64     1000 
 1130000   0.34607502   -2.5929683   0.51859342   -2.0743748   0.12303716    11567.409     1000 
 1132000   0.32869634   -2.5396924   0.49255147   -2.0471409   0.14492703    11341.659     1000 
 1134000   0.32599073   -2.5745273   0.48849711   -2.0860302    0.1286044    11531.004     1000 
 1136000   0.35217613   -2.6101212   0.52773594   -2.0823853   0.13579028    11460.627     1000 
 1138000   0.35415109   -2.5975316    0.5306954   -2.0668362   0.14230141    11404.621     1000 
 1140000   0.32933885   -2.6073134   0.49351426   -2.1137991   0.12851001    11549.881     1000 
 1142000   0.33801922   -2.5673578    0.5065218    -2.060836   0.12444062    11598.482     1000 
 1144000    0.3441486   -2.5762375   0.51570668   -2.0605308   0.13632358    11467.725     1000 
 1146000   0.34344668   -2.6140867   0.51465485   -2.0994319   0.12966166    11549.953     1000 
 1148000   0.33316019   -2.5709852   0.49924054   -2.0717447   0.13516888    11483.256     1000 
 1150000   0.32043106   -2.5946268   0.48016594   -2.1144609   0.13144409    11473.317     1000 
 1152000   0.33366987    -2.613101   0.50000431   -2.1130967   0.12405539    11602.144     1000 
 1154000   0.35705266   -2.6124381   0.53504341   -2.0773947   0.11936144    11585.135     1000 
 1156000   0.32185437    -2.636679   0.48229877   -2.1543802   0.11753603      11613.6     1000 
 1158000   0.33763934   -2.6061158   0.50595256   -2.1001633   0.12757461    11531.664     1000 
 1160000    0.3292081    -2.554173   0.49331835   -2.0608546   0.14072458    11376.299     1000 
 1162000   0.34172108    -2.615033   0.51206903   -2.1029639   0.13235496    11495.161     1000 
 1164000     0.337379     -2.59457   0.50556243   -2.0890076     0.139777    11392.821     1000 
 1166000   0.34205471    -2.607545   0.51256898    -2.094976   0.13274476    11522.176     1000 
 1168000   0.32675048   -2.6155339   0.48963559   -2.1258983   0.13546796    11416.195     1000 
 1170000   0.34164997   -2.5986251   0.51196248   -2.0866627   0.13731636    11467.773     1000 
 1172000   0.33901652   -2.6130098   0.50801625   -2.1049935   0.13224586    11427.821     1000 
 1174000   0.35387907   -2.5897504   0.53028779   -2.0594626   0.13818005    11469.315     1000 
 1176000    0.3512056   -2.5791204   0.52628159   -2.0528388   0.13428083    11416.778     1000 
 1178000   0.32607234   -2.5697088    0.4886194   -2.0810894   0.12566073    11535.618     1000 
 1180000   0.33478541   -2.5811845   0.50167594   -2.0795086   0.13564544    11418.355     1000 
 1182000   0.34539268   -2.5853467   0.51757093   -2.0677758   0.12857387     11460.11     1000 
 1184000   0.34345541   -2.6045772   0.51466794   -2.0899093   0.11525216    11597.852     1000 
 1186000   0.35641837   -2.6077816   0.53409293   -2.0736887   0.13876418    11462.606     1000 
 1188000   0.34647911   -2.6190286   0.51919895   -2.0998297   0.13109384    11539.013     1000 
 1190000   0.33710147   -2.5886564   0.50514655   -2.0835098   0.12759649    11468.864     1000 
 1192000   0.33344945   -2.5937528   0.49967401   -2.0940788   0.13724142    11467.708     1000 
 1194000   0.35403854   -2.5886039   0.53052675   -2.0580771   0.13469478     11439.47     1000 
 1196000     0.333005   -2.6277128   0.49900799   -2.1287048    0.1268008    11535.545     1000 
 1198000   0.34159259   -2.5879318    0.5118765   -2.0760553   0.14163499      11372.7     1000 
 1200000   0.33397094   -2.6041092   0.50045545   -2.1036538   0.13355494    11467.133     1000 
 1202000   0.35833821   -2.6092731    0.5369698   -2.0723033   0.13297163     11503.08     1000 
 1204000   0.33411972   -2.6099716    0.5006784   -2.1092932   0.12687214    11529.377     1000 
 1206000   0.34701105   -2.5641505   0.51999605   -2.0441545   0.13030969    11519.713     1000 
 1208000    0.3426069   -2.6123887   0.51339643   -2.0989923   0.12733078    11506.358     1000 
 1210000   0.35000662    -2.634521   0.52448492    -2.110036   0.11954113    11581.789     1000 
 1212000   0.33479115    -2.570499   0.50168454   -2.0688144   0.12449491    11434.836     1000 
 1214000   0.34545196    -2.618787   0.51765976   -2.1011272   0.12984437    11476.257     1000 
 1216000     0.342781   -2.6232299   0.51365733   -2.1095726   0.12294217    11585.432     1000 
 1218000   0.34032197   -2.5674994   0.50997247   -2.0575269   0.12392803    11512.736     1000 
 1220000   0.33240915   -2.6039394   0.49811511   -2.1058243   0.11567884    11584.991     1000 
 1222000   0.34725559    -2.605241    0.5203625   -2.0848785   0.14350241    11436.083     1000 
 1224000   0.33210457   -2.5947868    0.4976587   -2.0971281   0.12718695    11488.997     1000 
 1226000   0.32861258   -2.5898257   0.49242596   -2.0973998   0.13793069    11476.564     1000 
 1228000   0.32406823   -2.5620815   0.48561624   -2.0764653   0.13341939    11469.382     1000 
 1230000   0.32258539   -2.5860505   0.48339421   -2.1026563    0.1242678    11485.587     1000 
 1232000   0.33777531   -2.6211295   0.50615631   -2.1149732   0.12940771    11501.544     1000 
 1234000   0.34981093   -2.5709341   0.52419168   -2.0467424   0.13505199    11537.149     1000 
 1236000   0.34481632   -2.6542317   0.51670726   -2.1375245   0.12593548    11597.764     1000 
 1238000   0.36018904   -2.5984442   0.53974328   -2.0587009   0.12574979    11614.419     1000 
 1240000   0.34240191   -2.6132872   0.51308926   -2.1001979   0.12899097    11502.152     1000 
 1242000   0.34425177   -2.5753856   0.51586127   -2.0595243   0.13066356    11460.579     1000 
 1244000   0.33622727   -2.5953887   0.50383657   -2.0915522   0.12571237    11495.333     1000 
 1246000   0.34995687   -2.5697131   0.52441036   -2.0453027   0.13086181    11471.094     1000 
 1248000   0.35316134   -2.5705955   0.52921227   -2.0413832   0.13222866    11481.285     1000 
 1250000   0.33320949   -2.6034393   0.49931442   -2.1041249   0.12615387    11467.518     1000 
 1252000   0.34138934    -2.614433   0.51157193   -2.1028611   0.12163772    11553.397     1000 
 1254000   0.34664111   -2.5849705   0.51944171   -2.0655288   0.12899423    11511.337     1000 
 1256000   0.32408818   -2.5989596   0.48564614   -2.1133135   0.12899775    11484.874     1000 
 1258000   0.34525731   -2.6359348   0.51736808   -2.1185667   0.12783142     11507.47     1000 
 1260000   0.33717057   -2.5926381   0.50525009    -2.087388   0.13300632    11490.662     1000 
 1262000   0.33071173   -2.5865886   0.49557152    -2.091017   0.14036332    11322.997     1000 
 1264000   0.35730344   -2.6141771   0.53541921   -2.0787579   0.12983665    11485.185     1000 
 1266000   0.34255384   -2.5714181   0.51331693   -2.0581012   0.13476163    11429.254     1000 
 1268000   0.33629007   -2.6169747   0.50393066    -2.113044   0.12685498    11490.169     1000 
 1270000   0.35768248   -2.6638045   0.53598719   -2.1278173   0.11868387    11661.339     1000 
 1272000   0.34451426   -2.6209146   0.51625462     -2.10466   0.11551556    11590.467     1000 
 1274000   0.32837845   -2.6267506   0.49207511   -2.1346755   0.12957113    11584.006     1000 
 1276000   0.33524714    -2.611618   0.50236783   -2.1092501   0.12714363     11487.38     1000 
 1278000   0.35265192   -2.6127771    0.5284489   -2.0843282   0.12226569    11502.246     1000 
 1280000   0.33494408   -2.6229252   0.50191371   -2.1210115   0.12516054    11535.316     1000 
 1282000   0.34222715   -2.5951122   0.51282739   -2.0822848   0.13780924    11387.626     1000 
 1284000   0.32750771     -2.59212    0.4907703   -2.1013497   0.14028199    11362.122     1000 
 1286000   0.34240931   -2.6033984   0.51310035   -2.0902981   0.13545101     11506.29     1000 
 1288000   0.34219739   -2.5865573   0.51278279   -2.0737745   0.12304027    11543.965     1000 
 1290000   0.35211353   -2.5757007   0.52764212   -2.0480586   0.13075942    11427.058     1000 
 1292000   0.33838528   -2.5553002   0.50707035   -2.0482298   0.13447586    11492.253     1000 
 1294000   0.34326569   -2.5889946   0.51438364   -2.0746109   0.12954353     11425.33     1000 
 1296000   0.33908089   -2.6158722   0.50811272   -2.1077595   0.13531196    11506.957     1000 
 1298000   0.33756033   -2.5941017   0.50583416   -2.0882675   0.12600408    11515.693     1000 
 1300000   0.33350029   -2.6154284   0.49975019   -2.1156782   0.13092796    11448.717     1000 
 1302000   0.32577273   -2.5967314   0.48817044    -2.108561   0.13492605    11371.879     1000 
 1304000   0.33384242   -2.6511415   0.50026286   -2.1508786   0.12272304     11545.39     1000 
 1306000   0.34122833   -2.5809957   0.51133065    -2.069665    0.1310039    11501.965     1000 
 1308000   0.32769243   -2.6121872    0.4910471   -2.1211401   0.14118072    11447.376     1000 
 1310000   0.34037241   -2.5896278   0.51004805   -2.0795798   0.10710195    11650.822     1000 
 1312000   0.33170021   -2.5544814   0.49705276   -2.0574287    0.1477483    11367.555     1000 
 1314000    0.3300667    -2.617395   0.49460496   -2.1227901   0.12039515    11536.004     1000 
 1316000   0.35219406   -2.6158016    0.5277628   -2.0880388   0.12381039    11523.125     1000 
 1318000   0.34147205   -2.6188493   0.51169587   -2.1071534   0.12745266    11513.853     1000 
 1320000   0.34756764   -2.5907995   0.52083011   -2.0699693   0.14010443    11453.834     1000 
 1322000   0.33595334    -2.591796   0.50342608   -2.0883699   0.14196961     11470.48     1000 
 1324000   0.34391749   -2.5877484   0.51536035    -2.072388   0.13210315    11431.747     1000 
 1326000   0.32473159    -2.603233   0.48661029   -2.1166227   0.13141282    11508.444     1000 
 1328000   0.33759501   -2.6373137   0.50588612   -2.1314276    0.1164101    11627.773     1000 
 1330000   0.34174617   -2.5937862   0.51210663   -2.0816795    0.1324566    11507.453     1000 
 1332000   0.36187561   -2.5991269    0.5422706   -2.0568563   0.13990723    11491.962     1000 
 1334000   0.34102844   -2.6046867   0.51103112   -2.0936556   0.14866018     11372.57     1000 
 1336000   0.33637496   -2.5904236   0.50405788   -2.0863658   0.13890864    11452.202     1000 
 1338000   0.34131201   -2.5755798   0.51145605   -2.0641237    0.1333776    11459.045     1000 
 1340000   0.35131721   -2.6321373   0.52644883   -2.1056885   0.14561686    11374.455     1000 
 1342000   0.33704949   -2.5510732   0.50506866   -2.0460045   0.13456666    11342.826     1000 
 1344000   0.34658792   -2.6056101   0.51936199   -2.0862481   0.12119746    11521.911     1000 
 1346000    0.3403624   -2.5731318   0.51003305   -2.0630987   0.12878633    11525.397     1000 
 1348000    0.3664707   -2.5814342   0.54915634   -2.0322778   0.14344838     11433.45     1000 
 1350000   0.34913447   -2.5906952     0.523178   -2.0675172   0.12741857    11542.104     1000 
 1352000   0.34141208    -2.606847     0.511606    -2.095241   0.13877171    11367.892     1000 
 1354000   0.34197531   -2.5889224      0.51245   -2.0764724   0.13273935    11495.586     1000 
 1356000   0.33612299   -2.6109312    0.5036803    -2.107251   0.12508499    11537.656     1000 
 1358000    0.3590797   -2.5851105   0.53808093   -2.0470295   0.13813008    11414.078     1000 
 1360000   0.33444563   -2.6022804   0.50116678   -2.1011136   0.12628531    11538.553     1000 
 1362000   0.33758578   -2.6068951   0.50587229   -2.1010228   0.12634482    11537.163     1000 
 1364000   0.33359138   -2.6041853   0.49988669   -2.1042986   0.12915264     11477.26     1000 
 1366000    0.3323965    -2.603228   0.49809615   -2.1051318   0.13113495    11520.495     1000 
 1368000   0.31698663   -2.6170145   0.47500447     -2.14201   0.11805715    11632.029     1000 
 1370000   0.33917869   -2.5791421   0.50825926   -2.0708828   0.12758403    11502.304     1000 
 1372000   0.32753048   -2.5901526   0.49080443   -2.0993482   0.12033418    11606.373     1000 
 1374000   0.33646457   -2.5935173   0.50419216   -2.0893252   0.12556436    11518.252     1000 
 1376000   0.34814445   -2.5704615   0.52169446    -2.048767   0.13726946    11439.123     1000 
 1378000   0.33910034   -2.6084838   0.50814186    -2.100342   0.12174305    11538.402     1000 
 1380000   0.34502717   -2.5950238   0.51702322   -2.0780006   0.13418788    11518.195     1000 
 1382000   0.34762768   -2.6484671   0.52092007    -2.127547   0.13210513     11477.16     1000 
 1384000   0.34553712   -2.5890121   0.51778737   -2.0712247   0.12536065    11560.517     1000 
 1386000   0.33396943   -2.5556341    0.5004532   -2.0551809   0.14389592    11338.148     1000 
 1388000   0.34605473   -2.6034078   0.51856301   -2.0848448    0.1308876    11502.425     1000 
 1390000   0.33327809   -2.6036358   0.49941722   -2.1042186    0.1354262    11432.874     1000 
 1392000   0.34268013   -2.5907338   0.51350618   -2.0772276   0.13446883    11531.874     1000 
 1394000    0.3307015   -2.5848996    0.4955562   -2.0893434   0.13264701    11475.405     1000 
 1396000   0.35321034   -2.5691532    0.5292857   -2.0398675   0.12812547    11478.273     1000 
 1398000   0.33533811   -2.6068691   0.50250416   -2.1043649   0.13248318    11554.863     1000 
 1400000   0.35880196   -2.6187703   0.53766474   -2.0811056   0.12252122    11566.913     1000 
 1402000   0.33992535   -2.6021281   0.50937814     -2.09275   0.11750277    11525.766     1000 
 1404000   0.33684131   -2.6102425    0.5047567   -2.1054858   0.13758957    11461.133     1000 
 1406000   0.34239247   -2.5895937   0.51307512   -2.0765185   0.13329838    11473.498     1000 
 1408000    0.3372698   -2.6062325    0.5053988   -2.1008337    0.1217186    11583.888     1000 
 1410000   0.33858087   -2.5878508   0.50736344   -2.0804874   0.14015364    11389.058     1000 
 1412000   0.32139144   -2.5973913   0.48160507   -2.1157862   0.12667918    11488.882     1000 
 1414000   0.33730751   -2.6007284    0.5054553   -2.0952731   0.12281888    11532.417     1000 
 1416000   0.32761712   -2.5831824   0.49093426   -2.0922482   0.13552322    11537.433     1000 
 1418000    0.3411046   -2.5525283   0.51114524    -2.041383   0.12890902    11466.242     1000 
 1420000   0.33870706   -2.6013718   0.50755253   -2.0938192   0.11851371    11588.748     1000 
 1422000   0.34008779   -2.6147891   0.50962156   -2.1051675   0.14022104    11445.461     1000 
 1424000   0.34380178   -2.6107536   0.51518696   -2.0955666   0.12650097    11513.881     1000 
 1426000   0.33253821    -2.629027    0.4983085   -2.1307185   0.14008021    11442.749     1000 
 1428000   0.34114686   -2.6098191   0.51120857   -2.0986105   0.13103147    11520.403     1000 
 1430000   0.34971393   -2.5996819   0.52404632   -2.0756356    0.1208056    11596.269     1000 
 1432000    0.3446205   -2.6029886   0.51641382   -2.0865748   0.12621561    11518.798     1000 
 1434000   0.31297603   -2.5529576   0.46899459    -2.083963   0.13448995    11400.159     1000 
 1436000    0.3314623   -2.5818416   0.49669625   -2.0851453    0.1313714     11484.54     1000 
 1438000     0.340503   -2.5862071   0.51024374   -2.0759634   0.13730216    11398.317     1000 
 1440000   0.34754234   -2.5832681    0.5207922   -2.0624759   0.13232394    11474.927     1000 
 1442000   0.35700714   -2.5859781    0.5349752   -2.0510029   0.14060263    11461.681     1000 
 1444000   0.32669223   -2.5803525    0.4895483   -2.0908042   0.12122708    11508.871     1000 
 1446000   0.33690071   -2.5623424   0.50484572   -2.0574967   0.13305079    11432.888     1000 
 1448000   0.34523971   -2.6404479    0.5173417   -2.1231062   0.11912202    11596.589     1000 
 1450000   0.33603621    -2.583933   0.50355026   -2.0803828   0.14134774    11416.696     1000 
 1452000   0.33212002   -2.6129978   0.49768185   -2.1153159   0.12523518    11538.969     1000 
 1454000   0.32225967   -2.5931074   0.48290611   -2.1102013   0.13589341    11400.454     1000 
 1456000   0.34684322   -2.5813814   0.51974457   -2.0616369   0.13993636     11432.78     1000 
 1458000    0.3361541   -2.5738837   0.50372692   -2.0701568   0.12114557    11520.264     1000 
 1460000   0.33303229   -2.5908196   0.49904889   -2.0917707     0.129511    11480.343     1000 
 1462000   0.34319842   -2.5692444   0.51428284   -2.0549616   0.12333143    11499.421     1000 
 1464000   0.32747234   -2.5925785    0.4907173   -2.1018612   0.14034803    11464.431     1000 
 1466000   0.34373843   -2.6067168   0.51509204   -2.0916247    0.1326259    11488.689     1000 
 1468000   0.32103616    -2.599982   0.48107268   -2.1189093   0.13050077    11529.776     1000 
 1470000   0.34221072   -2.5522413   0.51280276   -2.0394385   0.12838717    11501.717     1000 
 1472000   0.33667455   -2.6385197   0.50450682   -2.1340129   0.13261246    11495.975     1000 
 1474000    0.3404464    -2.650211   0.51015894   -2.1400521   0.12430412    11538.483     1000 
 1476000   0.35569901   -2.6278973   0.53301497   -2.0948823   0.13273505    11445.972     1000 
 1478000   0.33268813   -2.6236051   0.49853317   -2.1250719   0.13008858    11558.998     1000 
 1480000   0.33572364   -2.6274254   0.50308187   -2.1243435   0.13271638     11495.52     1000 
 1482000   0.35123791    -2.595993      0.52633    -2.069663   0.13993735    11513.085     1000 
 1484000   0.35413721   -2.6330716   0.53067461    -2.102397   0.13084064    11571.167     1000 
 1486000   0.33889167   -2.5782045   0.50782916   -2.0703754   0.13663086    11458.188     1000 
 1488000   0.32921115   -2.6284581   0.49332291   -2.1351352    0.1328005      11523.2     1000 
 1490000   0.33912372   -2.5985804    0.5081769   -2.0904035   0.14468658    11364.208     1000 
 1492000   0.33457069   -2.5831631   0.50135418   -2.0818089    0.1202358    11566.822     1000 
 1494000   0.33642932   -2.6119655   0.50413933   -2.1078261   0.15120889    11428.768     1000 
 1496000   0.34097868   -2.6438443   0.51095656   -2.1328877   0.13460826    11468.732     1000 
 1498000   0.35819788   -2.6294125   0.53675952    -2.092653   0.11314867    11607.359     1000 
 1500000   0.35531005   -2.6175571   0.53243211    -2.085125   0.12190671    11459.268     1000 
 1502000   0.33495733   -2.6030156   0.50193355   -2.1010821   0.12579066    11550.143     1000 
 1504000   0.32824333   -2.5874943   0.49187263   -2.0956217   0.12699269    11490.583     1000 
 1506000   0.33732982   -2.5798333   0.50548874   -2.0743445   0.12998648    11496.667     1000 
 1508000   0.35081926   -2.6089228   0.52570266   -2.0832201   0.13701269    11450.715     1000 
 1510000   0.34645785   -2.5898258   0.51916708   -2.0706587   0.13623736    11415.221     1000 
 1512000   0.33741334   -2.5934517   0.50561389   -2.0878378   0.12879068    11508.885     1000 
 1514000   0.33773944   -2.5818323   0.50610256   -2.0757298   0.13977215    11387.602     1000 
 1516000    0.3319039   -2.5815385   0.49735799   -2.0841805   0.12409403    11553.362     1000 
 1518000    0.3348535   -2.5892104   0.50177798   -2.0874325   0.12416319    11585.934     1000 
 1520000   0.35285955   -2.5951015   0.52876003   -2.0663415   0.13152281    11505.646     1000 
 1522000   0.34225007   -2.5935244   0.51286174   -2.0806627   0.14833633     11388.47     1000 
 1524000   0.32870788   -2.5887647   0.49256876   -2.0961959   0.13472053    11435.807     1000 
 1526000   0.33160204   -2.5973456   0.49690565     -2.10044   0.12253497    11564.646     1000 
 1528000   0.34567495    -2.540465   0.51799392    -2.022471   0.14044969    11370.049     1000 
 1530000   0.33506052   -2.6372609    0.5020882   -2.1351727   0.13542483     11512.98     1000 
 1532000    0.3502171    -2.597197   0.52480032   -2.0723967   0.13548291    11488.663     1000 
 1534000   0.33527857   -2.5956053   0.50241493   -2.0931904   0.13152864    11461.853     1000 
 1536000   0.34939373   -2.6039912    0.5235665   -2.0804247   0.13395609    11464.676     1000 
 1538000   0.33784786   -2.5489675   0.50626502   -2.0427024   0.13340947    11451.491     1000 
 1540000   0.34451493   -2.5923918   0.51625562   -2.0761362   0.13375826    11501.492     1000 
 1542000   0.33993212   -2.5840773   0.50938829    -2.074689   0.11840903     11511.98     1000 
 1544000   0.33581197    -2.588571   0.50321424   -2.0853568   0.14548625    11348.847     1000 
 1546000   0.34761359   -2.5769584   0.52089897   -2.0560594   0.12996304    11485.573     1000 
 1548000   0.32821846   -2.5862013   0.49183536    -2.094366   0.13508818    11414.734     1000 
 1550000   0.34694581   -2.5856372    0.5198983   -2.0657389   0.12244532    11475.253     1000 
 1552000    0.3517838   -2.5957549   0.52714803   -2.0686069   0.13223569    11525.505     1000 
 1554000      0.33817    -2.590461   0.50674775   -2.0837133   0.12535167    11576.336     1000 
 1556000   0.34188076   -2.5837818   0.51230832   -2.0714735   0.12370583    11605.283     1000 
 1558000   0.33508229   -2.6125696   0.50212082   -2.1104488   0.12383157    11562.957     1000 
 1560000   0.34096943   -2.5921836    0.5109427   -2.0812409   0.12995799    11466.216     1000 
 1562000   0.33506265   -2.5746838   0.50209139   -2.0725924   0.12764543    11467.312     1000 
 1564000   0.35519259   -2.5873384    0.5322561   -2.0550823   0.13214217    11538.434     1000 
 1566000   0.35488751   -2.6250798   0.53179894   -2.0932809   0.13607782    11489.481     1000 
 1568000   0.34173058   -2.6009535   0.51208327   -2.0888702   0.13183369     11480.62     1000 
 1570000   0.34877797   -2.6090925   0.52264379   -2.0864487   0.13935932    11488.102     1000 
 1572000   0.32481586   -2.5758932   0.48673657   -2.0891566   0.13229075    11471.071     1000 
 1574000   0.33488831   -2.5709444   0.50183013   -2.0691143    0.1227768    11492.227     1000 
 1576000   0.35932288    -2.578505   0.53844534   -2.0400597   0.14358792     11395.75     1000 
 1578000   0.34342425    -2.621958   0.51462123   -2.1073368   0.12089079    11548.738     1000 
 1580000   0.33374097   -2.6141743   0.50011085   -2.1140635   0.12548249    11552.848     1000 
 1582000   0.33204685   -2.5721018    0.4975722   -2.0745296   0.12346102    11577.841     1000 
 1584000    0.3331287   -2.6064786   0.49919336   -2.1072853   0.14442903    11382.393     1000 
 1586000   0.35881591   -2.5827866   0.53768565   -2.0451009   0.12954104    11528.217     1000 
 1588000   0.33991105   -2.5718117   0.50935671    -2.062455   0.13359025    11435.496     1000 
 1590000   0.34330123   -2.6100978   0.51443689   -2.0956609   0.12866145    11504.508     1000 
 1592000   0.34367454   -2.5754438    0.5149963   -2.0604475   0.13796081    11521.241     1000 
 1594000    0.3467926   -2.5782621   0.51966871   -2.0585933   0.12614642    11482.967     1000 
 1596000   0.34254633   -2.6028194   0.51330567   -2.0895137   0.11422424    11599.603     1000 
[...]
 2612000   0.32992798   -2.5843151   0.49439707    -2.089918    0.1296386    11500.705     1000 
 2614000   0.34727545   -2.6143479   0.52039225   -2.0939557   0.12359533     11541.54     1000 
 2616000   0.35372805   -2.5660597   0.53006148   -2.0359982   0.15087637    11380.375     1000 
 2618000   0.34701605   -2.6081367   0.52000356   -2.0881332   0.12923635    11527.053     1000 
 2620000   0.32756872   -2.5768408   0.49086172   -2.0859791   0.12010307    11538.778     1000 
 2622000   0.32290725   -2.5929761   0.48387652   -2.1090996   0.12376072    11497.671     1000 
 2624000   0.32378113   -2.5931722   0.48518602   -2.1079862   0.13268301    11421.527     1000 
 2626000      0.34573   -2.6317493   0.51807641   -2.1136729   0.13074662    11522.815     1000 
 2628000    0.3672018   -2.5830467    0.5502519   -2.0327948   0.13691992    11493.993     1000 
 2630000    0.3409287   -2.5756334   0.51088166   -2.0647518   0.11981361    11500.475     1000 
 2632000    0.3465721   -2.6052836   0.51933829   -2.0859453   0.13116495    11439.979     1000 
 2634000   0.35037429   -2.6266155   0.52503587   -2.1015796   0.12576047    11539.761     1000 
 2636000   0.33043084   -2.6037411   0.49515061   -2.1085905   0.11967431    11551.614     1000 
 2638000   0.32488821    -2.639026   0.48684498    -2.152181   0.11975138    11689.234     1000 
 2640000   0.35157995   -2.5900071   0.52684255   -2.0631645   0.13545583    11462.809     1000 
 2642000   0.33583019   -2.6071622   0.50324154   -2.1039206   0.11865821    11530.904     1000 
 2644000   0.33382244   -2.6097033   0.50023293   -2.1094704    0.1266676     11495.38     1000 
 2646000   0.34763335   -2.6244518   0.52092857   -2.1035232   0.13199767    11501.238     1000 
 2648000   0.34519632   -2.5938004   0.51727669   -2.0765237   0.13552924    11457.159     1000 
 2650000    0.3386355   -2.5960824    0.5074453   -2.0886371   0.13146974    11483.975     1000 
 2652000   0.33094988   -2.6009018    0.4959284   -2.1049734   0.13881824    11458.657     1000 
 2654000   0.34678365   -2.5593889    0.5196553   -2.0397336   0.13549156    11495.691     1000 
 2656000   0.35003532   -2.5964037   0.52452793   -2.0718758   0.14209293     11495.11     1000 
 2658000   0.33503154   -2.6107357   0.50204477    -2.108691   0.13773418    11450.827     1000 
 2660000   0.36115389   -2.5860312    0.5411891   -2.0448421    0.1379066     11426.83     1000 
 2662000   0.33956768   -2.5778479   0.50884218   -2.0690057   0.12297504    11565.925     1000 
 2664000   0.33980715   -2.6136386   0.50920101   -2.1044375   0.12921686    11542.663     1000 
 2666000   0.33102933   -2.5903097   0.49604745   -2.0942622   0.12708039    11458.552     1000 
 2668000   0.32489357    -2.627564   0.48685301    -2.140711   0.12103491    11449.809     1000 
 2670000   0.34095765   -2.5937214   0.51092503   -2.0827964   0.11779435    11596.693     1000 
 2672000   0.33805182   -2.6076951   0.50657065   -2.1011245   0.12726469    11514.091     1000 
 2674000    0.3468815    -2.619235   0.51980193   -2.0994331   0.13636263    11528.089     1000 
 2676000   0.33918658   -2.5626747   0.50827108   -2.0544036   0.13497299    11442.259     1000 
 2678000   0.33460472   -2.6307018   0.50140518   -2.1292966   0.12136015      11566.1     1000 
 2680000   0.32836779   -2.5839079   0.49205913   -2.0918488   0.13598624    11464.892     1000 
 2682000   0.34346054   -2.5879634   0.51467562   -2.0732878   0.13740341    11422.131     1000 
 2684000   0.34283056   -2.6405493   0.51373159   -2.1268177   0.12769032    11563.278     1000 
 2686000   0.34110214   -2.6172032   0.51114156   -2.1060616   0.12837202    11476.349     1000 
 2688000   0.33960648   -2.6101675   0.50890031   -2.1012672   0.12713261    11469.733     1000 
 2690000   0.33635913    -2.558057   0.50403416   -2.0540228    0.1290593    11417.112     1000 
 2692000    0.3406585   -2.5711113   0.51047677   -2.0606345   0.11748558    11549.587     1000 
 2694000   0.33939903    -2.554795   0.50858945   -2.0462055   0.13830748    11420.729     1000 
 2696000   0.32871562   -2.6365681   0.49258036   -2.1439877   0.13909729    11460.694     1000 
 2698000   0.32427853    -2.556185   0.48593137   -2.0702536   0.12323474    11471.779     1000 
 2700000   0.33254405   -2.5818961   0.49831725   -2.0835789   0.12973099     11478.87     1000 
 2702000   0.33539958   -2.5500317   0.50259627   -2.0474355    0.1410837    11316.153     1000 
 2704000   0.33553775   -2.5981077   0.50280332   -2.0953043   0.13500175    11446.203     1000 
 2706000   0.34640382   -2.6196946   0.51908613   -2.1006085   0.12657227    11520.985     1000 
 2708000   0.32735225   -2.5958351   0.49053735   -2.1052978   0.13631056    11444.592     1000 
 2710000   0.34161303   -2.6103159   0.51190712   -2.0984088   0.13929071    11409.026     1000 
 2712000   0.34132413   -2.5874268   0.51147422   -2.0759526   0.13336919    11433.964     1000 
 2714000   0.34962162    -2.604512   0.52390799   -2.0806041   0.12787609    11580.195     1000 
 2716000   0.34347518   -2.5998509   0.51469755   -2.0851533    0.1353925      11504.1     1000 
 2718000   0.33327365   -2.6348833   0.49941056   -2.1354727   0.13244916    11464.104     1000 
 2720000   0.34052332   -2.5906622    0.5102742    -2.080388   0.13266675    11411.567     1000 
 2722000   0.34583813   -2.6001759   0.51823844   -2.0819374   0.13558921     11428.26     1000 
 2724000    0.3423768   -2.6284376   0.51305163    -2.115386   0.12516725    11576.588     1000 
 2726000    0.3295718   -2.6160079   0.49386335   -2.1221446   0.12353948        11616     1000 
 2728000   0.34617262   -2.6147773   0.51873967   -2.0960376   0.13013248    11442.499     1000 
 2730000   0.32918499   -2.5776857   0.49328371    -2.084402   0.13191613    11548.413     1000 
 2732000   0.34966897   -2.6169292   0.52397896   -2.0929503   0.13296989      11420.2     1000 
 2734000   0.33226092   -2.5968918   0.49789298   -2.0989989   0.13157886    11499.706     1000 
 2736000   0.34244297   -2.5971606   0.51315079   -2.0840098   0.14458397    11377.544     1000 
 2738000   0.35837002   -2.5742642   0.53701748   -2.0372467   0.14747537    11344.125     1000 
 2740000   0.33581032   -2.5981815   0.50321176   -2.0949697   0.12909587    11508.845     1000 
 2742000   0.34642785   -2.5540175   0.51912213   -2.0348954   0.12989761    11513.336     1000 
 2744000   0.35282869   -2.5824446   0.52871379   -2.0537309   0.12977129    11501.122     1000 
 2746000   0.33953915   -2.5845024   0.50879942    -2.075703   0.13346688    11468.584     1000 
 2748000    0.3451309   -2.6151984   0.51717866   -2.0980197   0.12778577    11452.281     1000 
 2750000   0.35285361   -2.5870502   0.52875114   -2.0582991   0.13459418    11453.614     1000 
 2752000   0.33508418   -2.6062565   0.50212365   -2.1041328   0.12170553    11479.175     1000 
 2754000   0.33400293   -2.5870013    0.5005034   -2.0864979   0.13354981    11535.856     1000 
 2756000   0.34397227   -2.5808364   0.51544245    -2.065394   0.13276144    11487.669     1000 
 2758000   0.34637165   -2.6236648   0.51903791   -2.1046269     0.130362    11522.398     1000 
 2760000   0.32736402   -2.6157134   0.49055499   -2.1251584   0.14228762    11383.259     1000 
 2762000   0.35222665   -2.5998306   0.52781164    -2.072019   0.12190657    11564.744     1000 
 2764000   0.33320224   -2.5983403   0.49930355   -2.0990367   0.13083864     11554.52     1000 
 2766000   0.33334612    -2.563544   0.49951916   -2.0640248   0.12994639    11482.203     1000 
 2768000   0.34736444   -2.5761694   0.52052561   -2.0556438    0.1310639    11507.234     1000 
 2770000   0.33575709    -2.618555   0.50313199    -2.115423   0.11613254    11646.349     1000 
 2772000    0.3437122   -2.5934679   0.51505274   -2.0784152    0.1379935    11443.522     1000 
 2774000   0.34696367   -2.6252739   0.51992506   -2.1053488   0.12557199    11523.659     1000 
 2776000   0.34500649   -2.5866743   0.51699222   -2.0696821   0.12183142    11608.843     1000 
 2778000   0.34047866   -2.6352707   0.51020728   -2.1250635   0.12723112    11452.062     1000 
 2780000   0.35590438   -2.6379437   0.53332271    -2.104621   0.12004229    11602.233     1000 
 2782000   0.35707344   -2.5926473   0.53507454   -2.0575727   0.13276717    11485.051     1000 
 2784000   0.32767991   -2.6267436   0.49102834   -2.1357152   0.12914871     11477.55     1000 
 2786000   0.33636725   -2.5926282   0.50404633   -2.0885819   0.13409052    11374.555     1000 
 2788000   0.32945339    -2.590003   0.49368591   -2.0963171   0.14228311    11428.492     1000 
 2790000   0.34971505   -2.5848499   0.52404801   -2.0608019   0.13997034    11442.261     1000 
 2792000   0.33999292   -2.5883123   0.50947938    -2.078833   0.13623014    11422.925     1000 
 2794000   0.34487977   -2.5913501   0.51680233   -2.0745477    0.1223202     11522.82     1000 
 2796000   0.34833094   -2.5751564   0.52197391   -2.0531825   0.11812293    11504.854     1000 
 2798000    0.3358112   -2.6045477   0.50321309   -2.1013347   0.13648834    11463.843     1000 
 2800000   0.33276876   -2.6269666   0.49865398   -2.1283127   0.13359725    11486.404     1000 
 2802000   0.33418131    -2.613977   0.50077069   -2.1132063   0.12419732     11563.71     1000 
 2804000   0.33620335   -2.6112342   0.50380071   -2.1074335   0.13578779    11425.791     1000 
 2806000   0.34654349   -2.6399407   0.51929542   -2.1206453    0.1252845    11585.574     1000 
 2808000   0.33096142   -2.5944123   0.49594568   -2.0984666   0.13797571    11445.577     1000 
 2810000     0.348844   -2.5419141   0.52274274   -2.0191714   0.13173149    11451.736     1000 
 2812000    0.3452294   -2.5876268   0.51732626   -2.0703006   0.12472943    11480.292     1000 
 2814000   0.34540312     -2.55963   0.51758658   -2.0420434   0.13461238    11469.773     1000 
 2816000   0.34603323   -2.6006446   0.51853079   -2.0821138   0.13195538    11493.922     1000 
 2818000   0.36084573   -2.5842026   0.54072733   -2.0434753   0.13924711    11409.795     1000 
 2820000   0.34143691   -2.6252669   0.51164321   -2.1136237    0.1393453    11386.514     1000 
 2822000   0.34087006   -2.5821316   0.51079378   -2.0713378   0.12722196    11500.724     1000 
 2824000   0.34137902     -2.59137   0.51155646   -2.0798136   0.13446789    11473.246     1000 
 2826000     0.351061   -2.6164615   0.52606491   -2.0903966   0.12483407    11523.252     1000 
 2828000   0.34048707   -2.6136176   0.51021988   -2.1033977   0.12924822    11487.694     1000 
 2830000   0.34744084   -2.5609504    0.5206401   -2.0403103   0.13735767    11479.797     1000 
 2832000   0.33441464   -2.6405868   0.50112033   -2.1394665   0.12449026    11523.806     1000 
 2834000   0.33817937   -2.5828045   0.50676178   -2.0760427   0.12956604    11489.453     1000 
 2836000   0.32628004   -2.5691873   0.48893065   -2.0802567   0.12807634    11512.397     1000 
 2838000   0.32415948   -2.5595696   0.48575298   -2.0738166    0.1376805    11397.465     1000 
 2840000   0.35310977   -2.5880889     0.529135   -2.0589539   0.13676083    11431.656     1000 
 2842000   0.32480548   -2.6149949   0.48672101   -2.1282739   0.12991913    11470.484     1000 
 2844000   0.34472831   -2.6297982   0.51657537   -2.1132229   0.13435724     11464.19     1000 
 2846000    0.3393116   -2.6091261   0.50845843   -2.1006677   0.12812262    11512.778     1000 
 2848000   0.34303768   -2.6112964   0.51404196   -2.0972544   0.11431167    11657.896     1000 
 2850000   0.33858088   -2.6045964   0.50736345   -2.0972329   0.12878043     11443.39     1000 
 2852000   0.34315674   -2.6142657   0.51422037   -2.1000453   0.12288575    11637.775     1000 
 2854000   0.33084715   -2.5813609   0.49577446   -2.0855864   0.12651758    11475.325     1000 
 2856000   0.33873003   -2.5994157   0.50758694   -2.0918288   0.13090486     11477.11     1000 
 2858000   0.33317251   -2.5988477     0.499259   -2.0995886   0.11985545    11497.648     1000 
 2860000   0.35270391    -2.584906    0.5285268   -2.0563792   0.12909101    11501.373     1000 
 2862000   0.34250138   -2.6078932   0.51323831   -2.0946549   0.13052654    11483.832     1000 
 2864000   0.36600494   -2.6064664    0.5484584    -2.058008    0.1274599    11536.717     1000 
 2866000   0.33806947   -2.5790638   0.50659711   -2.0724667   0.13266982    11463.128     1000 
 2868000   0.34742501    -2.560898   0.52061638   -2.0402817    0.1353618    11432.104     1000 
 2870000    0.3534041   -2.5647873   0.52957604   -2.0352113   0.14052176    11368.422     1000 
 2872000   0.32114655   -2.5799652    0.4812381   -2.0987271    0.1359296    11375.275     1000 
 2874000    0.3532915   -2.5862089   0.52940732   -2.0568016   0.13392018    11472.589     1000 
 2876000   0.33989366   -2.6236096   0.50933064   -2.1142789    0.1206885    11536.677     1000 
 2878000   0.34811227   -2.5670062   0.52164624     -2.04536   0.12776773    11485.575     1000 
 2880000   0.34200293   -2.6174875   0.51249139   -2.1049961   0.12093061    11545.936     1000 
 2882000   0.35017189     -2.60392   0.52473258   -2.0791874   0.13120348    11450.842     1000 
 2884000   0.33017875   -2.6114785   0.49477286   -2.1167057   0.12239357    11558.685     1000 
 2886000   0.34097827   -2.6032758   0.51095593   -2.0923198   0.13861493    11481.328     1000 
 2888000   0.32339009   -2.6168142   0.48460005   -2.1322141    0.1275873    11485.616     1000 
 2890000   0.34740965   -2.6229841   0.52059336   -2.1023907   0.13850724    11384.413     1000 
 2892000   0.34094462   -2.6331036   0.51090551   -2.1221981   0.12274323    11563.906     1000 
 2894000   0.33520814   -2.6075608    0.5023094   -2.1052514   0.12794339    11519.952     1000 
 2896000    0.3370177   -2.5999901   0.50502103    -2.094969    0.1338091    11419.505     1000 
 2898000   0.35222973   -2.5793848   0.52781624   -2.0515685   0.13683528    11421.924     1000 
 2900000   0.34215421   -2.6060187   0.51271808   -2.0933006   0.11742805    11635.314     1000 
 2902000   0.33848951   -2.5930352   0.50722652   -2.0858087   0.13310165    11462.017     1000 
 2904000   0.33294076   -2.6117748   0.49891173   -2.1128631     0.128558    11498.494     1000 
 2906000   0.34064438   -2.5614508    0.5104556   -2.0509952   0.14569274    11323.244     1000 
 2908000   0.34609395     -2.52193   0.51862178   -2.0033082   0.14232481    11334.192     1000 
 2910000     0.349784   -2.5709869   0.52415132   -2.0468356   0.13690267    11449.364     1000 
 2912000   0.32264377   -2.5593193   0.48348169   -2.0758376   0.13222644    11402.712     1000 
 2914000   0.33195668   -2.6129794   0.49743709   -2.1155423   0.12691817    11531.204     1000 
 2916000   0.33289946   -2.6147661   0.49884984   -2.1159163   0.12063242    11608.598     1000 
 2918000   0.33708805   -2.6070802   0.50512645   -2.1019538   0.12385198    11580.134     1000 
 2920000   0.34676003   -2.6202729    0.5196199    -2.100653   0.13759471    11505.193     1000 
 2922000   0.34718692   -2.6046617   0.52025959   -2.0844021   0.13598386    11492.914     1000 
 2924000   0.34169203   -2.5958673   0.51202551   -2.0838418   0.13189221    11452.247     1000 
 2926000   0.33300477   -2.5804918   0.49900765   -2.0814841   0.11880468    11450.726     1000 
 2928000   0.33421827   -2.5919741   0.50082607    -2.091148   0.12579289    11454.178     1000 
 2930000   0.33865663   -2.5859256   0.50747696   -2.0784486   0.12235733    11520.514     1000 
 2932000   0.33802209   -2.5678522    0.5065261   -2.0613261   0.13377989    11434.255     1000 
 2934000   0.33874021   -2.6191641    0.5076022   -2.1115619   0.12902464    11562.664     1000 
 2936000   0.33362537   -2.5844476   0.49993762     -2.08451   0.12892784    11501.018     1000 
 2938000    0.3441726   -2.6070682   0.51574263   -2.0913256   0.12333337    11556.549     1000 
 2940000   0.34199465   -2.6155275   0.51247898   -2.1030485    0.1201188     11462.28     1000 
 2942000   0.33791978   -2.5877801   0.50637279   -2.0814073   0.12245463    11475.617     1000 
 2944000   0.33113199    -2.570998   0.49620129   -2.0747967   0.11762018    11526.999     1000 
 2946000   0.34471942   -2.5909423   0.51656206   -2.0743802   0.13465876    11495.783     1000 
 2948000   0.34761717   -2.5827625   0.52090434   -2.0618582   0.12320049    11523.891     1000 
 2950000   0.35459009   -2.5591095   0.53135325   -2.0277562   0.13280803    11426.328     1000 
 2952000   0.33231408   -2.5778774   0.49797264   -2.0799047   0.12886175    11448.799     1000 
 2954000   0.34315768   -2.6121744   0.51422178   -2.0979526   0.12553423    11462.893     1000 
 2956000   0.34484802   -2.5679027   0.51675476   -2.0511479   0.12535271     11540.38     1000 
 2958000   0.32844406   -2.5847325   0.49217342   -2.0925591   0.13679059    11531.427     1000 
 2960000   0.34524267    -2.574488   0.51734614   -2.0571418   0.13247712    11433.197     1000 
 2962000   0.34792292   -2.6254644   0.52136249   -2.1041019   0.12253485     11509.62     1000 
 2964000   0.35218686   -2.6333976   0.52775201   -2.1056456   0.13401182    11448.978     1000 
 2966000   0.36000028   -2.6111505   0.53946042   -2.0716901   0.14990834    11323.642     1000 
 2968000   0.32386091   -2.5970371   0.48530558   -2.1117315   0.13034655    11483.708     1000 
 2970000   0.33653895   -2.5849657   0.50430361    -2.080662   0.12458236     11573.61     1000 
 2972000   0.34338323   -2.6044306   0.51455976   -2.0898709   0.13785869    11521.283     1000 
 2974000   0.34058451   -2.5742224   0.51036588   -2.0638565   0.14350043    11404.697     1000 
 2976000   0.35759116   -2.5379642   0.53585036   -2.0021138   0.13985711    11399.719     1000 
 2978000   0.33563395   -2.6160216   0.50294748   -2.1130741   0.13444185    11450.272     1000 
 2980000   0.34077344   -2.5972655     0.510649   -2.0866165   0.12875353    11531.835     1000 
 2982000   0.34215018   -2.6192903   0.51271205   -2.1065782   0.13760102    11455.119     1000 
 2984000   0.35649463   -2.5906409    0.5342072   -2.0564337   0.14151256    11388.779     1000 
 2986000   0.33805117    -2.595773   0.50656969   -2.0892033   0.12340516    11563.026     1000 
 2988000   0.34255561   -2.5829379   0.51331958   -2.0696183   0.13511487    11440.775     1000 
 2990000   0.34635757   -2.6265413   0.51901682   -2.1075245   0.12826197     11509.11     1000 
 2992000   0.34620893   -2.5499701   0.51879408    -2.031176     0.127117    11483.131     1000 
 2994000   0.31037992   -2.6320657    0.4651043   -2.1669614   0.13705909    11457.076     1000 
 2996000   0.34271037   -2.5897265   0.51355149    -2.076175   0.13370235    11476.453     1000 
 2998000    0.3558438   -2.5944411   0.53323193   -2.0612092   0.12510808    11572.076     1000 
 3000000   0.33614074   -2.5957784    0.5037069   -2.0920715   0.11554618    11592.694     1000 
Loop time of 1094.29 on 4 procs for 3000000 steps with 1000 atoms

Performance: 1184328.639 tau/day, 2741.501 timesteps/s
95.2% CPU use with 4 MPI tasks x no OpenMP threads

MPI task timing breakdown:
Section |  min time  |  avg time  |  max time  |%varavg| %total
---------------------------------------------------------------
Pair    | 808.42     | 811.43     | 815.13     |   8.4 | 74.15
Neigh   | 75.638     | 75.995     | 76.278     |   2.7 |  6.94
Comm    | 151.04     | 154.23     | 156.85     |  16.7 | 14.09
Output  | 0.024798   | 0.027498   | 0.035438   |   2.8 |  0.00
Modify  | 45.658     | 45.765     | 45.904     |   1.4 |  4.18
Other   |            | 6.838      |            |       |  0.62

Nlocal:    250 ave 255 max 243 min
Histogram: 1 0 0 0 0 1 0 1 0 1
Nghost:    1685.25 ave 1693 max 1669 min
Histogram: 1 0 0 0 0 0 0 0 2 1
Neighs:    14271 ave 14676 max 13983 min
Histogram: 2 0 0 0 0 0 1 0 0 1

Total # of neighbors = 57084
Ave neighs/atom = 57.084
Neighbor list builds = 150000
Dangerous builds not checked

Total wall time: 0:18:14
