LAMMPS (29 Sep 2021 - Update 2)
OMP_NUM_THREADS environment is not set. Defaulting to 1 thread. (src/comm.cpp:98)
  using 1 OpenMP thread(s) per MPI task
# ----------------------- Inicialização -----------------------

units			lj
atom_style 		atomic
dimension 		3
boundary 		p p p

# -------------------- Criação dos Átomos ---------------------

read_data 		topologia.txt
Reading data file ...
  orthogonal box = (0.0000000 0.0000000 0.0000000) to (21.540000 21.540000 21.540000)
  1 by 2 by 2 MPI processor grid
  reading atoms ...
  1000 atoms
  read_data CPU = 0.003 seconds

velocity 		all create ${temp} 87287 rot yes dist gaussian
velocity 		all create 0.56 87287 rot yes dist gaussian

# ------------------ Interação Interatômica -------------------

pair_style		table linear 2000
pair_coeff		1 1 force.table AA 10.0
WARNING: 3 of 2000 force values in table AA are inconsistent with -dE/dr.
WARNING:  Should only be flagged at inflection points (src/pair_table.cpp:465)
pair_coeff		1 2 force.table AB 10.0
WARNING: 1 of 2000 force values in table AB are inconsistent with -dE/dr.
WARNING:  Should only be flagged at inflection points (src/pair_table.cpp:465)
pair_coeff		2 2 force.table BB 10.0
pair_write		1 1 2000 r 0.008 10.0 table.check AA
Appending to table file table.check with DATE: 2023-08-08
Neighbor list info ...
  update every 1 steps, delay 10 steps, check yes
  max neighbors/atom: 2000, page size: 100000
  master list distance cutoff = 10.3
  ghost atom cutoff = 10.3
  binsize = 5.15, bins = 5 5 5
  1 neighbor lists, perpetual/occasional/extra = 1 0 0
  (1) pair table, perpetual
      attributes: half, newton on
      pair build: half/bin/atomonly/newton
      stencil: half/bin/3d
      bin: standard
pair_write		1 2 2000 r 0.008 10.0 table.check AB
Appending to table file table.check with DATE: 2023-08-08
pair_write		2 2 2000 r 0.008 10.0 table.check BB
Appending to table file table.check with DATE: 2023-08-08

neighbor 		0.3 bin
neigh_modify		every 20 delay 0 check no

# ------------------------- Ensemble --------------------------------------

fix 1			all npt temp ${temp} ${temp} 0.5 iso ${press} ${press} 5
fix 1			all npt temp 0.56 ${temp} 0.5 iso ${press} ${press} 5
fix 1			all npt temp 0.56 0.56 0.5 iso ${press} ${press} 5
fix 1			all npt temp 0.56 0.56 0.5 iso 0.13 ${press} 5
fix 1			all npt temp 0.56 0.56 0.5 iso 0.13 0.13 5

# ---------------------- Função de Distribuição Radial -----------------------

#compute RDF 		all rdf 2000 1 1 1 2 2 2
#fix 2 			all ave/time 1 2000 2000 c_RDF[*] file rdf.data mode vector

# ------------------------- Execução ---------------------------

timestep 		0.005
thermo_style		custom step temp pe ke etotal press vol atoms
thermo			2000
run			3000000
Per MPI rank memory allocation (min/avg/max) = 2.758 | 2.758 | 2.758 Mbytes
Step Temp PotEng KinEng TotEng Press Volume Atoms 
       0         0.56     1.019938      0.83916     1.859098    1.3116862    9993.9483     1000 
    2000   0.57258139   -2.0611158   0.85801321   -1.2031026   0.12930333    11675.731     1000 
    4000   0.57280372   -2.0434587   0.85834637   -1.1851124   0.13856785    11655.588     1000 
    6000   0.54567206   -2.0799083   0.81768958   -1.2622188    0.1196746    11660.873     1000 
    8000   0.55217278   -2.0410994   0.82743091   -1.2136685   0.12609421    11736.895     1000 
   10000   0.53178392   -2.0887544   0.79687821   -1.2918762   0.10892964    11846.327     1000 
   12000   0.54310402   -2.0749384   0.81384137    -1.261097   0.13297602    11546.711     1000 
   14000   0.56167516   -2.0762721   0.84167023   -1.2346019   0.11269739      11710.5     1000 
   16000   0.55921429   -2.0792662   0.83798261   -1.2412835   0.13705479    11678.834     1000 
   18000   0.55187819   -2.0598824   0.82698947    -1.232893   0.12697568    11550.363     1000 
   20000   0.58223732   -2.0978662   0.87248263   -1.2253836   0.14541605    11563.863     1000 
   22000   0.54753936   -2.0630206   0.82048773   -1.2425328   0.13164883    11680.045     1000 
   24000    0.5580016   -2.0786111    0.8361654   -1.2424457   0.12114931    11631.692     1000 
   26000    0.5791611   -2.0427213    0.8678729   -1.1748484   0.14073049    11458.657     1000 
   28000   0.53112756   -2.1020874   0.79589465   -1.3061928   0.12899544    11537.821     1000 
   30000   0.55985936   -2.1227581   0.83894924   -1.2838089   0.12544294    11832.889     1000 
   32000   0.56252991   -2.0635069   0.84295107   -1.2205558   0.12772207    11654.149     1000 
   34000   0.55262779   -2.1043254   0.82811274   -1.2762126   0.13807163    11643.921     1000 
   36000   0.55231938     -2.10011   0.82765059   -1.2724594     0.125585     11598.83     1000 
   38000   0.55450138    -2.076055   0.83092032   -1.2451347    0.1216566    11747.594     1000 
   40000    0.5308733   -2.0849639   0.79551363   -1.2894502   0.11963128    11703.273     1000 
   42000   0.55660082    -2.107928   0.83406633   -1.2738617     0.119677     11759.27     1000 
   44000   0.55843677   -2.0682137    0.8368175   -1.2313962   0.13579296     11646.35     1000 
   46000   0.55291598   -2.0995407    0.8285446   -1.2709961   0.12210002    11557.804     1000 
   48000   0.57208573   -2.1189096   0.85727047   -1.2616391   0.12711872     11624.92     1000 
   50000   0.58629024   -2.0582898   0.87855592   -1.1797338   0.13348184    11555.522     1000 
   52000   0.57302706   -2.1086424   0.85868104   -1.2499614   0.14794894    11561.478     1000 
   54000   0.53967901   -2.0796177     0.808709   -1.2709087    0.1309476    11529.669     1000 
   56000   0.58165211   -2.0545145   0.87160569   -1.1829088   0.13168108    11612.978     1000 
   58000   0.55800683   -2.0268542   0.83617324   -1.1906809   0.13273869    11716.486     1000 
   60000   0.58399484   -2.1128803   0.87511627    -1.237764   0.13369373    11524.933     1000 
   62000   0.55434319   -2.0777148   0.83068328   -1.2470316   0.12180928    11779.025     1000 
   64000   0.57914545    -2.034436   0.86784946   -1.1665866   0.13269852    11448.613     1000 
   66000   0.55009313   -2.0867719   0.82431455   -1.2624573   0.11668417    11760.252     1000 
   68000   0.58263983   -2.0351289   0.87308578   -1.1620431   0.12247608    11649.776     1000 
   70000   0.56400229   -2.0742485   0.84515743    -1.229091   0.12998397    11723.921     1000 
   72000    0.5524359   -2.1211978   0.82782519   -1.2933726   0.12968548    11682.225     1000 
   74000   0.54829206   -2.1227599   0.82161566   -1.3011442   0.12298577     11719.23     1000 
   76000   0.52325616   -2.0487758   0.78409936   -1.2646764   0.13712506    11523.691     1000 
   78000   0.57166599   -2.0881175   0.85664149    -1.231476   0.13566734    11582.039     1000 
   80000   0.54829494   -2.0622723   0.82161997   -1.2406524   0.12978242    11628.653     1000 
   82000   0.57481585   -2.0722735   0.86136155   -1.2109119   0.13671726    11495.407     1000 
   84000     0.558854   -2.1173369   0.83744272   -1.2798942   0.12487974    11782.604     1000 
   86000   0.55878661   -2.0695261   0.83734173   -1.2321843   0.13373383    11647.666     1000 
   88000   0.56626024   -2.0774537   0.84854098   -1.2289127   0.12457629     11757.37     1000 
   90000   0.54156222   -2.0708339   0.81153098   -1.2593029   0.14608991    11399.121     1000 
   92000   0.57487661    -2.054453    0.8614526   -1.1930004   0.13999396     11368.41     1000 
   94000   0.55680026   -2.1018571   0.83436519   -1.2674919   0.13146649    11521.011     1000 
   96000   0.55648905     -2.10799   0.83389884   -1.2740912   0.12402265    11707.682     1000 
   98000    0.5331229   -2.0674836   0.79888467   -1.2685989   0.11542826    11659.639     1000 
  100000   0.57572823   -2.0923506   0.86272875   -1.2296218   0.12780865    11666.214     1000 
  102000   0.58949118    -2.057922   0.88335253   -1.1745695   0.12177916    11661.415     1000 
  104000   0.54377475   -2.0600114   0.81484646   -1.2451649   0.14063687    11487.793     1000 
  106000   0.57304385   -2.1033735   0.85870622   -1.2446673   0.13407726    11710.105     1000 
  108000   0.55167774   -2.0598932   0.82668909   -1.2332041    0.1267552    11525.395     1000 
  110000   0.55450355   -2.1086493   0.83092357   -1.2777257   0.13171919    11597.294     1000 
  112000   0.54970001   -2.1034964   0.82372546    -1.279771   0.11336392    11923.566     1000 
  114000   0.54712632   -2.0932934   0.81986879   -1.2734247   0.13179068    11524.369     1000 
  116000   0.54486513   -2.1088909    0.8164804   -1.2924105   0.12000168    11637.441     1000 
  118000   0.56143674   -2.0246514   0.84131295   -1.1833384   0.13569864    11483.628     1000 
  120000   0.55149212   -2.1086948   0.82641095   -1.2822838   0.13059407      11669.9     1000 
  122000   0.57948357   -2.0588919   0.86835614   -1.1905358   0.13702389    11629.419     1000 
  124000   0.57161159   -2.0630333   0.85655996   -1.2064733   0.12118412    11710.891     1000 
  126000    0.5564221   -2.0299651   0.83379852   -1.1961666   0.12946361    11571.878     1000 
  128000    0.5672038   -2.0453528   0.84995489    -1.195398   0.12521857    11751.201     1000 
  130000   0.56655294   -2.0750286   0.84897958    -1.226049   0.12602626    11717.143     1000 
  132000    0.5788842   -2.1059448   0.86745797   -1.2384869   0.11972968    11830.987     1000 
  134000   0.53730569    -2.026174   0.80515257   -1.2210214   0.12870806    11667.254     1000 
  136000   0.55703062   -2.0465114   0.83471038    -1.211801   0.12641824     11500.09     1000 
  138000   0.55390124   -2.1321211   0.83002101   -1.3021001   0.11893289    11733.861     1000 
  140000   0.55413455   -2.0439056   0.83037063   -1.2135349   0.13757949    11598.771     1000 
  142000   0.57190289   -2.0914685   0.85699648    -1.234472   0.13974751    11457.967     1000 
  144000   0.55242935   -2.0875439   0.82781538   -1.2597286   0.13671038      11638.5     1000 
  146000   0.54110746   -2.1023702   0.81084953   -1.2915207   0.12297937    11853.324     1000 
  148000   0.56367072   -2.0819901   0.84466058   -1.2373295   0.12740932    11626.193     1000 
  150000   0.56726148   -2.1049164   0.85004132   -1.2548751    0.1238926    11750.182     1000 
  152000    0.5691598   -2.1050974   0.85288595   -1.2522114   0.12874632    11688.873     1000 
  154000   0.55315087   -2.0836318   0.82889658   -1.2547352   0.13984847    11626.191     1000 
  156000   0.54534787   -2.0782427   0.81720378   -1.2610389   0.12009239    11710.391     1000 
  158000   0.53200637   -2.0481865   0.79721154    -1.250975   0.14271484    11606.354     1000 
  160000   0.57963871    -2.041342   0.86858861   -1.1727534   0.13739642    11576.116     1000 
  162000   0.55762827   -2.1323304   0.83560596   -1.2967245   0.14258216    11689.174     1000 
  164000   0.56158921   -2.0285658   0.84154143   -1.1870244   0.12583876     11611.74     1000 
  166000   0.54999894    -2.135558   0.82417341   -1.3113846   0.12472791    11740.959     1000 
  168000   0.52668527   -2.0815468   0.78923788   -1.2923089    0.1196406     11726.89     1000 
  170000   0.56673904   -2.1236461   0.84925845   -1.2743876    0.1166939    11690.909     1000 
  172000   0.55098335   -2.1091636   0.82564855   -1.2835151   0.13237894    11497.768     1000 
  174000   0.57221715   -2.0741882   0.85746739   -1.2167208   0.12330368    11750.861     1000 
  176000   0.57000893   -2.0484257   0.85415838   -1.1942673   0.14540816     11455.06     1000 
  178000   0.56658451   -2.0216957   0.84902689   -1.1726688   0.13334231    11423.961     1000 
  180000    0.5674403   -2.1245246   0.85030928   -1.2742153   0.11342806     11765.68     1000 
  182000   0.53737496   -2.1071578   0.80525638   -1.3019014   0.11998331    11768.137     1000 
  184000   0.56599765    -2.077454   0.84814748   -1.2293065   0.12517512    11571.587     1000 
  186000   0.58886283   -2.1000849   0.88241095   -1.2176739   0.14027045    11539.536     1000 
  188000   0.57553634   -2.0936281    0.8624412   -1.2311869   0.13889629    11559.013     1000 
  190000   0.55399616   -2.0570037   0.83016325   -1.2268404   0.12060588    11593.412     1000 
  192000   0.55455502   -2.0784591    0.8310007   -1.2474584   0.14647689    11557.982     1000 
  194000   0.54001085   -2.1136923   0.80920626    -1.304486   0.13261609    11640.227     1000 
  196000   0.58862671   -2.1239862   0.88205713   -1.2419291   0.13064727    11619.776     1000 
  198000   0.57746601   -2.1213446   0.86533282   -1.2560118   0.13547122    11752.798     1000 
  200000   0.55613929   -2.0951356   0.83337472   -1.2617609   0.11728378    11728.384     1000 
  202000   0.55282885   -2.0621703   0.82841403   -1.2337563   0.12627667    11684.776     1000 
  204000   0.55870597   -2.0681946   0.83722089   -1.2309737   0.12500987    11679.721     1000 
  206000   0.58321807   -2.1068562   0.87395228   -1.2329039   0.12457515    11685.314     1000 
  208000   0.56540231   -2.0951485   0.84725535   -1.2478932    0.1342697    11493.292     1000 
  210000   0.54370569   -2.1205038   0.81474298   -1.3057608   0.12629121    11729.937     1000 
  212000   0.57996494   -2.0490186   0.86907746   -1.1799411   0.13336523    11537.368     1000 
  214000    0.5449846   -2.0772427   0.81665942   -1.2605833   0.14360499    11488.209     1000 
  216000   0.56782806   -2.0695068   0.85089035   -1.2186165   0.13183903    11673.418     1000 
  218000   0.57087222   -2.0680199   0.85545202   -1.2125679   0.13842971    11512.618     1000 
  220000   0.55979602   -2.1012457   0.83885433   -1.2623913   0.12775276    11723.556     1000 
  222000   0.53926848   -2.1143219   0.80809382   -1.3062281   0.13027637    11692.791     1000 
  224000   0.55876994   -2.0122849   0.83731675   -1.1749682   0.11603382     11816.95     1000 
  226000   0.56917804   -2.0953565   0.85291329   -1.2424432   0.12238554    11725.479     1000 
  228000   0.55970069   -2.1166954   0.83871149   -1.2779839   0.12275889    11677.549     1000 
  230000   0.54754566   -2.1121845   0.82049718   -1.2916873   0.13857529    11529.226     1000 
  232000   0.55508373   -2.1054388   0.83179297   -1.2736458   0.13369279    11619.131     1000 
  234000   0.57443818   -2.0419045   0.86079562   -1.1811089    0.1378133     11428.57     1000 
  236000    0.5519884   -2.0867204   0.82715462   -1.2595658   0.13607488    11650.895     1000 
  238000    0.5618512   -2.0976822   0.84193403   -1.2557482   0.11913054    11767.654     1000 
  240000   0.56691235   -2.1003639   0.84951815   -1.2508457   0.11427928    11718.444     1000 
  242000   0.58748932   -2.0937754   0.88035274   -1.2134227   0.12979961    11596.644     1000 
  244000   0.56368171     -2.12367   0.84467705   -1.2789929   0.12424274    11716.295     1000 
  246000   0.55233232   -2.0654338   0.82766998   -1.2377638   0.14120131    11354.298     1000 
  248000    0.5545048   -2.1104313   0.83092544   -1.2795059   0.12163425    11809.529     1000 
  250000   0.53505406   -2.1189521   0.80177851   -1.3171736   0.13502449    11635.125     1000 
  252000    0.5558524   -2.0445096   0.83294483   -1.2115648   0.13360832    11661.539     1000 
  254000   0.55962251   -2.0664282   0.83859432   -1.2278338   0.13046359    11775.987     1000 
  256000   0.55625476   -2.0910322   0.83354776   -1.2574844   0.12818147    11724.559     1000 
  258000   0.55804268   -2.0724209   0.83622695   -1.2361939   0.11422523    11651.443     1000 
  260000   0.55646764    -2.056501   0.83386676   -1.2226342   0.14579196    11482.441     1000 
  262000   0.55284585   -2.0667351   0.82843951   -1.2382956   0.12084417    11606.546     1000 
  264000   0.55831841   -2.1030328   0.83664014   -1.2663927   0.11796097    11756.428     1000 
  266000   0.55002842   -2.0884699   0.82421759   -1.2642523   0.11954184    11671.231     1000 
  268000   0.58077355   -2.1057099   0.87028916   -1.2354207   0.12260956    11777.928     1000 
  270000   0.55769993   -2.0809349   0.83571335   -1.2452216   0.13086174    11690.406     1000 
  272000   0.56698903   -2.1276221   0.84963305    -1.277989   0.12257765    11730.664     1000 
  274000    0.5643652    -2.094467   0.84570125   -1.2487658   0.14821914    11462.635     1000 
  276000   0.54385655   -2.1137339   0.81496904   -1.2987648   0.12745082    11707.316     1000 
  278000    0.5435944   -2.1283258   0.81457621   -1.3137496   0.12490984    11576.101     1000 
  280000   0.53549695   -2.0596353   0.80244219   -1.2571931   0.12608263    11567.783     1000 
  282000   0.53851492   -2.1131447   0.80696461   -1.3061801   0.13797983    11563.169     1000 
  284000   0.55760238   -2.0780838   0.83556717   -1.2425166   0.12816317    11577.368     1000 
  286000   0.56764231   -2.0334612     0.850612   -1.1828492    0.1301349    11565.283     1000 
  288000   0.59661954   -2.1198224   0.89403438    -1.225788   0.12583013    11729.174     1000 
  290000   0.58973351   -2.0533606   0.88371567    -1.169645   0.13075721     11641.45     1000 
  292000   0.55565877   -2.0947683   0.83265467   -1.2621136   0.12553489    11575.394     1000 
  294000   0.59587876   -2.0707699   0.89292433   -1.1778455   0.13388249    11636.591     1000 
  296000   0.54799728   -2.0900383   0.82117392   -1.2688644   0.12841634    11741.701     1000 
  298000   0.52355689   -2.1351224   0.78455001   -1.3505724   0.12979359    11569.286     1000 
  300000   0.57369676   -2.1540824   0.85968459   -1.2943979   0.13295967    11674.464     1000 
  302000   0.57497106   -2.0604987   0.86159414   -1.1989046   0.14388244    11405.395     1000 
  304000   0.52978269   -2.1617589   0.79387937   -1.3678795   0.12183361    11714.942     1000 
  306000    0.5427814   -2.1203109   0.81335792    -1.306953   0.12609212    11823.826     1000 
  308000   0.55000649    -2.064284   0.82418473   -1.2400993    0.1414039    11502.008     1000 
  310000   0.55113087   -2.0670665   0.82586961   -1.2411969   0.11603492    11632.895     1000 
  312000   0.55420025   -2.0657815   0.83046908   -1.2353124   0.12089119    11651.996     1000 
  314000   0.58498738   -2.1070855   0.87660359   -1.2304819   0.11075835     11851.11     1000 
  316000   0.56547153   -2.1166044   0.84735909   -1.2692453   0.12784082    11616.436     1000 
  318000   0.54454525   -2.1124009   0.81600106   -1.2963999   0.12826553    11671.118     1000 
  320000   0.57213532    -2.133768   0.85734477   -1.2764233    0.1352385    11611.131     1000 
  322000   0.55416716   -2.0881029   0.83041949   -1.2576834   0.13605319     11561.87     1000 
  324000   0.55404793   -2.1197854   0.83024082   -1.2895445   0.13292289     11714.25     1000 
  326000   0.56930495   -2.1356335   0.85310347   -1.2825301   0.13075995    11697.507     1000 
  328000   0.55912623   -2.0419426   0.83785065    -1.204092   0.11825556    11705.277     1000 
  330000   0.56505227   -2.0865947   0.84673083   -1.2398639   0.12738373    11673.262     1000 
  332000   0.56985502    -2.053015   0.85392775   -1.1990872    0.1171179    11835.319     1000 
  334000   0.55556683   -2.0642498    0.8325169   -1.2317329   0.11416554    11651.546     1000 
  336000   0.55629755   -2.0832334   0.83361187   -1.2496215   0.13510447     11637.91     1000 
  338000   0.54751133   -2.0648238   0.82044572   -1.2443781   0.12888445     11671.04     1000 
  340000   0.55884379   -2.0512524   0.83742742    -1.213825   0.13252424    11489.914     1000 
  342000   0.53518445   -2.1170624    0.8019739   -1.3150885   0.13217696    11685.818     1000 
  344000   0.54493295   -2.0708833   0.81658203   -1.2543012    0.1341882     11681.79     1000 
  346000   0.57466594   -2.0917202    0.8611369   -1.2305833   0.13391997    11668.099     1000 
  348000   0.58938315   -2.0625589   0.88319066   -1.1793682   0.13005124    11615.411     1000 
  350000   0.56027088   -2.0889125   0.83956591   -1.2493466   0.11570549    11718.004     1000 
  352000   0.55769968   -2.1577325   0.83571297   -1.3220195   0.12603203     11584.36     1000 
  354000   0.56638977   -2.0760153   0.84873508   -1.2272802   0.12026241    11837.775     1000 
  356000    0.5561092   -2.0543763   0.83332964   -1.2210467   0.13048754    11553.913     1000 
  358000   0.54612195   -2.0385744   0.81836375   -1.2202106   0.13701745    11535.892     1000 
  360000   0.54409975   -2.0837325   0.81533347   -1.2683991   0.14029757    11491.435     1000 
  362000   0.57052257   -2.0798054   0.85492808   -1.2248773   0.13589438    11634.487     1000 
  364000   0.56646974   -2.0265836   0.84885491   -1.1777287   0.13996002    11459.452     1000 
  366000   0.57158623   -2.1285302   0.85652196   -1.2720082    0.1274254    11636.395     1000 
  368000   0.56266472   -2.0693089   0.84315309   -1.2261559   0.12268559     11795.14     1000 
  370000   0.54132878   -2.0695989   0.81118118   -1.2584178   0.13026468    11599.102     1000 
  372000   0.57361572   -2.0448632   0.85956315   -1.1853001   0.11615074    11665.853     1000 
  374000   0.56137397   -2.0718392   0.84121889   -1.2306203   0.12377222    11594.624     1000 
  376000   0.55456826   -2.1062354   0.83102053   -1.2752149   0.14192641    11495.533     1000 
  378000   0.53902894   -2.0453224   0.80773487   -1.2375875   0.13497818    11481.395     1000 
  380000   0.57992229    -2.103679   0.86901355   -1.2346655    0.1383304    11741.618     1000 
  382000   0.54423548   -2.1243415   0.81553687   -1.3088046   0.12805962    11504.813     1000 
  384000    0.5621971   -2.0599908   0.84245235   -1.2175384    0.1412515    11518.133     1000 
  386000   0.55517219   -2.0854064   0.83192553   -1.2534808   0.11558199    11730.172     1000 
  388000   0.55768689   -2.0907572   0.83569381   -1.2550634   0.12392875    11493.609     1000 
  390000   0.57558976   -2.0935824   0.86252126   -1.2310611   0.11511769    11836.317     1000 
  392000   0.55047714   -2.0945273      0.82489   -1.2696373   0.13974807    11669.819     1000 
  394000   0.56029408   -2.1012875   0.83960067   -1.2616869   0.11899239    11806.584     1000 
  396000   0.56507345   -2.0699359   0.84676256   -1.2231733   0.12309718    11567.411     1000 
  398000   0.54591202   -2.0770834   0.81804916   -1.2590343   0.11754268    11611.262     1000 
  400000   0.56834319   -2.0719271   0.85166227   -1.2202649    0.1391265    11531.984     1000 
  402000   0.55786927   -2.0811472    0.8359671   -1.2451801   0.12616626    11549.257     1000 
  404000   0.55710456   -2.0916771   0.83482118   -1.2568559   0.13685899    11624.419     1000 
  406000   0.54557234   -2.1232214   0.81754015   -1.3056812    0.1226666     11725.53     1000 
  408000   0.57625989   -2.1013637   0.86352545   -1.2378382   0.11695739    11756.537     1000 
  410000   0.56610849   -2.0702996   0.84831358    -1.221986   0.13204934     11620.08     1000 
  412000   0.57326868   -2.0943566   0.85904311   -1.2353134   0.13630955    11536.939     1000 
  414000   0.56433605   -2.0878867   0.84565758   -1.2422291   0.13085616    11626.822     1000 
  416000    0.5443401   -2.0762745   0.81569364   -1.2605809   0.12728932    11653.764     1000 
  418000   0.56692306   -2.0869001   0.84953421   -1.2373659   0.12179198     11780.31     1000 
  420000   0.58571711   -2.0583108   0.87769709   -1.1806137   0.14106081     11549.59     1000 
  422000   0.57419666    -2.057221    0.8604337   -1.1967873   0.13262989    11502.592     1000 
  424000   0.54974519   -2.1938464   0.82379317   -1.3700532   0.11130507    11818.958     1000 
  426000   0.56885077   -2.0679164   0.85242288   -1.2154935   0.12147582      11630.3     1000 
  428000   0.58286804   -2.0921881   0.87342776   -1.2187604   0.12130427    11755.225     1000 
  430000   0.54418214   -2.0739755   0.81545694   -1.2585185    0.1319714    11695.899     1000 
  432000   0.55418893   -2.0697023   0.83045211   -1.2392502   0.12530258    11523.305     1000 
  434000   0.56612219   -2.1162005    0.8483341   -1.2678664   0.11318322    11764.705     1000 
  436000   0.55594098   -2.0372449   0.83307756   -1.2041674   0.12650953    11502.221     1000 
  438000   0.53617995    -2.100245   0.80346565   -1.2967794   0.12458453    11593.338     1000 
  440000   0.55881655    -2.095412    0.8373866   -1.2580254   0.13460018    11632.291     1000 
  442000   0.55279322   -2.0962103   0.82836064   -1.2678497   0.12316395    11604.516     1000 
  444000   0.54409288   -2.0766381   0.81532318   -1.2613149    0.1323568    11649.642     1000 
  446000   0.54984336   -2.0432661   0.82394028   -1.2193258   0.12277725    11688.157     1000 
  448000   0.55611649   -2.1078771   0.83334057   -1.2745365    0.1132084    11809.489     1000 
  450000   0.55465452   -2.0064879    0.8311498   -1.1753381   0.13187472    11662.099     1000 
  452000   0.55733643   -2.0726403   0.83516865   -1.2374716    0.1271707    11582.279     1000 
  454000   0.57043313   -2.0205636   0.85479404   -1.1657696    0.1270865    11683.193     1000 
  456000   0.56519128   -2.0581095   0.84693913   -1.2111704   0.13291901    11540.632     1000 
  458000   0.56055306   -2.1165477   0.83998877   -1.2765589   0.12000153    11729.904     1000 
  460000   0.57690001   -2.1248293   0.86448466   -1.2603447   0.12483597    11781.792     1000 
  462000   0.57728943   -2.0331351   0.86506821   -1.1680669    0.1471922    11535.853     1000 
  464000   0.55321732   -2.1043436   0.82899615   -1.2753475   0.13407094    11438.294     1000 
  466000   0.56650878   -2.0767991    0.8489134   -1.2278857   0.12903307    11673.203     1000 
  468000   0.58487086   -2.0339259   0.87642898   -1.1574969   0.12476653    11754.003     1000 
  470000    0.5237143    -2.058919   0.78478588   -1.2741331   0.13334674    11623.871     1000 
  472000   0.56958714     -2.10129   0.85352633   -1.2477637   0.13595756    11534.041     1000 
  474000   0.55649654   -2.1023736   0.83391007   -1.2684635   0.13880654    11535.547     1000 
  476000   0.56679729   -2.1166901   0.84934574   -1.2673444   0.12475924    11711.033     1000 
  478000   0.55823417    -2.070467   0.83651391   -1.2339531   0.13312116     11520.68     1000 
  480000   0.55614264   -2.0800047   0.83337974   -1.2466249   0.12069518    11780.007     1000 
  482000   0.55020477   -2.0497552   0.82448185   -1.2252733   0.13011872     11577.33     1000 
  484000   0.57567664   -2.0866642   0.86265145   -1.2240127   0.12697563     11689.08     1000 
  486000   0.56249689   -2.0712381   0.84290159   -1.2283365   0.12237641    11583.053     1000 
  488000   0.55014562   -2.0967478   0.82439321   -1.2723546   0.13142215    11761.735     1000 
  490000    0.5940464   -2.0757662   0.89017854   -1.1855876   0.12189964    11658.942     1000 
  492000   0.57306012   -2.0414072   0.85873059   -1.1826766   0.14026824    11540.803     1000 
  494000   0.57190969    -2.048953   0.85700667   -1.1919463   0.12083885    11650.552     1000 
  496000   0.55494711   -2.0864291   0.83158824   -1.2548409   0.12872251     11763.13     1000 
  498000   0.55176505   -2.0280941   0.82681992   -1.2012742   0.12361005     11667.35     1000 
  500000    0.5721888   -2.1024088   0.85742492   -1.2449839   0.12898483    11706.181     1000 
  502000   0.56627188   -2.1007029   0.84855841   -1.2521445   0.13843393    11524.427     1000 
  504000   0.56783998   -2.1112207   0.85090821   -1.2603125   0.13445044      11648.8     1000 
  506000   0.57774221   -2.0999964   0.86574671   -1.2342497     0.125892    11711.824     1000 
  508000   0.56569088   -2.0619595   0.84768778   -1.2142717   0.14157112    11551.749     1000 
  510000   0.53446411   -2.0913296   0.80089447   -1.2904351   0.13739229    11542.738     1000 
  512000   0.55644893   -2.1236981   0.83383871   -1.2898594   0.12651446    11689.767     1000 
  514000   0.55262317    -2.119345   0.82810582   -1.2912392   0.12084327    11781.692     1000 
  516000   0.56945614   -2.0834292   0.85333002   -1.2300992   0.11958332    11767.243     1000 
  518000   0.57263117   -2.0827166   0.85808781   -1.2246287   0.12565415    11629.624     1000 
  520000   0.56821046   -2.0689457   0.85146338   -1.2174823   0.13080539    11597.334     1000 
  522000   0.54722538   -2.0752896   0.82001723   -1.2552724   0.13158911    11690.174     1000 
  524000   0.54272726   -2.0900919    0.8132768   -1.2768151   0.10794901    11761.277     1000 
  526000   0.55794779   -2.0269615   0.83608476   -1.1908767   0.13931927    11493.395     1000 
  528000    0.5682396   -2.0654743   0.85150705   -1.2139673   0.13458912    11594.707     1000 
  530000   0.55779926   -2.1070842   0.83586219    -1.271222   0.12901882    11701.898     1000 
  532000   0.57035263   -2.0433211   0.85467342   -1.1886477   0.12443727    11750.155     1000 
  534000    0.5356655    -2.046953   0.80269475   -1.2442582   0.12551783     11606.71     1000 
  536000   0.57174318   -2.1246341   0.85675716   -1.2678769   0.11612572    11782.859     1000 
  538000   0.56568591   -2.1054941   0.84768033   -1.2578138   0.13232406    11586.623     1000 
  540000   0.57085741   -2.0579965   0.85542983   -1.2025666   0.13401899    11544.913     1000 
  542000   0.55610007   -2.0744261   0.83331596   -1.2411101     0.125127    11682.084     1000 
  544000   0.58110043   -2.0782905   0.87077899   -1.2075115    0.1317001    11531.446     1000 
  546000   0.52642708   -2.0911134   0.78885098   -1.3022624   0.13130529    11646.011     1000 
  548000   0.56040486   -2.0642209   0.83976669   -1.2244542   0.13480801    11480.689     1000 
  550000   0.57566066   -2.0442529    0.8626275   -1.1816254   0.12709844    11625.366     1000 
  552000   0.56246957   -2.1169541   0.84286065   -1.2740935   0.13626596     11679.52     1000 
  554000   0.54725236    -2.102147   0.82005767   -1.2820894   0.12983502    11526.632     1000 
  556000   0.54900959   -2.1617322   0.82269087   -1.3390413   0.12561938     11690.12     1000 
  558000   0.55656775    -2.077366   0.83401677   -1.2433492   0.12497117    11606.317     1000 
  560000   0.56748762   -2.0730988    0.8503802   -1.2227186   0.13282085    11631.725     1000 
  562000   0.58242004   -2.1256115   0.87275643   -1.2528551   0.13107007    11631.602     1000 
  564000   0.58587541   -2.1032433   0.87793431    -1.225309   0.11744958    11673.323     1000 
  566000    0.5362464   -2.0852643   0.80356522   -1.2816991   0.12355754    11686.016     1000 
  568000   0.56701298   -2.1536689   0.84966896       -1.304   0.12913978     11666.15     1000 
  570000    0.5671053   -2.1114407    0.8498073   -1.2616334   0.12643552    11646.753     1000 
  572000   0.58071062   -2.0473571   0.87019487   -1.1771622   0.12752838     11680.66     1000 
  574000   0.54384801   -2.1441969   0.81495624   -1.3292407   0.10761364     11924.52     1000 
  576000   0.56289731   -2.0471892   0.84350162   -1.2036876   0.14393868    11525.108     1000 
  578000   0.54860759   -2.0782985   0.82208847   -1.2562101     0.116558    11781.378     1000 
  580000   0.57199949   -2.0747557   0.85714123   -1.2176145   0.13357306    11463.116     1000 
  582000   0.55177228   -2.0143488   0.82683077   -1.1875181   0.13974554    11440.906     1000 
  584000    0.5447154   -2.1657238   0.81625603   -1.3494678   0.12691367    11796.095     1000 
  586000   0.55717357   -2.1343961    0.8349246   -1.2994715   0.12519932    11674.884     1000 
  588000   0.58135386   -2.0818551   0.87115877   -1.2106964   0.14612232    11310.063     1000 
  590000     0.568549   -2.0704771   0.85197068   -1.2185065   0.14539583    11332.304     1000 
  592000   0.55200541   -2.0742092    0.8271801   -1.2470291   0.12852563    11632.982     1000 
  594000   0.57801604   -2.0643668   0.86615704   -1.1982098   0.13241432    11509.586     1000 
  596000   0.54887191   -2.0788004   0.82248456   -1.2563158   0.13052235    11526.229     1000 
  598000   0.59518141   -2.0569742   0.89187934   -1.1650949   0.12597029    11578.087     1000 
  600000   0.53976928   -2.0980267   0.80884426   -1.2891825   0.13275371    11603.485     1000 
  602000   0.56524518   -2.0539872   0.84701991   -1.2069673   0.13016372    11771.099     1000 
  604000   0.55520682   -2.0797444   0.83197742    -1.247767    0.1278577    11594.204     1000 
  606000   0.57508239   -2.0753533   0.86176097   -1.2135923   0.12420101    11688.693     1000 
  608000   0.52078096   -2.1332852   0.78039027   -1.3528949   0.11765081    11744.701     1000 
  610000   0.53991468   -2.1090773   0.80906214   -1.3000151   0.13489797    11612.837     1000 
  612000   0.56527949   -2.0946515   0.84707132   -1.2475801   0.13773654    11563.845     1000 
  614000   0.58175966   -2.0801883   0.87176686   -1.2084215   0.14721498    11520.523     1000 
  616000   0.57847445   -2.0577193   0.86684397   -1.1908754    0.1422705    11362.507     1000 
  618000   0.55994772    -2.063583   0.83908166   -1.2245014   0.13280962    11559.728     1000 
  620000   0.55673602    -2.070945   0.83426893    -1.236676   0.13529047    11569.259     1000 
  622000    0.5526105   -2.0475202   0.82808683   -1.2194334   0.13936341    11586.425     1000 
  624000   0.55203015   -2.1102783   0.82721718   -1.2830611   0.13388011     11576.07     1000 
  626000   0.58750897   -2.0947995    0.8803822   -1.2144173   0.12709983    11747.228     1000 
  628000   0.54871792   -2.0609001    0.8222538   -1.2386463   0.12499619    11708.707     1000 
  630000    0.5657184   -2.0877543   0.84772903   -1.2400253   0.12124972    11674.783     1000 
  632000   0.54948867   -2.0727106   0.82340877   -1.2493018   0.11679588    11745.995     1000 
  634000   0.56209299   -2.1015664   0.84229634   -1.2592701   0.14273878    11628.278     1000 
  636000   0.57057319   -2.0254444   0.85500392   -1.1704405   0.12992965    11602.509     1000 
  638000   0.56378359   -2.1006335    0.8448297   -1.2558038   0.13735072     11383.04     1000 
  640000    0.5618359   -2.0858133   0.84191109   -1.2439022   0.13663037    11541.322     1000 
  642000   0.57298917   -2.0703195   0.85862428   -1.2116952   0.13880606    11586.919     1000 
  644000   0.57167827    -2.062528   0.85665989   -1.2058681   0.12068739    11705.908     1000 
  646000   0.56652519   -2.0920935   0.84893799   -1.2431555   0.12052097    11895.622     1000 
  648000   0.57075065   -2.1341078   0.85526985   -1.2788379   0.13188914    11710.389     1000 
  650000   0.55272508   -2.1437482   0.82825853   -1.3154897   0.13564755    11613.535     1000 
  652000   0.52861882   -2.1035209   0.79213531   -1.3113856   0.11756827    11726.569     1000 
  654000   0.54469515   -2.0405633   0.81622569   -1.2243376   0.13169614    11659.121     1000 
  656000   0.55455657   -2.0974407   0.83100302   -1.2664377   0.11908742    11632.032     1000 
  658000   0.57810608   -2.1029119   0.86629196   -1.2366199   0.12810913    11733.686     1000 
  660000    0.5659333   -2.1087061   0.84805106   -1.2606551    0.1381326    11528.345     1000 
  662000   0.55242261   -2.1322907   0.82780528   -1.3044854   0.12792837    11647.084     1000 
  664000   0.55365203   -2.1144238   0.82964757   -1.2847762   0.12390651    11680.249     1000 
  666000   0.54445226   -2.0329832   0.81586171   -1.2171215   0.14865775    11377.512     1000 
  668000   0.58226805   -2.1189581   0.87252867   -1.2464294   0.13343678     11658.95     1000 
  670000   0.58109456   -2.0506326   0.87077021   -1.1798624   0.13003275    11655.967     1000 
  672000   0.55924936   -2.0337986   0.83803517   -1.1957634    0.1320082    11524.215     1000 
  674000   0.56248467   -2.0822823   0.84288328    -1.239399   0.15110178    11542.591     1000 
  676000   0.56505452   -2.1077302    0.8467342    -1.260996   0.12613758    11679.985     1000 
  678000   0.56253861    -2.137619   0.84296411   -1.2946549   0.13122847     11621.02     1000 
  680000   0.58410392   -2.1362364   0.87527972   -1.2609567   0.12155052    11665.652     1000 
  682000   0.55145447   -2.0827138   0.82635452   -1.2563593   0.13969119      11428.6     1000 
  684000   0.58055997    -2.115935   0.86996912   -1.2459659   0.12214061    11702.487     1000 
  686000   0.54959968   -2.1327191   0.82357512    -1.309144   0.13083853    11727.756     1000 
  688000   0.51908189    -2.065719    0.7778442   -1.2878748   0.12857105    11638.768     1000 
  690000   0.55738927   -2.0835386   0.83524782   -1.2482908   0.12006614    11753.533     1000 
  692000   0.57206665   -2.0683851   0.85724187   -1.2111432   0.14954108    11418.921     1000 
  694000   0.57127855   -2.0808436   0.85606091   -1.2247827    0.1173593    11953.228     1000 
  696000   0.56203139   -2.1140427   0.84220403   -1.2718387   0.13785697    11731.515     1000 
  698000   0.55731601   -2.0469623   0.83513804   -1.2118243   0.14038067    11710.305     1000 
  700000   0.57225186   -2.0786812   0.85751941   -1.2211618   0.13592741    11612.473     1000 
  702000   0.57613198   -2.0569705   0.86333377   -1.1936368    0.1434601    11457.431     1000 
  704000   0.58034858   -2.0927038   0.86965235   -1.2230515   0.12678918    11731.116     1000 
  706000   0.57139366   -2.0873989   0.85623341   -1.2311655   0.12693702    11638.582     1000 
  708000   0.57579845   -2.1242489   0.86283398   -1.2614149   0.14176125     11676.58     1000 
  710000   0.55323242   -2.0716941   0.82901878   -1.2426753   0.13041652    11684.368     1000 
  712000   0.52317997   -2.0535811   0.78398518    -1.269596   0.13469586     11594.88     1000 
  714000   0.56082244   -2.0953577   0.84039242   -1.2549652   0.13889014    11648.382     1000 
  716000   0.54917624   -2.0819514    0.8229406   -1.2590108   0.11773394    11754.251     1000 
  718000   0.57238545   -2.0383493    0.8577196   -1.1806297   0.14635482    11638.257     1000 
  720000   0.56063256   -2.0851171    0.8401079   -1.2450093   0.13125125    11604.673     1000 
  722000   0.55474382   -2.0976938   0.83128362   -1.2664101   0.12590757    11723.581     1000 
  724000    0.5441108   -2.1119402   0.81535003   -1.2965902   0.11932405    11700.529     1000 
  726000   0.56729129   -2.0910695     0.850086   -1.2409835   0.14060453    11624.063     1000 
  728000   0.55185271   -2.1424815   0.82695128   -1.3155302   0.13053948    11805.549     1000 
  730000   0.55204199   -2.0915748   0.82723493   -1.2643399   0.13232583    11564.701     1000 
  732000   0.53659408   -2.0853588   0.80408623   -1.2812726   0.13141602     11798.29     1000 
  734000   0.57981232   -2.0915385   0.86884876   -1.2226897   0.12991407    11673.302     1000 
  736000   0.55134707   -2.1078137   0.82619358   -1.2816201   0.12276675    11719.788     1000 
  738000   0.57761009   -2.1325069   0.86554872   -1.2669582   0.12468534    11750.708     1000 
  740000   0.56156056   -2.1083742    0.8414985   -1.2668758   0.12754266    11626.675     1000 
  742000   0.54967374   -2.1574496    0.8236861   -1.3337635   0.12676873    11783.188     1000 
  744000   0.55256025   -2.1169138   0.82801153   -1.2889023   0.11859307    11491.184     1000 
  746000   0.60138149   -2.0363755   0.90117016   -1.1352054   0.13816119    11526.463     1000 
  748000    0.5642706   -2.0414421    0.8455595   -1.1958826   0.14236017    11407.592     1000 
  750000   0.58197747   -2.0634541   0.87209324   -1.1913608   0.13215978    11751.785     1000 
  752000   0.57847895   -2.0760884   0.86685071   -1.2092376   0.13699432    11681.554     1000 
  754000   0.60211595   -2.0974756   0.90227075   -1.1952048   0.14862986    11626.343     1000 
  756000   0.57257878   -2.0803457   0.85800931   -1.2223364   0.13610514    11615.956     1000 
  758000   0.58087028   -2.0393976   0.87043411   -1.1689635     0.147982    11385.973     1000 
  760000   0.56637155   -2.0636856   0.84870777   -1.2149778   0.12794619    11712.994     1000 
  762000   0.56509728   -2.1007343   0.84679827   -1.2539361   0.11786517    11659.275     1000 
  764000    0.5700992     -2.05276   0.85429366   -1.1984663   0.12708573    11739.756     1000 
  766000   0.57600708   -2.1278332   0.86314661   -1.2646866   0.12278379    11685.503     1000 
  768000   0.55675388   -2.0875661   0.83429569   -1.2532704   0.13475474    11658.171     1000 
  770000   0.55756299   -2.0482687   0.83550814   -1.2127606   0.14025608    11645.232     1000 
  772000   0.57334315   -2.0857073   0.85915471   -1.2265526    0.1476804    11501.579     1000 
  774000   0.56037177    -2.085307    0.8397171   -1.2455899   0.14568314    11520.839     1000 
  776000   0.53649087   -2.0826194   0.80393157   -1.2786878   0.13970524    11556.947     1000 
  778000   0.53555841   -2.0423786   0.80253428   -1.2398443   0.13584487    11599.494     1000 
  780000   0.57184279   -2.0878194   0.85690641    -1.230913   0.13064328    11558.395     1000 
  782000   0.56936787   -2.0865741   0.85319775   -1.2333764   0.13951876    11671.558     1000 
  784000    0.5501191   -2.0766152   0.82435347   -1.2522617    0.1309852    11591.378     1000 
  786000   0.56339692   -2.0392573   0.84425029   -1.1950071   0.12547606    11524.218     1000 
  788000   0.54519291   -2.0736926   0.81697157    -1.256721   0.12226608    11769.595     1000 
  790000   0.53488993   -2.1045218   0.80153255   -1.3029892   0.13420674     11745.47     1000 
  792000   0.58271915    -2.049908   0.87320464   -1.1767034   0.12166729    11776.545     1000 
  794000   0.56608242   -2.0968626   0.84827451   -1.2485881    0.1370173    11603.179     1000 
  796000   0.55308682   -2.0964497   0.82880059   -1.2676491   0.12342307      11711.3     1000 
  798000   0.57702157   -2.0991736   0.86466682   -1.2345067   0.12005276    11768.609     1000 
  800000    0.5490813   -2.0937513   0.82279833   -1.2709529   0.14104177    11611.488     1000 
  802000   0.55554451   -2.0809566   0.83248345   -1.2484732    0.1223192    11653.104     1000 
  804000   0.57648229   -2.0844691   0.86385871   -1.2206103     0.123465    11542.763     1000 
  806000   0.54419402   -2.0897407   0.81547474    -1.274266   0.13621301    11541.658     1000 
  808000    0.5526819   -2.0299236   0.82819383   -1.2017298   0.14913344    11506.326     1000 
  810000   0.55419946   -2.0659239   0.83046789    -1.235456   0.12958846    11504.139     1000 
  812000   0.58357402   -2.1130742   0.87448568   -1.2385885   0.12230735     11805.34     1000 
  814000   0.55784037   -2.0845919   0.83592379   -1.2486681   0.14729308      11586.3     1000 
  816000   0.54956074   -2.0850108   0.82351677   -1.2614941   0.13413495    11454.942     1000 
  818000   0.54079945   -2.0346874   0.81038797   -1.2242994   0.12696208    11561.091     1000 
  820000   0.58375365   -2.0728307   0.87475485   -1.1980759    0.1456438    11679.125     1000 
  822000   0.58700505   -2.1007593   0.87962707   -1.2211322   0.12331326    11653.404     1000 
  824000   0.57185235   -2.0268801   0.85692075   -1.1699594   0.12698204     11629.75     1000 
  826000   0.54903775   -2.1062524   0.82273306   -1.2835193   0.13859357    11438.448     1000 
  828000   0.54761645   -2.0545404   0.82060325   -1.2339372   0.13514108    11564.744     1000 
  830000    0.5773757   -2.0371928   0.86519749   -1.1719953   0.13948526    11578.205     1000 
  832000   0.55875531   -2.0711151   0.83729483   -1.2338203   0.12238874     11706.35     1000 
  834000   0.54994685   -2.0897667   0.82409536   -1.2656713   0.14325872    11441.134     1000 
  836000   0.56735112   -2.0787531   0.85017566   -1.2285774   0.11903576     11785.12     1000 
  838000   0.55662444   -2.1363142   0.83410172   -1.3022124   0.12060784    11683.292     1000 
  840000   0.53890386   -2.0961863   0.80754744   -1.2886388   0.12789383    11630.309     1000 
  842000   0.55666907   -2.1075275    0.8341686   -1.2733589   0.12540022    11770.843     1000 
  844000   0.54087976   -2.0532564   0.81050833   -1.2427481   0.13494018    11619.186     1000 
  846000   0.54598249   -2.0612958   0.81815476   -1.2431411   0.11650076    11768.149     1000 
  848000   0.59594466   -2.0835356   0.89302307   -1.1905125   0.13400722    11698.205     1000 
  850000   0.55730363   -2.1036115   0.83511949    -1.268492   0.11863586     11754.71     1000 
  852000   0.56281777    -2.068432   0.84338243   -1.2250496   0.13254325     11649.69     1000 
  854000   0.54837087    -2.106928   0.82173375   -1.2851943   0.14226077    11662.403     1000 
  856000    0.5221196   -2.0435646   0.78239622   -1.2611684   0.12862757    11488.417     1000 
  858000    0.5593346   -2.1057508    0.8381629   -1.2675879   0.12852252     11672.89     1000 
  860000   0.54554412   -2.0916413   0.81749787   -1.2741434   0.12381005     11659.65     1000 
  862000   0.56587512   -2.0677778   0.84796387   -1.2198139   0.11215278    11751.988     1000 
  864000   0.54252042   -2.1209813   0.81296685   -1.3080145   0.13980807    11586.194     1000 
  866000    0.5628839   -2.1066268   0.84348152   -1.2631453   0.12814752    11525.991     1000 
  868000   0.55147036    -2.074118   0.82637834   -1.2477396   0.13241737    11587.696     1000 
  870000     0.577416   -2.0658986   0.86525787   -1.2006407   0.13964421    11594.147     1000 
  872000   0.56592457   -2.0744587   0.84803796   -1.2264207   0.13988747    11573.685     1000 
  874000   0.54081872   -2.0669648   0.81041685    -1.256548    0.1309614     11550.29     1000 
  876000   0.54720222   -2.0598085   0.81998252    -1.239826    0.1389534    11508.266     1000 
  878000   0.57877665   -2.1022226    0.8672968   -1.2349258   0.12089857    11664.599     1000 
  880000   0.55891824   -2.0599955   0.83753898   -1.2224565   0.12110328    11506.161     1000 
  882000   0.57538914   -2.1346385   0.86222062   -1.2724179   0.11784314    11784.184     1000 
  884000   0.55153361   -2.0758092   0.82647312   -1.2493361   0.13295177     11751.38     1000 
  886000   0.55087798   -2.1028872   0.82549065   -1.2773965   0.15306351    11410.096     1000 
  888000   0.55390631   -2.0625932   0.83002861   -1.2325646   0.13822477    11610.835     1000 
  890000   0.56764108   -2.0907835   0.85061016   -1.2401733   0.13101869     11679.04     1000 
  892000   0.56293348   -2.0548556   0.84355582   -1.2112998    0.1292026    11643.248     1000 
  894000   0.56688661   -2.0691627   0.84947958   -1.2196832   0.12184354    11855.921     1000 
  896000   0.53912468   -2.1240412   0.80787833   -1.3161629   0.12520631    11592.927     1000 
  898000   0.56656865   -2.0804352   0.84900312   -1.2314321   0.11931838    11793.154     1000 
  900000   0.55464947   -2.0586903   0.83114223   -1.2275481   0.12233634    11652.892     1000 
  902000   0.55394757   -2.1279088   0.83009043   -1.2978183   0.12394836    11631.479     1000 
  904000   0.54475046   -2.0893982   0.81630856   -1.2730897    0.1329926    11665.798     1000 
  906000   0.56281625   -2.0439259   0.84338015   -1.2005457   0.11854767    11647.642     1000 
  908000   0.55939345   -2.1359574   0.83825109   -1.2977063   0.12504656    11492.879     1000 
  910000    0.5570476   -2.0603489   0.83473583   -1.2256131   0.11931765    11677.436     1000 
  912000   0.55908658    -2.073864   0.83779124   -1.2360728   0.12054113    11675.749     1000 
  914000    0.5682972   -2.1066283   0.85159336    -1.255035   0.12180658    11592.243     1000 
  916000   0.53632667   -2.0088979   0.80368552   -1.2052124    0.1252503    11576.676     1000 
  918000    0.5784119    -2.126587   0.86675024   -1.2598367   0.14625991    11587.401     1000 
  920000   0.57773347   -2.0934824    0.8657336   -1.2277488   0.13195564    11779.279     1000 
  922000   0.56269772   -2.0879393   0.84320254   -1.2447367   0.11883953    11735.996     1000 
  924000   0.55815392   -2.0464718   0.83639365   -1.2100781   0.13438175    11467.993     1000 
  926000   0.57471319   -2.0274099   0.86120772   -1.1662022   0.13193454    11498.684     1000 
  928000   0.59146316   -2.0769844   0.88630754   -1.1906769   0.12777924    11611.524     1000 
  930000    0.5480085    -2.129147   0.82119074   -1.3079563   0.11460323    11854.279     1000 
  932000   0.56415931   -2.0637231   0.84539273   -1.2183304   0.12957195    11576.804     1000 
  934000   0.56281769   -2.0813085   0.84338231   -1.2379262   0.12411704    11754.557     1000 
  936000   0.55295607   -2.0807622   0.82860467   -1.2521575   0.14163411    11472.579     1000 
  938000   0.55613741   -2.0619924   0.83337191   -1.2286205   0.14313222    11418.787     1000 
  940000   0.54937184   -2.0832711    0.8232337   -1.2600374   0.12980445     11483.09     1000 
  942000    0.5689329   -2.0275634   0.85254596   -1.1750174   0.12928741    11630.998     1000 
  944000   0.55207866   -2.0695084   0.82728987   -1.2422185   0.11598293    11630.935     1000 
  946000   0.54905169   -2.1219126   0.82275396   -1.2991586   0.11738331    11757.093     1000 
  948000   0.57599196   -2.0606872   0.86312395   -1.1975633   0.13740805    11597.713     1000 
  950000    0.5587396   -2.0883525   0.83727129   -1.2510812    0.1182253    11782.984     1000 
  952000   0.55789939   -2.0575272   0.83601224   -1.2215149   0.12574632    11566.194     1000 
  954000   0.57426802   -2.1102519   0.86054062   -1.2497112   0.14714564    11571.917     1000 
  956000   0.56369177   -2.0867752   0.84469211   -1.2420831   0.14011497    11587.569     1000 
  958000   0.53846255   -2.0642211   0.80688613    -1.257335   0.13953669    11711.056     1000 
  960000   0.55664835      -2.0877   0.83413755   -1.2535625    0.1318286    11622.449     1000 
  962000   0.55418973   -2.0480682   0.83045332   -1.2176149   0.13525501     11711.96     1000 
  964000    0.5287848   -2.0909367   0.79238402   -1.2985527   0.13296095    11585.987     1000 
  966000   0.55170921   -2.1047806   0.82673626   -1.2780443   0.12159711    11820.748     1000 
  968000   0.56976763   -2.1169869   0.85379679   -1.2631901   0.14122147     11658.84     1000 
  970000   0.55082468   -2.0254369   0.82541078   -1.2000261   0.12224041    11756.782     1000 
  972000   0.55460987   -2.0778553   0.83108288   -1.2467724   0.13377289    11634.718     1000 
  974000   0.56257324   -2.1093004     0.843016   -1.2662844   0.11528288    11766.943     1000 
  976000   0.58421876   -2.0766475   0.87545182   -1.2011957   0.12470518    11761.838     1000 
  978000   0.56222662   -2.0860501   0.84249659   -1.2435535   0.15029588    11435.688     1000 
  980000   0.59480658   -2.0749575   0.89131765   -1.1836398   0.12141559    11762.931     1000 
  982000   0.59368952   -2.1108242   0.88964374   -1.2211804   0.12969962    11693.127     1000 
  984000   0.55621413   -2.0926227   0.83348687   -1.2591358   0.13252662    11582.115     1000 
  986000    0.5619528   -2.0703958   0.84208628   -1.2283095   0.15307058    11513.623     1000 
  988000   0.56611239   -2.0620909   0.84831941   -1.2137715   0.12738097    11699.055     1000 
  990000    0.5499563   -2.0629956   0.82410951   -1.2388861    0.1508201    11562.485     1000 
  992000   0.57487643   -2.0484155   0.86145233   -1.1869632   0.14287542    11551.982     1000 
  994000   0.57221439   -2.0723203   0.85746326   -1.2148571   0.12412276    11517.241     1000 
  996000   0.55536472   -2.0613721   0.83221403    -1.229158   0.12701681    11636.747     1000 
  998000   0.54234275    -2.105957   0.81270062   -1.2932564   0.11250812     11713.39     1000 
 1000000   0.56357172   -2.0999524   0.84451223   -1.2554402   0.12556323    11603.487     1000 
 1002000   0.55657138   -2.0829847   0.83402221   -1.2489625   0.13404833    11607.158     1000 
 1004000   0.56705289   -2.1284776   0.84972875   -1.2787489    0.1223405    11736.874     1000 
 1006000   0.55517142    -2.089446   0.83192438   -1.2575216   0.13884855    11545.853     1000 
 1008000   0.54626829   -2.1234364   0.81858304   -1.3048534   0.12617039    11605.966     1000 
 1010000   0.55995816   -2.0507816   0.83909731   -1.2116843   0.13218526    11568.016     1000 
 1012000   0.56006161   -2.0452618   0.83925232   -1.2060095   0.13680426    11660.021     1000 
 1014000   0.56081889   -2.0290373    0.8403871   -1.1886502   0.13982698    11794.931     1000 
 1016000   0.54972754   -2.0224479   0.82376672   -1.1986812   0.13650597    11449.818     1000 
 1018000   0.57208973   -2.0951906   0.85727646   -1.2379142   0.12428795    11669.535     1000 
 1020000   0.57240613   -2.1170644   0.85775058   -1.2593139   0.13962516    11609.044     1000 
 1022000   0.54871772   -2.0654423   0.82225351   -1.2431888   0.13813709    11374.839     1000 
 1024000   0.55765945   -2.0864624   0.83565269   -1.2508097   0.13982868    11636.667     1000 
 1026000   0.57937135   -2.0486076   0.86818797   -1.1804196   0.12775944    11612.292     1000 
 1028000   0.55693017   -2.0894304   0.83455986   -1.2548706   0.11987635    11776.114     1000 
 1030000   0.53869241    -2.096294   0.80723058   -1.2890634   0.12662713    11582.458     1000 
 1032000   0.58276826   -2.1324605   0.87327824   -1.2591823   0.12121617    11645.119     1000 
 1034000   0.55029938   -2.0881819   0.82462362   -1.2635582   0.13250238    11532.557     1000 
 1036000   0.53422087   -2.0547205   0.80052998   -1.2541905   0.13018005    11600.221     1000 
 1038000   0.55184555   -2.0872372   0.82694055   -1.2602966   0.13040724    11484.572     1000 
 1040000   0.53104943   -2.0648518   0.79577757   -1.2690743   0.13056167    11564.827     1000 
 1042000   0.53146229   -2.1339429   0.79639624   -1.3375467   0.12536733    11574.219     1000 
 1044000   0.55733758   -2.0468046   0.83517037   -1.2116343   0.15042573    11569.911     1000 
 1046000   0.58062457   -2.0978511   0.87006591   -1.2277852    0.1250295    11621.479     1000 
 1048000   0.52434542   -2.0802566   0.78573161   -1.2945249   0.12985417    11505.926     1000 
 1050000   0.55458866   -2.0752559   0.83105111   -1.2442047   0.13258987    11626.181     1000 
 1052000   0.53676872   -2.0679946   0.80434792   -1.2636466   0.11819272      11667.5     1000 
 1054000   0.54553982   -2.1477191   0.81749143   -1.3302277   0.13582223    11756.066     1000 
 1056000   0.58146172   -2.0700594   0.87132039    -1.198739   0.13509186    11581.624     1000 
 1058000   0.56536479   -2.1085126   0.84719914   -1.2613134   0.13540239    11711.659     1000 
 1060000   0.56397207   -2.1049245   0.84511214   -1.2598123   0.13049662    11675.965     1000 
 1062000   0.56510445   -2.0869667   0.84680902   -1.2401577   0.13229625    11736.427     1000 
 1064000   0.56761806   -2.1360152   0.85057566   -1.2854395   0.13544379    11626.091     1000 
 1066000   0.55994001   -2.0423725    0.8390701   -1.2033024   0.12845434    11484.949     1000 
 1068000   0.59673853   -2.0397456   0.89421269    -1.145533   0.13622619    11631.487     1000 
 1070000   0.55842106    -2.076228   0.83679396   -1.2394341   0.12096238    11652.061     1000 
 1072000   0.56238825   -2.0659083    0.8427388   -1.2231695   0.13123011    11475.091     1000 
 1074000   0.56145986   -2.0749574    0.8413476   -1.2336098    0.1338605    11585.514     1000 
 1076000   0.57033794    -2.121164    0.8546514   -1.2665126   0.12596598    11724.751     1000 
 1078000   0.57356308   -2.0709547   0.85948428   -1.2114704   0.12692284    11594.707     1000 
 1080000   0.54328056   -2.0379906   0.81410592   -1.2238847   0.13090731    11576.175     1000 
 1082000   0.53831812   -2.1400998   0.80666971   -1.3334301   0.11941575    11587.719     1000 
 1084000   0.55324933   -2.0735178   0.82904412   -1.2444737   0.13712527    11643.027     1000 
 1086000   0.56660845    -2.088524   0.84906276   -1.2394613   0.13937203    11506.094     1000 
 1088000   0.55962073   -2.0349889   0.83859166   -1.1963972   0.13479677    11378.588     1000 
 1090000   0.55799053   -2.1457672   0.83614882   -1.3096183   0.13466866    11794.613     1000 
 1092000   0.53929247   -2.0655349   0.80812976   -1.2574052   0.14067773     11560.32     1000 
 1094000   0.53425873   -2.0871543   0.80058671   -1.2865675   0.13241724    11578.233     1000 
 1096000   0.55681649   -2.1012091   0.83438951   -1.2668196   0.14169903    11539.539     1000 
 1098000   0.55739748   -2.0561659   0.83526012   -1.2209057   0.14615411    11535.494     1000 
 1100000   0.54615253    -2.102085   0.81840956   -1.2836754   0.13704305     11513.33     1000 
 1102000    0.5586437   -2.1154805   0.83712759   -1.2783529   0.12928772    11597.287     1000 
 1104000   0.57402726   -2.0558326   0.86017986   -1.1956528   0.12544975    11649.687     1000 
 1106000   0.55868293   -2.0896416   0.83718637   -1.2524552   0.12648265    11596.533     1000 
 1108000   0.55925475   -2.0959207   0.83804324   -1.2578775   0.12905238    11673.161     1000 
 1110000   0.54845777   -2.1247343   0.82186397   -1.3028703   0.13055672    11750.633     1000 
 1112000   0.57016213    -2.133807   0.85438796    -1.279419   0.12989977    11748.541     1000 
 1114000   0.55257455   -2.0900973   0.82803296   -1.2620644   0.12826716    11608.158     1000 
 1116000   0.54180298    -2.120983   0.81189176   -1.3090912   0.13779669    11552.718     1000 
 1118000   0.53606233   -2.0996996    0.8032894   -1.2964102   0.12583989    11605.073     1000 
 1120000   0.55096948   -2.1210354   0.82562776   -1.2954077   0.11365388    11679.458     1000 
 1122000   0.56755864   -2.1190335   0.85048663   -1.2685469     0.132368    11692.724     1000 
 1124000   0.55906045   -2.1098923   0.83775208   -1.2721402   0.14234251    11560.917     1000 
 1126000   0.56769925   -2.1015623   0.85069732    -1.250865   0.12501061    11629.805     1000 
 1128000   0.55424486     -2.02317   0.83053592   -1.1926341   0.13105143    11724.108     1000 
 1130000   0.54824018   -2.0654156   0.82153791   -1.2438777   0.13551362    11724.893     1000 
 1132000   0.57714837   -2.1419397   0.86485683   -1.2770829   0.13597588    11559.495     1000 
 1134000   0.55400013   -2.1211629   0.83016919   -1.2909937   0.14151028    11781.198     1000 
 1136000   0.56447296   -2.0927265   0.84586273   -1.2468638   0.13031054    11581.416     1000 
 1138000   0.57766428   -2.0428809   0.86562992    -1.177251   0.14177425    11544.901     1000 
 1140000   0.56035433   -2.1125775   0.83969096   -1.2728866   0.12117024    11869.118     1000 
 1142000   0.56914587   -2.0690395   0.85286509   -1.2161744   0.12983806    11596.858     1000 
 1144000   0.54920274   -2.0640912    0.8229803   -1.2411109   0.14295295    11431.873     1000 
 1146000   0.55550794   -2.0818052   0.83242865   -1.2493766   0.12125591    11682.802     1000 
 1148000   0.54717234   -2.0749583   0.81993776   -1.2550205   0.11273847    11856.568     1000 
 1150000   0.55042618   -2.0935839   0.82481363   -1.2687703   0.11074406    12005.482     1000 
 1152000   0.54567298   -2.0792829   0.81769097   -1.2615919   0.12079829    11481.703     1000 
 1154000   0.55862993   -2.0314823   0.83710695   -1.1943753   0.13673486    11387.745     1000 
 1156000   0.59428774   -2.1084322   0.89054018    -1.217892   0.14546822    11553.327     1000 
 1158000   0.56221102   -2.0669157   0.84247321   -1.2244425   0.13699025     11508.13     1000 
 1160000   0.55264362   -2.0693053   0.82813646   -1.2411689   0.13807424    11521.914     1000 
 1162000   0.57344168    -2.111244   0.85930236   -1.2519417   0.13162129     11790.16     1000 
 1164000   0.58768566   -2.1172006   0.88064697   -1.2365536   0.13489017    11586.812     1000 
 1166000   0.55145117   -2.0583601   0.82634958   -1.2320106   0.14454229    11532.012     1000 
 1168000   0.56525257   -2.1111697   0.84703098   -1.2641388   0.12256923     11775.68     1000 
 1170000   0.55667334   -2.1012677   0.83417499   -1.2670927   0.13848945    11852.082     1000 
 1172000    0.5687551   -2.0926004   0.85227951   -1.2403209   0.12217859    11649.919     1000 
 1174000   0.58407022   -2.1005906   0.87522922   -1.2253614   0.12423314    11666.259     1000 
 1176000   0.56406566   -2.0898103   0.84525239   -1.2445579   0.13025712    11524.185     1000 
 1178000   0.57963109   -2.0478979   0.86857718   -1.1793207   0.13251256    11523.745     1000 
 1180000    0.5600749   -2.1509244   0.83927223   -1.3116522   0.10892614    11874.846     1000 
 1182000    0.5605935   -2.1101262   0.84004937   -1.2700768   0.14089354    11600.453     1000 
 1184000   0.53954414   -2.1027057    0.8085069   -1.2941988   0.12892654    11565.255     1000 
 1186000   0.55383332   -2.0719331   0.82991923   -1.2420139   0.13588282    11426.485     1000 
 1188000   0.56674194   -2.0819329   0.84926279   -1.2326701   0.13423719    11565.838     1000 
 1190000   0.52833308   -2.1016679   0.79170713   -1.3099608   0.12911017     11607.76     1000 
 1192000   0.57152882   -2.0252201   0.85643593   -1.1687842   0.11940623     11665.77     1000 
 1194000   0.55844279   -2.0418216   0.83682652   -1.2049951   0.13182081    11547.361     1000 
 1196000    0.5536535   -2.0722932   0.82964977   -1.2426435   0.12886413    11604.999     1000 
 1198000   0.54942536   -2.0955176    0.8233139   -1.2722037   0.12853277    11708.612     1000 
 1200000   0.56877283   -2.1126769   0.85230609   -1.2603708   0.12179066    11914.654     1000 
 1202000   0.55909122   -2.0912233   0.83779819   -1.2534251   0.12649475    11659.768     1000 
 1204000    0.5393641   -2.0446577    0.8082371   -1.2364206   0.13138896    11600.523     1000 
 1206000   0.56941351    -2.039314   0.85326615   -1.1860478   0.13134006    11585.747     1000 
 1208000   0.55586945   -2.0843625   0.83297037   -1.2513921   0.12925372    11690.164     1000 
 1210000   0.57923251   -2.1032181   0.86797992   -1.2352382   0.13287783    11628.466     1000 
 1212000   0.56085156   -2.0601374   0.84043606   -1.2197013   0.12787441    11623.546     1000 
 1214000    0.5828209   -2.1366818   0.87335712   -1.2633247   0.12321708    11593.814     1000 
 1216000   0.54647259   -2.0920054   0.81888917   -1.2731162   0.12042099    11742.309     1000 
 1218000   0.60323485   -2.1295867   0.90394743   -1.2256393   0.13600896    11674.268     1000 
 1220000   0.54667064   -2.0853574   0.81918595   -1.2661715   0.12769449    11567.991     1000 
 1222000   0.55965652   -2.1186986    0.8386453   -1.2800533   0.14320896    11512.066     1000 
 1224000   0.55886202   -2.0729973   0.83745473   -1.2355425   0.11145442     11732.98     1000 
 1226000   0.56758815   -2.0568989   0.85053084    -1.206368   0.12237805    11645.891     1000 
 1228000   0.55263084   -2.0843096   0.82811731   -1.2561923    0.1308496    11638.657     1000 
 1230000   0.58740137   -2.0976839   0.88022095    -1.217463   0.12310035    11688.863     1000 
 1232000   0.56518687   -2.1125914   0.84693253   -1.2656589   0.12533252    11839.075     1000 
 1234000   0.55594148   -2.0482257   0.83307831   -1.2151474   0.13233209    11611.847     1000 
 1236000   0.55274788   -2.0398485    0.8282927   -1.2115558   0.14087107    11586.021     1000 
 1238000   0.55504665    -2.091848   0.83173741   -1.2601106   0.14057228    11637.952     1000 
 1240000   0.54369007   -2.0884169   0.81471958   -1.2736974   0.13300967    11622.473     1000 
 1242000   0.55445935   -2.0864947   0.83085734   -1.2556373   0.12672443    11671.014     1000 
 1244000   0.54994887   -2.0763365   0.82409838   -1.2522381   0.12673537    11548.886     1000 
 1246000   0.55563076   -2.0921045   0.83261269   -1.2594918   0.12655669    11645.697     1000 
 1248000   0.52963242   -2.1193332   0.79365419    -1.325679   0.13094363    11678.861     1000 
 1250000   0.54392857   -2.0753478   0.81507696   -1.2602708   0.11446457    11864.919     1000 
 1252000   0.57171285   -2.1300625    0.8567117   -1.2733508   0.12079374    11720.899     1000 
 1254000   0.54447972    -2.062292   0.81590286   -1.2463891   0.14092808    11435.835     1000 
 1256000    0.5566051   -2.0691374   0.83407274   -1.2350646   0.14020719     11424.43     1000 
 1258000   0.54381833    -2.132955   0.81491177   -1.3180432   0.11133743    11773.579     1000 
 1260000   0.58210244   -2.0833428   0.87228051   -1.2110623   0.13403971    11518.691     1000 
 1262000   0.54029793   -2.1258165   0.80963645     -1.31618    0.1266329    11616.275     1000 
 1264000   0.57696018   -2.0728791   0.86457483   -1.2083042   0.12923384    11529.036     1000 
 1266000   0.55959208   -2.0087439   0.83854873   -1.1701951   0.13811993     11395.28     1000 
 1268000   0.53922209   -2.1093313   0.80802431    -1.301307   0.13360232    11565.294     1000 
 1270000   0.58757315    -2.029821   0.88047836   -1.1493427   0.14294915    11410.356     1000 
 1272000   0.58671163   -2.0820817   0.87918738   -1.2028943    0.1399475    11540.078     1000 
 1274000   0.60306194   -2.0815855   0.90368832   -1.1778972   0.12818225     11644.72     1000 
 1276000   0.57555745    -2.073596   0.86247284   -1.2111232   0.13706654    11559.718     1000 
 1278000   0.56999695   -2.1090669   0.85414043   -1.2549265    0.1317712    11735.007     1000 
 1280000   0.58063113   -2.0882021   0.87007574   -1.2181263   0.13512701    11635.694     1000 
 1282000   0.55867279   -2.0423853   0.83717118   -1.2052141   0.14475845    11500.374     1000 
 1284000   0.55808437   -2.0998191   0.83628942   -1.2635296   0.11935619    11695.585     1000 
 1286000   0.57514392   -2.0567002   0.86185317   -1.1948471   0.12185547    11802.075     1000 
 1288000   0.56366603   -2.0470975   0.84465355   -1.2024439   0.13097794    11535.814     1000 
 1290000   0.56161755   -2.1187808    0.8415839   -1.2771969   0.13253528    11650.042     1000 
 1292000   0.54665206   -2.1258991   0.81915811    -1.306741    0.1300171    11572.517     1000 
 1294000   0.54836656    -2.100736   0.82172728   -1.2790087   0.11104141    11687.441     1000 
 1296000   0.56872255    -2.081037   0.85223074   -1.2288063   0.12543885    11751.659     1000 
 1298000   0.57526447   -2.0630728   0.86203381    -1.201039   0.13871211    11453.141     1000 
 1300000   0.54853235   -2.0560556   0.82197573   -1.2340799   0.12439031    11579.541     1000 
 1302000    0.5714297   -2.1207793   0.85628741   -1.2644919   0.13173837    11678.026     1000 
 1304000   0.54454017   -2.0768225   0.81599345    -1.260829   0.13832367    11684.733     1000 
 1306000   0.54682843   -2.0726777    0.8194224   -1.2532553   0.13115254    11586.615     1000 
 1308000   0.54865103   -2.0904658   0.82215357   -1.2683123    0.1386884     11490.04     1000 
 1310000   0.55218347   -2.0081429   0.82744693    -1.180696   0.13094763    11547.477     1000 
 1312000   0.56536001   -2.0775208   0.84719197   -1.2303288   0.13685209    11509.386     1000 
 1314000   0.55391098   -2.0670353    0.8300356   -1.2369997   0.13325163    11656.609     1000 
 1316000   0.57452219   -2.0369536    0.8609215   -1.1760321   0.14281297     11499.78     1000 
 1318000   0.58408296    -2.055297   0.87524831   -1.1800487   0.13981196    11460.043     1000 
 1320000   0.55479472   -2.0628954   0.83135988   -1.2315355   0.13816418    11575.757     1000 
 1322000   0.54620442   -2.1031621   0.81848732   -1.2846748   0.13121275    11484.372     1000 
 1324000   0.53407039   -2.0950763   0.80030448   -1.2947718   0.11881076    11766.994     1000 
 1326000   0.55856853   -2.0508418   0.83701494   -1.2138269   0.13475539    11669.466     1000 
 1328000   0.55770365   -2.1212009   0.83571892    -1.285482   0.12506927    11824.467     1000 
 1330000   0.52889259   -2.1014178   0.79254555   -1.3088723   0.12108204    11664.803     1000 
 1332000   0.55273399   -2.1020444   0.82827188   -1.2737725   0.12792801    11588.722     1000 
 1334000   0.56048548   -2.0808605   0.83988749    -1.240973   0.13926804    11653.793     1000 
 1336000   0.52863105   -2.1629469   0.79215363   -1.3707932   0.12228632    11735.534     1000 
 1338000    0.5670797   -2.0688562   0.84976893   -1.2190872   0.12444195    11690.235     1000 
 1340000   0.57498076    -2.041822   0.86160867   -1.1802133   0.11969445    11809.492     1000 
 1342000   0.53451897   -2.0231519   0.80097668   -1.2221753   0.12895113    11701.122     1000 
 1344000   0.56815652   -2.0403705   0.85138255    -1.188988   0.12167388    11618.104     1000 
 1346000   0.55804095   -2.0958411   0.83622436   -1.2596168   0.13228907    11498.551     1000 
 1348000   0.54446511   -2.1026149   0.81588096   -1.2867339   0.13512804    11479.339     1000 
 1350000   0.54602568   -2.0761033   0.81821948   -1.2578838   0.12271299    11675.968     1000 
 1352000   0.56799478   -2.0722803   0.85114018   -1.2211401   0.12143639    11679.294     1000 
 1354000   0.54890008   -2.0891453   0.82252676   -1.2666186   0.12058711    11673.915     1000 
 1356000   0.56388508   -2.1049318    0.8449818     -1.25995   0.13709902     11566.61     1000 
 1358000    0.5664248   -2.0878296   0.84878756    -1.239042   0.12721872    11637.081     1000 
 1360000   0.54543636   -2.0715612   0.81733639   -1.2542248   0.12954551    11561.612     1000 
 1362000   0.55592702   -2.0541926   0.83305664    -1.221136   0.15455289    11544.614     1000 
 1364000   0.54379147   -2.1235682   0.81487151   -1.3086967    0.1293618    11755.095     1000 
 1366000   0.53472197   -2.1327336   0.80128087   -1.3314527   0.14014723    11412.049     1000 
 1368000   0.55110562   -2.0834387   0.82583178    -1.257607   0.13358851    11707.475     1000 
 1370000   0.54980737   -2.0844557   0.82388634   -1.2605693   0.14870988    11558.777     1000 
 1372000   0.55700106   -2.0591336   0.83466608   -1.2244675   0.13260355    11512.364     1000 
 1374000   0.58485716   -2.1150466   0.87640846   -1.2386381   0.12974162    11601.584     1000 
 1376000   0.54507382     -2.06454   0.81679312   -1.2477469   0.12444401    11667.502     1000 
 1378000   0.54914548   -2.0864814   0.82289451   -1.2635869   0.12055524    11592.058     1000 
 1380000   0.53642787   -2.0767347   0.80383716   -1.2728975   0.14142376    11463.878     1000 
 1382000   0.58795357   -2.1389913   0.88104843   -1.2579429    0.1218501    11785.695     1000 
 1384000   0.58091032    -2.118299   0.87049411   -1.2478049   0.12954138    11696.192     1000 
 1386000    0.5492727   -2.0246371   0.82308514   -1.2015519   0.13230047    11650.606     1000 
 1388000   0.56908605   -2.0702331   0.85277544   -1.2174576   0.12749816    11629.439     1000 
 1390000   0.55262906   -2.0622504   0.82811465   -1.2341358   0.11900996    11688.806     1000 
 1392000   0.56240954   -2.0575956    0.8427707   -1.2148249   0.13309842    11686.231     1000 
 1394000   0.60723936   -2.0530459   0.90994818   -1.1430977   0.13296894    11589.312     1000 
 1396000   0.57929779   -2.0403467   0.86807774   -1.1722689     0.138974      11623.4     1000 
 1398000   0.54446142   -2.0721579   0.81587543   -1.2562825   0.12252818     11686.31     1000 
 1400000   0.55738125   -2.0552706    0.8352358   -1.2200348   0.12786957    11690.788     1000 
 1402000   0.55794929   -2.1069605     0.836087   -1.2708735   0.12114808     11734.83     1000 
 1404000   0.56414905   -2.1050261   0.84537736   -1.2596488   0.13309306    11653.401     1000 
 1406000   0.55219323   -2.0453511   0.82746156   -1.2178895   0.14797721    11346.644     1000 
 1408000   0.53157826   -2.1125617   0.79657002   -1.3159917   0.13155718    11624.549     1000 
 1410000   0.56335295   -2.0543152   0.84418439   -1.2101308   0.12867765    11641.589     1000 
 1412000   0.55863721   -2.0479301   0.83711787   -1.2108122   0.14039102    11520.587     1000 
 1414000    0.5625825    -2.078028   0.84302987   -1.2349982   0.13017367    11727.605     1000 
 1416000    0.5650447    -2.046086   0.84671948   -1.1993665   0.13336332    11624.637     1000 
 1418000   0.55907713   -2.0715165   0.83777707   -1.2337394   0.12906243    11738.588     1000 
 1420000   0.56985687    -2.087101   0.85393051   -1.2331705   0.12937425    11653.014     1000 
 1422000    0.5915007   -2.0507086   0.88636379   -1.1643448   0.13490328    11449.639     1000 
 1424000   0.56244094   -2.0600128   0.84281775   -1.2171951   0.12935649    11586.972     1000 
 1426000   0.55131649   -2.1348688   0.82614777    -1.308721    0.1305136    11706.338     1000 
 1428000   0.52388512   -2.0406494   0.78504185   -1.2556076   0.13746436    11483.805     1000 
 1430000   0.56174315   -2.1184428   0.84177211   -1.2766707   0.13952888    11524.237     1000 
 1432000   0.58038553   -2.1284944   0.86970772   -1.2587867   0.13422144     11671.32     1000 
 1434000   0.55695282   -2.0741841    0.8345938   -1.2395903   0.12860094    11666.756     1000 
 1436000   0.55739007   -2.1083544   0.83524902   -1.2731054   0.13594095    11621.985     1000 
 1438000   0.57088277    -2.128869   0.85546783   -1.2734012    0.1256758    11627.793     1000 
 1440000   0.55685522   -2.1129937   0.83444755   -1.2785461   0.11270336    11856.808     1000 
 1442000   0.59162419    -2.071974   0.88654884   -1.1854252    0.1474022    11694.826     1000 
 1444000   0.54034971   -2.0120488   0.80971404   -1.2023347   0.13028277    11706.051     1000 
 1446000   0.54840784   -2.0495091   0.82178915     -1.22772   0.14135544    11597.512     1000 
 1448000   0.56259016   -2.0889892   0.84304135   -1.2459478   0.12841826    11709.914     1000 
 1450000    0.5409339   -2.0623441   0.81058945   -1.2517546   0.13222707    11575.183     1000 
 1452000   0.57955238   -2.0520832   0.86845924   -1.1836239   0.13910178     11604.68     1000 
 1454000   0.53257613   -2.0874568   0.79806532   -1.2893915   0.13263063    11597.195     1000 
 1456000   0.55687691   -2.0824451   0.83448005    -1.247965   0.11939818    11614.996     1000 
 1458000   0.53401509    -2.100502   0.80022162   -1.3002804   0.11387132    11781.346     1000 
 1460000   0.59278393   -2.1240271   0.88828671   -1.2357403   0.13824855    11742.423     1000 
 1462000   0.56926316   -2.1029487   0.85304084   -1.2499078   0.13281128    11602.164     1000 
 1464000   0.56351424   -2.0552042   0.84442609   -1.2107781   0.12682418    11646.786     1000 
 1466000   0.55099393   -2.1002333   0.82566441   -1.2745689    0.1261916    11700.087     1000 
 1468000   0.57211861   -2.1082553   0.85731974   -1.2509355   0.12966847    11607.576     1000 
 1470000   0.53770079    -2.103278   0.80574463   -1.2975334   0.13111257    11708.199     1000 
 1472000   0.57657095   -2.0708212   0.86399156   -1.2068296   0.13327497     11659.44     1000 
 1474000   0.54626481   -2.1026045   0.81857782   -1.2840267   0.10917684    11864.941     1000 
 1476000   0.54924127    -2.072703   0.82303805    -1.249665   0.12438497     11728.19     1000 
 1478000   0.55791663   -2.0868952   0.83603807   -1.2508571   0.13170513    11598.021     1000 
 1480000   0.55248875   -2.0820572   0.82790439   -1.2541529   0.13816781    11585.094     1000 
 1482000   0.56455425   -2.0364848   0.84598455   -1.1905002   0.13942307    11450.395     1000 
 1484000   0.54090158   -2.0738423   0.81054102   -1.2633013   0.12842336    11652.012     1000 
 1486000   0.53522235   -2.0979447   0.80203068    -1.295914   0.12821296    11569.199     1000 
 1488000   0.56536266   -2.1218544   0.84719595   -1.2746585   0.11512317    11905.637     1000 
 1490000   0.54738343   -2.0664764   0.82025407   -1.2462223   0.11862078    11692.848     1000 
 1492000   0.56527239   -2.0631975   0.84706068   -1.2161368   0.14530081     11616.32     1000 
 1494000   0.54655558   -2.0414616   0.81901354   -1.2224481   0.13711375    11532.399     1000 
 1496000   0.53283271   -2.1204781   0.79844982   -1.3220283   0.12929863    11535.088     1000 
 1498000    0.5705212   -2.0876232   0.85492602   -1.2326971   0.13997443     11624.41     1000 
 1500000   0.55165703   -2.0600489   0.82665807   -1.2333908   0.12694897    11613.159     1000 
 1502000   0.55568602   -2.0747367    0.8326955   -1.2420412    0.1403304    11503.934     1000 
 1504000   0.55522449   -2.0821124   0.83200389   -1.2501085   0.12182192     11696.73     1000 
 1506000   0.54526467   -2.0601864    0.8170791   -1.2431073    0.1243138     11566.47     1000 
 1508000   0.54621473   -2.0786373   0.81850278   -1.2601345   0.12354341    11668.495     1000 
 1510000    0.5731572   -2.0796692   0.85887606   -1.2207931   0.12826582    11739.521     1000 
 1512000   0.56421296   -2.0927873   0.84547312   -1.2473142   0.11907244    11850.927     1000 
 1514000   0.54835311   -2.1377137   0.82170714   -1.3160066   0.13141916    11573.701     1000 
 1516000   0.55862822   -2.0634896   0.83710439   -1.2263852   0.14685128    11589.284     1000 
 1518000   0.56853539   -2.0593885   0.85195028   -1.2074382   0.13343301    11581.629     1000 
 1520000   0.55567548   -2.0914233   0.83267971   -1.2587436   0.13179905    11515.542     1000 
 1522000   0.57263822   -2.0364137   0.85809837   -1.1783153   0.13440616    11411.006     1000 
 1524000   0.52326011   -2.1045693   0.78410527   -1.3204641   0.11787469    11673.197     1000 
 1526000   0.57091812   -2.0611985   0.85552081   -1.2056776   0.12750261    11646.667     1000 
 1528000   0.57111902   -2.1155401   0.85582186   -1.2597183   0.14137223    11590.372     1000 
 1530000   0.56885851    -2.066034   0.85243448   -1.2135995   0.13140212    11661.361     1000 
 1532000   0.56789699   -2.0994212   0.85099364   -1.2484275   0.12414586    11764.441     1000 
 1534000   0.53581813   -2.1056281   0.80292347   -1.3027046   0.11228668    11810.109     1000 
 1536000   0.55683694    -2.002478   0.83442016   -1.1680579   0.12754962    11678.375     1000 
 1538000   0.54302761   -2.0998292   0.81372687   -1.2861024   0.11413079    11767.818     1000 
 1540000   0.56337638   -2.0688128    0.8442195   -1.2245933   0.12728776    11705.677     1000 
 1542000   0.56242477   -2.0826844   0.84279352   -1.2398909   0.12257986    11639.678     1000 
 1544000   0.56011514    -2.084242   0.83933254   -1.2449094    0.1249923    11604.191     1000 
 1546000   0.54777307   -2.0505683   0.82083795   -1.2297303   0.11847074    11712.508     1000 
 1548000   0.53937671   -2.0926696   0.80825599   -1.2844136   0.12867381    11569.672     1000 
 1550000   0.56369015   -2.1154772   0.84468968   -1.2707875   0.13688284    11651.097     1000 
 1552000   0.56266151   -2.0999905   0.84314827   -1.2568423   0.11919215    11765.091     1000 
 1554000   0.55511446   -2.0858854   0.83183902   -1.2540464   0.13961897    11594.283     1000 
 1556000   0.58754982   -2.0883319   0.88044341   -1.2078885   0.12929814    11612.025     1000 
 1558000   0.56995894   -2.0547126   0.85408348   -1.2006291   0.12763003    11657.527     1000 
 1560000   0.55802744   -2.0903671   0.83620412    -1.254163   0.11840625    11644.478     1000 
 1562000   0.57156126   -2.0934453   0.85648455   -1.2369607   0.12419193    11712.124     1000 
 1564000   0.57355403   -2.0727186   0.85947072   -1.2132479   0.13735259    11512.311     1000 
 1566000   0.54255984   -2.0383023   0.81302592   -1.2252763    0.1385142    11615.192     1000 
 1568000   0.54723366   -2.1132765   0.82002964   -1.2932469   0.12227112    11683.039     1000 
 1570000   0.56305533   -2.0539322   0.84373842   -1.2101937   0.12036234    11756.094     1000 
 1572000   0.58133796   -2.0744531   0.87113493   -1.2033182   0.15282509    11479.984     1000 
 1574000   0.56440214   -2.0527405   0.84575661   -1.2069839   0.12699326    11599.531     1000 
 1576000   0.56487216   -2.1145181   0.84646093   -1.2680572   0.12789251    11503.788     1000 
 1578000   0.55383805   -2.0487362   0.82992632   -1.2188099   0.12671321    11689.494     1000 
 1580000   0.54682992   -2.1174174   0.81942463   -1.2979928   0.12030278    11475.815     1000 
 1582000   0.54509034   -2.0997314   0.81681787   -1.2829135   0.13028116    11595.789     1000 
 1584000   0.56503141   -2.0809416   0.84669957   -1.2342421   0.13366334    11624.208     1000 
 1586000   0.57465877     -2.09957   0.86112616   -1.2384438    0.1292675    11553.009     1000 
 1588000   0.56770113   -2.1116952   0.85070014    -1.260995   0.14812632     11530.09     1000 
[...]
 2614000   0.56230717    -2.061544   0.84261729   -1.2189267   0.13423904    11710.486     1000 
 2616000   0.56650192     -2.09651   0.84890313   -1.2476069   0.12281039    11863.106     1000 
 2618000   0.55938371   -2.0727764   0.83823649   -1.2345399   0.12718727    11753.178     1000 
 2620000   0.54256067   -2.1450307   0.81302717   -1.3320036   0.12833892    11664.009     1000 
 2622000   0.53720706   -2.0841093   0.80500478   -1.2791045   0.14595999    11393.424     1000 
 2624000   0.53511035   -2.0877556   0.80186286   -1.2858928   0.12323924    11591.954     1000 
 2626000   0.54724863   -2.0544749   0.82005208   -1.2344229   0.14916867    11491.361     1000 
 2628000   0.56740424   -2.1035649   0.85025526   -1.2533096   0.14769247    11533.976     1000 
 2630000   0.56759935   -2.1299808   0.85054763   -1.2794332   0.12777381    11573.037     1000 
 2632000   0.56603266   -2.0679771   0.84819995   -1.2197771   0.13759269    11567.816     1000 
 2634000   0.57059734   -2.0932477   0.85504011   -1.2382076   0.13422077    11625.178     1000 
 2636000   0.56800504   -2.1087398   0.85115555   -1.2575842   0.11910357    11917.978     1000 
 2638000    0.5583613   -2.1334516   0.83670441   -1.2967472   0.11759518    11784.093     1000 
 2640000   0.54665038   -2.1029555   0.81915559   -1.2837999   0.13062604    11682.481     1000 
 2642000   0.57854046    -2.048409   0.86694288   -1.1814661    0.1329319    11606.699     1000 
 2644000   0.59354853   -2.0619541   0.88943248   -1.1725216   0.12937543    11679.441     1000 
 2646000   0.55304748    -2.041716   0.82874165   -1.2129743   0.12170616    11706.014     1000 
 2648000   0.56007049   -2.0554344   0.83926563   -1.2161688   0.12826133    11728.789     1000 
 2650000   0.55046178   -2.0565529   0.82486697    -1.231686   0.13144036    11698.898     1000 
 2652000   0.56813976   -2.1211216   0.85135744   -1.2697641   0.12773104    11692.415     1000 
 2654000   0.57330241    -2.100474   0.85909366   -1.2413803   0.13141925    11745.179     1000 
 2656000   0.58307291   -2.0481429   0.87373475   -1.1744082   0.13766931    11577.449     1000 
 2658000   0.55026034   -2.0728804   0.82456512   -1.2483153   0.12890562    11709.544     1000 
 2660000   0.56685658   -2.0485112   0.84943459   -1.1990766   0.12461079    11801.257     1000 
 2662000    0.5693369   -2.0995483   0.85315135    -1.246397   0.13205124    11535.159     1000 
 2664000   0.56430865   -2.0462118   0.84561651   -1.2005953   0.14121422    11742.612     1000 
 2666000   0.55329053   -2.0324144   0.82910586   -1.2033085    0.1270062    11734.207     1000 
 2668000     0.569789   -2.1158273   0.85382882   -1.2619984   0.14159661    11411.741     1000 
 2670000   0.54774165   -2.0827292   0.82079086   -1.2619383   0.13292388    11610.606     1000 
 2672000   0.57688304     -2.10203   0.86445923   -1.2375708   0.14400282    11523.289     1000 
 2674000   0.54327349   -2.0842515   0.81409533   -1.2701562   0.13947623    11528.165     1000 
 2676000   0.56683078   -2.1241715   0.84939593   -1.2747755   0.13721388    11643.728     1000 
 2678000   0.53527984   -2.0365417   0.80211684   -1.2344249   0.12840776    11677.447     1000 
 2680000   0.56810654   -2.1153129   0.85130765   -1.2640053   0.13029864    11725.772     1000 
 2682000   0.55846459   -2.0564776   0.83685918   -1.2196184   0.13343592    11648.059     1000 
 2684000   0.57812802   -2.1340246   0.86632484   -1.2676997   0.12211013    11739.294     1000 
 2686000   0.54520281   -2.0314039   0.81698642   -1.2144175   0.14107258    11480.828     1000 
 2688000   0.56521828   -2.0897683   0.84697959   -1.2427887   0.14851202     11520.03     1000 
 2690000    0.5555776   -2.0701399   0.83253303   -1.2376068   0.12323245    11567.752     1000 
 2692000   0.56993091   -2.0910172   0.85404146   -1.2369757   0.12937834    11613.105     1000 
 2694000   0.58158664   -2.1202519   0.87150759   -1.2487444   0.14031515    11572.838     1000 
 2696000   0.55914802   -2.0900551   0.83788331   -1.2521718   0.12543333    11707.525     1000 
 2698000   0.55535071   -2.1000174   0.83219304   -1.2678244   0.13025846    11680.231     1000 
 2700000   0.56077501   -2.0963503   0.84032136   -1.2560289     0.118392    11759.745     1000 
 2702000   0.55452323   -2.1345021   0.83095306   -1.3035491   0.12071409    11713.919     1000 
 2704000   0.56742482   -2.0420327    0.8502861   -1.1917466   0.12844314    11648.432     1000 
 2706000   0.53294284   -2.0691726   0.79861485   -1.2705578   0.11416897    11818.112     1000 
 2708000   0.55170268   -2.1026098   0.82672647   -1.2758834   0.12678043    11675.778     1000 
 2710000   0.57011009   -2.1006892   0.85430998   -1.2463792   0.12951165    11613.512     1000 
 2712000   0.55853342   -2.0852351   0.83696234   -1.2482728   0.12824026    11586.902     1000 
 2714000   0.56082719   -2.0556339   0.84039955   -1.2152344   0.13201832    11647.463     1000 
 2716000   0.56471027   -2.0630293   0.84621834   -1.2168109   0.13278085    11549.476     1000 
 2718000   0.56793056   -2.0737162   0.85104394   -1.2226722    0.1299142    11706.881     1000 
 2720000   0.54487303   -2.1007146   0.81649223   -1.2842223   0.12474773    11623.101     1000 
 2722000   0.58725437   -2.1023599   0.88000067   -1.2223592   0.12258518    11792.132     1000 
 2724000   0.55619242   -2.0544708   0.83345434   -1.2210165   0.12936122    11662.036     1000 
 2726000   0.54616232   -2.1118386   0.81842424   -1.2934143   0.13042033    11693.812     1000 
 2728000   0.56812368   -2.0858702   0.85133333   -1.2345369   0.14001528    11577.166     1000 
 2730000    0.5617439   -2.0987007   0.84177323   -1.2569275   0.14443398     11628.89     1000 
 2732000   0.53617207   -2.1427937   0.80345385   -1.3393398   0.12856283    11675.243     1000 
 2734000   0.54865127   -2.0736614   0.82215393   -1.2515075    0.1339504    11490.875     1000 
 2736000   0.54243359   -2.1195143   0.81283673   -1.3066776   0.12092635    11722.233     1000 
 2738000   0.56090962   -2.0884794   0.84052307   -1.2479564    0.1348785    11550.302     1000 
 2740000   0.54135269   -2.0503339     0.811217   -1.2391169   0.12854109    11595.362     1000 
 2742000   0.55805348   -2.1096678   0.83624313   -1.2734247    0.1300903    11667.021     1000 
 2744000   0.56272289   -2.0946975   0.84324024   -1.2514572   0.12811637    11358.342     1000 
 2746000   0.55422788   -2.0696592   0.83051048   -1.2391487   0.13067111    11597.374     1000 
 2748000   0.56568557   -2.1191651   0.84767983   -1.2714852   0.13589254    11579.252     1000 
 2750000   0.58597903    -2.089138   0.87808957   -1.2110484   0.13560523    11708.722     1000 
 2752000    0.5603426   -2.1048828   0.83967339   -1.2652095   0.13844105    11619.373     1000 
 2754000   0.55273189   -2.1211288   0.82826874   -1.2928601   0.12984419    11696.357     1000 
 2756000   0.57635022   -2.0998719   0.86366081   -1.2362111   0.14124002    11460.191     1000 
 2758000   0.55786898   -2.0854772   0.83596666   -1.2495106   0.12613551    11689.436     1000 
 2760000   0.55414289   -2.1076382   0.83038312   -1.2772551   0.13350644    11557.427     1000 
 2762000   0.56671471   -2.0355609     0.849222   -1.1863389   0.13608244    11599.491     1000 
 2764000   0.57039071   -2.0362189   0.85473048   -1.1814884   0.13060679    11456.532     1000 
 2766000   0.54232366   -2.0635247     0.812672   -1.2508527   0.13397315    11688.941     1000 
 2768000   0.57532128   -2.0816485   0.86211893   -1.2195296    0.1454124    11670.071     1000 
 2770000   0.56495409   -2.0374716    0.8465837   -1.1908879   0.15162429    11488.217     1000 
 2772000   0.55752491   -2.0726455   0.83545108   -1.2371944   0.14239798    11643.506     1000 
 2774000   0.55602302   -2.0488874    0.8332005   -1.2156869   0.12260117    11778.373     1000 
 2776000   0.54692294   -2.1021208   0.81956403   -1.2825568   0.12144036    11828.213     1000 
 2778000   0.55582881   -2.1002866   0.83290947   -1.2673771   0.13230744    11775.304     1000 
 2780000   0.56112954   -2.1280916   0.84085262    -1.287239      0.12459    11780.619     1000 
 2782000   0.57439493   -2.0665697    0.8607308   -1.2058389   0.13005734    11602.124     1000 
 2784000   0.56667114   -2.0905025    0.8491567   -1.2413458   0.12968073     11662.06     1000 
 2786000   0.56118456   -2.0662425   0.84093506   -1.2253075   0.12770754    11591.971     1000 
 2788000   0.56221167   -2.0293941   0.84247419   -1.1869199   0.14005842    11510.851     1000 
 2790000   0.56426521   -2.0438314   0.84555142     -1.19828    0.1345828    11659.821     1000 
 2792000      0.55333   -2.0532203   0.82916501   -1.2240552   0.12130091    11601.043     1000 
 2794000   0.55801778   -2.0830455   0.83618964   -1.2468559   0.11996867    11756.607     1000 
 2796000    0.5458334   -2.0753062   0.81793135   -1.2573748   0.13334074    11476.414     1000 
 2798000   0.55245961   -2.0333214   0.82786073   -1.2054607   0.12470003    11800.773     1000 
 2800000   0.57347153   -2.0804875   0.85934709   -1.2211404   0.13343734    11628.502     1000 
 2802000   0.54931135   -2.0405471   0.82314306    -1.217404   0.13557172    11508.609     1000 
 2804000   0.53952091   -2.0522931   0.80847208   -1.2438211   0.12825198    11717.295     1000 
 2806000   0.57741116   -2.0727374   0.86525062   -1.2074868   0.12404964    11724.605     1000 
 2808000   0.53636628   -2.0733967   0.80374488   -1.2696518    0.1179975    11682.305     1000 
 2810000   0.54655145   -2.0455733   0.81900735   -1.2265659   0.14036033    11505.406     1000 
 2812000   0.57149899   -2.0659515   0.85639124   -1.2095603   0.13264589    11592.722     1000 
 2814000   0.55960865   -2.0986669   0.83857357   -1.2600933   0.13652778    11625.478     1000 
 2816000   0.56116084   -2.0842971   0.84089952   -1.2433975   0.13022432    11776.044     1000 
 2818000   0.53822935   -2.0556719   0.80653668   -1.2491352   0.13524051    11565.916     1000 
 2820000    0.5494449   -2.0498339   0.82334318   -1.2264907   0.14564732    11566.608     1000 
 2822000   0.54777833    -2.050778   0.82084583   -1.2299322   0.13936207    11575.144     1000 
 2824000   0.54518099   -2.0978861   0.81695372   -1.2809323   0.13293897    11451.371     1000 
 2826000   0.53005999   -2.0643422    0.7942949   -1.2700473   0.13305901    11553.855     1000 
 2828000    0.5539196   -2.0309845   0.83004852    -1.200936   0.12916429    11489.004     1000 
 2830000   0.55510173   -2.1209421   0.83181994   -1.2891222   0.14004173    11557.759     1000 
 2832000   0.57726348   -2.0058104   0.86502932   -1.1407811   0.13042387    11694.226     1000 
 2834000   0.55809792   -2.1765804   0.83630974   -1.3402706   0.11998832    11756.886     1000 
 2836000   0.57603421   -2.0636939   0.86318727   -1.2005066   0.13384756    11592.706     1000 
 2838000   0.55290921   -2.0550528   0.82853445   -1.2265184   0.12648665    11681.684     1000 
 2840000   0.55655529    -2.074372    0.8339981   -1.2403739   0.14171453    11478.895     1000 
 2842000   0.59618712   -2.0692751   0.89338639   -1.1758887   0.12848185    11718.949     1000 
 2844000   0.55627055   -2.1181312   0.83357141   -1.2845598    0.1042165    11801.248     1000 
 2846000    0.5345735   -2.0443728    0.8010584   -1.2433144   0.12941101    11658.234     1000 
 2848000    0.5503743   -2.0564186   0.82473589   -1.2316827   0.13661778    11554.935     1000 
 2850000   0.55950218   -2.0777687   0.83841401   -1.2393547   0.13111854    11568.129     1000 
 2852000   0.58575823   -2.1020238    0.8777587   -1.2242651   0.12653475    11686.595     1000 
 2854000   0.56240755   -2.1046163   0.84276772   -1.2618486    0.1376132    11869.433     1000 
 2856000   0.55347158   -2.0509022   0.82937717    -1.221525   0.13409174    11565.498     1000 
 2858000   0.57461768   -2.1300594   0.86106459   -1.2689948   0.13972572    11597.335     1000 
 2860000   0.55152441   -2.1692113   0.82645933   -1.3427519   0.11049855    11780.927     1000 
 2862000    0.5753162   -2.0957864   0.86211133   -1.2336751     0.125282    11645.583     1000 
 2864000   0.53986667   -2.0373436    0.8089902   -1.2283534   0.12833745    11522.983     1000 
 2866000   0.60648653   -2.0935759   0.90882006   -1.1847558   0.14116133     11526.23     1000 
 2868000   0.54220155   -2.0607431   0.81248903    -1.248254   0.13214358    11533.704     1000 
 2870000   0.56801523   -2.0673966   0.85117082   -1.2162258   0.14466462    11665.453     1000 
 2872000   0.56086163   -2.0663163   0.84045115   -1.2258651    0.1257601    11634.301     1000 
 2874000   0.57920452    -2.091933   0.86793797    -1.223995   0.13770249    11658.981     1000 
 2876000   0.57126853    -2.107064   0.85604589   -1.2510181   0.12720115    11630.531     1000 
 2878000   0.56959787   -2.0763352   0.85354241   -1.2227928   0.12651429    11522.885     1000 
 2880000   0.55554144   -2.1126707   0.83247885   -1.2801919   0.12639725    11771.968     1000 
 2882000   0.54133313   -2.1020216   0.81118769   -1.2908339   0.12047074     11890.34     1000 
 2884000   0.58469739   -2.0997956   0.87616904   -1.2236266   0.13434858    11535.384     1000 
 2886000   0.54592002   -2.0924297   0.81806115   -1.2743686   0.12918458    11713.547     1000 
 2888000   0.56302278   -2.0640103   0.84368963   -1.2203207   0.13881351     11656.99     1000 
 2890000   0.54551135   -2.0637966   0.81744875   -1.2463479   0.12923546    11620.675     1000 
 2892000   0.58165263    -2.076876   0.87160646   -1.2052695   0.12029948    11708.993     1000 
 2894000   0.54027095   -2.0690202   0.80959602   -1.2594242   0.14021385    11525.763     1000 
 2896000   0.56623511   -2.0923437   0.84850331   -1.2438404   0.13348396    11693.739     1000 
 2898000    0.5844766   -2.0468839   0.87583819   -1.1710457   0.13820769    11567.529     1000 
 2900000   0.56450362   -2.0792715   0.84590867   -1.2333628   0.12216818    11794.153     1000 
 2902000   0.56056751   -2.0766894   0.84001041    -1.236679   0.11267062    11738.556     1000 
 2904000   0.56128362   -2.1095622   0.84108351   -1.2684787   0.13081038     11651.93     1000 
 2906000   0.56602476   -2.1438165    0.8481881   -1.2956284   0.12456262    11638.046     1000 
 2908000   0.55630734   -2.0975473   0.83362655   -1.2639208   0.12032712     11760.25     1000 
 2910000   0.57234346   -2.0665339   0.85765668   -1.2088772   0.12155618     11636.43     1000 
 2912000   0.55550006   -2.0474049   0.83241684    -1.214988   0.15111311    11408.867     1000 
 2914000   0.55382821   -2.1011267   0.82991157   -1.2712151   0.11609819    11702.762     1000 
 2916000   0.56699009   -2.0921267   0.84963465    -1.242492   0.13646341     11518.23     1000 
 2918000    0.5381013   -2.0944775   0.80634479   -1.2881327   0.12884563    11657.944     1000 
 2920000   0.55204043   -2.0976365   0.82723259    -1.270404   0.12423535    11655.062     1000 
 2922000   0.55795311   -2.0520017   0.83609273    -1.215909   0.14157813    11484.546     1000 
 2924000   0.56134561   -2.1119937   0.84117639   -1.2708173   0.13475456    11672.385     1000 
 2926000   0.54811029   -2.1153103   0.82134327    -1.293967   0.13672384    11560.156     1000 
 2928000   0.54221656   -2.0277563   0.81251152   -1.2152448   0.12233154    11660.807     1000 
 2930000   0.56984438    -2.090531    0.8539118   -1.2366192   0.12790951    11669.958     1000 
 2932000   0.56741724   -2.0807168   0.85027473    -1.230442   0.12596555    11677.589     1000 
 2934000   0.57596412   -2.0879485   0.86308223   -1.2248662   0.10847896     11745.22     1000 
 2936000    0.5860291   -2.1222311   0.87816461   -1.2440665    0.1211609    11769.826     1000 
 2938000   0.57762643   -2.0704896    0.8655732   -1.2049164   0.13722031    11499.786     1000 
 2940000    0.5575702   -2.1324411   0.83551894   -1.2969222   0.12848544    11688.883     1000 
 2942000   0.56646646   -2.0878624   0.84884999   -1.2390124   0.12150938     11542.25     1000 
 2944000   0.55985433   -2.1068524   0.83894171   -1.2679107   0.13563499    11580.243     1000 
 2946000   0.57605815   -2.0655285   0.86322314   -1.2023054   0.13129303    11547.762     1000 
 2948000    0.5442569   -2.0739568   0.81556896   -1.2583879   0.13048088      11616.4     1000 
 2950000    0.5296974   -2.0515531   0.79375156   -1.2578016   0.13567752    11425.023     1000 
 2952000   0.54473583   -2.0913192   0.81628664   -1.2750326   0.12863227    11634.179     1000 
 2954000   0.55137338   -2.0794138   0.82623302   -1.2531808   0.13725077    11587.278     1000 
 2956000   0.54262762   -2.0722305   0.81312748    -1.259103    0.1333272    11580.659     1000 
 2958000   0.54517747   -2.0610436   0.81694845   -1.2440952   0.12433762    11522.961     1000 
 2960000   0.56571912    -2.101717   0.84773011   -1.2539869   0.12872987    11731.841     1000 
 2962000   0.53740468   -2.0707417   0.80530091   -1.2654408   0.11948629    11725.943     1000 
 2964000    0.5566461   -2.0708442   0.83413418     -1.23671    0.1232938    11684.792     1000 
 2966000   0.58624385    -2.073593   0.87848641   -1.1951066   0.12378898    11823.606     1000 
 2968000    0.5635654   -2.0849463   0.84450276   -1.2404436   0.14411602    11552.385     1000 
 2970000   0.56806403   -2.0604334   0.85124395   -1.2091894   0.12385393    11838.279     1000 
 2972000   0.56447945     -2.08059   0.84587246   -1.2347175   0.12240719    11548.101     1000 
 2974000   0.55751556   -2.0949048   0.83543707   -1.2594677   0.13634135    11608.381     1000 
 2976000   0.57503818   -2.0106024   0.86169472   -1.1489077   0.13362941    11627.558     1000 
 2978000   0.53789973   -2.0738913   0.80604275   -1.2678485   0.13988997    11547.073     1000 
 2980000   0.57296327   -2.0579066   0.85858546   -1.1993212   0.14372337    11581.946     1000 
 2982000   0.55579872   -2.1016096   0.83286438   -1.2687452   0.13522933    11584.074     1000 
 2984000   0.55301442   -2.0836731   0.82869211    -1.254981   0.12154675    11643.999     1000 
 2986000   0.54548443   -2.0773404   0.81740841    -1.259932   0.13271601     11666.92     1000 
 2988000   0.55897819   -2.1099166   0.83762882   -1.2722878   0.12532722    11732.322     1000 
 2990000   0.56447764   -2.0637346   0.84586974   -1.2178649   0.13303497    11539.037     1000 
 2992000   0.56941416   -2.1086424   0.85326712   -1.2553753   0.13172885    11584.377     1000 
 2994000   0.55830031   -2.0875532   0.83661301   -1.2509402    0.1197872    11736.237     1000 
 2996000   0.54329831   -2.0939481   0.81413251   -1.2798156   0.11244616    11840.993     1000 
 2998000   0.54212806   -2.0570687   0.81237889   -1.2446898   0.11791532    11687.327     1000 
 3000000   0.56538001   -2.0626623   0.84722194   -1.2154403     0.133871    11481.867     1000 
Loop time of 2146.64 on 4 procs for 3000000 steps with 1000 atoms

Performance: 603732.985 tau/day, 1397.530 timesteps/s
97.1% CPU use with 4 MPI tasks x 1 OpenMP threads

MPI task timing breakdown:
Section |  min time  |  avg time  |  max time  |%varavg| %total
---------------------------------------------------------------
Pair    | 1743.2     | 1757.4     | 1778.3     |  30.7 | 81.87
Neigh   | 147.2      | 147.48     | 147.88     |   2.1 |  6.87
Comm    | 182.27     | 202.74     | 216.2      |  87.8 |  9.44
Output  | 0.023275   | 0.02669    | 0.036813   |   3.6 |  0.00
Modify  | 29.351     | 29.549     | 29.788     |   3.1 |  1.38
Other   |            | 9.486      |            |       |  0.44

Nlocal:        250.000 ave         254 max         244 min
Histogram: 1 0 0 0 0 0 1 0 1 1
Nghost:        3559.75 ave        3571 max        3539 min
Histogram: 1 0 0 0 0 0 0 1 1 1
Neighs:        49660.2 ave       50669 max       48553 min
Histogram: 1 0 0 0 1 0 1 0 0 1

Total # of neighbors = 198641
Ave neighs/atom = 198.64100
Neighbor list builds = 150000
Dangerous builds not checked

Total wall time: 0:35:46
