LAMMPS (29 Sep 2021 - Update 2)
OMP_NUM_THREADS environment is not set. Defaulting to 1 thread. (src/comm.cpp:98)
  using 1 OpenMP thread(s) per MPI task
# ----------------------- Inicialização -----------------------

units			lj
atom_style 		atomic
dimension 		3
boundary 		p p p

# -------------------- Criação dos Átomos ---------------------

read_data 		topologia.txt
Reading data file ...
  orthogonal box = (0.0000000 0.0000000 0.0000000) to (21.540000 21.540000 21.540000)
  1 by 1 by 1 MPI processor grid
  reading atoms ...
  1000 atoms
  read_data CPU = 0.005 seconds

velocity 		all create ${temp} 87287 rot yes dist gaussian
velocity 		all create 0.44 87287 rot yes dist gaussian

# ------------------ Interação Interatômica -------------------

pair_style		table linear 1000
pair_coeff		1 1 force.table AA 5.0
WARNING: 2 of 1000 force values in table AA are inconsistent with -dE/dr.
WARNING:  Should only be flagged at inflection points (src/pair_table.cpp:465)
pair_coeff		1 2 force.table AB 5.0
WARNING: 1 of 1000 force values in table AB are inconsistent with -dE/dr.
WARNING:  Should only be flagged at inflection points (src/pair_table.cpp:465)
pair_coeff		2 2 force.table BB 5.0
pair_write		1 1 1000 r 0.008 5.0 table.check AA
Appending to table file table.check with DATE: 2023-06-15
Neighbor list info ...
  update every 1 steps, delay 10 steps, check yes
  max neighbors/atom: 2000, page size: 100000
  master list distance cutoff = 5.3
  ghost atom cutoff = 5.3
  binsize = 2.65, bins = 9 9 9
  1 neighbor lists, perpetual/occasional/extra = 1 0 0
  (1) pair table, perpetual
      attributes: half, newton on
      pair build: half/bin/atomonly/newton
      stencil: half/bin/3d
      bin: standard
pair_write		1 2 1000 r 0.008 5.0 table.check AB
Appending to table file table.check with DATE: 2023-06-15
pair_write		2 2 1000 r 0.008 5.0 table.check BB
Appending to table file table.check with DATE: 2023-06-15

neighbor 		0.3 bin
neigh_modify		every 20 delay 0 check no

# ------------------------- Ensemble --------------------------------------

fix 1			all npt temp ${temp} ${temp} 0.5 iso ${press} ${press} 5
fix 1			all npt temp 0.44 ${temp} 0.5 iso ${press} ${press} 5
fix 1			all npt temp 0.44 0.44 0.5 iso ${press} ${press} 5
fix 1			all npt temp 0.44 0.44 0.5 iso 0.13 ${press} 5
fix 1			all npt temp 0.44 0.44 0.5 iso 0.13 0.13 5

# ---------------------- Função de Distribuição Radial -----------------------

#compute RDF 		all rdf 2000 1 1 1 2 2 2
#fix 2 			all ave/time 1 2000 2000 c_RDF[*] file rdf.data mode vector

# ------------------------- Execução ---------------------------

timestep 		0.005
thermo_style		custom step temp pe ke etotal press vol atoms
thermo			2000
run			3000000
Per MPI rank memory allocation (min/avg/max) = 2.670 | 2.670 | 2.670 Mbytes
Step Temp PotEng KinEng TotEng Press Volume Atoms 
       0         0.44  -0.99052333      0.65934  -0.33118333   0.11308303    9993.9483     1000 
    2000   0.45395388   -2.0874492   0.68024988   -1.4071993    0.1182889    11439.942     1000 
    4000   0.44199599   -2.1418623   0.66233099   -1.4795313   0.12225436    11512.805     1000 
    6000    0.4321331    -2.053659   0.64755145   -1.4061075   0.13052147    11375.997     1000 
    8000    0.4355413   -2.0415956   0.65265863    -1.388937   0.13422953    11266.586     1000 
   10000   0.43405624   -2.1026808   0.65043327   -1.4522475   0.13427788    11376.404     1000 
   12000   0.43219193   -2.1055905   0.64763961   -1.4579509   0.13133192    11309.836     1000 
   14000    0.4346965    -2.067349   0.65139271   -1.4159563   0.12523983    11294.613     1000 
   16000   0.43476061   -2.0793196   0.65148877   -1.4278309   0.14406841     11190.46     1000 
   18000   0.45856931   -2.0815513    0.6871661   -1.3943852   0.13121811    11300.935     1000 
   20000   0.43348843   -2.1102759   0.64958241   -1.4606935   0.11834274     11468.54     1000 
   22000   0.43766375   -2.0542342   0.65583913    -1.398395   0.14093074    11240.204     1000 
   24000    0.4378055   -2.0963157   0.65605153   -1.4402642   0.13148767    11316.978     1000 
   26000    0.4564034   -2.0800976   0.68392049   -1.3961771   0.13255317    11238.533     1000 
   28000   0.44949837   -2.1087356   0.67357331   -1.4351623   0.12877821     11413.92     1000 
   30000   0.43761585   -2.0749701   0.65576735   -1.4192028   0.13189674    11344.161     1000 
   32000   0.46595252   -2.0989032   0.69822985   -1.4006734   0.13170305    11407.259     1000 
   34000   0.43070046    -2.027671   0.64540465   -1.3822664   0.13497226    11150.738     1000 
   36000    0.4292647   -2.0722284   0.64325316   -1.4289752   0.13329736    11370.834     1000 
   38000   0.44537788   -2.1448141   0.66739875   -1.4774154     0.129206     11384.45     1000 
   40000   0.42037893    -2.089649   0.62993782   -1.4597112   0.13104634    11407.086     1000 
   42000   0.41563638   -2.0890468   0.62283112   -1.4662157   0.12577834     11324.73     1000 
   44000   0.44152149   -2.0854866   0.66161995   -1.4238667   0.11976699    11440.841     1000 
   46000   0.45543265   -2.0937047   0.68246583   -1.4112389   0.13718341    11300.708     1000 
   48000   0.44150874    -2.136055   0.66160085   -1.4744541   0.12741541    11338.943     1000 
   50000   0.45331035   -2.1228774   0.67928556   -1.4435919   0.13158482    11391.007     1000 
   52000   0.42727346   -2.1120673   0.64026928    -1.471798   0.12195649    11475.361     1000 
   54000   0.41248196    -2.088923   0.61810421   -1.4708188   0.13539181     11289.93     1000 
   56000   0.43332986   -2.1305094   0.64934479   -1.4811646   0.12481438    11386.968     1000 
   58000   0.43610035   -2.1145811   0.65349637   -1.4610847   0.12557034     11449.86     1000 
   60000   0.44598796   -2.0583148   0.66831296   -1.3900019   0.14788841    11258.262     1000 
   62000   0.43694892    -2.081054   0.65476796   -1.4262861   0.13550324    11336.984     1000 
   64000   0.45576005   -2.1193245   0.68295643   -1.4363681   0.12672924     11395.77     1000 
   66000   0.44591873   -2.0974271   0.66820922   -1.4292179   0.13302457    11446.449     1000 
   68000   0.42700837   -2.0901202   0.63987204   -1.4502482   0.13187654    11353.334     1000 
   70000   0.44056551   -2.1025608   0.66018742   -1.4423734    0.1334843     11336.91     1000 
   72000   0.44531807   -2.0385845   0.66730912   -1.3712754   0.13145074    11223.282     1000 
   74000   0.43904951   -2.0290824   0.65791569   -1.3711667   0.12801403    11298.634     1000 
   76000   0.45071669    -2.069365   0.67539895    -1.393966   0.13610938    11226.818     1000 
   78000   0.42999279    -2.084333   0.64434419   -1.4399888   0.12226344    11314.234     1000 
   80000   0.42593067   -2.1044091   0.63825711    -1.466152   0.13440681    11380.604     1000 
   82000   0.41876815   -2.1096079   0.62752407   -1.4820838   0.13556124    11367.952     1000 
   84000   0.43897092   -2.0797768   0.65779792   -1.4219789    0.1410385    11266.618     1000 
   86000   0.45338946    -2.125838   0.67940411   -1.4464339   0.12521582    11384.732     1000 
   88000   0.45249692   -2.0808317   0.67806663   -1.4027651   0.13637998    11298.272     1000 
   90000   0.43435914   -2.0757761   0.65088717   -1.4248889   0.12003682    11535.988     1000 
   92000   0.42541968   -2.0980894   0.63749139    -1.460598   0.12293953    11417.112     1000 
   94000   0.44401098   -2.1046033   0.66535045   -1.4392529   0.12058577    11428.529     1000 
   96000   0.44187136   -2.1429308   0.66214423   -1.4807866   0.13641341    11357.672     1000 
   98000   0.45374956   -2.0996229   0.67994372   -1.4196792   0.13305326    11387.838     1000 
  100000   0.45102302    -2.112441   0.67585799    -1.436583   0.12949256    11369.388     1000 
  102000   0.43881322    -2.147874   0.65756161   -1.4903124   0.13795758    11481.437     1000 
  104000   0.45678345   -2.1095299   0.68448999   -1.4250399   0.13140915    11460.913     1000 
  106000   0.43189032   -2.1539444   0.64718764   -1.5067567   0.11879808    11448.158     1000 
  108000   0.45216573   -2.1071095   0.67757035   -1.4295392   0.13022085    11347.233     1000 
  110000   0.45405335   -2.0754962   0.68039894   -1.3950973   0.12507179    11436.436     1000 
  112000   0.44159665    -2.129376   0.66173258   -1.4676435   0.13017881    11437.566     1000 
  114000   0.43757766   -2.1251531   0.65571013    -1.469443   0.12811024     11428.03     1000 
  116000   0.43923131   -2.1216233   0.65818812   -1.4634351   0.12521976    11433.371     1000 
  118000    0.4306609   -2.1370795   0.64534535   -1.4917341    0.1295961    11440.269     1000 
  120000   0.44006727   -2.0697857    0.6594408   -1.4103449    0.1315238    11346.386     1000 
  122000   0.45276735   -2.0301426   0.67847187   -1.3516707   0.13627375    11279.592     1000 
  124000   0.44066073   -2.1458574    0.6603301   -1.4855273    0.1210076    11514.017     1000 
  126000   0.44449852   -2.1132851   0.66608103    -1.447204   0.13753133    11449.593     1000 
  128000   0.44524336    -2.087001   0.66719718   -1.4198038   0.12740325    11425.514     1000 
  130000   0.47366782   -2.1282252   0.70979123    -1.418434    0.1308407    11531.599     1000 
  132000   0.43441627   -2.1322409   0.65097278   -1.4812681   0.11905511    11478.851     1000 
  134000   0.44271057   -2.0832797   0.66340179   -1.4198779   0.12852137    11435.698     1000 
  136000   0.44147862   -2.1150549   0.66155571   -1.4534992   0.12961152    11433.215     1000 
  138000   0.47059524   -2.1152746   0.70518696   -1.4100876   0.13547238    11439.553     1000 
  140000   0.44505818   -2.1091628   0.66691968   -1.4422431   0.12275824    11469.561     1000 
  142000   0.43118311   -2.0814939   0.64612788    -1.435366   0.12587801    11449.396     1000 
  144000   0.45371015   -2.0869737   0.67988466    -1.407089   0.14251601    11280.424     1000 
  146000   0.44641968    -2.100818   0.66895989   -1.4318581   0.12688801    11341.147     1000 
  148000   0.44249821   -2.0855752   0.66308357   -1.4224916   0.13655506    11273.973     1000 
  150000   0.42284359   -2.0738943   0.63363112   -1.4402632   0.13372707    11330.278     1000 
  152000   0.44177036   -2.0625589   0.66199289    -1.400566   0.14705733    11258.033     1000 
  154000   0.46063164   -2.0797753   0.69025652   -1.3895188   0.14349122    11307.095     1000 
  156000   0.45053082   -2.1026702   0.67512043   -1.4275498   0.12317415    11496.114     1000 
  158000   0.43162173   -2.1238318   0.64678517   -1.4770466   0.12753467    11434.565     1000 
  160000   0.45515378    -2.104119   0.68204794   -1.4220711    0.1364714    11348.628     1000 
  162000   0.44618912   -2.1015195    0.6686144   -1.4329051   0.12461529    11395.373     1000 
  164000   0.44543149   -2.0890694   0.66747909   -1.4215903   0.11598348    11561.841     1000 
  166000   0.45851265   -2.1470434   0.68708121   -1.4599621   0.12201166    11466.927     1000 
  168000   0.42407104   -2.1139412   0.63547046   -1.4784708   0.12782554    11394.844     1000 
  170000    0.4624181   -2.0879175   0.69293352   -1.3949839    0.1402848    11302.676     1000 
  172000   0.45273641   -2.1195651   0.67842551   -1.4411396   0.12425378    11554.532     1000 
  174000   0.44116333   -2.1585521   0.66108325   -1.4974688   0.12573014    11442.535     1000 
  176000   0.43756135   -2.1338115   0.65568569   -1.4781258   0.12774437    11373.718     1000 
  178000   0.43414938   -2.0972714   0.65057285   -1.4466985   0.13589404    11343.473     1000 
  180000   0.43642255   -2.1101431   0.65397919   -1.4561639   0.12351251    11373.419     1000 
  182000   0.42762393   -2.0763763   0.64079447   -1.4355818   0.13981603     11207.31     1000 
  184000   0.43702433   -2.0899721   0.65488096   -1.4350911   0.14109919    11235.034     1000 
  186000   0.42612326   -2.1220064   0.63854571   -1.4834607   0.13710056    11337.572     1000 
  188000   0.42707363   -2.0724186   0.63996984   -1.4324487   0.12945417    11478.316     1000 
  190000   0.44094659    -2.165596   0.66075847   -1.5048375   0.12665947     11497.76     1000 
  192000   0.43572142   -2.1082693   0.65292855   -1.4553408   0.13595709     11340.79     1000 
  194000   0.44662084   -2.0852092   0.66926132   -1.4159479   0.13205702    11341.967     1000 
  196000   0.42800469   -2.0976097   0.64136503   -1.4562447   0.14124346    11267.247     1000 
  198000   0.45565321   -2.1223622   0.68279634   -1.4395659   0.12459399    11446.421     1000 
  200000   0.44586857   -2.0928625   0.66813405   -1.4247285   0.13446645    11348.682     1000 
  202000   0.43454181   -2.1064315    0.6511609   -1.4552706   0.13710267    11285.632     1000 
  204000   0.44019029   -2.0729367   0.65962515   -1.4133116   0.12364374    11359.163     1000 
  206000   0.42508957   -2.0918145   0.63699671   -1.4548178   0.12523328    11419.435     1000 
  208000   0.41943366   -2.1128672   0.62852134   -1.4843459   0.12261338    11451.561     1000 
  210000   0.42956148   -2.0749087   0.64369788   -1.4312108   0.13577126    11244.382     1000 
  212000   0.43704993   -2.0683178   0.65491932   -1.4133985    0.1352698    11246.087     1000 
  214000   0.42850224    -2.131978   0.64211061   -1.4898674   0.12589085    11413.488     1000 
  216000   0.43258289   -2.1129208   0.64822546   -1.4646953   0.12930202    11333.696     1000 
  218000   0.42457109   -2.1142588   0.63621978    -1.478039   0.13382013    11382.659     1000 
  220000   0.43922299   -2.1153362   0.65817565   -1.4571605   0.12902732    11391.179     1000 
  222000   0.45311732   -2.1124003   0.67899631    -1.433404   0.13947571    11362.123     1000 
  224000   0.42704903   -2.1281057   0.63993297   -1.4881728   0.12333905    11523.328     1000 
  226000   0.43825859   -2.0978453    0.6567305   -1.4411148    0.1344239    11347.649     1000 
  228000   0.44335338   -2.1347761   0.66436504   -1.4704111   0.12331943    11381.037     1000 
  230000   0.44631107   -2.1008887   0.66879714   -1.4320915   0.13294645    11372.616     1000 
  232000    0.4461009   -2.0922982   0.66848221    -1.423816   0.13582522    11324.611     1000 
  234000   0.44450699   -2.0881405   0.66609372   -1.4220468   0.12226177    11368.868     1000 
  236000   0.42857689    -2.098793   0.64222248   -1.4565705   0.13187881    11376.052     1000 
  238000    0.4424968   -2.1301404   0.66308145   -1.4670589   0.13099369    11417.609     1000 
  240000    0.4496114   -2.1030429   0.67374268   -1.4293002   0.13607749    11359.382     1000 
  242000   0.44939233   -2.0739788   0.67341441   -1.4005644   0.13139907    11370.402     1000 
  244000   0.43899206    -2.099719   0.65782961   -1.4418894   0.12239968    11550.811     1000 
  246000   0.43998807    -2.086453   0.65932212   -1.4271309    0.1342176    11360.432     1000 
  248000   0.44019352   -2.0963708   0.65962999   -1.4367408    0.1364252    11365.022     1000 
  250000   0.41593916   -2.0569024   0.62328483   -1.4336176   0.12104647    11349.542     1000 
  252000   0.42972601   -2.0641187   0.64394442   -1.4201743   0.13278831    11268.175     1000 
  254000   0.44766083    -2.101489   0.67081975   -1.4306693   0.12096372    11444.014     1000 
  256000   0.45428478   -2.0810489   0.68074575   -1.4003031   0.13667249    11240.167     1000 
  258000   0.42556686   -2.1120394   0.63771193   -1.4743274   0.13503859    11466.668     1000 
  260000   0.43277312    -2.114728   0.64851052   -1.4662175   0.12035234    11466.081     1000 
  262000   0.45013069    -2.093436   0.67452085   -1.4189152    0.1293305    11361.361     1000 
  264000   0.45774975   -2.0677253   0.68593799   -1.3817873   0.14076305    11277.275     1000 
  266000   0.43771627   -2.1400903   0.65591783   -1.4841725    0.1301344     11382.94     1000 
  268000   0.45546694    -2.094447   0.68251721   -1.4119297   0.13112737    11401.716     1000 
  270000   0.44094864   -2.1001967   0.66076154   -1.4394352   0.14518215    11337.227     1000 
  272000   0.44600121   -2.1057217   0.66833281   -1.4373889   0.14684058    11225.487     1000 
  274000   0.43482154   -2.1633842   0.65158008   -1.5118041   0.12516847    11423.247     1000 
  276000   0.43632056   -2.0716213   0.65382635    -1.417795   0.13751293    11274.934     1000 
  278000   0.42526138   -2.0846054   0.63725418   -1.4473512   0.12141492    11466.128     1000 
  280000   0.43834939   -2.1396952   0.65686656   -1.4828286   0.13592408    11362.761     1000 
  282000   0.44540705   -2.1104091   0.66744247   -1.4429666    0.1277599    11336.439     1000 
  284000   0.44365697   -2.1129682   0.66481997   -1.4481483   0.13108844     11321.95     1000 
  286000   0.43818135   -2.1064418   0.65661476    -1.449827   0.12940817    11416.595     1000 
  288000   0.43330082   -2.1387742   0.64930128   -1.4894729   0.12552269    11419.896     1000 
  290000   0.42863713   -2.0987452   0.64231273   -1.4564324   0.14016202    11270.354     1000 
  292000   0.44141209   -2.0955256   0.66145602   -1.4340695   0.11522915    11526.014     1000 
  294000   0.42430386   -2.1114451   0.63581933   -1.4756257   0.13634907    11227.984     1000 
  296000   0.42371908   -2.1169604   0.63494304   -1.4820173   0.13960164    11285.065     1000 
  298000   0.45222573   -2.1255066   0.67766026   -1.4478464   0.13941275    11464.171     1000 
  300000   0.44694954   -2.0796655   0.66975388   -1.4099116   0.12545797    11448.253     1000 
  302000    0.4482762   -2.1235725   0.67174189   -1.4518306   0.12223029    11436.477     1000 
  304000    0.4434803   -2.0662494   0.66455523   -1.4016942   0.11852996    11423.743     1000 
  306000   0.43908381   -2.0834873   0.65796709   -1.4255202    0.1374693    11262.801     1000 
  308000   0.43331516   -2.0943953   0.64932276   -1.4450725   0.12531035    11471.171     1000 
  310000   0.43656612   -2.0623479   0.65419433   -1.4081536   0.14504357    11206.263     1000 
  312000   0.42895365   -2.0833081   0.64278705   -1.4405211   0.12535373    11424.647     1000 
  314000   0.43730949   -2.1026359   0.65530827   -1.4473276   0.13285795    11268.878     1000 
  316000   0.44653445   -2.1282896   0.66913187   -1.4591577    0.1268209    11428.313     1000 
  318000   0.42609971   -2.1013372   0.63851042   -1.4628268   0.13312655     11367.35     1000 
  320000   0.44508747   -2.0934957   0.66696358   -1.4265321   0.13414548    11467.532     1000 
  322000   0.44575912   -2.0636525   0.66797004   -1.3956825   0.12980634    11394.235     1000 
  324000   0.45983184   -2.0808701   0.68905802   -1.3918121   0.13464028    11380.836     1000 
  326000    0.4452901   -2.0932365   0.66726722   -1.4259693   0.13247731    11304.475     1000 
  328000   0.42805563   -2.0991256   0.64144137   -1.4576843   0.11586055    11452.923     1000 
  330000   0.41449629    -2.097252   0.62112269   -1.4761293   0.13102449    11502.039     1000 
  332000    0.4192626   -2.0351441   0.62826501   -1.4068791   0.13236066    11301.819     1000 
  334000    0.4299502    -2.039408   0.64428038   -1.3951276   0.12877859    11380.875     1000 
  336000   0.43778937   -2.1259195   0.65602738   -1.4698921   0.12994278    11396.804     1000 
  338000   0.43245466   -2.0831962   0.64803331   -1.4351629   0.11439178    11431.147     1000 
  340000   0.44293974   -2.0874798    0.6637452   -1.4237346   0.13941044    11276.409     1000 
  342000   0.43506681   -2.1404722   0.65194762   -1.4885246   0.13787509    11372.395     1000 
  344000   0.43238864   -2.1247367   0.64793438   -1.4768023   0.13577074    11388.515     1000 
  346000   0.41308227   -2.1031515   0.61900379   -1.4841477   0.13641966    11326.558     1000 
  348000   0.44459547   -2.1288904   0.66622631   -1.4626641   0.13346166    11376.586     1000 
  350000   0.43020291   -2.1384088   0.64465906   -1.4937498   0.12627672    11399.994     1000 
  352000   0.45596086    -2.099943   0.68325734   -1.4166857   0.12961002    11311.079     1000 
  354000   0.45193766   -2.0979659   0.67722858   -1.4207373   0.12957222    11369.692     1000 
  356000    0.4346089   -2.0958743   0.65126144   -1.4446129   0.11997061    11458.879     1000 
  358000   0.43564093   -2.0992346   0.65280794   -1.4464267   0.14029596    11311.934     1000 
  360000   0.43680155    -2.099902   0.65454713   -1.4453549   0.13436546    11317.138     1000 
  362000    0.4335297   -2.1395589   0.64964425   -1.4899147   0.12778647    11494.195     1000 
  364000    0.4458226   -2.0775263   0.66806517   -1.4094612   0.13829751    11377.839     1000 
  366000   0.46342815   -2.0768796   0.69444709   -1.3824325   0.12315976    11399.431     1000 
  368000   0.42238435   -2.1264204   0.63294295   -1.4934774   0.13325331    11351.204     1000 
  370000    0.4259766   -2.1503018   0.63832593   -1.5119759   0.13069542    11476.162     1000 
  372000   0.44568667   -2.0930414   0.66786147   -1.4251799    0.1221651    11375.827     1000 
  374000   0.44853994   -2.0796566    0.6721371   -1.4075195   0.12152795    11458.829     1000 
  376000   0.44327654   -2.0834586   0.66424989   -1.4192087    0.1194116    11446.386     1000 
  378000    0.4502943   -2.0459876   0.67476601   -1.3712216   0.12516521    11432.215     1000 
  380000   0.44781071   -2.0872565   0.67104435   -1.4162121   0.13337317    11292.163     1000 
  382000   0.44454299   -2.1149449   0.66614768   -1.4487972   0.13167446     11389.66     1000 
  384000   0.43421251   -2.0950529   0.65066745   -1.4443855   0.12947534    11417.246     1000 
  386000   0.44628492     -2.08456   0.66875795    -1.415802   0.13476318    11334.765     1000 
  388000    0.4575752   -2.1021781   0.68567644   -1.4165016   0.13333419    11283.681     1000 
  390000   0.43723684   -2.0812373   0.65519941   -1.4260379   0.12272414    11332.948     1000 
  392000   0.44616787   -2.0759071   0.66858256   -1.4073246   0.11570283    11391.188     1000 
  394000   0.41726789    -2.128589   0.62527594   -1.5033131   0.12239125    11505.651     1000 
  396000    0.4360701   -2.1156314   0.65345104   -1.4621804    0.1305796    11367.223     1000 
  398000   0.41982192   -2.0920195   0.62910314   -1.4629164   0.14193794    11308.452     1000 
  400000   0.44536691   -2.0423899   0.66738232   -1.3750076    0.1392422    11298.473     1000 
  402000   0.41151529   -2.0903628   0.61665566   -1.4737071   0.12202587    11457.698     1000 
  404000   0.43969266   -2.1011823   0.65887946   -1.4423028   0.12476135    11533.538     1000 
  406000   0.43955907   -2.1437585   0.65867927   -1.4850792   0.12142997    11476.964     1000 
  408000   0.44398469   -2.0995762   0.66531105   -1.4342651   0.13622965    11305.725     1000 
  410000   0.43883379   -2.0438199   0.65759244   -1.3862274   0.12951927    11319.415     1000 
  412000   0.44270357   -2.1230381    0.6633913   -1.4596469   0.13904016    11393.786     1000 
  414000   0.44723233     -2.08667   0.67017765   -1.4164923   0.13167688    11279.354     1000 
  416000   0.43462001   -2.0926706   0.65127808   -1.4413925   0.12860152    11340.374     1000 
  418000   0.43081385   -2.1342623   0.64557455   -1.4886877   0.13191826    11358.079     1000 
  420000   0.45154676   -2.0665019   0.67664281   -1.3898591   0.13051407    11297.495     1000 
  422000    0.4387044   -2.0951786   0.65739854     -1.43778   0.13095474    11355.488     1000 
  424000   0.45407715   -2.1245219   0.68043462   -1.4440873   0.12938125    11410.288     1000 
  426000   0.45981107   -2.1238552   0.68902689   -1.4348283   0.13284302     11332.57     1000 
  428000   0.44514149   -2.0568151   0.66704453   -1.3897706   0.13170835    11264.963     1000 
  430000    0.4518719   -2.0611565   0.67713004   -1.3840265   0.13582125    11319.223     1000 
  432000   0.45547499   -2.1056059   0.68252928   -1.4230767   0.13133924    11437.778     1000 
  434000    0.4321384   -2.1184042    0.6475594   -1.4708448   0.11986664    11533.914     1000 
  436000   0.42534617    -2.072447   0.63738124   -1.4350658   0.12845734    11387.655     1000 
  438000   0.44792464   -2.0840599   0.67121507   -1.4128449   0.13409442     11339.81     1000 
  440000   0.41960037   -2.1225347   0.62877116   -1.4937636   0.12341051     11351.81     1000 
  442000   0.43325774   -2.1054805   0.64923672   -1.4562438   0.13496485    11349.664     1000 
  444000   0.43592945   -2.0639382   0.65324028   -1.4106979   0.12120457    11413.424     1000 
  446000   0.44587923   -2.1245757   0.66815003   -1.4564257   0.13252547    11346.019     1000 
  448000   0.44793446      -2.0909   0.67122979   -1.4196702   0.12467249    11435.656     1000 
  450000   0.44125295     -2.08672   0.66121754   -1.4255024   0.11732078    11510.203     1000 
  452000    0.4340802   -2.0810469   0.65046918   -1.4305777   0.12521073    11430.177     1000 
  454000   0.46034549   -2.0582159   0.68982772   -1.3683882   0.13180308     11266.98     1000 
  456000   0.45013981   -2.1232647   0.67453451   -1.4487302   0.12413345    11457.146     1000 
  458000   0.42583431   -2.0625797   0.63811272    -1.424467   0.13087244    11302.979     1000 
  460000   0.43394632   -2.1022508   0.65026856   -1.4519823   0.12347131    11426.188     1000 
  462000   0.41276832   -2.1106172   0.61853333   -1.4920839   0.12005283    11390.922     1000 
  464000   0.43918572   -2.0543574   0.65811981   -1.3962376   0.13359327    11257.728     1000 
  466000   0.43022045   -2.1481121   0.64468535   -1.5034267   0.13012942    11395.719     1000 
  468000   0.44554828   -2.0969994   0.66765409   -1.4293454   0.12104353    11457.227     1000 
  470000   0.43474254   -2.0559418    0.6514617     -1.40448    0.1361633    11282.887     1000 
  472000   0.44760704   -2.1375228   0.67073915   -1.4667837   0.12471759    11491.489     1000 
  474000   0.45512812   -2.1022247   0.68200949   -1.4202153   0.14120033    11305.724     1000 
  476000   0.43639289   -2.0906406   0.65393474   -1.4367059   0.11957671      11418.7     1000 
  478000   0.43855068    -2.101308    0.6571682   -1.4441398   0.13276404    11399.021     1000 
  480000   0.44310969   -2.0913038   0.66399987    -1.427304   0.13557438    11384.965     1000 
  482000   0.43421507   -2.0992788   0.65067128   -1.4486075    0.1434257      11290.3     1000 
  484000   0.45480366   -2.1229259   0.68152328   -1.4414026   0.13858955    11438.563     1000 
  486000   0.43248958   -2.0624096   0.64808563   -1.4143239   0.11985699    11370.594     1000 
  488000   0.42421853   -2.0808254   0.63569146   -1.4451339   0.13270544    11346.557     1000 
  490000   0.41666891   -2.0628923   0.62437836    -1.438514   0.13935793    11330.752     1000 
  492000   0.43500236   -2.1467694   0.65185104   -1.4949183   0.11345539    11641.617     1000 
  494000   0.44332844   -2.0637526   0.66432767   -1.3994249   0.14289183    11203.124     1000 
  496000   0.43575147   -2.1120012   0.65297358   -1.4590276    0.1206602    11448.211     1000 
  498000    0.4491688   -2.0889963   0.67307944   -1.4159169   0.14854295    11155.735     1000 
  500000     0.448605   -2.0601285    0.6722346   -1.3878939   0.13124283    11310.027     1000 
  502000   0.43163161   -2.1077091   0.64679997   -1.4609092   0.12123568    11502.923     1000 
  504000   0.43017054   -2.1116813   0.64461056   -1.4670708   0.13738767    11364.134     1000 
  506000   0.43938517   -2.0595353   0.65841868   -1.4011166   0.12544014    11468.996     1000 
  508000   0.44492863    -2.098736   0.66672555   -1.4320104    0.1302906     11412.95     1000 
  510000   0.42852449   -2.1012136   0.64214395   -1.4590696   0.12450125    11394.933     1000 
  512000   0.45234807   -2.0961064   0.67784359   -1.4182628   0.12790858    11376.378     1000 
  514000   0.45547083   -2.1158985   0.68252304   -1.4333755   0.13838668    11274.324     1000 
  516000   0.43514148   -2.0968195   0.65205951     -1.44476   0.12505029     11406.24     1000 
  518000   0.43293715   -2.1107585   0.64875632   -1.4620022   0.12325001    11439.383     1000 
  520000   0.44755838   -2.0844047   0.67066624   -1.4137385   0.13372495    11377.857     1000 
  522000   0.44049499    -2.072993   0.66008174   -1.4129113    0.1411142    11305.615     1000 
  524000   0.43229538   -2.1261826   0.64779463    -1.478388   0.11997834    11491.457     1000 
  526000   0.46169124   -2.1132214   0.69184432   -1.4213771   0.13557494    11354.387     1000 
  528000    0.4338085    -2.036971   0.65006203   -1.3869089   0.13443323    11175.778     1000 
  530000   0.45016078    -2.063543   0.67456593   -1.3889771   0.13497077    11270.678     1000 
  532000   0.44534523   -2.0831004   0.66734983   -1.4157506   0.13273132    11313.187     1000 
  534000   0.43568324   -2.1562663   0.65287134    -1.503395   0.11847848    11610.099     1000 
  536000   0.43366663   -2.1132315   0.64984944    -1.463382   0.13627161     11363.07     1000 
  538000   0.43519725   -2.0441444   0.65214308   -1.3920013    0.1153227    11530.686     1000 
  540000   0.44113352   -2.1054514   0.66103858   -1.4444128   0.13617646    11339.705     1000 
  542000   0.44646399   -2.0763973   0.66902628   -1.4073711   0.13149271    11352.524     1000 
  544000   0.45858475   -2.1054365   0.68718924   -1.4182472   0.12675797    11430.164     1000 
  546000   0.44146341   -2.0907487   0.66153293   -1.4292157   0.13328653    11322.412     1000 
  548000   0.45052204   -2.1273248   0.67510728   -1.4522175   0.12648233    11435.282     1000 
  550000   0.44174723   -2.1216858   0.66195823   -1.4597276    0.1236807    11557.253     1000 
  552000   0.42450033   -2.0691762   0.63611375   -1.4330625   0.13006227    11240.581     1000 
  554000   0.45029922    -2.082881   0.67477338   -1.4081076   0.13724425    11293.958     1000 
  556000   0.44117965    -2.105856    0.6611077   -1.4447483   0.11846938    11408.423     1000 
  558000   0.42248458   -2.1373955   0.63309314   -1.5043023   0.12349178    11459.423     1000 
  560000   0.42733862   -2.1370287   0.64036692   -1.4966618   0.12002476    11451.495     1000 
  562000   0.45448765   -2.0882082   0.68104974   -1.4071584   0.13924744    11363.429     1000 
  564000   0.42641504   -2.0876434   0.63898293   -1.4486604   0.12876445    11374.649     1000 
  566000   0.42718323   -2.0948723   0.64013408   -1.4547382   0.13273795    11487.034     1000 
  568000   0.45148694   -2.0959761   0.67655318   -1.4194229   0.12666496    11437.147     1000 
  570000   0.44891164   -2.1040164   0.67269409   -1.4313223    0.1406544    11294.677     1000 
  572000   0.43067108   -2.0592286   0.64536061    -1.413868   0.13507982    11368.074     1000 
  574000   0.44841753   -2.0691236   0.67195366   -1.3971699   0.13459565    11341.084     1000 
  576000   0.45236504   -2.0896732   0.67786902   -1.4118041   0.13730868    11312.029     1000 
  578000   0.44291048   -2.0850322   0.66370136   -1.4213308   0.12319198    11465.751     1000 
  580000   0.43843162   -2.0534781   0.65698979   -1.3964883   0.13431324     11300.93     1000 
  582000   0.42495324   -2.1071968   0.63679244   -1.4704044   0.12440264    11379.474     1000 
  584000   0.45672418   -2.0191488   0.68440118   -1.3347476   0.12629088    11372.671     1000 
  586000   0.42988567   -2.1087175   0.64418367   -1.4645339   0.13152767    11406.041     1000 
  588000     0.425486   -2.1216663   0.63759077   -1.4840755   0.12659398      11459.8     1000 
  590000   0.45558741    -2.110605   0.68269773   -1.4279072   0.14737266    11205.952     1000 
  592000   0.44607553   -2.0851064   0.66844418   -1.4166622   0.12599547     11412.65     1000 
  594000   0.44606321   -2.1042236   0.66842572   -1.4357978   0.12687732    11486.763     1000 
  596000   0.44253271   -2.1375897   0.66313527   -1.4744544   0.12090317     11522.91     1000 
  598000   0.45721104    -2.122312   0.68513075   -1.4371812   0.14072258    11477.054     1000 
  600000   0.42480757   -2.1240673   0.63657414   -1.4874932   0.12471679    11424.819     1000 
  602000   0.46120176    -2.114672   0.69111084   -1.4235612   0.12860358    11431.493     1000 
  604000   0.44949533    -2.054721   0.67356876   -1.3811523   0.13095859    11430.629     1000 
  606000   0.44206851   -2.0526162   0.66243966   -1.3901766    0.1261551    11444.536     1000 
  608000     0.433348    -2.143174   0.64937197    -1.493802   0.11517893    11481.135     1000 
  610000   0.43124336   -2.0526395   0.64621818   -1.4064213   0.12788796    11435.146     1000 
  612000   0.45575086   -2.0855324   0.68294267   -1.4025898   0.14156662    11266.609     1000 
  614000   0.44625337   -2.0690754   0.66871068   -1.4003647   0.14041909    11166.304     1000 
  616000   0.43241326   -2.0813616   0.64797128   -1.4333904   0.13529489    11351.996     1000 
  618000   0.43219831   -2.1024111   0.64764917    -1.454762   0.10765446    11526.439     1000 
  620000   0.43681329   -2.1261029   0.65456471   -1.4715382   0.12395454    11420.459     1000 
  622000   0.46438717   -2.1169078   0.69588418   -1.4210236   0.12653213    11398.747     1000 
  624000   0.44369945   -2.0621629   0.66488362   -1.3972792   0.13893526    11321.323     1000 
  626000   0.43615017   -2.0984646   0.65357103   -1.4448935   0.12301269    11412.735     1000 
  628000   0.44716254   -2.1160421   0.67007307   -1.4459691   0.11829965    11401.852     1000 
  630000   0.44793492   -2.1288024   0.67123049   -1.4575719   0.12942166    11504.979     1000 
  632000   0.44591267   -2.1124508   0.66820013   -1.4442506   0.13582897    11365.061     1000 
  634000   0.45977117   -2.0978962    0.6889671   -1.4089291   0.14092343    11232.018     1000 
  636000   0.44958524   -2.0585448   0.67370348   -1.3848413   0.13318504    11390.331     1000 
  638000   0.46049952   -2.0978379   0.69005853   -1.4077794   0.14288302    11294.698     1000 
  640000   0.44255369   -2.0897245   0.66316671   -1.4265578   0.13456925    11303.332     1000 
  642000   0.42141176   -2.0684719   0.63148553   -1.4369863   0.12874805    11407.749     1000 
  644000   0.44301858   -2.0430818   0.66386334   -1.3792185   0.13923669    11243.186     1000 
  646000   0.42558114   -2.1103819   0.63773334   -1.4726485   0.13164856    11360.713     1000 
  648000   0.45832458   -2.1088543   0.68679939    -1.422055   0.12736284    11476.957     1000 
  650000   0.41538132   -2.1167159   0.62244891    -1.494267   0.12514793    11477.596     1000 
  652000   0.44481372     -2.12615   0.66655336   -1.4595966   0.12644863    11445.682     1000 
  654000    0.4316459   -2.1264996   0.64682138   -1.4796782   0.12025805    11442.847     1000 
  656000   0.43052864   -2.0917032   0.64514717   -1.4465561   0.13293269    11342.935     1000 
  658000   0.42647253   -2.1027572   0.63906909   -1.4636881   0.13442308    11363.225     1000 
  660000   0.44576949   -2.0825595   0.66798558   -1.4145739   0.13427555    11265.509     1000 
  662000   0.45412925    -2.119604   0.68051268   -1.4390913   0.12917807    11457.781     1000 
  664000   0.44297864   -2.1135408    0.6638035   -1.4497373   0.12488207    11492.871     1000 
  666000   0.44491834   -2.1408386   0.66671013   -1.4741285   0.12389403    11480.655     1000 
  668000   0.44544015   -2.1014408   0.66749206   -1.4339487    0.1353865    11411.094     1000 
  670000    0.4474597   -2.0777929   0.67051836   -1.4072746   0.13289104    11264.738     1000 
  672000   0.43471712   -2.0808078    0.6514236   -1.4293842   0.13596365    11353.693     1000 
  674000   0.44741554   -2.0781854   0.67045218   -1.4077333   0.12487656    11478.013     1000 
  676000   0.41075197   -2.1005714   0.61551183   -1.4850595   0.12502279    11423.397     1000 
  678000    0.4335221   -2.0891021   0.64963286   -1.4394692    0.1247905    11495.415     1000 
  680000   0.43972652   -2.1156698   0.65893019   -1.4567396   0.12784759    11380.413     1000 
  682000   0.43442346   -2.1083628   0.65098356   -1.4573793   0.12710727     11426.64     1000 
  684000   0.44113766   -2.0896137   0.66104478   -1.4285689   0.11874202    11517.248     1000 
  686000   0.45377359   -2.1080771   0.67997972   -1.4280973   0.12226762    11462.338     1000 
  688000   0.43658715   -2.1294783   0.65422585   -1.4752524   0.13935443    11326.029     1000 
  690000   0.45976405   -2.1127008   0.68895642   -1.4237444   0.13353486    11346.876     1000 
  692000   0.45413491   -2.0634909   0.68052116   -1.3829697   0.14243814    11213.294     1000 
  694000   0.44444964    -2.068192   0.66600778   -1.4021842   0.12283636    11436.017     1000 
  696000   0.43728631    -2.087924   0.65527354   -1.4326504   0.12997498    11330.566     1000 
  698000   0.44388141   -2.1047709   0.66515629   -1.4396146   0.14484345    11227.785     1000 
  700000   0.44400659   -2.0587118   0.66534388   -1.3933679   0.14077568    11374.389     1000 
  702000   0.44804335   -2.0878715   0.67139295   -1.4164786   0.11875621    11435.604     1000 
  704000   0.44281327   -2.0975507   0.66355568    -1.433995   0.12264061    11387.046     1000 
  706000   0.43139578   -2.0970638   0.64644658   -1.4506173   0.13174376    11405.864     1000 
  708000   0.43427737   -2.1379378   0.65076463   -1.4871732   0.12795154     11558.39     1000 
  710000   0.44359976   -2.1191216   0.66473424   -1.4543873   0.14247268    11217.948     1000 
  712000   0.44322931   -2.0619245   0.66417913   -1.3977454   0.12474923     11371.36     1000 
  714000   0.43811528   -2.0901268   0.65651575    -1.433611    0.1402831    11252.204     1000 
  716000   0.44606833   -2.0840664    0.6684334    -1.415633    0.1293785    11440.778     1000 
  718000   0.42332922   -2.0730043   0.63435883   -1.4386454   0.12922694    11385.817     1000 
  720000   0.43294427   -2.0875486   0.64876699   -1.4387816   0.13442034    11357.106     1000 
  722000   0.44244271   -2.0895396    0.6630004   -1.4265392   0.13774173    11307.538     1000 
  724000   0.44067997   -2.0690777   0.66035894   -1.4087188   0.11832707    11527.581     1000 
  726000   0.42486487   -2.0765617      0.63666   -1.4399017   0.14459808    11204.262     1000 
  728000   0.43041659   -2.0865594   0.64497926   -1.4415801   0.13554214    11226.699     1000 
  730000    0.4141401   -2.0992497   0.62058894   -1.4786608   0.12401908    11352.172     1000 
  732000   0.43308512   -2.1343828   0.64897805   -1.4854048   0.12500219    11392.198     1000 
  734000   0.44465783   -2.1346495   0.66631976   -1.4683297   0.12454468    11432.684     1000 
  736000   0.42944747   -2.0851426   0.64352703   -1.4416156   0.12815384    11293.626     1000 
  738000   0.45706506   -2.1178477     0.684912   -1.4329357   0.13499691    11386.892     1000 
  740000    0.4415674   -2.1342471   0.66168874   -1.4725584   0.13119301    11420.836     1000 
  742000   0.45586057    -2.053157   0.68310706   -1.3700499   0.14036115    11330.376     1000 
  744000   0.43907798   -2.0564988   0.65795835   -1.3985404    0.1375587    11320.452     1000 
  746000   0.43781796   -2.0893524   0.65607021   -1.4332822   0.12876679    11384.606     1000 
  748000   0.43816911   -2.1069883   0.65659641   -1.4503919   0.13674035    11278.745     1000 
  750000   0.43605412   -2.1157298    0.6534271   -1.4623027   0.12612756    11438.955     1000 
  752000   0.42589621    -2.059462   0.63820547   -1.4212565   0.13115862    11268.749     1000 
  754000   0.44466158    -2.088911   0.66632538   -1.4225856   0.12899333      11413.6     1000 
  756000   0.44841329   -2.1097293   0.67194731    -1.437782   0.11820157    11478.527     1000 
  758000   0.44309653   -2.1409661   0.66398014   -1.4769859    0.1320091    11349.795     1000 
  760000   0.44353554   -2.0647013   0.66463801   -1.4000633   0.13732028    11351.351     1000 
  762000   0.43277665    -2.133045   0.64851581   -1.4845292   0.12837858    11427.621     1000 
  764000   0.44700312   -2.0587607   0.66983417   -1.3889265   0.13832164    11330.733     1000 
  766000   0.43968266   -2.1354542   0.65886447   -1.4765898   0.12033795    11447.058     1000 
  768000    0.4350595   -2.0949346   0.65193666   -1.4429979   0.13427575    11329.939     1000 
  770000   0.42861352   -2.1263553   0.64227736    -1.484078   0.13320079     11355.27     1000 
  772000   0.44768203   -2.0888851   0.67085152   -1.4180335   0.14118598    11354.178     1000 
  774000    0.4626457   -2.1077789   0.69327459   -1.4145043    0.1350044    11411.577     1000 
  776000   0.43716971    -2.143268   0.65509881   -1.4881692    0.1312739    11398.562     1000 
  778000   0.45019659   -2.1072254   0.67461959   -1.4326058   0.13184406    11338.432     1000 
  780000   0.44101315    -2.082027   0.66085821   -1.4211688   0.11962566    11469.424     1000 
  782000   0.43147433   -2.0866574   0.64656428   -1.4400931   0.12773389    11353.524     1000 
  784000   0.43667283   -2.0955913   0.65435424   -1.4412371   0.11334807    11484.571     1000 
  786000   0.44351269   -2.1048735   0.66460377   -1.4402698   0.13585964    11314.503     1000 
  788000   0.45105663   -2.0516575   0.67590836   -1.3757491    0.1290859    11327.337     1000 
  790000   0.45504716   -2.1103685   0.68188818   -1.4284803   0.12681632    11334.809     1000 
  792000   0.42902005   -2.1158138   0.64288654   -1.4729272   0.13379377    11473.901     1000 
  794000   0.41420067   -2.0789599    0.6206797   -1.4582802   0.13491329    11254.753     1000 
  796000   0.43792716   -2.0594463   0.65623385   -1.4032124   0.11691243    11385.912     1000 
  798000   0.46700217   -2.1026203   0.69980275   -1.4028176   0.13877015    11306.312     1000 
  800000   0.42957413   -2.1030038   0.64371683    -1.459287   0.13088082    11376.431     1000 
  802000    0.4484983   -2.0461728    0.6720747   -1.3740981   0.12748188    11377.527     1000 
  804000   0.43959294   -2.1297935   0.65873003   -1.4710635   0.12770585    11420.653     1000 
  806000   0.44024777   -2.0857273   0.65971128    -1.426016   0.12315026    11415.476     1000 
  808000   0.44551462   -2.0840608   0.66760365   -1.4164572   0.13179324    11368.334     1000 
  810000    0.4325212   -2.0723042   0.64813302   -1.4241711   0.12725932    11467.775     1000 
  812000   0.44243548   -2.0722827   0.66298957   -1.4092932   0.13419357    11325.834     1000 
  814000   0.44716769   -2.0922419   0.67008079   -1.4221611   0.13176959    11370.436     1000 
  816000   0.43284365   -2.1311488   0.64861621   -1.4825326   0.12365496    11406.412     1000 
  818000   0.43213992   -2.1146159   0.64756167   -1.4670542   0.12527355    11399.577     1000 
  820000   0.45755696    -2.108482    0.6856491   -1.4228329   0.12234197    11510.749     1000 
  822000   0.45920424   -2.1184949   0.68811755   -1.4303773   0.12871863    11461.359     1000 
  824000   0.44377939   -2.0395993   0.66500341   -1.3745959   0.13727664    11294.723     1000 
  826000   0.44215244   -2.0872407   0.66256543   -1.4246753   0.12644251    11448.343     1000 
  828000   0.43466711     -2.11534   0.65134867   -1.4639913   0.13106562    11319.504     1000 
  830000   0.45712078   -2.1281868   0.68499548   -1.4431913   0.13087079    11401.375     1000 
  832000   0.41813927   -2.0963533   0.62658169   -1.4697716   0.14716306    11268.801     1000 
  834000   0.43950343    -2.042058   0.65859589   -1.3834622    0.1296677    11408.653     1000 
  836000   0.43502411   -2.1055012   0.65188364   -1.4536175    0.1251737    11422.043     1000 
  838000   0.44932119   -2.0714938    0.6733078    -1.398186   0.13433993    11377.123     1000 
  840000   0.44824737   -2.0534017   0.67169868    -1.381703   0.12564868    11340.958     1000 
  842000    0.4449807   -2.0781761   0.66680359   -1.4113725   0.13696808    11277.081     1000 
  844000   0.45166582   -2.1176847   0.67682123   -1.4408634   0.13457369    11321.034     1000 
  846000   0.45735025   -2.0885742   0.68533935   -1.4032348   0.14349062    11287.838     1000 
  848000   0.45522497   -2.0459143   0.68215462   -1.3637597   0.13473558    11299.905     1000 
  850000    0.4256139    -2.093497   0.63778243   -1.4557146   0.12170539    11423.337     1000 
  852000   0.43528844   -2.0929779   0.65227973   -1.4406981   0.11617779    11561.996     1000 
  854000   0.44261845   -2.0281766   0.66326374   -1.3649128   0.13337597    11265.685     1000 
  856000   0.43780608   -2.0533843   0.65605242   -1.3973319   0.14510502    11312.011     1000 
  858000    0.4376794   -2.1123182   0.65586258   -1.4564557   0.12479924    11426.135     1000 
  860000   0.43186815   -2.1083634   0.64715442   -1.4612089    0.1338415    11301.466     1000 
  862000   0.43028501   -2.0929369   0.64478209   -1.4481549   0.13415053     11454.28     1000 
  864000   0.42312857   -2.1198883   0.63405817   -1.4858301   0.13408647     11427.69     1000 
  866000     0.416516   -2.1408742   0.62414922    -1.516725   0.11587519    11396.395     1000 
  868000   0.43367342   -2.1473988   0.64985962   -1.4975392   0.12332322    11366.603     1000 
  870000   0.43182286    -2.118535   0.64708656   -1.4714484   0.12286716    11403.064     1000 
  872000   0.42464137   -2.0706594   0.63632509   -1.4343343   0.12222028    11412.124     1000 
  874000   0.44266051   -2.1148839   0.66332678   -1.4515572   0.12687368     11436.55     1000 
  876000   0.43479408   -2.0851092   0.65153892   -1.4335703   0.12506225    11277.903     1000 
  878000    0.4451111   -2.0460465   0.66699898   -1.3790476    0.1240191    11397.556     1000 
  880000   0.43015796   -2.1025886    0.6445917   -1.4579969   0.12109958    11583.124     1000 
  882000   0.43857314   -2.0703197   0.65720186   -1.4131179    0.1377665    11237.287     1000 
  884000   0.44275608   -2.1384367   0.66346998   -1.4749668   0.13292323    11512.907     1000 
  886000   0.44064759   -2.0732276   0.66031041   -1.4129172   0.13582764    11277.083     1000 
  888000    0.4320798   -2.0806414   0.64747158   -1.4331698   0.13420576    11328.548     1000 
  890000    0.4308442   -2.0488391   0.64562003    -1.403219   0.13198747    11288.364     1000 
  892000   0.43615652   -2.0922842   0.65358054   -1.4387037   0.13325137    11362.458     1000 
  894000   0.44117663   -2.0756888   0.66110317   -1.4145856   0.13467016    11275.723     1000 
  896000   0.44555276   -2.0800436   0.66766081   -1.4123828    0.1343287    11337.775     1000 
  898000   0.42748353   -2.1266894   0.64058406   -1.4861053   0.11102794    11486.767     1000 
  900000   0.43284844   -2.0536527   0.64862338   -1.4050293   0.12612564     11392.15     1000 
  902000    0.4420468   -2.0766859   0.66240713   -1.4142787   0.14134591     11311.12     1000 
  904000   0.43102952   -2.1185937   0.64589774    -1.472696   0.13246175     11401.81     1000 
  906000    0.4592622   -2.0950461    0.6882044   -1.4068417   0.14080233    11286.637     1000 
  908000   0.43994914   -2.1054515   0.65926378   -1.4461877   0.13797915    11342.315     1000 
  910000   0.42890824   -2.0721019     0.642719   -1.4293829   0.12641045    11324.893     1000 
  912000   0.43797389   -2.0959581   0.65630388   -1.4396543   0.13513741    11361.051     1000 
  914000   0.43272162   -2.0986035   0.64843335   -1.4501701   0.11743556    11432.834     1000 
  916000   0.42168488   -2.0710512    0.6318948   -1.4391564   0.12912691      11347.8     1000 
  918000   0.43981504   -2.0945244   0.65906284   -1.4354616   0.13510509    11324.787     1000 
  920000   0.42460445   -2.0748373   0.63626977   -1.4385676   0.13827963    11270.626     1000 
  922000   0.44962862   -2.1297042   0.67376849   -1.4559357   0.12627364    11438.979     1000 
  924000   0.44271408   -2.1092322   0.66340705   -1.4458252   0.13113151    11361.677     1000 
  926000   0.44423004   -2.0554962   0.66567871   -1.3898175   0.13492875    11316.659     1000 
  928000    0.4500714   -2.0839279   0.67443199    -1.409496   0.12497566    11443.449     1000 
  930000   0.43335807   -2.0974651   0.64938707   -1.4480781   0.12349005    11364.806     1000 
  932000   0.45412831   -2.1175153   0.68051127    -1.437004   0.13153011    11425.223     1000 
  934000   0.41854941   -2.1043202   0.62719629   -1.4771239   0.12036426    11486.324     1000 
  936000   0.44089632    -2.072615   0.66068313   -1.4119319   0.13916288    11322.749     1000 
  938000   0.46444079   -2.0663245   0.69596453     -1.37036   0.12921056    11499.416     1000 
  940000   0.43578761   -2.1349753   0.65302773   -1.4819476   0.13164488     11416.63     1000 
  942000   0.45554217   -2.0382017   0.68262995   -1.3555717    0.1395542    11270.825     1000 
  944000   0.44416266   -2.0933332   0.66557774   -1.4277555   0.14370886    11279.698     1000 
  946000   0.44954442    -2.094992   0.67364231   -1.4213496   0.13535763    11331.728     1000 
  948000   0.42372748   -2.1191666   0.63495563   -1.4842109   0.12972506    11376.698     1000 
  950000   0.43650923   -2.0749996   0.65410908   -1.4208906   0.11737904    11507.567     1000 
  952000   0.43435747   -2.0853031   0.65088467   -1.4344185   0.13087868    11339.838     1000 
  954000   0.44082004   -2.0773176   0.66056884   -1.4167488   0.13222124    11382.827     1000 
  956000   0.43748821   -2.1263159   0.65557609   -1.4707398   0.11739524    11400.705     1000 
  958000   0.44425235    -2.093615   0.66571214   -1.4279028   0.13394963    11325.882     1000 
  960000   0.44950082   -2.0293743   0.67357697   -1.3557973   0.13592842    11378.497     1000 
  962000   0.43479686   -2.1217263    0.6515431   -1.4701832   0.12450676    11324.126     1000 
  964000   0.41902072    -2.094997   0.62790255   -1.4670945   0.12916872    11358.711     1000 
  966000   0.44994101   -2.1138591    0.6742366   -1.4396225   0.12304604    11513.705     1000 
  968000   0.44249444   -2.0948095   0.66307792   -1.4317316   0.12503103    11372.232     1000 
  970000   0.44154014   -2.1214949    0.6616479    -1.459847   0.13015168    11373.314     1000 
  972000    0.4308984   -2.0887535   0.64570125   -1.4430522    0.1201022     11497.23     1000 
  974000   0.43751497   -2.0582567   0.65561619   -1.4026406   0.14096116    11274.639     1000 
  976000   0.42811845   -2.1218388    0.6415355   -1.4803033   0.13899166    11357.914     1000 
  978000   0.44378047    -2.065383   0.66500503    -1.400378   0.12611655    11335.846     1000 
  980000   0.42592716   -2.1208113   0.63825185   -1.4825595   0.14626315    11237.674     1000 
  982000   0.43937913   -2.0740202   0.65840963   -1.4156106   0.13841267    11334.955     1000 
  984000   0.43155428   -2.0813057   0.64668409   -1.4346216   0.13543872    11266.665     1000 
  986000   0.46359302   -2.0564467   0.69469415   -1.3617526    0.1399732    11286.928     1000 
  988000   0.45508645   -2.1003394   0.68194705   -1.4183924   0.12081775    11470.166     1000 
  990000    0.4402315   -2.0739723   0.65968691   -1.4142854    0.1307125    11367.945     1000 
  992000   0.44086241   -2.0890838   0.66063231   -1.4284515   0.13514413    11294.172     1000 
  994000   0.44156586   -2.1047458   0.66168644   -1.4430594   0.11646733    11520.678     1000 
  996000   0.44265472   -2.1028416    0.6633181   -1.4395235    0.1330046    11421.107     1000 
  998000   0.42993948   -2.1232563   0.64426431    -1.478992   0.12059715    11480.903     1000 
 1000000   0.44400875   -2.1121526   0.66534712   -1.4468055   0.14054424    11332.894     1000 
 1002000   0.44902954   -2.0934806   0.67287077   -1.4206098   0.13376863    11311.819     1000 
 1004000   0.44459606   -2.0773852   0.66622719    -1.411158   0.14400491     11244.24     1000 
 1006000   0.44803684   -2.0749498    0.6713832   -1.4035666   0.13445984    11197.652     1000 
 1008000   0.41259261   -2.0540149   0.61827003   -1.4357449   0.13091202    11336.247     1000 
 1010000   0.42175735   -2.1082591   0.63200339   -1.4762557   0.13495466    11230.401     1000 
 1012000   0.44983577   -2.0707891    0.6740789   -1.3967102   0.13448311    11407.872     1000 
 1014000   0.44296698   -2.1308484   0.66378601   -1.4670624   0.12505121    11451.904     1000 
 1016000    0.4463603   -2.0833162   0.66887091   -1.4144452   0.13026095    11323.941     1000 
 1018000   0.43455028   -2.0919896   0.65117359    -1.440816    0.1378747    11255.132     1000 
 1020000   0.44097782     -2.08314   0.66080526   -1.4223347   0.11382554    11518.688     1000 
 1022000   0.44494414   -2.0593646   0.66674879   -1.3926158   0.13012274    11356.642     1000 
 1024000   0.43000324   -2.1077874   0.64435986   -1.4634275   0.11820011    11513.002     1000 
 1026000   0.44318784    -2.108866   0.66411698    -1.444749   0.12879524     11528.04     1000 
 1028000    0.4353705   -2.0753019   0.65240269   -1.4228993   0.13625627    11349.654     1000 
 1030000   0.43834271    -2.117975   0.65685654   -1.4611185   0.11094567    11501.246     1000 
 1032000   0.44185366   -2.0333209   0.66211771   -1.3712032   0.13579051    11385.333     1000 
 1034000    0.4234587   -2.0789661   0.63455286   -1.4444132   0.12988504    11389.022     1000 
 1036000   0.43219363   -2.0889775   0.64764216   -1.4413353   0.12405577    11502.085     1000 
 1038000   0.44990726   -2.0624664   0.67418602   -1.3882804   0.12424973    11407.533     1000 
 1040000   0.45082574   -2.1200681   0.67556237   -1.4445058   0.12681074    11357.422     1000 
 1042000   0.44292901   -2.0837458   0.66372913   -1.4200167   0.13183339    11279.335     1000 
 1044000   0.44518496   -2.0979823   0.66710966   -1.4308726   0.13890428    11383.183     1000 
 1046000   0.43227134   -2.0666402    0.6477586   -1.4188816   0.12663062    11446.754     1000 
 1048000   0.44545564   -2.0528914   0.66751528   -1.3853761   0.13690248     11283.95     1000 
 1050000   0.44251552   -2.0555141   0.66310951   -1.3924046   0.12760499    11411.176     1000 
 1052000    0.4507877   -2.0627678   0.67550537   -1.3872624   0.15128993    11193.999     1000 
 1054000   0.45930333   -2.0877958   0.68826605   -1.3995298     0.139059    11283.808     1000 
 1056000   0.42064558   -2.0888406   0.63033741   -1.4585032   0.11788277    11500.986     1000 
 1058000   0.44501858   -2.1053747   0.66686034   -1.4385144    0.1210952    11424.045     1000 
 1060000   0.43340767   -2.0807457   0.64946139   -1.4312843   0.14217137     11249.78     1000 
 1062000   0.46067811   -2.1066815   0.69032615   -1.4163554   0.12451561    11398.436     1000 
 1064000   0.46922793   -2.1106023   0.70313806   -1.4074643   0.11390686    11602.836     1000 
 1066000   0.41474369   -2.1213743   0.62149342   -1.4998809   0.12355206    11442.498     1000 
 1068000   0.43597459   -2.0914569   0.65330793    -1.438149   0.13308507    11391.479     1000 
 1070000    0.4258007   -2.1073872   0.63806235   -1.4693249   0.12442166    11431.945     1000 
 1072000   0.42848681   -2.1415579   0.64208749   -1.4994704   0.12115005    11490.449     1000 
 1074000   0.42482006   -2.1102398   0.63659286    -1.473647   0.11922896    11414.486     1000 
 1076000    0.4371629   -2.0927785    0.6550886   -1.4376899    0.1333332    11367.341     1000 
 1078000   0.44683156   -2.0564422    0.6695771   -1.3868651   0.12880983    11333.334     1000 
 1080000   0.43938921   -2.0426142   0.65842473   -1.3841895   0.13421192    11292.663     1000 
 1082000   0.43417234   -2.0848677   0.65060725   -1.4342604   0.12935512    11340.333     1000 
 1084000   0.45123712   -2.1204378   0.67617882   -1.4442589   0.12031209    11425.832     1000 
 1086000    0.4371019   -2.0856206    0.6549972   -1.4306234   0.13792673    11331.082     1000 
 1088000   0.42106696   -2.0546083   0.63096883   -1.4236395   0.11703192     11438.75     1000 
 1090000   0.43139201   -2.0977362   0.64644092   -1.4512953    0.1185043    11529.353     1000 
 1092000   0.44789653   -2.1054762   0.67117295   -1.4343032   0.12249265     11424.98     1000 
 1094000   0.44130862   -2.1006329   0.66130097    -1.439332   0.12594925    11392.734     1000 
 1096000    0.4468623   -2.1295274   0.66962316   -1.4599042   0.14798944    11251.665     1000 
 1098000   0.44562296   -2.0695838     0.667766   -1.4018178   0.14496252    11159.681     1000 
 1100000   0.45438191   -2.1059734   0.68089129   -1.4250821   0.12746014    11515.879     1000 
 1102000   0.45660874   -2.0792618   0.68422819   -1.3950336   0.13252358    11253.108     1000 
 1104000    0.4221517   -2.1473712   0.63259432   -1.5147768   0.10907473    11567.288     1000 
 1106000   0.44189868    -2.100322   0.66218517   -1.4381368   0.13032315    11361.681     1000 
 1108000   0.43630232   -2.1370436   0.65379903   -1.4832446   0.12085808    11494.091     1000 
 1110000   0.42745333   -2.0880798   0.64053882    -1.447541   0.11528774    11475.405     1000 
 1112000   0.43052573   -2.1027199   0.64514281   -1.4575771    0.1353038    11307.197     1000 
 1114000    0.4412958   -2.1021006   0.66128175   -1.4408189    0.1265125    11454.719     1000 
 1116000   0.44616501   -2.0896584   0.66857827   -1.4210801   0.14093279    11404.288     1000 
 1118000   0.45134908   -2.1388697    0.6763466   -1.4625231   0.13053096    11426.159     1000 
 1120000   0.44265091   -2.1061051   0.66331239   -1.4427927   0.12165118    11403.825     1000 
 1122000   0.46713155   -2.0685503   0.69999663   -1.3685537   0.13007715    11327.195     1000 
 1124000   0.44655106   -2.1065872   0.66915677   -1.4374304   0.13565784    11414.983     1000 
 1126000   0.43440209   -2.0823634   0.65095154   -1.4314118   0.12760215    11451.506     1000 
 1128000   0.42890898    -2.096758    0.6427201   -1.4540379   0.13143223    11363.748     1000 
 1130000   0.44199053   -2.1056942   0.66232282   -1.4433714   0.13457516    11403.972     1000 
 1132000   0.43935384   -2.1155448   0.65837172   -1.4571731   0.12923516    11343.098     1000 
 1134000   0.42210134   -2.1012906   0.63251885   -1.4687717   0.13000937    11418.924     1000 
 1136000   0.46236534   -2.0756338   0.69285446   -1.3827794    0.1406356    11223.442     1000 
 1138000   0.45291105    -2.066185    0.6786872   -1.3874978   0.14008749    11234.748     1000 
 1140000   0.43914695   -2.0772393    0.6580617   -1.4191776   0.14215431    11316.894     1000 
 1142000   0.43336951   -2.0577707   0.64940421   -1.4083665   0.12005088      11395.4     1000 
 1144000   0.44167553   -2.1326475   0.66185077   -1.4707968   0.11646539    11588.077     1000 
 1146000   0.43296071   -2.0693726   0.64879162    -1.420581   0.12098031      11383.4     1000 
 1148000   0.44001846    -2.098276   0.65936767   -1.4389084   0.12397304    11507.169     1000 
 1150000   0.42284525   -2.0920745   0.63363361   -1.4584408   0.13264397    11316.091     1000 
 1152000   0.43118705    -2.102384   0.64613379   -1.4562502   0.12756357    11518.143     1000 
 1154000   0.45675403   -2.0965564   0.68444592   -1.4121105   0.14191496      11307.9     1000 
 1156000   0.42513132   -2.0605389   0.63705928   -1.4234797   0.13289085     11285.34     1000 
 1158000   0.43450992   -2.1402124   0.65111312   -1.4890992   0.12581441    11474.484     1000 
 1160000   0.42900941   -2.0497593   0.64287061   -1.4068887   0.13303269    11355.631     1000 
 1162000   0.43866325   -2.1153792   0.65733688   -1.4580424   0.12830693    11427.597     1000 
 1164000    0.4381047   -2.1138503    0.6564999   -1.4573504   0.13131919    11312.577     1000 
 1166000   0.43482008   -2.0772767   0.65157789   -1.4256988   0.12911488    11311.939     1000 
 1168000    0.4281637    -2.093754   0.64160331   -1.4521507   0.12889473    11325.222     1000 
 1170000   0.42726465   -2.1125244   0.64025608   -1.4722683    0.1310975    11343.931     1000 
 1172000   0.43441856   -2.1501528   0.65097621   -1.4991766   0.12751598    11420.653     1000 
 1174000    0.4389163   -2.0883335   0.65771608   -1.4306174   0.13564453    11377.958     1000 
 1176000   0.42495629   -2.0698177     0.636797   -1.4330207   0.12313618     11392.61     1000 
 1178000    0.4275229   -2.0881591   0.64064306   -1.4475161   0.13051639    11335.052     1000 
 1180000   0.43955239   -2.1215542   0.65866926   -1.4628849   0.12961673    11408.439     1000 
 1182000    0.4532491    -2.050661   0.67919378   -1.3714673    0.1399973    11329.115     1000 
 1184000   0.46054148   -2.1138301   0.69012141   -1.4237087   0.13759947    11363.488     1000 
 1186000     0.432413   -2.1521493   0.64797088   -1.5041784   0.14436235    11305.293     1000 
 1188000   0.43782941   -2.0918841   0.65608737   -1.4357967   0.13184734    11399.442     1000 
 1190000    0.4286118   -2.0973281   0.64227479   -1.4550533   0.12352249    11370.054     1000 
 1192000    0.4414178   -2.0873158   0.66146458   -1.4258512   0.12788115    11320.857     1000 
 1194000    0.4279508    -2.126135   0.64128428   -1.4848507   0.12951883    11426.024     1000 
 1196000    0.4152586    -2.075639   0.62226501    -1.453374   0.12740436    11302.994     1000 
 1198000   0.44282742   -2.0721383   0.66357689   -1.4085614   0.13457231    11286.758     1000 
 1200000   0.44840783   -2.1251198   0.67193913   -1.4531807   0.13609053    11335.274     1000 
 1202000   0.44259661    -2.078234   0.66323102    -1.415003   0.12455908    11420.388     1000 
 1204000   0.42702879   -2.1311502   0.63990265   -1.4912475   0.13355506    11297.856     1000 
 1206000    0.4234947   -2.1049121    0.6346068   -1.4703053   0.12422941    11351.099     1000 
 1208000   0.41698457   -2.1180979   0.62485139   -1.4932465   0.13199915    11350.949     1000 
 1210000   0.41687831   -2.0617128   0.62469215   -1.4370206   0.11258087    11491.792     1000 
 1212000   0.42715725   -2.0854155   0.64009514   -1.4453203    0.1337898    11377.662     1000 
 1214000   0.44745201   -2.0972439   0.67050684   -1.4267371   0.12882909    11363.217     1000 
 1216000    0.4473927   -2.1421172   0.67041796   -1.4716992   0.12937206    11412.164     1000 
 1218000   0.41997499   -2.0570323   0.62933252   -1.4276998   0.13329184    11204.079     1000 
 1220000   0.42929617   -2.1198084   0.64330031    -1.476508   0.11332177    11475.596     1000 
 1222000     0.440819   -2.0902714   0.66056727   -1.4297042   0.13951528    11341.759     1000 
 1224000   0.43737066   -2.0615465   0.65539993   -1.4061465   0.13990204    11287.578     1000 
 1226000   0.46759603   -2.0644969   0.70069265   -1.3638043   0.14481111    11321.977     1000 
 1228000   0.45000636   -2.1085242   0.67433453   -1.4341896   0.13358771    11337.951     1000 
 1230000   0.42773438   -2.0529796   0.64095997   -1.4120197   0.12732915    11499.624     1000 
 1232000   0.42921641   -2.1121051    0.6431808   -1.4689244   0.14329148    11309.178     1000 
 1234000   0.44396576   -2.1041625   0.66528269   -1.4388798   0.13948329    11443.877     1000 
 1236000   0.44448397   -2.0620201   0.66605923   -1.3959609    0.1254975    11234.707     1000 
 1238000   0.44981419   -2.1125548   0.67404657   -1.4385083   0.12429164     11448.43     1000 
 1240000   0.43097331   -2.1138276    0.6458135   -1.4680141   0.13347788    11331.201     1000 
 1242000   0.44506092   -2.1056485   0.66692378   -1.4387247   0.13492705    11401.368     1000 
 1244000   0.43880424   -2.0904767   0.65754815   -1.4329285    0.1373115    11340.603     1000 
 1246000    0.4613192   -2.0838122   0.69128682   -1.3925253   0.13044398    11452.839     1000 
 1248000   0.43268776   -2.1301886   0.64838261    -1.481806    0.1251818    11364.316     1000 
 1250000   0.44247314   -2.1094552     0.663046   -1.4464092   0.13393056    11332.504     1000 
 1252000   0.43716339   -2.1004916   0.65508934   -1.4454023   0.12744046    11353.656     1000 
 1254000   0.44724789   -2.1469462   0.67020096   -1.4767452   0.14296566    11352.895     1000 
 1256000   0.43795116   -2.0900717   0.65626981   -1.4338018   0.14069669     11314.48     1000 
 1258000   0.43947137   -2.1239661   0.65854785   -1.4654183   0.13361953    11388.118     1000 
 1260000   0.44776006   -2.0865309   0.67096845   -1.4155624   0.11920771    11459.852     1000 
 1262000   0.44312095   -2.0804002   0.66401675   -1.4163835    0.1356155    11309.349     1000 
 1264000   0.43754149   -2.1216163   0.65565593   -1.4659604   0.12684736    11434.206     1000 
 1266000   0.41889487   -2.1137609   0.62771397   -1.4860469   0.13113354    11314.394     1000 
 1268000   0.44915044   -2.0858337   0.67305194   -1.4127818   0.11603003    11393.696     1000 
 1270000    0.4518115   -2.0907753   0.67703953   -1.4137358   0.12933407     11388.44     1000 
 1272000    0.4614803   -2.1010701   0.69152822   -1.4095418   0.13103652    11348.211     1000 
 1274000   0.43630929   -2.0964903   0.65380946   -1.4426808   0.13564538    11360.696     1000 
 1276000   0.43373558   -2.1129785   0.64995276   -1.4630258   0.12542124    11388.924     1000 
 1278000   0.42362031   -2.1057479   0.63479504   -1.4709529   0.12796115    11433.179     1000 
 1280000   0.42873741   -2.1183759   0.64246301   -1.4759129   0.12221745    11403.594     1000 
 1282000   0.42203138   -2.0761032   0.63241402   -1.4436892   0.12974515    11268.866     1000 
 1284000   0.44918964   -2.0876226   0.67311068   -1.4145119   0.12819701    11416.159     1000 
 1286000     0.451946   -2.1061619   0.67724108   -1.4289208   0.13087777    11406.308     1000 
 1288000   0.43552413    -2.131133   0.65263291   -1.4785001    0.1244485    11541.633     1000 
 1290000   0.45277704   -2.1750607   0.67848639   -1.4965743   0.13133847    11465.578     1000 
 1292000   0.42600997   -2.1468328   0.63837594   -1.5084568   0.12459415    11493.724     1000 
 1294000   0.42779803   -2.1085112   0.64105535   -1.4674558   0.12707145    11474.218     1000 
 1296000   0.43374132   -2.0957032   0.64996137   -1.4457418   0.13227339    11323.867     1000 
 1298000   0.43765345   -2.1134179   0.65582369   -1.4575942   0.12785856    11477.897     1000 
 1300000   0.43778138   -2.1045443    0.6560154   -1.4485289   0.13715675    11337.816     1000 
 1302000   0.46550405   -2.0882694   0.69755782   -1.3907116   0.12973853    11349.941     1000 
 1304000   0.46082226   -2.1345698   0.69054216   -1.4440276   0.13177472    11463.381     1000 
 1306000   0.45515412   -2.0931011   0.68204845   -1.4110527   0.13606459    11440.911     1000 
 1308000   0.44829065   -2.1679398   0.67176354   -1.4961762   0.12539584    11423.782     1000 
 1310000   0.42774548   -2.1070827    0.6409766   -1.4661061   0.13592688    11326.498     1000 
 1312000   0.41560317   -2.0724951   0.62278134   -1.4497138   0.12272186    11389.684     1000 
 1314000   0.44521314   -2.0528897   0.66715189   -1.3857378   0.13864782    11222.389     1000 
 1316000   0.45150715   -2.0598278   0.67658346   -1.3832444   0.13319992    11419.656     1000 
 1318000   0.42912151   -2.1305895   0.64303858    -1.487551   0.12659739    11386.463     1000 
 1320000   0.43408886   -2.1356404   0.65048216   -1.4851583   0.12826419    11437.664     1000 
 1322000   0.44408496   -2.1244572   0.66546131   -1.4589958   0.10736002    11534.397     1000 
 1324000   0.45448991   -2.0760817   0.68105314   -1.3950286   0.13624504    11324.541     1000 
 1326000   0.42049092   -2.0706204   0.63010565   -1.4405148   0.14075405    11303.058     1000 
 1328000   0.44932414   -2.1204913   0.67331222   -1.4471791    0.1235023    11414.797     1000 
 1330000   0.43346796   -2.1196082   0.64955174   -1.4700565   0.11826112    11419.174     1000 
 1332000   0.42956162   -2.0853367   0.64369808   -1.4416387   0.11153437    11586.369     1000 
 1334000   0.43686438   -2.1122972   0.65464128    -1.457656   0.13485394     11432.44     1000 
 1336000   0.44743924   -2.0657555   0.67048771   -1.3952678   0.13366972    11337.243     1000 
 1338000   0.42645813   -2.0464608   0.63904751   -1.4074133    0.1247576    11298.116     1000 
 1340000   0.43824269    -2.063965   0.65670667   -1.4072583   0.12681288    11409.361     1000 
 1342000   0.42652862   -2.1109426   0.63915314   -1.4717894   0.14098828    11286.912     1000 
 1344000   0.43708474   -2.0409917   0.65497148   -1.3860203   0.13381456    11306.962     1000 
 1346000   0.43945951    -2.088139   0.65853008   -1.4296089   0.11776235     11417.19     1000 
 1348000   0.42598416   -2.1144329   0.63833726   -1.4760957   0.13771056    11451.367     1000 
 1350000   0.42516561   -2.0641965   0.63711067   -1.4270858   0.13375431    11338.441     1000 
 1352000   0.44639612   -2.0861786   0.66892458    -1.417254   0.12704862    11455.342     1000 
 1354000   0.42085962   -2.1077149   0.63065814   -1.4770568   0.13341949     11343.25     1000 
 1356000   0.43013117   -2.0680521   0.64455157   -1.4235005    0.1296554    11419.028     1000 
 1358000   0.44055602   -2.1216998    0.6601732   -1.4615266   0.11480394    11506.058     1000 
 1360000   0.44831811   -2.0542143   0.67180469   -1.3824096   0.13324356    11280.559     1000 
 1362000   0.44939066   -2.0970004   0.67341191   -1.4235885   0.12995317    11455.248     1000 
 1364000   0.42608091   -2.1057429   0.63848224   -1.4672606   0.11860672    11469.152     1000 
 1366000   0.43888286    -2.096894   0.65766597    -1.439228   0.12513872     11464.54     1000 
 1368000   0.43821637   -2.0516392   0.65666723    -1.394972   0.13100383     11232.41     1000 
 1370000   0.42054082   -2.1040761   0.63018043   -1.4738957   0.12615808     11320.69     1000 
 1372000   0.42490574   -2.0481044   0.63672125   -1.4113832   0.12006925     11408.93     1000 
 1374000   0.45298569   -2.0981663   0.67879905   -1.4193672   0.13258343    11241.865     1000 
 1376000   0.43408629   -2.0619299    0.6504783   -1.4114516   0.14019917    11179.526     1000 
 1378000   0.43486196   -2.0757118   0.65164065   -1.4240712   0.13767782    11269.751     1000 
 1380000   0.44707553   -2.1224874   0.66994267   -1.4525448   0.12568284    11418.555     1000 
 1382000   0.43532737   -2.1120208   0.65233806   -1.4596828   0.12891102    11472.442     1000 
 1384000   0.43617803   -2.1173785   0.65361277   -1.4637658   0.12190389    11520.482     1000 
 1386000   0.44402432   -2.1006086   0.66537044   -1.4352382   0.13437757    11374.814     1000 
 1388000   0.44025631   -2.0920422   0.65972409   -1.4323181   0.12696216    11371.616     1000 
 1390000   0.44987365   -2.0999825   0.67413567   -1.4258469   0.12219091    11383.659     1000 
 1392000   0.43809803   -2.0893363    0.6564899   -1.4328464   0.12769342    11421.908     1000 
 1394000   0.45982557   -2.0864084   0.68904862   -1.3973598   0.13428722    11392.604     1000 
 1396000   0.43242697   -2.1251885   0.64799182   -1.4771967   0.11171512    11545.125     1000 
 1398000   0.45177204   -2.0446737   0.67698041   -1.3676932    0.1249646     11421.29     1000 
 1400000    0.4560154    -2.130117   0.68333907   -1.4467779    0.1319292    11390.528     1000 
 1402000   0.47342149   -2.1179564   0.70942211   -1.4085343   0.12388443    11445.037     1000 
 1404000   0.45385997   -2.1128256   0.68010916   -1.4327165    0.1335587    11381.181     1000 
 1406000   0.44051658   -2.1082635   0.66011409   -1.4481494    0.1318559    11431.732     1000 
 1408000    0.4442876   -2.1093903   0.66576496   -1.4436253   0.12501292    11413.947     1000 
 1410000   0.45154478   -2.0976926   0.67663985   -1.4210528   0.13468025    11332.618     1000 
 1412000   0.45134723   -2.0805107   0.67634383   -1.4041669   0.13284049    11374.318     1000 
 1414000   0.44337384   -2.0998634    0.6643957   -1.4354677   0.14392127    11174.803     1000 
 1416000   0.44286546     -2.11738   0.66363389   -1.4537461   0.13261452     11456.39     1000 
 1418000    0.4605559   -2.1105058   0.69014301   -1.4203628   0.13655796     11356.16     1000 
 1420000    0.4198255   -2.0532273   0.62910852   -1.4241187   0.13460566    11415.625     1000 
 1422000   0.45342678   -2.0983336   0.67946003   -1.4188736   0.13822067    11239.506     1000 
 1424000   0.43515073   -2.1044213   0.65207337   -1.4523479   0.12850417    11373.386     1000 
 1426000   0.42450906   -2.0975553   0.63612683   -1.4614285   0.12367129    11406.172     1000 
 1428000   0.43295373   -2.0899688   0.64878117   -1.4411876   0.12674529    11369.399     1000 
 1430000   0.42273448   -2.1076144   0.63346762   -1.4741468    0.1287633     11395.34     1000 
 1432000   0.42404604   -2.0876506     0.635433   -1.4522176   0.12893415    11325.431     1000 
 1434000   0.46772068    -2.043503   0.70087943   -1.3426236   0.14527308    11214.665     1000 
 1436000    0.4469977   -2.1461012   0.66982606   -1.4762751   0.12685538    11375.076     1000 
 1438000    0.4393612   -2.0763417   0.65838276    -1.417959   0.13442488    11403.116     1000 
 1440000   0.43932694   -2.0534419   0.65833142   -1.3951104      0.13616    11345.782     1000 
 1442000   0.42907309   -2.1356118   0.64296603   -1.4926458    0.1160072    11586.658     1000 
 1444000   0.45813982   -2.0426133   0.68652252   -1.3560908   0.13304691    11353.131     1000 
 1446000   0.43888541   -2.0777434   0.65766979   -1.4200736   0.13049771    11392.041     1000 
 1448000   0.43751904   -2.0708342   0.65562228   -1.4152119   0.12812978    11367.189     1000 
 1450000   0.44695099   -2.0826117   0.66975606   -1.4128557    0.1319725    11322.592     1000 
 1452000   0.41719647   -2.1212195   0.62516891   -1.4960506   0.11649421    11541.626     1000 
 1454000   0.44640895   -2.0815466   0.66894382   -1.4126028   0.13287474    11448.351     1000 
 1456000   0.44596306   -2.0822203   0.66827565   -1.4139447   0.13125685    11295.805     1000 
 1458000    0.4328471   -2.1134128   0.64862139   -1.4647914   0.12816002    11500.964     1000 
 1460000   0.42934293   -2.0819116   0.64337039   -1.4385413    0.1277795    11429.814     1000 
 1462000   0.41907128   -2.1228416   0.62797831   -1.4948633   0.13152054    11385.491     1000 
 1464000   0.42284355   -2.1237038   0.63363105   -1.4900728   0.12438634    11444.896     1000 
 1466000   0.44603413   -2.1051628   0.66838214   -1.4367806   0.13761808    11336.269     1000 
 1468000   0.44800356    -2.076329   0.67133333   -1.4049957    0.1322937    11422.982     1000 
 1470000   0.44001255   -2.0749197   0.65935881   -1.4155609   0.13388014    11354.935     1000 
 1472000   0.44597641   -2.1413306   0.66829564   -1.4730349   0.13539873     11406.45     1000 
 1474000   0.42842358   -2.0638311   0.64199274   -1.4218384   0.14429717    11225.269     1000 
 1476000   0.44194972   -2.0386092   0.66226165   -1.3763475   0.12558217    11406.754     1000 
 1478000   0.44231574   -2.0905406   0.66281013   -1.4277305   0.11852486    11474.639     1000 
 1480000   0.43964305   -2.0532533   0.65880511   -1.3944482   0.14135979    11241.821     1000 
 1482000    0.4490052   -2.1426014    0.6728343   -1.4697671   0.13353234    11439.677     1000 
 1484000   0.43916851   -2.0996847   0.65809401   -1.4415907   0.13076642    11389.042     1000 
 1486000   0.43574484   -2.0849243   0.65296365   -1.4319607   0.13417557    11309.226     1000 
 1488000   0.44538706   -2.0986482   0.66741251   -1.4312357   0.12332407    11402.713     1000 
 1490000   0.42720486   -2.1212492   0.64016648   -1.4810827   0.13229352      11458.8     1000 
 1492000   0.44595325   -2.1062777   0.66826094   -1.4380168   0.13633642    11294.611     1000 
 1494000   0.44388523   -2.1246761   0.66516202   -1.4595141   0.11578284    11475.657     1000 
 1496000   0.44715329    -2.057301    0.6700592   -1.3872418   0.13935244    11248.763     1000 
 1498000   0.46063901   -2.1056034   0.69026756   -1.4153358   0.13364732    11354.491     1000 
 1500000    0.4522044   -2.1113589   0.67762829   -1.4337306   0.13613726    11325.859     1000 
 1502000   0.44511777   -2.1011806   0.66700899   -1.4341717   0.12626955    11401.634     1000 
 1504000   0.43408245   -2.1503191   0.65047256   -1.4998465   0.13521949    11303.189     1000 
 1506000   0.43644658   -2.1018147    0.6540152   -1.4477995   0.13953076    11329.122     1000 
 1508000    0.4293609   -2.0838571    0.6433973   -1.4404598   0.12798859    11421.605     1000 
 1510000   0.46449554   -2.0792778   0.69604657   -1.3832312    0.1406422    11255.693     1000 
 1512000   0.44223471   -2.0733962   0.66268871   -1.4107075   0.13126864    11438.289     1000 
 1514000    0.4428247    -2.077724   0.66357282   -1.4141512   0.12603405    11370.077     1000 
 1516000   0.45862881   -2.1187795   0.68725527   -1.4315243   0.12751764    11457.627     1000 
 1518000   0.42464401   -2.0633859   0.63632904   -1.4270568   0.12893972    11290.305     1000 
 1520000   0.43114624   -2.1140727   0.64607264   -1.4680001   0.12247363    11366.427     1000 
 1522000    0.4198572   -2.0976141   0.62915601   -1.4684581   0.12533909    11367.472     1000 
 1524000   0.42176669   -2.1306418   0.63201739   -1.4986245   0.12741839    11357.389     1000 
 1526000   0.44942829   -2.0601735    0.6734683   -1.3867052   0.12495067    11386.837     1000 
 1528000   0.43227211   -2.0943606   0.64775976   -1.4466008   0.13571191    11325.237     1000 
 1530000   0.42212445   -2.1190833   0.63255349   -1.4865299   0.13443363    11315.369     1000 
 1532000   0.44243649   -2.1172815   0.66299108   -1.4542904   0.12727313    11392.151     1000 
 1534000   0.45953515   -2.1270997   0.68861342   -1.4384863   0.13524337     11328.08     1000 
 1536000   0.45985171   -2.0603686   0.68908779   -1.3712808   0.12798709    11424.057     1000 
 1538000   0.44536829   -2.1515056   0.66738438   -1.4841212   0.11919397    11518.278     1000 
 1540000   0.43657343   -2.1290765   0.65420529   -1.4748712   0.13068368    11324.163     1000 
 1542000   0.44770908     -2.07564   0.67089206   -1.4047479   0.12264434    11396.798     1000 
 1544000   0.42960758   -2.0919916   0.64376696   -1.4482246   0.12866114    11324.055     1000 
 1546000   0.43941896   -2.0485806   0.65846932   -1.3901113   0.13878593    11263.368     1000 
 1548000   0.44501197   -2.1272812   0.66685044   -1.4604308   0.14066304    11353.075     1000 
 1550000   0.43172732   -2.0650561   0.64694339   -1.4181127   0.12943916     11364.24     1000 
 1552000   0.43675597    -2.049457   0.65447881   -1.3949782   0.13418366    11320.701     1000 
 1554000   0.44939194   -2.1517705   0.67341382   -1.4783567   0.13192979    11358.509     1000 
 1556000   0.43024408   -2.1304263   0.64472076   -1.4857055   0.13591012    11352.053     1000 
 1558000   0.43584844   -2.1386885   0.65311889   -1.4855697   0.13971375    11355.322     1000 
 1560000    0.4369751   -2.0860041   0.65480718   -1.4311969   0.13122499    11382.034     1000 
 1562000   0.43185681   -2.0642045   0.64713743   -1.4170671   0.12721127    11421.033     1000 
 1564000   0.42259269   -2.0902133   0.63325514   -1.4569582    0.1305433    11335.184     1000 
 1566000   0.42265094   -2.0976552   0.63334244   -1.4643128   0.12006066    11353.004     1000 
 1568000   0.44934303   -2.1009719   0.67334054   -1.4276314   0.12457421    11424.115     1000 
 1570000   0.44490004    -2.101429   0.66668271   -1.4347462   0.13952475    11302.731     1000 
 1572000   0.45467624   -2.1152764   0.68133234    -1.433944   0.12853336    11442.742     1000 
 1574000   0.43621809   -2.1202903   0.65367281   -1.4666175   0.12743706    11356.412     1000 
 1576000   0.46481807   -2.0739255   0.69652987   -1.3773957   0.13968399    11256.321     1000 
 1578000   0.44326636   -2.0463306   0.66423465   -1.3820959   0.12329371    11420.241     1000 
 1580000   0.44193247   -2.0926034   0.66223581   -1.4303676   0.12847662    11496.265     1000 
 1582000   0.43942262    -2.084293   0.65847479   -1.4258182   0.13271125    11233.736     1000 
 1584000   0.47149196   -2.1075346    0.7065307   -1.4010039   0.12014173    11395.931     1000 
 1586000   0.43879068    -2.061662   0.65752784   -1.4041341   0.12793656    11311.317     1000 
 1588000   0.45093857   -2.0859043   0.67573145   -1.4101729   0.13669705    11361.688     1000 
[...]
 2614000   0.44534126   -2.1042092   0.66734387   -1.4368653   0.14374118    11261.603     1000 
 2616000   0.42478794   -2.0942665   0.63654473   -1.4577218   0.11632951    11470.249     1000 
 2618000   0.44248542   -2.1088989    0.6630644   -1.4458345   0.13085732    11355.183     1000 
 2620000   0.45184512   -2.1255194   0.67708992   -1.4484295   0.12858054    11489.351     1000 
 2622000   0.43081645   -2.0837113   0.64557845   -1.4381328   0.11962451    11508.493     1000 
 2624000   0.46512727   -2.0721774   0.69699321   -1.3751842   0.12636406    11405.483     1000 
 2626000   0.43859832   -2.1380176   0.65723959    -1.480778   0.11686196    11493.592     1000 
 2628000   0.43301821   -2.0807112   0.64887778   -1.4318334    0.1164138    11450.211     1000 
 2630000   0.44287949    -2.119745   0.66365492     -1.45609   0.13693779    11239.489     1000 
 2632000   0.44031261   -2.0909465   0.65980845    -1.431138   0.13488272     11336.83     1000 
 2634000   0.42168369   -2.0681958   0.63189301   -1.4363028   0.13465876    11297.483     1000 
 2636000   0.44935312   -2.0690624   0.67335565   -1.3957068   0.13730531    11190.586     1000 
 2638000   0.44433241    -2.089599   0.66583212   -1.4237669   0.14628873    11226.492     1000 
 2640000   0.43648177   -2.0889047   0.65406793   -1.4348368   0.12836319    11499.505     1000 
 2642000   0.43903232   -2.0580823   0.65788993   -1.4001923   0.14261623     11290.16     1000 
 2644000   0.44993233   -2.0649666    0.6742236    -1.390743    0.1262196    11348.871     1000 
 2646000   0.41969827   -2.0720978   0.62891785     -1.44318   0.13710151    11265.797     1000 
 2648000   0.43808041   -2.0982726    0.6564635   -1.4418091   0.14331458    11290.772     1000 
 2650000   0.43416152   -2.1119534   0.65059104   -1.4613624   0.14203566    11238.732     1000 
 2652000   0.46096755   -2.1728877   0.69075988   -1.4821279   0.12561452    11489.391     1000 
 2654000   0.43402948   -2.0956843   0.65039317   -1.4452911   0.13482839    11380.074     1000 
 2656000    0.4388958   -2.0793406   0.65768535   -1.4216552   0.13911513    11227.958     1000 
 2658000     0.423202   -2.0854312   0.63416819    -1.451263   0.11827496    11440.837     1000 
 2660000   0.40701833   -2.1373833   0.60991697   -1.5274663   0.13203468     11305.46     1000 
 2662000   0.42983568   -2.1021889   0.64410876   -1.4580801   0.13835536    11272.277     1000 
 2664000   0.44639019   -2.1018402   0.66891571   -1.4329245   0.12448388      11273.2     1000 
 2666000   0.43175239   -2.0726823   0.64698096   -1.4257014   0.14511091    11315.712     1000 
 2668000   0.43643807   -2.0973458   0.65400244   -1.4433434   0.12807587    11446.902     1000 
 2670000   0.41771996   -2.1139239   0.62595336   -1.4879705   0.11112821    11548.084     1000 
 2672000   0.44297142   -2.0750202   0.66379267   -1.4112275   0.13209142    11267.321     1000 
 2674000   0.45413799   -2.0739287   0.68052578   -1.3934029   0.13087402    11434.642     1000 
 2676000   0.43922705   -2.0627131   0.65818174   -1.4045313   0.12591061    11395.907     1000 
 2678000   0.44879872   -2.0686712   0.67252489   -1.3961463   0.12559191    11464.902     1000 
 2680000   0.43811979   -2.0746763    0.6565225   -1.4181538    0.1354547    11348.207     1000 
 2682000   0.42957984    -2.110651   0.64372539   -1.4669256   0.13228386    11421.143     1000 
 2684000   0.45220636   -2.1072442   0.67763123   -1.4296129   0.15014483    11316.368     1000 
 2686000   0.44925973   -2.0905574    0.6732157   -1.4173417   0.12141314    11488.665     1000 
 2688000   0.42420644   -2.0439381   0.63567334   -1.4082648   0.12676847    11323.857     1000 
 2690000   0.44290042   -2.0798283   0.66368628   -1.4161421   0.12647944    11453.053     1000 
 2692000   0.43124526   -2.1364593   0.64622103   -1.4902382   0.12903697    11418.936     1000 
 2694000   0.44749379   -2.1611649   0.67056945   -1.4905955   0.13453671    11400.143     1000 
 2696000   0.43894456   -2.1276363   0.65775843   -1.4698779   0.14153206    11292.198     1000 
 2698000   0.40845062   -2.1100321   0.61206326   -1.4979688   0.12278523    11381.005     1000 
 2700000   0.43059279   -2.1154085   0.64524329   -1.4701652   0.12612414    11376.775     1000 
 2702000   0.43036054   -2.0840593   0.64489528   -1.4391641   0.13057424    11363.839     1000 
 2704000   0.45832466   -2.0810446   0.68679951   -1.3942451   0.13272285    11443.384     1000 
 2706000   0.46364576   -2.1231793   0.69477317   -1.4284061   0.12292272    11384.999     1000 
 2708000   0.45788019   -2.1010415   0.68613346   -1.4149081   0.14485867    11302.997     1000 
 2710000   0.43073919       -2.081   0.64546268   -1.4355373   0.13242422    11297.296     1000 
 2712000   0.44047117   -2.1321317   0.66004605   -1.4720857   0.13095708    11418.357     1000 
 2714000   0.43147386   -2.0655763   0.64656358   -1.4190127   0.12713901    11411.978     1000 
 2716000   0.43745185   -2.1126323   0.65552159   -1.4571107   0.11809694    11455.738     1000 
 2718000   0.44620696   -2.1190267   0.66864114   -1.4503856   0.13082791    11400.337     1000 
 2720000   0.42993795   -2.1356545   0.64426202   -1.4913925   0.12579292    11511.407     1000 
 2722000   0.44774834   -2.0687584   0.67095089   -1.3978075   0.13282318    11301.311     1000 
 2724000   0.42989736   -2.0228617   0.64420119   -1.3786605   0.13893949     11231.93     1000 
 2726000   0.42999197   -2.0820265   0.64434297   -1.4376836   0.13327993    11313.887     1000 
 2728000   0.45200925   -2.0761316   0.67733586   -1.3987958   0.12130833     11282.19     1000 
 2730000   0.42829283   -2.1009899   0.64179681   -1.4591931   0.12953629    11423.573     1000 
 2732000   0.44420226   -2.0786993   0.66563709   -1.4130622    0.1252636     11518.84     1000 
 2734000   0.43508843   -2.1230975   0.65198001   -1.4711175   0.11814396    11426.635     1000 
 2736000   0.44152317   -2.1268989   0.66162247   -1.4652764   0.12236347    11535.515     1000 
 2738000   0.45852551   -2.0581697   0.68710048   -1.3710692   0.13116972     11356.61     1000 
 2740000   0.43796466   -2.0930427   0.65629004   -1.4367526   0.13931625    11262.382     1000 
 2742000   0.45052773   -2.1001436    0.6751158   -1.4250278   0.13110345    11335.629     1000 
 2744000    0.4571863   -2.0905424   0.68509367   -1.4054487   0.12872409      11416.4     1000 
 2746000   0.45795775   -2.1102746   0.68624969   -1.4240249   0.12423446    11416.985     1000 
 2748000    0.4194017   -2.0687087   0.62847345   -1.4402353   0.12917551    11381.493     1000 
 2750000   0.46670093   -2.0922538   0.69935134   -1.3929024   0.13659065    11304.049     1000 
 2752000   0.43212434     -2.10773   0.64753832   -1.4601917   0.12784805        11322     1000 
 2754000   0.43375125   -2.1075861   0.64997625   -1.4576099   0.13484304    11349.528     1000 
 2756000   0.43951836   -2.0910049   0.65861826   -1.4323866   0.13320588    11305.674     1000 
 2758000    0.4371731   -2.0750921   0.65510388   -1.4199882   0.14772679    11206.473     1000 
 2760000   0.43442213   -2.0763863   0.65098157   -1.4254048   0.12026003    11368.003     1000 
 2762000   0.44165491   -2.0845494   0.66181989   -1.4227295   0.11979783    11475.277     1000 
 2764000   0.45469242   -2.0954277   0.68135659   -1.4140711   0.13751649     11216.64     1000 
 2766000   0.44349475   -2.0993879   0.66457689    -1.434811   0.12636568    11403.415     1000 
 2768000   0.44706518   -2.1278205   0.66992717   -1.4578933   0.12933115    11443.965     1000 
 2770000   0.42913283   -2.1168791   0.64305554   -1.4738236   0.11733447    11461.999     1000 
 2772000    0.4408996   -2.0826344   0.66068805   -1.4219463   0.12878443     11330.37     1000 
 2774000   0.44702725   -2.1343258   0.66987033   -1.4644554   0.12531233    11515.615     1000 
 2776000   0.44929694   -2.1101132   0.67327146   -1.4368417    0.1221385    11376.622     1000 
 2778000   0.43362539   -2.0895361   0.64978765   -1.4397484   0.13036514    11317.129     1000 
 2780000   0.44274274    -2.164833   0.66344999   -1.5013831   0.12746105    11526.415     1000 
 2782000   0.44774758   -2.0888718   0.67094976    -1.417922   0.13384843     11309.66     1000 
 2784000   0.44524918   -2.0533255    0.6672059   -1.3861196    0.1279793    11274.067     1000 
 2786000   0.44141154   -2.1558744   0.66145519   -1.4944192   0.12384798     11461.42     1000 
 2788000   0.43936465   -2.1083188   0.65838793   -1.4499309   0.12979792    11381.222     1000 
 2790000   0.45023083   -2.0920714    0.6746709   -1.4174005   0.13586622    11352.914     1000 
 2792000   0.42542744   -2.0998226   0.63750302   -1.4623196   0.14252498    11297.394     1000 
 2794000   0.43822594   -2.0645783   0.65668158   -1.4078967   0.12643638    11402.366     1000 
 2796000   0.45389145   -2.1026749   0.68015633   -1.4225186   0.13093167     11324.75     1000 
 2798000   0.43529169   -2.0615943   0.65228459   -1.4093097    0.1127273    11541.345     1000 
 2800000   0.44890803   -2.0808729   0.67268868   -1.4081843   0.12568363    11465.002     1000 
 2802000   0.44218646   -2.0693447    0.6626164   -1.4067283   0.12637842    11361.462     1000 
 2804000   0.44928696   -2.0849062   0.67325651   -1.4116497   0.12614506    11498.282     1000 
 2806000   0.44865038   -2.0774719    0.6723026   -1.4051693   0.13938848    11296.091     1000 
 2808000   0.42171728   -2.1146497   0.63194334   -1.4827063   0.11514233    11392.627     1000 
 2810000   0.44540384   -2.0999084   0.66743766   -1.4324708    0.1310726    11328.888     1000 
 2812000   0.43064356   -2.0561724   0.64531937    -1.410853   0.12670285    11335.538     1000 
 2814000   0.42041373   -2.0446568   0.62998998   -1.4146668    0.1243291    11403.322     1000 
 2816000   0.43123809   -2.1182507   0.64621028   -1.4720404   0.12486769    11424.948     1000 
 2818000   0.42510246   -2.0927436   0.63701604   -1.4557276   0.13434125    11474.288     1000 
 2820000   0.43880493   -2.1200072   0.65754919    -1.462458    0.1483881    11298.826     1000 
 2822000   0.42760666   -2.1265076   0.64076857   -1.4857391   0.14100792    11286.531     1000 
 2824000   0.43204206   -2.1132467   0.64741502   -1.4658317    0.1267883    11472.907     1000 
 2826000   0.44744407   -2.1068462   0.67049494   -1.4363513   0.13015405    11405.688     1000 
 2828000   0.46135148   -2.1504386   0.69133519   -1.4591034   0.11760793    11537.751     1000 
 2830000   0.42395672   -2.1098021   0.63529915    -1.474503   0.12442224    11390.667     1000 
 2832000   0.44893989   -2.0526225   0.67273642   -1.3798861   0.13397404    11412.983     1000 
 2834000   0.42990588   -2.0425875   0.64421396   -1.3983735   0.12619283    11412.094     1000 
 2836000    0.4361161   -2.0678226   0.65351998   -1.4143026   0.13568753    11234.074     1000 
 2838000    0.4480885   -2.1075426   0.67146062    -1.436082   0.12934039    11385.774     1000 
 2840000   0.44707396   -2.1038523   0.66994033    -1.433912   0.12617634    11412.383     1000 
 2842000   0.44586966   -2.1017661   0.66813569   -1.4336304   0.12562646    11447.597     1000 
 2844000   0.44041082   -2.1476694   0.65995562   -1.4877137   0.12249003    11426.181     1000 
 2846000   0.44439998   -2.0975144   0.66593338    -1.431581   0.12415236    11376.114     1000 
 2848000     0.441968   -2.1042635   0.66228905   -1.4419745   0.12754423    11427.123     1000 
 2850000   0.44511233    -2.143224   0.66700083   -1.4762232   0.12344627    11470.158     1000 
 2852000   0.44686736   -2.1240281   0.66963074   -1.4543973   0.11359926    11619.155     1000 
 2854000   0.43644617   -2.0980246   0.65401458   -1.4440101   0.14108085    11286.141     1000 
 2856000   0.41831716   -2.0699141   0.62684826   -1.4430658   0.13881498    11325.157     1000 
 2858000   0.45858638   -2.0801632   0.68719169   -1.3929715   0.13685405    11245.478     1000 
 2860000   0.43359852   -2.0348503   0.64974738   -1.3851029    0.1391438    11257.935     1000 
 2862000   0.45108547   -2.1220283   0.67595158   -1.4460767    0.1283108     11391.13     1000 
 2864000   0.43756305   -2.1676941   0.65568823   -1.5120059   0.11885649    11431.956     1000 
 2866000   0.44565374   -2.1041596   0.66781212   -1.4363475   0.13152216    11411.481     1000 
 2868000   0.43469915   -2.1179525   0.65139668   -1.4665558   0.12396851    11502.745     1000 
 2870000    0.4509416   -2.0911966   0.67573598   -1.4154606   0.13252702    11238.561     1000 
 2872000   0.43294511   -2.1196433   0.64876824   -1.4708751   0.12576276     11437.11     1000 
 2874000    0.4371599   -2.0764543   0.65508411   -1.4213702   0.13391456    11252.389     1000 
 2876000   0.44649455   -2.1483212   0.66907208   -1.4792491   0.13704235    11342.759     1000 
 2878000   0.45471337    -2.115171   0.68138798    -1.433783   0.13311709    11437.611     1000 
 2880000   0.44175634    -2.123446   0.66197188   -1.4614741   0.13888335    11317.737     1000 
 2882000   0.43754601   -2.0973402    0.6556627   -1.4416775   0.11465196    11534.106     1000 
 2884000    0.4422342   -2.0704803   0.66268794   -1.4077924   0.12666152    11490.027     1000 
 2886000   0.45651305   -2.1484919    0.6840848   -1.4644071    0.1193131    11429.518     1000 
 2888000   0.43533093   -2.1102221    0.6523434   -1.4578787   0.12863325    11361.183     1000 
 2890000   0.44132848   -2.1144493   0.66133073   -1.4531185   0.13364196    11382.848     1000 
 2892000   0.41978964   -2.1155556   0.62905477   -1.4865008   0.11551761    11449.905     1000 
 2894000   0.45533176   -2.0783541   0.68231464   -1.3960394   0.13046019    11373.701     1000 
 2896000   0.43899596   -2.0946305   0.65783545    -1.436795   0.12512869    11334.644     1000 
 2898000   0.45379484   -2.0803057   0.68001157   -1.4002941   0.13440807    11281.424     1000 
 2900000   0.43148902   -2.0874807    0.6465863   -1.4408944   0.12136064    11440.186     1000 
 2902000   0.45079286   -2.1405479    0.6755131   -1.4650348   0.13707742    11380.034     1000 
 2904000   0.45723645   -2.0776658   0.68516882   -1.3924969   0.13404966     11359.02     1000 
 2906000   0.44500102   -2.0912072   0.66683403   -1.4243732   0.12989505    11381.995     1000 
 2908000   0.44534396   -2.0576376   0.66734792   -1.3902896   0.12221744    11431.948     1000 
 2910000   0.44711651   -2.0922357    0.6700041   -1.4222316   0.13793987    11355.963     1000 
 2912000   0.42938652    -2.123638    0.6434357   -1.4802023   0.12492495    11510.953     1000 
 2914000   0.43927288   -2.0998072   0.65825041   -1.4415568   0.14008716    11405.419     1000 
 2916000   0.44770382   -2.0875477   0.67088417   -1.4166636   0.14038297    11224.461     1000 
 2918000   0.45380681   -2.1090904    0.6800295   -1.4290609   0.12693527    11420.912     1000 
 2920000   0.44320128   -2.0655622   0.66413711   -1.4014251   0.13238003    11205.893     1000 
 2922000   0.42430188   -2.1312369   0.63581637   -1.4954205   0.12724088    11398.389     1000 
 2924000   0.45153642   -2.1180379   0.67662732   -1.4414106   0.12993037    11384.497     1000 
 2926000   0.42589497   -2.0748265   0.63820362   -1.4366229   0.12413083    11364.372     1000 
 2928000   0.43813581    -2.098859   0.65654651   -1.4423125    0.1284011    11345.861     1000 
 2930000   0.44547472    -2.149387   0.66754387   -1.4818431   0.13455585    11400.067     1000 
 2932000   0.43543896   -2.0815429   0.65250528   -1.4290376   0.12802904    11359.539     1000 
 2934000   0.44481217   -2.1128927   0.66655104   -1.4463417   0.13152225    11471.772     1000 
 2936000   0.43869242   -2.1382036   0.65738059    -1.480823   0.13888918    11404.455     1000 
 2938000   0.44424243   -2.0852076   0.66569728   -1.4195103   0.13686893    11322.494     1000 
 2940000    0.4395934    -2.123255   0.65873071   -1.4645243   0.13906633    11313.991     1000 
 2942000   0.44534084    -2.096754   0.66734326   -1.4294107   0.12675001     11403.02     1000 
 2944000   0.44845439   -2.1123868    0.6720089   -1.4403779   0.12369122    11429.675     1000 
 2946000   0.42377778    -2.141061   0.63503101     -1.50603   0.12676926    11367.672     1000 
 2948000   0.44388352   -2.0982685   0.66515946    -1.433109   0.12446867    11378.599     1000 
 2950000   0.45681237   -2.1129675   0.68453334   -1.4284342   0.12542872    11441.544     1000 
 2952000   0.43767349   -2.0370005   0.65585372   -1.3811468   0.13212466    11327.778     1000 
 2954000   0.44952284   -2.1076476   0.67360997   -1.4340376   0.13413522    11303.563     1000 
 2956000   0.43042851   -2.0641837   0.64499712   -1.4191866   0.13653232    11348.808     1000 
 2958000   0.42164078   -2.0630161   0.63182872   -1.4311874   0.11558665    11425.464     1000 
 2960000   0.42895716   -2.0692262    0.6427923   -1.4264339   0.13676058    11335.983     1000 
 2962000   0.42154546   -2.1040379   0.63168588    -1.472352   0.13567778    11369.744     1000 
 2964000   0.43371305   -2.1270696   0.64991901   -1.4771506   0.12876314     11411.05     1000 
 2966000   0.45135045   -2.0836243   0.67634865   -1.4072757   0.13453616     11337.51     1000 
 2968000   0.43717971   -2.1191813   0.65511379   -1.4640675   0.13068365    11433.128     1000 
 2970000   0.44957676   -2.0613577   0.67369077    -1.387667   0.13413698    11210.094     1000 
 2972000   0.44337233   -2.0996333   0.66439344   -1.4352398   0.11838632    11535.024     1000 
 2974000    0.4375493   -2.1254311   0.65566763   -1.4697634   0.13733301    11366.681     1000 
 2976000   0.43914624     -2.06303   0.65806064   -1.4049694   0.12998592    11381.586     1000 
 2978000   0.43687913   -2.1130715   0.65466337   -1.4584081   0.13726009    11371.055     1000 
 2980000   0.43786179   -2.0591736   0.65613589   -1.4030378   0.12524986     11396.35     1000 
 2982000   0.43471286   -2.0680293   0.65141722   -1.4166121    0.1283805    11380.933     1000 
 2984000   0.44733372   -2.1171089   0.67032957   -1.4467794   0.13394284    11372.109     1000 
 2986000   0.44913534    -2.132706   0.67302931   -1.4596767   0.13147789    11521.711     1000 
 2988000    0.4206141   -2.0961261   0.63029023   -1.4658359    0.1269161    11419.132     1000 
 2990000    0.4317007   -2.1496064   0.64690349    -1.502703   0.12514487    11415.826     1000 
 2992000   0.41797463   -2.1206117   0.62633498   -1.4942768   0.13747176    11368.257     1000 
 2994000   0.44598023   -2.0564782   0.66830138   -1.3881768   0.12844064    11411.189     1000 
 2996000   0.41671055    -2.125158   0.62444076   -1.5007172   0.13500495    11348.392     1000 
 2998000   0.43200428   -2.1111289   0.64735842   -1.4637705   0.12429689    11547.588     1000 
 3000000   0.46041254   -2.1155787   0.68992819   -1.4256505    0.1266931     11455.56     1000 
Loop time of 1163.4 on 1 procs for 3000000 steps with 1000 atoms

Performance: 1113972.214 tau/day, 2578.639 timesteps/s
100.0% CPU use with 1 MPI tasks x 1 OpenMP threads

MPI task timing breakdown:
Section |  min time  |  avg time  |  max time  |%varavg| %total
---------------------------------------------------------------
Pair    | 916.5      | 916.5      | 916.5      |   0.0 | 78.78
Neigh   | 144.45     | 144.45     | 144.45     |   0.0 | 12.42
Comm    | 24.771     | 24.771     | 24.771     |   0.0 |  2.13
Output  | 0.016558   | 0.016558   | 0.016558   |   0.0 |  0.00
Modify  | 72.334     | 72.334     | 72.334     |   0.0 |  6.22
Other   |            | 5.327      |            |       |  0.46

Nlocal:        1000.00 ave        1000 max        1000 min
Histogram: 1 0 0 0 0 0 0 0 0 0
Nghost:        2187.00 ave        2187 max        2187 min
Histogram: 1 0 0 0 0 0 0 0 0 0
Neighs:        27458.0 ave       27458 max       27458 min
Histogram: 1 0 0 0 0 0 0 0 0 0

Total # of neighbors = 27458
Ave neighs/atom = 27.458000
Neighbor list builds = 150000
Dangerous builds not checked

Total wall time: 0:19:23
