LAMMPS (29 Sep 2021 - Update 2)
OMP_NUM_THREADS environment is not set. Defaulting to 1 thread. (src/comm.cpp:98)
  using 1 OpenMP thread(s) per MPI task
# ----------------------- Inicialização -----------------------

units			lj
atom_style 		atomic
dimension 		3
boundary 		p p p

# -------------------- Criação dos Átomos ---------------------

read_data 		topologia.txt
Reading data file ...
  orthogonal box = (0.0000000 0.0000000 0.0000000) to (21.540000 21.540000 21.540000)
  1 by 1 by 1 MPI processor grid
  reading atoms ...
  1000 atoms
  read_data CPU = 0.006 seconds

velocity 		all create ${temp} 87287 rot yes dist gaussian
velocity 		all create 0.51 87287 rot yes dist gaussian

# ------------------ Interação Interatômica -------------------

pair_style		table linear 1000
pair_coeff		1 1 force.table AA 5.0
WARNING: 2 of 1000 force values in table AA are inconsistent with -dE/dr.
WARNING:  Should only be flagged at inflection points (src/pair_table.cpp:465)
pair_coeff		1 2 force.table AB 5.0
WARNING: 1 of 1000 force values in table AB are inconsistent with -dE/dr.
WARNING:  Should only be flagged at inflection points (src/pair_table.cpp:465)
pair_coeff		2 2 force.table BB 5.0
pair_write		1 1 1000 r 0.008 5.0 table.check AA
Appending to table file table.check with DATE: 2023-06-15
Neighbor list info ...
  update every 1 steps, delay 10 steps, check yes
  max neighbors/atom: 2000, page size: 100000
  master list distance cutoff = 5.3
  ghost atom cutoff = 5.3
  binsize = 2.65, bins = 9 9 9
  1 neighbor lists, perpetual/occasional/extra = 1 0 0
  (1) pair table, perpetual
      attributes: half, newton on
      pair build: half/bin/atomonly/newton
      stencil: half/bin/3d
      bin: standard
pair_write		1 2 1000 r 0.008 5.0 table.check AB
Appending to table file table.check with DATE: 2023-06-15
pair_write		2 2 1000 r 0.008 5.0 table.check BB
Appending to table file table.check with DATE: 2023-06-15

neighbor 		0.3 bin
neigh_modify		every 20 delay 0 check no

# ------------------------- Ensemble --------------------------------------

fix 1			all npt temp ${temp} ${temp} 0.5 iso ${press} ${press} 5
fix 1			all npt temp 0.51 ${temp} 0.5 iso ${press} ${press} 5
fix 1			all npt temp 0.51 0.51 0.5 iso ${press} ${press} 5
fix 1			all npt temp 0.51 0.51 0.5 iso 0.13 ${press} 5
fix 1			all npt temp 0.51 0.51 0.5 iso 0.13 0.13 5

# ---------------------- Função de Distribuição Radial -----------------------

#compute RDF 		all rdf 2000 1 1 1 2 2 2
#fix 2 			all ave/time 1 2000 2000 c_RDF[*] file rdf.data mode vector

# ------------------------- Execução ---------------------------

timestep 		0.005
thermo_style		custom step temp pe ke etotal press vol atoms
thermo			2000
run			3000000
Per MPI rank memory allocation (min/avg/max) = 2.670 | 2.670 | 2.670 Mbytes
Step Temp PotEng KinEng TotEng Press Volume Atoms 
       0         0.51  -0.99052333     0.764235  -0.22628833   0.12008026    9993.9483     1000 
    2000   0.50806721   -1.8847222   0.76133871   -1.1233835   0.13609739    11380.119     1000 
    4000   0.50530807   -1.8765573   0.75720414   -1.1193532   0.13231399    11414.503     1000 
    6000   0.47969887    -1.899492   0.71882876   -1.1806633   0.12988325     11404.77     1000 
    8000   0.51586044   -1.9167989   0.77301687    -1.143782   0.12956747    11456.952     1000 
   10000   0.51420758   -1.9056799   0.77054006   -1.1351399   0.14055531    11358.112     1000 
   12000   0.49155339   -1.9146319   0.73659276   -1.1780391   0.13675651    11413.438     1000 
   14000   0.50354975   -1.9104787   0.75456931   -1.1559094   0.13564042    11315.435     1000 
   16000   0.51566864   -1.8780469   0.77272946   -1.1053175   0.13423053    11330.536     1000 
   18000   0.52163589   -1.8929713   0.78167139   -1.1112999   0.12602254    11362.908     1000 
   20000   0.50505056   -1.8816427   0.75681827   -1.1248244   0.12002282    11431.618     1000 
   22000   0.51690609   -1.8102636   0.77458377   -1.0356798   0.12840049    11398.662     1000 
   24000   0.48549314   -1.8745054   0.72751147    -1.146994   0.12864939    11505.067     1000 
   26000   0.51058633   -1.8291398   0.76511362   -1.0640262    0.1361803    11327.058     1000 
   28000   0.52115915   -1.8852483   0.78095699   -1.1042913   0.12006456    11436.215     1000 
   30000   0.52419548   -1.8612388   0.78550692   -1.0757319   0.13093763    11320.839     1000 
   32000   0.51546192   -1.9026105   0.77241969   -1.1301908   0.12461772    11449.099     1000 
   34000   0.50204085   -1.9085569   0.75230821   -1.1562487   0.12378826    11494.621     1000 
   36000   0.53456965   -1.8535965   0.80105262   -1.0525439   0.13344661    11341.026     1000 
   38000   0.49102457   -1.8375304   0.73580032   -1.1017301   0.13751483    11298.964     1000 
   40000   0.50955435   -1.8490591   0.76356719   -1.0854919   0.13999262    11398.015     1000 
   42000   0.50388393   -1.8422703   0.75507006   -1.0872002   0.12442532    11408.381     1000 
   44000   0.51577665   -1.8961151   0.77289131   -1.1232238   0.11889515     11528.19     1000 
   46000   0.50017162   -1.9023369   0.74950717   -1.1528297   0.12208346     11501.37     1000 
   48000   0.51947362   -1.8875565   0.77843122   -1.1091253   0.12677566    11503.141     1000 
   50000   0.50429627   -1.9583652   0.75568796   -1.2026773   0.14075606    11330.279     1000 
   52000   0.50638579   -1.8858992    0.7588191   -1.1270801   0.11395386    11521.859     1000 
   54000   0.48619088   -1.8526245   0.72855703   -1.1240675   0.13336119    11384.492     1000 
   56000   0.51439046   -1.8815667    0.7708141   -1.1107526   0.12010911    11458.802     1000 
   58000   0.50536749   -1.9142131   0.75729318   -1.1569199   0.13970359    11444.492     1000 
   60000   0.51136148   -1.8878321   0.76627518    -1.121557   0.14018795    11314.032     1000 
   62000   0.51158629   -1.8862653   0.76661206   -1.1196532   0.11275168    11671.388     1000 
   64000   0.52945179   -1.8678084   0.79338351   -1.0744249   0.13897149    11237.443     1000 
   66000   0.50211475   -1.8512103   0.75241895   -1.0987914   0.12624388    11289.638     1000 
   68000   0.51627244   -1.8591489   0.77363425   -1.0855146   0.13622902    11233.979     1000 
   70000    0.5266127   -1.8490299   0.78912914   -1.0599008   0.13145768    11434.734     1000 
   72000   0.53785276    -1.904401   0.80597236   -1.0984286   0.13339723    11440.758     1000 
   74000   0.51025869   -1.9368297   0.76462264   -1.1722071   0.13176462    11461.901     1000 
   76000   0.49366694   -1.9151007   0.73975991   -1.1753408   0.12590974    11388.914     1000 
   78000   0.52642168   -1.8631475   0.78884289   -1.0743047   0.12942566    11379.547     1000 
   80000     0.510776   -1.8771077   0.76539783   -1.1117099   0.13687619    11305.005     1000 
   82000   0.49253254   -1.9382787   0.73806001   -1.2002187   0.12143715    11520.098     1000 
   84000   0.51632065   -1.8871777   0.77370649   -1.1134712   0.13296726    11373.346     1000 
   86000   0.51686573   -1.8876919    0.7745233   -1.1131686   0.13988879    11326.611     1000 
   88000   0.50015094   -1.8751751   0.74947618   -1.1256989   0.11281054    11525.052     1000 
   90000   0.49413816   -1.8844147   0.74046603   -1.1439486   0.12851925     11547.91     1000 
   92000   0.50038723   -1.9303303   0.74983027      -1.1805   0.11967834    11437.598     1000 
   94000   0.51373121    -1.936945   0.76982622   -1.1671188   0.13137371    11540.069     1000 
   96000   0.49177167   -1.9200107   0.73691985   -1.1830908    0.1135452    11611.334     1000 
   98000   0.51542595   -1.8913404   0.77236579   -1.1189746   0.12694206    11390.345     1000 
  100000   0.51630384   -1.9104905    0.7736813   -1.1368092    0.1183387    11559.017     1000 
  102000   0.50911866   -1.8643855   0.76291432   -1.1014712   0.12558437    11520.461     1000 
  104000   0.49930562   -1.9274258   0.74820947   -1.1792163   0.14405051    11365.358     1000 
  106000   0.51672204   -1.8948717   0.77430797   -1.1205637   0.13019568    11341.412     1000 
  108000   0.52651532   -1.8501161    0.7889832   -1.0611329   0.12716361    11514.983     1000 
  110000   0.51101347    -1.855808   0.76575368   -1.0900543   0.13254896    11404.227     1000 
  112000   0.52657951   -1.8774339    0.7890794   -1.0883545    0.1327599    11396.562     1000 
  114000   0.51647559   -1.8789993   0.77393868   -1.1050606    0.1454672    11394.181     1000 
  116000   0.49458213   -1.9072832   0.74113133   -1.1661518   0.12441318    11461.433     1000 
  118000   0.51860722   -1.9241717   0.77713292   -1.1470387   0.14191796    11320.115     1000 
  120000   0.50339999   -1.8861202   0.75434488   -1.1317753    0.1263806    11382.886     1000 
  122000   0.49765251   -1.9478453   0.74573228    -1.202113   0.12881031    11441.716     1000 
  124000   0.49254818   -1.8480834   0.73808345   -1.1099999   0.13637813    11140.029     1000 
  126000   0.51414154    -1.881786    0.7704411   -1.1113449   0.12714437    11467.196     1000 
  128000   0.50208158   -1.8559018   0.75236925   -1.1035326   0.13334247    11360.965     1000 
  130000    0.5005675   -1.8509773    0.7501004   -1.1008769    0.1502523    11278.285     1000 
  132000   0.51238854   -1.9111223   0.76781422   -1.1433081   0.12616377    11455.577     1000 
  134000   0.50933346    -1.833557   0.76323618   -1.0703208    0.1330915    11357.252     1000 
  136000   0.50412322    -1.857594   0.75542865   -1.1021654   0.13101548    11373.199     1000 
  138000   0.50138437   -1.8939594   0.75132448   -1.1426349    0.1218718    11435.271     1000 
  140000   0.50200204   -1.9064532   0.75225006   -1.1542032    0.1337627    11296.991     1000 
  142000   0.53784482   -1.9234577   0.80596046   -1.1174972   0.13878239    11375.383     1000 
  144000   0.50612466   -1.9043583    0.7584278   -1.1459305   0.12044558    11468.733     1000 
  146000   0.51165648   -1.8782999   0.76671724   -1.1115826   0.14558004    11311.041     1000 
  148000   0.52599705   -1.9566618   0.78820658   -1.1684552   0.12941896      11516.2     1000 
  150000   0.50925178   -1.8814239   0.76311379   -1.1183101   0.11801715    11588.107     1000 
  152000   0.49489077   -1.9072209   0.74159382   -1.1656271   0.12589785    11403.428     1000 
  154000   0.51730725   -1.8430508   0.77518492   -1.0678659    0.1292144    11432.636     1000 
  156000   0.51586437   -1.9518713   0.77302276   -1.1788485   0.13310407    11368.028     1000 
  158000   0.48660326   -1.8741253   0.72917498   -1.1449503   0.12601784    11416.363     1000 
  160000    0.5255457   -1.8716529   0.78753023   -1.0841227   0.13023915    11501.965     1000 
  162000   0.51764483   -1.8671161   0.77569077   -1.0914253   0.12910123    11364.795     1000 
  164000   0.50467925   -1.9092224   0.75626185   -1.1529606   0.13079932    11368.364     1000 
  166000   0.50468612   -1.8901787   0.75627214   -1.1339066   0.13862801    11402.568     1000 
  168000   0.52264152    -1.916143   0.78317832   -1.1329647   0.13727349    11448.538     1000 
  170000   0.50871887   -1.9291444   0.76231523   -1.1668292   0.12465047    11493.281     1000 
  172000   0.52201834   -1.8933031   0.78224449   -1.1110586   0.13810381    11269.647     1000 
  174000   0.51827814   -1.8571873   0.77663979   -1.0805475   0.12308929    11516.939     1000 
  176000   0.49926163   -1.9512454   0.74814355   -1.2031019   0.11597244    11586.364     1000 
  178000   0.50942095   -1.9509386   0.76336729   -1.1875713   0.14123879    11267.974     1000 
  180000   0.51533636   -1.9110259   0.77223154   -1.1387944   0.13487833    11292.363     1000 
  182000   0.47897804   -1.8369479   0.71774859   -1.1191994   0.11729258    11427.626     1000 
  184000   0.51754517   -1.8732029   0.77554144   -1.0976614   0.13007546    11356.696     1000 
  186000   0.50698745   -1.9383422    0.7597207   -1.1786215   0.13073796    11393.564     1000 
  188000   0.49530597   -1.8672284   0.74221599   -1.1250124   0.12645485    11441.006     1000 
  190000   0.49893548   -1.9276606   0.74765482   -1.1800058    0.1125555     11750.23     1000 
  192000   0.50260321   -1.9131847   0.75315091   -1.1600338    0.1213335    11540.342     1000 
  194000   0.48896675   -1.9419454   0.73271667   -1.2092287   0.12986051    11391.513     1000 
  196000   0.49939995   -1.8719199   0.74835083   -1.1235691   0.13750411    11394.287     1000 
  198000     0.507422   -1.8852747   0.76037187   -1.1249028   0.12466166     11362.81     1000 
  200000   0.51341653   -1.9503885   0.76935468   -1.1810338   0.11704252    11644.442     1000 
  202000   0.50501426   -1.9055282   0.75676387   -1.1487643   0.11733141    11486.645     1000 
  204000   0.54161197   -1.9397161   0.81160554   -1.1281105   0.12527672    11560.756     1000 
  206000   0.50758918   -1.8786077   0.76062239   -1.1179853   0.13352134    11346.403     1000 
  208000    0.4961373    -1.928638   0.74346174   -1.1851763   0.12685522    11432.196     1000 
  210000   0.50503877   -1.8378304   0.75680059   -1.0810298   0.12422533    11306.705     1000 
  212000   0.49870554   -1.8389422   0.74731025    -1.091632   0.12729927    11456.982     1000 
  214000   0.49701212    -1.832172   0.74477267   -1.0873993     0.131225    11339.333     1000 
  216000   0.52186362   -1.9076257   0.78201264   -1.1256131   0.13038693    11429.929     1000 
  218000   0.47944777   -1.9014337   0.71845248   -1.1829812   0.12505238    11418.771     1000 
  220000   0.49669622    -1.894991   0.74429929   -1.1506917   0.13409902    11242.147     1000 
  222000   0.52041083   -1.9024846   0.77983564   -1.1226489   0.12537903    11340.003     1000 
  224000   0.52044451   -1.8648205   0.77988609   -1.0849344   0.13824812    11406.847     1000 
  226000   0.50715549   -1.8511742   0.75997251   -1.0912017   0.12481826    11456.457     1000 
  228000   0.50504044   -1.8863619    0.7568031   -1.1295588   0.13628037    11234.808     1000 
  230000   0.51794558   -1.9022365   0.77614145   -1.1260951   0.11982666    11502.017     1000 
  232000    0.5069304   -1.8398161    0.7596352   -1.0801809   0.13360937    11285.981     1000 
  234000   0.51705741   -1.8714632   0.77481054   -1.0966526   0.12619506     11456.26     1000 
  236000   0.51530329   -1.8378144   0.77218198   -1.0656324   0.13620396    11260.574     1000 
  238000   0.49589549   -1.9143738   0.74309939   -1.1712744   0.14270522    11231.323     1000 
  240000   0.49771675   -1.9076145   0.74582855    -1.161786   0.11200033    11507.457     1000 
  242000   0.49798652   -1.8933535   0.74623281   -1.1471206   0.11802567    11603.921     1000 
  244000   0.50596803    -1.928215    0.7581931   -1.1700219   0.12059891    11564.726     1000 
  246000   0.49416322   -1.8931056   0.74050359   -1.1526021   0.12665931    11375.073     1000 
  248000   0.48288424   -1.8957074   0.72360203   -1.1721054    0.1258365    11440.663     1000 
  250000   0.49259576   -1.8936689   0.73815475   -1.1555142    0.1212547    11379.099     1000 
  252000   0.52311978   -1.8803222   0.78389499   -1.0964272   0.14075267    11399.077     1000 
  254000   0.51540295   -1.8957377   0.77233132   -1.1234064   0.13313353    11459.228     1000 
  256000   0.53398468    -1.861052   0.80017605   -1.0608759   0.13669187    11398.859     1000 
  258000   0.51913498   -1.9124503   0.77792377   -1.1345266   0.14511508    11384.002     1000 
  260000   0.52985222    -1.856238   0.79398355   -1.0622545    0.1461549    11207.286     1000 
  262000   0.49931687   -1.8814506   0.74822633   -1.1332243   0.11480923    11509.782     1000 
  264000   0.50617193   -1.9231378   0.75849863   -1.1646392   0.12965765    11488.163     1000 
  266000   0.51056329   -1.9257408    0.7650791   -1.1606617   0.13253256     11334.69     1000 
  268000   0.50432126   -1.8860819   0.75572541   -1.1303565   0.12246307    11288.183     1000 
  270000   0.51626487   -1.9018678    0.7736229   -1.1282449   0.14061596    11298.948     1000 
  272000   0.52237967   -1.8896483   0.78278593   -1.1068624   0.13163117    11443.743     1000 
  274000   0.49700924   -1.8911005   0.74476834   -1.1463322   0.12859247    11515.288     1000 
  276000   0.49948554   -1.9315534   0.74847908   -1.1830744   0.13151538    11542.534     1000 
  278000   0.51998027   -1.9335989   0.77919043   -1.1544085     0.144207     11342.55     1000 
  280000   0.50270549   -1.8833403   0.75330418   -1.1300361   0.13108919    11379.668     1000 
  282000    0.5003145   -1.9009076   0.74972127   -1.1511863   0.12880453    11359.186     1000 
  284000   0.49598332   -1.8918859   0.74323101   -1.1486549   0.11402282    11604.096     1000 
  286000   0.50163564   -1.8876236   0.75170101   -1.1359226   0.12747819     11432.84     1000 
  288000   0.49668565   -1.8792908   0.74428344   -1.1350073   0.13356463    11365.254     1000 
  290000    0.5180856   -1.8863515   0.77635128   -1.1100003   0.12431549    11525.018     1000 
  292000   0.50213011   -1.9096397   0.75244197   -1.1571977   0.12701383    11358.903     1000 
  294000   0.50410382   -1.9076838   0.75539957   -1.1522842    0.1277942    11492.323     1000 
  296000   0.49861023   -1.9228979   0.74716743   -1.1757305   0.12860086    11338.919     1000 
  298000    0.4978857   -1.8714116   0.74608172   -1.1253299   0.12605925    11487.362     1000 
  300000   0.53665015   -1.8853696   0.80417026   -1.0811994   0.12646689    11439.032     1000 
  302000   0.53777264   -1.8735548   0.80585231   -1.0677024   0.13069454    11432.035     1000 
  304000   0.50331494   -1.9099256   0.75421743   -1.1557081   0.12884813    11463.587     1000 
  306000   0.49341226   -1.9366786   0.73937828   -1.1973004   0.12328562     11567.56     1000 
  308000   0.52334356   -1.9133734   0.78423032   -1.1291431   0.11734131    11509.558     1000 
  310000   0.51409542   -1.9111952   0.77037199   -1.1408233   0.12960673    11403.368     1000 
  312000   0.50917386   -1.9189703   0.76299702   -1.1559733   0.13326441    11389.671     1000 
  314000   0.51301597   -1.8849363   0.76875442   -1.1161819   0.14368527    11241.656     1000 
  316000   0.49359879   -1.8256587   0.73965779   -1.0860009   0.14548747    11220.821     1000 
  318000   0.50971223   -1.8687935   0.76380378   -1.1049897   0.12726021    11391.844     1000 
  320000   0.49729366   -1.9184687   0.74519454   -1.1732741   0.12463975    11501.993     1000 
  322000   0.52424668   -1.8823375   0.78558365   -1.0967538   0.12627985    11474.673     1000 
  324000   0.48915718   -1.8546481   0.73300203    -1.121646   0.13301565    11273.299     1000 
  326000   0.50434014   -1.9015488    0.7557537   -1.1457951   0.13376446    11403.821     1000 
  328000   0.50348723   -1.8574221   0.75447562   -1.1029464   0.13643317     11317.26     1000 
  330000   0.50350551    -1.883692   0.75450301    -1.129189   0.12635645    11359.229     1000 
  332000   0.50758957   -1.8818763   0.76062297   -1.1212533   0.11779363    11571.373     1000 
  334000   0.50500913   -1.8767489   0.75675618   -1.1199927   0.13236927     11403.55     1000 
  336000   0.49681209   -1.8920488   0.74447292   -1.1475759   0.13380641    11355.264     1000 
  338000   0.49980184   -1.9042922   0.74895306   -1.1553391   0.12850291    11485.403     1000 
  340000   0.50065674   -1.8952141   0.75023413   -1.1449799   0.13193889    11296.876     1000 
  342000   0.55806644   -1.8845796   0.83626256   -1.0483171   0.13510443    11323.856     1000 
  344000   0.49727245   -1.8739657   0.74516276   -1.1288029    0.1320225    11391.399     1000 
  346000   0.50928719   -1.8763687   0.76316686   -1.1132019   0.12616121    11411.188     1000 
  348000   0.52733355   -1.8846486   0.79020932   -1.0944393   0.11470676    11601.246     1000 
  350000   0.50299443   -1.8682377   0.75373716   -1.1145005   0.12289204    11564.254     1000 
  352000   0.51400453   -1.8742801   0.77023579   -1.1040443   0.12840401    11352.411     1000 
  354000   0.49556506   -1.9021106   0.74260424   -1.1595063   0.12579369    11438.711     1000 
  356000   0.51094899   -1.8595713   0.76565707   -1.0939142   0.13319926     11355.03     1000 
  358000   0.52818375   -1.8904124   0.79148336    -1.098929   0.13006206    11500.182     1000 
  360000    0.5039128   -1.8644133   0.75511333      -1.1093   0.12322067    11358.498     1000 
  362000   0.53865938   -1.8276131   0.80718109    -1.020432   0.14360869    11253.889     1000 
  364000   0.50208948   -1.9094984   0.75238108   -1.1571173   0.13674627     11431.72     1000 
  366000   0.51640626   -1.9015216   0.77383478   -1.1276869   0.12979379    11452.021     1000 
  368000   0.50881392   -1.9395497   0.76245766   -1.1770921   0.12771782    11425.505     1000 
  370000    0.5076674   -1.9534924   0.76073959   -1.1927528   0.12922047    11346.556     1000 
  372000   0.50690436   -1.8978849   0.75959618   -1.1382887   0.12406952    11508.643     1000 
  374000   0.52056632   -1.8395007   0.78006863   -1.0594321   0.12781963    11419.854     1000 
  376000   0.49469104   -1.8931946   0.74129452   -1.1519001   0.12909093    11454.266     1000 
  378000   0.50527532   -1.9028313   0.75715506   -1.1456762    0.1316213    11389.428     1000 
  380000   0.50825876    -1.832869   0.76162576   -1.0712432   0.13206005     11345.37     1000 
  382000   0.51950367   -1.8828148   0.77847625   -1.1043385   0.12042065    11483.519     1000 
  384000   0.49621847   -1.9234381   0.74358338   -1.1798547   0.13824169    11331.858     1000 
  386000    0.4942325    -1.856467   0.74060741   -1.1158596   0.12647203    11372.668     1000 
  388000   0.51405871   -1.8518765   0.77031698   -1.0815595    0.1376394     11308.76     1000 
  390000   0.50503345    -1.844151   0.75679262   -1.0873584   0.13113799     11298.81     1000 
  392000   0.51492204   -1.8768801   0.77161067   -1.1052695   0.13495698    11489.025     1000 
  394000    0.5209084   -1.9184651   0.78058124   -1.1378839   0.12448419    11464.793     1000 
  396000   0.50257852   -1.9142443   0.75311391   -1.1611304   0.12320994    11458.754     1000 
  398000   0.52650725   -1.8563205   0.78897112   -1.0673494   0.12595936    11474.807     1000 
  400000   0.52103075   -1.8580048   0.78076458   -1.0772402    0.1422112    11344.551     1000 
  402000   0.49168453   -1.9421348   0.73678926   -1.2053455   0.12162799    11476.519     1000 
  404000    0.4847387   -1.9141957   0.72638095   -1.1878147    0.1260216    11402.579     1000 
  406000   0.49699664   -1.8637605   0.74474946   -1.1190111   0.13925654    11318.013     1000 
  408000    0.5092557   -1.8674915   0.76311967   -1.1043719   0.13017201    11408.587     1000 
  410000   0.51069285   -1.8730035   0.76527323   -1.1077303     0.129763    11338.695     1000 
  412000   0.50046172   -1.8336764   0.74994189   -1.0837345   0.14124627    11283.476     1000 
  414000   0.48743457   -1.8602624    0.7304207   -1.1298417   0.12181704     11379.18     1000 
  416000   0.50908738   -1.8715705   0.76286743   -1.1087031   0.13920968    11353.045     1000 
  418000   0.50631096   -1.9050137   0.75870698   -1.1463067   0.12591047    11333.554     1000 
  420000   0.50349401   -1.9279194   0.75448577   -1.1734336   0.14010695    11346.496     1000 
  422000   0.50553835    -1.869634   0.75754922   -1.1120848   0.12543867    11416.262     1000 
  424000   0.51142172   -1.8871972   0.76636545   -1.1208318     0.125133    11459.579     1000 
  426000   0.51885004   -1.8869118   0.77749678    -1.109415   0.12920429    11405.745     1000 
  428000   0.49935063   -1.9141147   0.74827692   -1.1658377   0.11879632     11454.14     1000 
  430000   0.52546456   -1.8830946   0.78740865    -1.095686   0.14095293    11250.763     1000 
  432000   0.49365571    -1.922078   0.73974308    -1.182335   0.11546742    11535.136     1000 
  434000   0.49657834   -1.9047667   0.74412264    -1.160644   0.13495492     11314.92     1000 
  436000   0.49962169   -1.9315041    0.7486831    -1.182821   0.12258692    11433.897     1000 
  438000   0.51717402   -1.8679239   0.77498527   -1.0929386   0.13096508    11467.617     1000 
  440000    0.5056588   -1.8745237   0.75772971    -1.116794   0.11530602    11577.211     1000 
  442000   0.52362439    -1.892538   0.78465115   -1.1078869    0.1382498    11466.331     1000 
  444000   0.48659992   -1.8478463   0.72916998   -1.1186763   0.12168843     11501.64     1000 
  446000   0.51814441   -1.8720054    0.7764394    -1.095566   0.12856679    11475.844     1000 
  448000    0.5051895   -1.9196595   0.75702646    -1.162633   0.12606297     11491.41     1000 
  450000   0.52075871   -1.8971324   0.78035693   -1.1167755   0.13091943    11412.193     1000 
  452000   0.50111916   -1.9248567   0.75092706   -1.1739297   0.13429338    11346.628     1000 
  454000   0.50917403   -1.8471828   0.76299729   -1.0841855   0.12791075     11337.64     1000 
  456000   0.49963515   -1.9331318   0.74870327   -1.1844285   0.12413413    11435.315     1000 
  458000   0.50706277   -1.9032306   0.75983356   -1.1433971   0.13914786    11355.957     1000 
  460000   0.49529854    -1.947082   0.74220486   -1.2048771   0.11808324    11589.576     1000 
  462000   0.51070001   -1.8864146   0.76528397   -1.1211307   0.12817339    11287.764     1000 
  464000   0.49613399     -1.87107   0.74345678   -1.1276132   0.12630373    11512.326     1000 
  466000   0.52228568   -1.9126442    0.7826451   -1.1299991   0.12835889    11412.458     1000 
  468000   0.51562979   -1.8716745   0.77267124   -1.0990033   0.13139375    11311.271     1000 
  470000   0.51365407   -1.8386015   0.76971063   -1.0688909   0.13291546     11338.12     1000 
  472000   0.51696841   -1.9491554   0.77467716   -1.1744783   0.12974649    11452.767     1000 
  474000   0.48805528   -1.8546046   0.73135084   -1.1232538   0.12935636     11279.97     1000 
  476000   0.52565652   -1.8837855    0.7876963   -1.0960892   0.13250566    11384.809     1000 
  478000   0.51911552   -1.8603515    0.7778946   -1.0824569   0.13846354    11368.611     1000 
  480000   0.52382051   -1.8950552   0.78494503   -1.1101101   0.12487696    11524.816     1000 
  482000   0.52067086   -1.8825245   0.78022529   -1.1022992   0.13804471     11342.65     1000 
  484000   0.51024819    -1.869513   0.76460692   -1.1049061    0.1296119    11366.291     1000 
  486000   0.50576447   -1.9085311   0.75788805    -1.150643   0.13199172      11436.6     1000 
  488000   0.53407757     -1.92382   0.80031525   -1.1235047    0.1202769    11509.554     1000 
  490000   0.53011732   -1.9053485   0.79438081   -1.1109677   0.14194969    11354.216     1000 
  492000   0.52043329   -1.9007522   0.77986929   -1.1208829   0.11996839     11533.18     1000 
  494000   0.51832855   -1.9214505   0.77671533   -1.1447351   0.12815855    11263.927     1000 
  496000   0.52173343   -1.8869236   0.78181755   -1.1051061   0.13318543    11344.006     1000 
  498000   0.50690595   -1.9051915   0.75959857   -1.1455929   0.13374171    11413.474     1000 
  500000   0.52995518    -1.897342   0.79413783   -1.1032042    0.1142929    11592.611     1000 
  502000     0.512878   -1.9229561   0.76854768   -1.1544084   0.12359919    11498.512     1000 
  504000   0.53602281   -1.8275247   0.80323018   -1.0242945   0.14151535    11278.792     1000 
  506000   0.52317053   -1.9454099   0.78397103   -1.1614389   0.11812644    11532.618     1000 
  508000   0.52360027   -1.8694165     0.784615   -1.0848015   0.14383662    11291.962     1000 
  510000     0.507731   -1.8871095   0.76083491   -1.1262746   0.13850147    11335.063     1000 
  512000   0.51662711   -1.9121992   0.77416572   -1.1380334   0.13841781    11356.008     1000 
  514000   0.50276503   -1.8504896    0.7533934   -1.0970962   0.12941378    11410.686     1000 
  516000   0.53677724   -1.9071471    0.8043607   -1.1027864   0.13243811    11347.495     1000 
  518000   0.50794681   -1.9187662    0.7611583   -1.1576079   0.13032911    11473.018     1000 
  520000   0.51682395   -1.8497811   0.77446068   -1.0753204   0.13328534    11290.438     1000 
  522000   0.48849922   -1.8855813   0.73201609   -1.1535652   0.13300722    11476.576     1000 
  524000   0.50997328   -1.9125153   0.76419496   -1.1483203   0.13020575    11228.108     1000 
  526000   0.50672597    -1.914321   0.75932887   -1.1549921   0.13598098    11332.287     1000 
  528000   0.52806964   -1.8289723   0.79131236   -1.0376599    0.1392101    11268.418     1000 
  530000   0.50399815   -1.8756475   0.75524123   -1.1204063    0.1307565    11466.929     1000 
  532000   0.53002223    -1.859597   0.79423831   -1.0653586    0.1356867    11335.086     1000 
  534000   0.51676655   -1.8713027   0.77437467    -1.096928   0.13602092    11372.456     1000 
  536000   0.48193717   -1.8433447   0.72218285   -1.1211619   0.14041916    11322.383     1000 
  538000   0.51534951   -1.9192533   0.77225124    -1.147002   0.13048331    11393.853     1000 
  540000    0.4975522   -1.9027888   0.74558197   -1.1572068   0.13654404    11299.097     1000 
  542000   0.49048904   -1.9348493   0.73499783   -1.1998515   0.13385174    11376.001     1000 
  544000    0.5142148   -1.8811985   0.77055087   -1.1106477   0.11911731    11362.204     1000 
  546000   0.51564076   -1.9484248   0.77268768   -1.1757371   0.12814995    11359.887     1000 
  548000   0.51248359   -1.9003063   0.76795666   -1.1323497   0.12716172    11279.034     1000 
  550000   0.50691669   -1.8871391   0.75961466   -1.1275244   0.12851713    11480.583     1000 
  552000   0.50024158   -1.8082752   0.74961201   -1.0586632   0.13500678    11183.813     1000 
  554000     0.511387   -1.9575268   0.76631342   -1.1912134   0.12546446    11534.613     1000 
  556000   0.52050277   -1.8786624   0.77997341    -1.098689   0.13135544     11427.32     1000 
  558000   0.51646773    -1.904694    0.7739269   -1.1307671   0.13073628    11453.752     1000 
  560000   0.50327032   -1.9402664   0.75415058   -1.1861158   0.12460983    11472.953     1000 
  562000   0.51799379   -1.8668461   0.77621369   -1.0906324   0.13219381    11419.762     1000 
  564000    0.5039595   -1.9022027   0.75518331   -1.1470194   0.13018572    11372.346     1000 
  566000   0.52643085   -1.8712727   0.78885663   -1.0824161   0.12422564    11455.057     1000 
  568000   0.49445408   -1.9489132   0.74093943   -1.2079738   0.12032329    11559.858     1000 
  570000   0.48735428   -1.9113283   0.73030039   -1.1810279   0.12230223    11317.919     1000 
  572000   0.51082599   -1.9169389   0.76547275   -1.1514662   0.12701802    11468.255     1000 
  574000   0.51827268   -1.8906884   0.77663161   -1.1140568   0.13140489    11338.999     1000 
  576000   0.50442694   -1.9081555   0.75588377   -1.1522718   0.13800001    11334.481     1000 
  578000   0.49912464   -1.8923815   0.74793827   -1.1444432   0.13410135    11322.694     1000 
  580000   0.50758183   -1.9225534   0.76061137    -1.161942   0.13420836    11444.074     1000 
  582000   0.51073527   -1.8472427    0.7653368   -1.0819059   0.12888964    11495.263     1000 
  584000   0.51933387   -1.9011689   0.77822181   -1.1229471   0.13413889    11385.992     1000 
  586000   0.49199173    -1.909742   0.73724961   -1.1724924   0.12843452    11307.724     1000 
  588000   0.52430335   -1.8536662   0.78566856   -1.0679977   0.12999762    11406.576     1000 
  590000   0.49664303    -1.887175   0.74421958   -1.1429555   0.12226337    11371.654     1000 
  592000   0.49770999   -1.9648991   0.74581842   -1.2190807   0.13878609    11332.917     1000 
  594000   0.51343382   -1.8698338   0.76938058   -1.1004532   0.11641745     11474.84     1000 
  596000   0.51011412    -1.884727     0.764406    -1.120321    0.1361981    11411.696     1000 
  598000   0.50832887   -1.8932795   0.76173081   -1.1315487   0.12022894    11612.375     1000 
  600000   0.48989235   -1.8966275   0.73410368   -1.1625238   0.11922906    11599.017     1000 
  602000   0.50401732   -1.9161969   0.75526995    -1.160927   0.13214893    11415.331     1000 
  604000   0.50815931   -1.8866522   0.76147673   -1.1251755   0.13183626    11348.318     1000 
  606000   0.52472833    -1.863788   0.78630541   -1.0774826   0.13412677    11260.985     1000 
  608000   0.53726021   -1.9341672   0.80508442   -1.1290827   0.12336005    11396.182     1000 
  610000   0.49602581   -1.9105896   0.74329467   -1.1672949   0.12224803     11467.48     1000 
  612000   0.51660402   -1.9008394   0.77413113   -1.1267083   0.13817673    11267.828     1000 
  614000   0.50853646   -1.9064708   0.76204189   -1.1444289   0.12870607    11450.744     1000 
  616000   0.51172444    -1.907302   0.76681907    -1.140483   0.13774964    11406.662     1000 
  618000   0.50964527     -1.82013   0.76370344   -1.0564265   0.14653204    11179.114     1000 
  620000   0.51068005    -1.908266   0.76525406    -1.143012   0.13096023    11343.564     1000 
  622000   0.51632136   -1.8875406   0.77370756   -1.1138331   0.13299498     11409.46     1000 
  624000   0.53368398   -1.9060678   0.79972545   -1.1063423   0.12248565    11604.385     1000 
  626000   0.50279825   -1.8543914   0.75344318   -1.1009483   0.13292911    11336.665     1000 
  628000   0.50634459   -1.9268442   0.75875736   -1.1680868   0.13092978    11483.612     1000 
  630000   0.52662844   -1.9062662   0.78915272   -1.1171135   0.14843256    11252.634     1000 
  632000   0.50849733   -1.8508173   0.76198325    -1.088834   0.12414095     11303.03     1000 
  634000   0.49303868   -1.8101713   0.73881846   -1.0713528    0.1312812     11238.39     1000 
  636000   0.50243222   -1.9019219   0.75289468   -1.1490272   0.13068083    11460.656     1000 
  638000   0.51304948   -1.8587594   0.76880464   -1.0899548   0.12821115     11320.17     1000 
  640000   0.51577316   -1.9071377   0.77288608   -1.1342516   0.12520699    11345.065     1000 
  642000   0.50454755   -1.8899657    0.7560645   -1.1339012   0.12002917    11575.871     1000 
  644000   0.51881965   -1.9226901   0.77745125   -1.1452388   0.11091889    11578.782     1000 
  646000   0.50939855   -1.8739549   0.76333373   -1.1106212   0.13792358    11339.457     1000 
  648000   0.49940925   -1.8104173   0.74836476   -1.0620525   0.12640052    11365.678     1000 
  650000   0.50378736   -1.9046313   0.75492536    -1.149706   0.12945524    11535.036     1000 
  652000   0.50722447    -1.826277   0.76007587   -1.0662011   0.12632432    11461.496     1000 
  654000    0.5072118   -1.8774589   0.76005688    -1.117402   0.13258787    11368.363     1000 
  656000   0.49991099    -1.880681   0.74911662   -1.1315644   0.13012867    11487.493     1000 
  658000   0.49445853   -1.9101511   0.74094611    -1.169205   0.12273165    11510.367     1000 
  660000   0.51323883   -1.9116649   0.76908839   -1.1425765   0.12933541    11435.756     1000 
  662000   0.49743516   -1.9154313   0.74540658   -1.1700248   0.13276056    11498.742     1000 
  664000   0.52104882   -1.8888617   0.78079166     -1.10807   0.12445618    11527.398     1000 
  666000   0.53023719   -1.8764661   0.79456043   -1.0819056   0.12584449    11443.684     1000 
  668000   0.52170228   -1.9036871   0.78177086   -1.1219162   0.13146381     11381.95     1000 
  670000   0.52469542    -1.876841   0.78625608   -1.0905849    0.1422368    11310.466     1000 
  672000   0.51233358   -1.8600662   0.76773186   -1.0923343   0.13169216    11425.989     1000 
  674000   0.51829182   -1.9437865    0.7766603   -1.1671262   0.12628813    11544.755     1000 
  676000   0.51898385   -1.8706432    0.7776973   -1.0929459   0.13769116    11353.076     1000 
  678000   0.52570334   -1.8756954   0.78776645    -1.087929   0.11010912    11576.401     1000 
  680000   0.52549292   -1.8778299   0.78745114   -1.0903788    0.1147431    11588.042     1000 
  682000   0.52699254     -1.92999   0.78969832   -1.1402917   0.14319778    11343.288     1000 
  684000   0.51498378   -1.8796405    0.7717032   -1.1079373   0.13574656    11380.122     1000 
  686000   0.52749053   -1.8443109   0.79044456   -1.0538664   0.12610699    11434.559     1000 
  688000   0.51349098   -1.9074515   0.76946623   -1.1379853   0.13037428    11316.332     1000 
  690000   0.49243838   -1.9338875   0.73791891   -1.1959685   0.13103477    11415.067     1000 
  692000   0.51033432   -1.9346784   0.76473597   -1.1699425   0.13432095    11465.404     1000 
  694000   0.51117697   -1.8427081   0.76599869   -1.0767094   0.12740025    11464.428     1000 
  696000   0.54415621   -1.9225878   0.81541808   -1.1071697   0.12682684    11587.888     1000 
  698000    0.5382978   -1.9126346   0.80663925   -1.1059954   0.13664257    11371.142     1000 
  700000   0.52477241   -1.8909905   0.78637145   -1.1046191   0.13414603    11343.301     1000 
  702000   0.51461215   -1.8553818    0.7711463   -1.0842355   0.13227605    11288.899     1000 
  704000   0.52253891   -1.9080518   0.78302455   -1.1250273   0.13795178    11338.232     1000 
  706000   0.53473432   -1.8827722   0.80129938   -1.0814728   0.13409972    11445.206     1000 
  708000   0.51342387   -1.8671827   0.76936566   -1.0978171   0.12768671    11494.761     1000 
  710000   0.50412654   -1.8843167   0.75543361   -1.1288831   0.12791158    11414.482     1000 
  712000   0.48002812   -1.8849052   0.71932214    -1.165583   0.12031858    11343.737     1000 
  714000   0.51401084   -1.9350747   0.77024525   -1.1648295   0.13721557    11340.269     1000 
  716000   0.50390653   -1.9016731   0.75510393   -1.1465692    0.1288752    11452.471     1000 
  718000   0.51438254   -1.8713528   0.77080224   -1.1005505    0.1425375    11270.336     1000 
  720000   0.52743678   -1.8881964   0.79036401   -1.0978324   0.13758478    11360.928     1000 
  722000   0.52960517   -1.8314535   0.79361335   -1.0378401   0.12812339    11414.965     1000 
  724000   0.50007237   -1.9099247   0.74935845   -1.1605663   0.13186474    11379.512     1000 
  726000   0.49706735   -1.9054231   0.74485542   -1.1605677   0.12709443    11526.439     1000 
  728000   0.53066434   -1.9372397   0.79520051   -1.1420392   0.13651436    11475.553     1000 
  730000   0.50173902   -1.9244318   0.75185591   -1.1725759   0.11837898     11560.11     1000 
  732000   0.51342782   -1.8966184    0.7693716   -1.1272468   0.13273014    11422.572     1000 
  734000   0.48548798   -1.9351834   0.72750374   -1.2076797   0.12327506    11429.054     1000 
  736000    0.5116522   -1.8807389   0.76671082   -1.1140281   0.12917214    11539.587     1000 
  738000   0.50229228   -1.9098992   0.75268498   -1.1572142    0.1334521    11315.036     1000 
  740000   0.49221562   -1.8475535   0.73758511   -1.1099684   0.14195208     11242.61     1000 
  742000   0.51310361   -1.8845897   0.76888576   -1.1157039   0.13406185    11366.397     1000 
  744000   0.52668172   -1.8819333   0.78923256   -1.0927007    0.1290365    11330.562     1000 
  746000    0.4974843   -1.9228582   0.74548022   -1.1773779   0.12278785    11609.146     1000 
  748000   0.50516412   -1.8910024   0.75698844   -1.1340139   0.11926469    11389.124     1000 
  750000   0.48555802    -1.915864    0.7276087   -1.1882553   0.12278859     11379.72     1000 
  752000   0.51765541    -1.861586   0.77570663   -1.0858793   0.13369708    11358.714     1000 
  754000   0.51699313   -1.9063318    0.7747142   -1.1316176   0.12967013    11297.529     1000 
  756000   0.50009815   -1.8756439   0.74939708   -1.1262468   0.13035689     11428.88     1000 
  758000   0.52400637   -1.9029374   0.78522354   -1.1177139   0.13606845    11304.318     1000 
  760000   0.50969821   -1.9035091   0.76378277   -1.1397264   0.13340342    11530.133     1000 
  762000    0.4836437   -1.8848197   0.72474008   -1.1600796   0.13919953     11245.64     1000 
  764000   0.51453522   -1.8556296   0.77103103   -1.0845985   0.13684766    11158.268     1000 
  766000   0.52655236   -1.9460077   0.78903871    -1.156969   0.13585731    11440.445     1000 
  768000   0.50500682   -1.8933616   0.75675271   -1.1366089   0.10987053    11568.689     1000 
  770000   0.51536015   -1.9026373   0.77226719   -1.1303701   0.12111144    11502.388     1000 
  772000   0.51415594   -1.9125629   0.77046268   -1.1421003    0.1248346    11544.114     1000 
  774000    0.5059524   -1.8061112   0.75816968   -1.0479415   0.12852363    11354.017     1000 
  776000    0.5157546   -1.8256597   0.77285826   -1.0528014     0.140043    11295.426     1000 
  778000   0.52317173   -1.9763503   0.78397284   -1.1923775   0.13928962    11448.964     1000 
  780000   0.52644686    -1.869146   0.78888063   -1.0802653   0.13123028    11451.517     1000 
  782000   0.49714662   -1.9210436    0.7449742   -1.1760694   0.12648076    11576.648     1000 
  784000   0.52601513   -1.8488055   0.78823367   -1.0605719   0.14236448    11344.034     1000 
  786000   0.49452875   -1.9300718   0.74105132   -1.1890205   0.11152468    11488.404     1000 
  788000   0.50579936    -1.887711   0.75794034   -1.1297706   0.12709123    11456.222     1000 
  790000   0.49265365   -1.8550007   0.73824149   -1.1167592   0.13841431    11266.992     1000 
  792000   0.49264592   -1.9213212    0.7382299   -1.1830913   0.11645159    11518.041     1000 
  794000   0.50689285    -1.877462   0.75957894    -1.117883   0.13045159    11283.462     1000 
  796000   0.51231203    -1.909752   0.76769957   -1.1420524   0.13529625    11344.166     1000 
  798000   0.50134679    -1.910419   0.75126816   -1.1591508   0.12868141    11391.971     1000 
  800000   0.50791713   -1.8813304   0.76111382   -1.1202166   0.12617046    11515.465     1000 
  802000   0.51994058   -1.8694809   0.77913096   -1.0903499   0.15105333     11275.31     1000 
  804000   0.53687804   -1.8527034   0.80451174   -1.0481917    0.1320018    11326.752     1000 
  806000   0.51262892   -1.9460165   0.76817444    -1.177842   0.11870153    11535.925     1000 
  808000   0.50114762   -1.9042859   0.75096971   -1.1533161   0.13282707    11377.952     1000 
  810000   0.51957959   -1.8747958   0.77859002   -1.0962058   0.12935143    11311.798     1000 
  812000   0.53562671   -1.8300962   0.80263662   -1.0274595   0.11667527    11414.564     1000 
  814000   0.49643435   -1.8792845   0.74390688   -1.1353776   0.12032966    11515.514     1000 
  816000   0.50135746   -1.8674366   0.75128415   -1.1161525   0.12180335    11504.393     1000 
  818000   0.49465134   -1.8960016   0.74123504   -1.1547666   0.12061735    11561.732     1000 
  820000   0.51085327   -1.8895531   0.76551363   -1.1240395     0.127529    11418.161     1000 
  822000   0.50988891   -1.9035399   0.76406853   -1.1394714   0.13523303    11390.707     1000 
  824000   0.49381899   -1.8845116   0.73998775   -1.1445239   0.12938886    11388.195     1000 
  826000   0.51097575   -1.9104417   0.76569717   -1.1447445   0.13442951    11400.292     1000 
  828000   0.51579504   -1.8981713   0.77291886   -1.1252525   0.13007049    11333.119     1000 
  830000   0.50154001   -1.9178911   0.75155771   -1.1663334   0.13657062     11433.44     1000 
  832000   0.51614081   -1.8943089   0.77343701   -1.1208719   0.12991296    11352.592     1000 
  834000   0.49251763   -1.9080665   0.73803767   -1.1700289   0.11692865    11489.504     1000 
  836000   0.50518093   -1.8917699   0.75701362   -1.1347563   0.13448646    11407.553     1000 
  838000   0.51104745   -1.9191097   0.76580461   -1.1533051   0.12504782    11459.191     1000 
  840000   0.50012848    -1.902462   0.74944252   -1.1530195   0.13259671    11349.288     1000 
  842000   0.51878094   -1.9057358   0.77739324   -1.1283425   0.13171366    11460.391     1000 
  844000   0.49636633   -1.9023759   0.74380494   -1.1585709   0.12380173    11475.212     1000 
  846000    0.4924514   -1.8696265   0.73793843    -1.131688   0.13144613      11323.5     1000 
  848000   0.51683978   -1.9237535   0.77448441   -1.1492691   0.13032945    11481.404     1000 
  850000     0.521412   -1.9050655   0.78133588   -1.1237297   0.13264685    11542.797     1000 
  852000   0.50577061   -1.8550759   0.75789726   -1.0971787   0.13435348    11379.345     1000 
  854000   0.52211132   -1.8662642   0.78238382   -1.0838804   0.12949448    11396.068     1000 
  856000   0.50681526   -1.9378269   0.75946266   -1.1783643   0.13452013    11399.597     1000 
  858000   0.50626032   -1.8855377   0.75863109   -1.1269066   0.12611864    11373.887     1000 
  860000   0.50110581    -1.906406   0.75090706   -1.1554989   0.11377057    11633.423     1000 
  862000   0.48349397   -1.9170839   0.72451572   -1.1925682   0.13363114    11419.871     1000 
  864000    0.5012865   -1.9285288   0.75117782    -1.177351   0.13156199    11503.827     1000 
  866000   0.50660013   -1.8901174   0.75914029   -1.1309771    0.1381671    11311.482     1000 
  868000   0.51359657   -1.8849513   0.76962446   -1.1153268   0.14175144    11220.517     1000 
  870000   0.51819754   -1.8711914   0.77651901   -1.0946724   0.14140232    11384.854     1000 
  872000   0.52919545   -1.8447479   0.79299938   -1.0517486   0.12599082    11417.604     1000 
  874000   0.50359508   -1.8978838   0.75463722   -1.1432466   0.12288798    11407.894     1000 
  876000   0.51033778   -1.8844094   0.76474116   -1.1196682   0.13750754    11317.096     1000 
  878000   0.51556009   -1.8351338   0.77256679    -1.062567   0.12845663    11332.607     1000 
  880000   0.52067218   -1.8793251   0.78022726   -1.0990978   0.13033775    11496.938     1000 
  882000   0.52583715   -1.8900229   0.78796697    -1.102056    0.1268864    11489.728     1000 
  884000   0.50878884    -1.851235   0.76242008   -1.0888149   0.13036335    11485.833     1000 
  886000   0.50171102   -1.8693466   0.75181397   -1.1175326   0.12612481    11375.651     1000 
  888000   0.52597445   -1.9542544   0.78817271   -1.1660817   0.12804445    11553.758     1000 
  890000   0.50604097   -1.8723414   0.75830239    -1.114039   0.12577324    11384.364     1000 
  892000   0.51662351   -1.9208492   0.77416033   -1.1466889   0.12658789    11527.464     1000 
  894000    0.5147319   -1.9099822   0.77132576   -1.1386564   0.12424279    11496.917     1000 
  896000   0.48601965   -1.9110272   0.72830045   -1.1827268   0.13146929    11235.284     1000 
  898000   0.51757274   -1.8845436   0.77558275   -1.1089608   0.13609558    11320.416     1000 
  900000   0.49052861   -1.8465341   0.73505712    -1.111477   0.13103213    11510.578     1000 
  902000   0.50134146   -1.8501227   0.75126018   -1.0988625   0.11985491     11353.91     1000 
  904000    0.5132609   -1.9057601   0.76912145   -1.1366387   0.13716183    11323.964     1000 
  906000   0.50511503   -1.9160416   0.75691487   -1.1591267   0.12427895    11404.699     1000 
  908000    0.4887943   -1.8852023   0.73245825    -1.152744   0.12035163    11478.866     1000 
  910000    0.5331349   -1.8995017   0.79890264    -1.100599   0.15146654    11199.762     1000 
  912000   0.53214329   -1.8953529   0.79741672   -1.0979362   0.12249129    11509.479     1000 
  914000   0.53086362   -1.8822144   0.79549914   -1.0867153    0.1299777    11535.258     1000 
  916000   0.53500848   -1.8569986    0.8017102   -1.0552884   0.13739195    11304.132     1000 
  918000   0.49618411   -1.9195783   0.74353189   -1.1760464    0.1198779    11581.452     1000 
  920000   0.53078199   -1.8658378   0.79537681    -1.070461   0.13251078    11330.794     1000 
  922000   0.51186239    -1.892696   0.76702579   -1.1256702   0.12135604    11622.113     1000 
  924000   0.52426501   -1.9630656   0.78561112   -1.1774544   0.12066383    11605.754     1000 
  926000   0.47209561    -1.891495   0.70743528   -1.1840597   0.13722439     11251.09     1000 
  928000   0.49990004   -1.8671823   0.74910021   -1.1180821   0.13386441    11411.551     1000 
  930000   0.50942485    -1.929387   0.76337314   -1.1660138   0.12426138    11361.575     1000 
  932000   0.48233181   -1.8537697   0.72277421   -1.1309955   0.13851699    11338.754     1000 
  934000   0.50698965   -1.8483484     0.759724   -1.0886244   0.14856564    11264.525     1000 
  936000   0.52328232   -1.8720241   0.78413855   -1.0878856   0.13825174    11382.962     1000 
  938000   0.53571385   -1.8465321    0.8027672   -1.0437649   0.13331196     11276.66     1000 
  940000   0.49507698   -1.8902784   0.74187285   -1.1484056   0.12388358    11478.539     1000 
  942000   0.51031932   -1.9024064    0.7647135   -1.1376929   0.12570015    11400.821     1000 
  944000   0.49829764   -1.9170529   0.74669901   -1.1703538   0.13109632    11318.486     1000 
  946000   0.53869176   -1.8662919    0.8072296   -1.0590623    0.1363726    11264.122     1000 
  948000   0.50250708   -1.8355379   0.75300685    -1.082531   0.13069117    11356.507     1000 
  950000   0.53111561   -1.9345418   0.79587675   -1.1386651    0.1293855     11528.74     1000 
  952000    0.5196919   -1.8796743   0.77875831    -1.100916   0.13005737    11455.349     1000 
  954000   0.51660903   -1.8557952   0.77413863   -1.0816566   0.15176269    11150.428     1000 
  956000   0.50421959   -1.9289457   0.75557305   -1.1733727   0.11712143    11551.969     1000 
  958000   0.51021342   -1.9092508   0.76455481    -1.144696   0.12745444    11441.074     1000 
  960000   0.54544009   -1.8819606   0.81734198   -1.0646186   0.13171652    11469.209     1000 
  962000   0.49684718   -1.8508783   0.74452549   -1.1063528   0.12480026    11413.233     1000 
  964000   0.52668938   -1.8493912   0.78924403   -1.0601472   0.12290657    11479.011     1000 
  966000   0.50122381   -1.8559443   0.75108388   -1.1048604   0.13972242    11291.944     1000 
  968000   0.53691662   -1.8541555   0.80456955    -1.049586   0.13903992    11212.833     1000 
  970000   0.52243912   -1.9333147   0.78287502   -1.1504397   0.12542154    11367.465     1000 
  972000   0.51818887   -1.9348395   0.77650603   -1.1583335   0.12354424    11379.998     1000 
  974000   0.49857743   -1.8912771   0.74711828   -1.1441588   0.12080945    11382.961     1000 
  976000   0.53106483   -1.8730296   0.79580064    -1.077229   0.13569165    11455.748     1000 
  978000   0.49485665   -1.9019024   0.74154268   -1.1603597    0.1276036    11442.351     1000 
  980000   0.51723902   -1.9013903   0.77508267   -1.1263076   0.13872901    11504.429     1000 
  982000   0.52729587   -1.8853737   0.79015286   -1.0952208   0.12917487     11376.85     1000 
  984000   0.50426914   -1.8475368    0.7556473   -1.0918895    0.1378049    11399.085     1000 
  986000   0.51944926   -1.8884833   0.77839471   -1.1100886   0.13493643    11436.859     1000 
  988000   0.50441803   -1.9562588   0.75587041   -1.2003884   0.12368794    11476.546     1000 
  990000   0.51402747   -1.9000726   0.77027016   -1.1298025   0.12955248    11485.236     1000 
  992000   0.49558675   -1.8747749   0.74263675   -1.1321381   0.13416267    11454.483     1000 
  994000   0.51138158   -1.9027918    0.7663053   -1.1364865   0.11612897    11647.525     1000 
  996000   0.48265404   -1.8750102   0.72325708   -1.1517531   0.13190901    11336.373     1000 
  998000   0.50009981   -1.8982176   0.74939957    -1.148818   0.12985012    11467.973     1000 
 1000000   0.50470029    -1.837417   0.75629339   -1.0811236   0.12461905      11441.4     1000 
 1002000   0.50278634   -1.8693741   0.75342533   -1.1159487   0.12314304     11439.78     1000 
 1004000   0.53688178   -1.9091178   0.80451735   -1.1046004   0.13085707    11555.359     1000 
 1006000   0.50541619    -1.887683   0.75736616   -1.1303169   0.13663475    11274.621     1000 
 1008000   0.50616533   -1.8452778   0.75848875   -1.0867891   0.12522952    11483.052     1000 
 1010000   0.51825294   -1.8774265   0.77660203   -1.1008245   0.14023644    11382.354     1000 
 1012000   0.49645624   -1.8656442   0.74393968   -1.1217045   0.13591406    11387.302     1000 
 1014000   0.50992868     -1.84353   0.76412812   -1.0794019   0.12207702    11498.588     1000 
 1016000   0.51166337   -1.9046678   0.76672756   -1.1379403   0.13972761    11383.949     1000 
 1018000   0.50435377   -1.9249203   0.75577412   -1.1691462   0.12715221    11588.676     1000 
 1020000   0.49196866   -1.8957207   0.73721503   -1.1585056   0.12474669    11432.468     1000 
 1022000   0.51340555    -1.929826   0.76933822   -1.1604878   0.14656633    11261.769     1000 
 1024000   0.53711498    -1.925031    0.8048668   -1.1201642    0.1382055    11385.592     1000 
 1026000   0.49555398   -1.8951888   0.74258764   -1.1526011   0.12600583    11351.345     1000 
 1028000   0.49576987    -1.846044   0.74291115   -1.1031328   0.14271048    11338.908     1000 
 1030000   0.52139416   -1.8652135   0.78130915   -1.0839043   0.13356471    11257.743     1000 
 1032000   0.51452759    -1.911707    0.7710196   -1.1406874   0.12915519    11469.639     1000 
 1034000   0.50054376   -1.9123861   0.75006483   -1.1623213    0.1213278    11453.033     1000 
 1036000   0.49794539   -1.8657026   0.74617117   -1.1195314   0.14460585    11212.434     1000 
 1038000   0.52097715   -1.8881566   0.78068426   -1.1074724   0.11787924    11500.105     1000 
 1040000    0.5329188   -1.9233453   0.79857882   -1.1247665   0.12711244    11476.244     1000 
 1042000   0.50082747    -1.889337   0.75048996   -1.1388471   0.11638783    11470.596     1000 
 1044000   0.50583699   -1.8582602   0.75799673   -1.1002635   0.12628929    11409.564     1000 
 1046000   0.49167505   -1.8617216   0.73677506   -1.1249465   0.12670995    11443.133     1000 
 1048000   0.53152958   -1.8759331   0.79649708    -1.079436   0.13037286    11430.903     1000 
 1050000   0.51405199   -1.8717143   0.77030691   -1.1014074   0.13623892    11182.157     1000 
 1052000   0.51107881   -1.8598018    0.7658516   -1.0939502   0.13707662    11336.672     1000 
 1054000   0.51874822   -1.8559127   0.77734421   -1.0785685   0.13608166    11289.707     1000 
 1056000   0.52923966   -1.8842914   0.79306563   -1.0912258   0.13905025    11344.328     1000 
 1058000   0.52128797   -1.9248463   0.78115003   -1.1436963   0.13182229    11533.702     1000 
 1060000   0.50278887   -1.8872171   0.75342913    -1.133788   0.12712734    11483.847     1000 
 1062000   0.50642529   -1.9002849    0.7588783   -1.1414066   0.12485161    11427.827     1000 
 1064000   0.50403525   -1.9129782   0.75529682   -1.1576814   0.14157565    11377.298     1000 
 1066000   0.52422389   -1.8609396    0.7855495   -1.0753901   0.12737703    11410.098     1000 
 1068000   0.49808475   -1.8621074      0.74638   -1.1157274    0.1343711    11458.495     1000 
 1070000   0.50286354   -1.9109911   0.75354102   -1.1574501   0.13093582    11451.549     1000 
 1072000    0.5051987   -1.9181546   0.75704025   -1.1611144   0.13709666    11310.301     1000 
 1074000   0.50706182   -1.8518949   0.75983213   -1.0920628    0.1286111    11410.202     1000 
 1076000   0.52567072   -1.9178546   0.78771757    -1.130137   0.13369225    11471.224     1000 
 1078000   0.50758353   -1.9197162   0.76061392   -1.1591022   0.13238753    11428.865     1000 
 1080000   0.51990367   -1.8677742   0.77907565   -1.0886985    0.1162754    11487.141     1000 
 1082000   0.49926927   -1.8910234     0.748155   -1.1428684   0.11611368    11540.772     1000 
 1084000   0.49598595   -1.9271384   0.74323495   -1.1839035   0.12899639    11460.318     1000 
 1086000   0.52318486   -1.9300814   0.78399251   -1.1460889    0.1270013    11450.861     1000 
 1088000    0.4940839   -1.9463357   0.74038472    -1.205951   0.12715619    11370.874     1000 
 1090000   0.51738787   -1.8939878   0.77530573    -1.118682   0.12779075    11407.437     1000 
 1092000   0.51507094   -1.9448648   0.77183381    -1.173031   0.11115967     11689.84     1000 
 1094000   0.51685457   -1.8443023   0.77450657   -1.0697957   0.14270507    11380.396     1000 
 1096000   0.46866675   -1.9176309   0.70229713   -1.2153338    0.1242665    11400.789     1000 
 1098000   0.50707734   -1.9255858   0.75985539   -1.1657304   0.13733966    11499.778     1000 
 1100000   0.50205888   -1.8602541   0.75233524   -1.1079189   0.12308208    11428.301     1000 
 1102000   0.50568342   -1.8756611    0.7577666   -1.1178945   0.13415409    11259.318     1000 
 1104000   0.50272176   -1.8948953   0.75332856   -1.1415668    0.1254975    11442.902     1000 
 1106000   0.50461933   -1.9103155   0.75617206   -1.1541434   0.13748136    11378.927     1000 
 1108000   0.49769542   -1.9063414   0.74579659   -1.1605448   0.13242683    11467.243     1000 
 1110000    0.5327532   -1.9169366   0.79833068    -1.118606   0.12522577      11562.9     1000 
 1112000   0.48976882   -1.8467826   0.73391857    -1.112864   0.13310365    11470.263     1000 
 1114000   0.51619307   -1.8669435   0.77351532   -1.0934281   0.13195696    11348.107     1000 
 1116000   0.49521548   -1.8924185   0.74208039   -1.1503381   0.13318821    11388.816     1000 
 1118000   0.50737029    -1.875664   0.76029438   -1.1153697   0.13432028    11389.731     1000 
 1120000   0.51115602   -1.9188062    0.7659673   -1.1528389   0.13107685    11357.594     1000 
 1122000   0.51321161   -1.8750718    0.7690476   -1.1060242   0.13863643     11339.05     1000 
 1124000   0.49909463   -1.8653291    0.7478933   -1.1174358   0.13574373    11351.141     1000 
 1126000   0.52550242   -1.8746004   0.78746538    -1.087135   0.14795759    11274.096     1000 
 1128000   0.49543936   -1.8987642   0.74241588   -1.1563483    0.1288426     11396.32     1000 
 1130000   0.48735373   -1.8316309   0.73029956   -1.1013313    0.1410377    11321.969     1000 
 1132000   0.49851247   -1.9028181   0.74702094   -1.1557971    0.1242804    11419.503     1000 
 1134000   0.49963529    -1.885882   0.74870348   -1.1371785     0.131017    11327.272     1000 
 1136000   0.51575808   -1.8591468   0.77286349   -1.0862833   0.11132076    11441.021     1000 
 1138000   0.50734675   -1.9029012    0.7602591   -1.1426421   0.13811014    11442.586     1000 
 1140000    0.5073398   -1.8901108   0.76024869   -1.1298621   0.13783664     11362.18     1000 
 1142000   0.48498084   -1.8126635   0.72674379   -1.0859197   0.12912324     11402.87     1000 
 1144000   0.52921575   -1.9008391   0.79302981   -1.1078093   0.13784487    11433.417     1000 
 1146000   0.49659713   -1.8649048    0.7441508    -1.120754   0.12585919    11341.321     1000 
 1148000   0.50797243   -1.8941438   0.76119669   -1.1329471   0.14576037    11216.538     1000 
 1150000    0.5239796   -1.8873329   0.78518343   -1.1021495   0.13346993    11418.622     1000 
 1152000   0.50348494   -1.8610775   0.75447219   -1.1066053   0.13383179    11362.637     1000 
 1154000   0.52663156    -1.910017    0.7891574   -1.1208596   0.12096117    11402.737     1000 
 1156000   0.51473596   -1.8818976   0.77133184   -1.1105657   0.12359016    11334.153     1000 
 1158000   0.50775415   -1.8675052   0.76086959   -1.1066356   0.13759479    11370.266     1000 
 1160000   0.52291005   -1.8838419   0.78358071   -1.1002612   0.12624595    11431.719     1000 
 1162000   0.50691883   -1.8672904   0.75961786   -1.1076726   0.13005358    11296.543     1000 
 1164000   0.51913768   -1.8329941   0.77792781   -1.0550663   0.13411289    11256.539     1000 
 1166000   0.51969163   -1.8806147    0.7787579   -1.1018568    0.1354919    11460.066     1000 
 1168000   0.50095382   -1.9213878    0.7506793   -1.1707085   0.11148523    11675.151     1000 
 1170000   0.51020474   -1.9236169    0.7645418   -1.1590751   0.12974036     11414.25     1000 
 1172000   0.49336152   -1.8426085   0.73930224   -1.1033063   0.15224162    11248.635     1000 
 1174000    0.5198043   -1.8591214   0.77892675   -1.0801946    0.1317236    11481.664     1000 
 1176000   0.50641338   -1.8237277   0.75886045   -1.0648672   0.14275487    11231.118     1000 
 1178000   0.51672488   -1.8968748   0.77431223   -1.1225626   0.12150054    11467.319     1000 
 1180000   0.51219741   -1.8637789   0.76752781    -1.096251   0.13430994    11233.915     1000 
 1182000   0.50686519   -1.9426128   0.75953749   -1.1830753   0.12762094    11451.909     1000 
 1184000    0.4986791   -1.8950098   0.74727063   -1.1477391   0.13087184    11388.966     1000 
 1186000   0.51857073   -1.8706195   0.77707824   -1.0935413   0.12556482    11399.785     1000 
 1188000   0.51491037   -1.9078508   0.77159319   -1.1362576    0.1264799    11387.904     1000 
 1190000   0.50093572   -1.8797772   0.75065217   -1.1291251   0.12211595    11466.538     1000 
 1192000    0.5201528   -1.8809026   0.77944897   -1.1014536   0.12885794    11380.278     1000 
 1194000   0.53566618   -1.8903785   0.80269576   -1.0876828   0.13585838    11383.709     1000 
 1196000   0.50263375   -1.8505778   0.75319667   -1.0973812   0.13241188    11294.393     1000 
 1198000   0.51329885   -1.8999138   0.76917833   -1.1307354   0.13681376    11233.804     1000 
 1200000   0.52582822   -1.9016882   0.78795359   -1.1137346   0.12898334    11362.482     1000 
 1202000   0.51807188   -1.9445891   0.77633071   -1.1682584   0.13002935    11456.139     1000 
 1204000     0.507118    -1.846598   0.75991632   -1.0866817   0.13761308    11178.942     1000 
 1206000   0.49995402   -1.8879968   0.74918109   -1.1388157   0.12945073    11346.913     1000 
 1208000   0.51403563    -1.883841   0.77028239   -1.1135586   0.13192293    11395.913     1000 
 1210000   0.51456292   -1.8836302   0.77107254   -1.1125576   0.13308263    11506.839     1000 
 1212000   0.50912307   -1.8988597   0.76292091   -1.1359388   0.12704798    11588.657     1000 
 1214000   0.49334525   -1.8403608   0.73927786    -1.101083   0.13543233    11374.889     1000 
 1216000   0.51195179   -1.8844727   0.76715975    -1.117313   0.13872001     11400.75     1000 
 1218000   0.52022672    -1.885403   0.77955974   -1.1058432   0.13211509    11306.798     1000 
 1220000   0.50554357   -1.8974097   0.75755705   -1.1398527   0.12123383    11454.387     1000 
 1222000   0.50699734   -1.9009376   0.75973552   -1.1412021   0.13194575     11513.25     1000 
 1224000   0.50977973   -1.9066423   0.76390493   -1.1427374   0.13347581    11364.448     1000 
 1226000    0.5174906   -1.8805675   0.77545966   -1.1051079   0.12674788     11442.09     1000 
 1228000   0.51746157   -1.9246693   0.77541616   -1.1492531    0.1295085    11486.599     1000 
 1230000   0.52914652   -1.8893898   0.79292606   -1.0964638   0.13769389    11366.248     1000 
 1232000   0.52260629   -1.8268955   0.78312553   -1.0437699   0.12987566    11243.269     1000 
 1234000   0.51029749   -1.9006872   0.76468078   -1.1360064   0.13836785    11394.913     1000 
 1236000   0.53758752   -1.8772129   0.80557491    -1.071638    0.1279275    11419.734     1000 
 1238000   0.51421054   -1.8898172   0.77054449   -1.1192728   0.12433803    11523.505     1000 
 1240000   0.51084358   -1.8843989   0.76549911   -1.1188998   0.14166347    11251.251     1000 
 1242000   0.50055298   -1.9233121   0.75007864   -1.1732335   0.12079425    11518.952     1000 
 1244000   0.48692402   -1.9154232   0.72965565   -1.1857676   0.13761641    11344.296     1000 
 1246000   0.52287762   -1.9165827   0.78353212   -1.1330506   0.13434426    11360.566     1000 
 1248000   0.49852978   -1.8547006   0.74704687   -1.1076537   0.12347631    11355.718     1000 
 1250000   0.48459592    -1.896997   0.72616698     -1.17083   0.12838315    11473.053     1000 
 1252000   0.51047643   -1.9414726   0.76494893   -1.1765236   0.11378421    11578.722     1000 
 1254000   0.50812035   -1.9035693   0.76141834    -1.142151   0.12325601    11448.258     1000 
 1256000   0.48664145   -1.8513396   0.72923221   -1.1221074   0.11858331    11459.873     1000 
 1258000   0.53163338   -1.8542476   0.79665262    -1.057595   0.13603615    11448.916     1000 
 1260000   0.48966988   -1.9066326   0.73377031   -1.1728623   0.12337403    11524.947     1000 
 1262000   0.50818975   -1.9716594   0.76152234   -1.2101371   0.13736126    11359.976     1000 
 1264000   0.46597263   -1.9441147   0.69825999   -1.2458547   0.11799913    11491.497     1000 
 1266000   0.51315474    -1.897271   0.76896238   -1.1283086   0.12890489    11462.324     1000 
 1268000   0.49872238   -1.8759338   0.74733549   -1.1285984   0.12803263    11395.699     1000 
 1270000   0.50319429   -1.8972963   0.75403664   -1.1432596    0.1239793    11537.449     1000 
 1272000   0.53652191   -1.8624585   0.80397808   -1.0584804   0.12974557    11438.917     1000 
 1274000   0.48451512   -1.9532969   0.72604591    -1.227251   0.12524402    11466.128     1000 
 1276000   0.50863066    -1.885575   0.76218304    -1.123392   0.13442651    11267.417     1000 
 1278000   0.49257642   -1.9035214   0.73812577   -1.1653956   0.11990811    11520.877     1000 
 1280000   0.51755196   -1.8752346   0.77555161    -1.099683   0.11742894    11607.897     1000 
 1282000   0.53009469     -1.83093    0.7943469   -1.0365831    0.1432217    11261.627     1000 
 1284000   0.48976485   -1.8870031   0.73391263   -1.1530904   0.14010355    11401.779     1000 
 1286000   0.52799024   -1.9045092   0.79119338   -1.1133158   0.13247883    11384.679     1000 
 1288000   0.50808979   -1.8465458   0.76137256   -1.0851733   0.12553279    11564.807     1000 
 1290000   0.50419729   -1.9085543   0.75553964   -1.1530147   0.12887878    11427.859     1000 
 1292000   0.50763624   -1.8469669    0.7606929    -1.086274   0.12789621     11400.07     1000 
 1294000   0.51911584   -1.8859206   0.77789509   -1.1080255   0.13948046    11397.116     1000 
 1296000   0.52622044   -1.9020254   0.78854133   -1.1134841   0.12955049    11459.289     1000 
 1298000   0.51537676   -1.8467131   0.77229208    -1.074421   0.13726769     11311.53     1000 
 1300000   0.50104554   -1.8769411   0.75081674   -1.1261244    0.1266375    11299.974     1000 
 1302000   0.49411426   -1.8473306   0.74043022   -1.1069003   0.12848782    11450.211     1000 
 1304000   0.53739489   -1.8465127   0.80528625   -1.0412265   0.14124538    11274.741     1000 
 1306000   0.52298693     -1.90173   0.78369592   -1.1180341   0.14221234    11261.602     1000 
 1308000   0.50262625   -1.8814505   0.75318544   -1.1282651   0.12175237    11486.252     1000 
 1310000   0.51369336   -1.9138335    0.7697695    -1.144064   0.12157624    11510.158     1000 
 1312000   0.49574073   -1.8921263   0.74286748   -1.1492589   0.13774485    11338.785     1000 
 1314000   0.50536764   -1.9048138   0.75729341   -1.1475204   0.13629689    11385.397     1000 
 1316000   0.49824855   -1.9211532   0.74662546   -1.1745277   0.13933464    11374.088     1000 
 1318000   0.49611831   -1.8950579   0.74343329   -1.1516246   0.12269456    11514.631     1000 
 1320000   0.51201087    -1.939012   0.76724828   -1.1717637   0.13410127    11375.482     1000 
 1322000   0.51041949   -1.9072324    0.7648636   -1.1423688   0.12516137    11574.118     1000 
 1324000   0.51425892   -1.8522208   0.77061698   -1.0816038   0.11840474    11497.993     1000 
 1326000   0.49421566   -1.8842942   0.74058217   -1.1437121   0.12516186     11478.77     1000 
 1328000   0.48569526   -1.9194732   0.72781435   -1.1916589   0.12583034    11336.043     1000 
 1330000   0.49045332   -1.8736987    0.7349443   -1.1387544   0.12321838     11519.61     1000 
 1332000   0.52485122   -1.8649308   0.78648955   -1.0784412   0.13686411    11455.372     1000 
 1334000   0.53988878   -1.8604395   0.80902334   -1.0514162   0.13099382    11292.896     1000 
 1336000   0.50819027   -1.8497548   0.76152312   -1.0882317   0.13542862    11360.177     1000 
 1338000   0.50169249    -1.891733    0.7517862   -1.1399468   0.12463348     11536.53     1000 
 1340000   0.50016491   -1.8802088   0.74949712   -1.1307117   0.13156398    11382.309     1000 
 1342000   0.50644118   -1.8485775    0.7589021   -1.0896754   0.13670202    11395.675     1000 
 1344000   0.51100736   -1.8568475   0.76574452   -1.0911029   0.11966069    11508.939     1000 
 1346000   0.54243286   -1.9154264   0.81283564   -1.1025907   0.13370207    11550.595     1000 
 1348000   0.50282608   -1.9019711   0.75348488   -1.1484862   0.12856878    11436.968     1000 
 1350000   0.50217778   -1.8893855    0.7525134   -1.1368721   0.13113357    11457.524     1000 
 1352000   0.50158628    -1.826326   0.75162704    -1.074699   0.13637367    11300.034     1000 
 1354000   0.50280567   -1.9347373   0.75345429   -1.1812831    0.1245932    11415.827     1000 
 1356000   0.50601119   -1.8893842   0.75825778   -1.1311264   0.12750513    11391.168     1000 
 1358000   0.51722961   -1.9045004   0.77506857   -1.1294318   0.12845539    11382.875     1000 
 1360000   0.52339493   -1.9079739    0.7843073   -1.1236666   0.12599409     11518.51     1000 
 1362000   0.52593707   -1.8613692    0.7881167   -1.0732525   0.12379421    11401.104     1000 
 1364000   0.51616737   -1.8868541    0.7734768   -1.1133773   0.14785752    11326.487     1000 
 1366000   0.50503301   -1.9241391   0.75679197   -1.1673472   0.13208014    11443.463     1000 
 1368000   0.51408947   -1.9093002   0.77036307   -1.1389371   0.13308578    11534.264     1000 
 1370000   0.49038163   -1.9051027   0.73483687   -1.1702658   0.12446878    11338.807     1000 
 1372000   0.51643292   -1.8901872   0.77387473   -1.1163125   0.13647662    11361.387     1000 
 1374000   0.51704446   -1.8892621   0.77479112   -1.1144709   0.12244447    11496.594     1000 
 1376000   0.50809946   -1.8904567   0.76138705   -1.1290697   0.14010562    11301.861     1000 
 1378000   0.50160453    -1.898998   0.75165438   -1.1473436   0.12472365    11521.811     1000 
 1380000   0.50482341   -1.9387081   0.75647788   -1.1822302   0.12872516    11478.132     1000 
 1382000   0.50508277   -1.9267711   0.75686653   -1.1699046   0.12606895    11486.342     1000 
 1384000   0.51474969   -1.8999563   0.77135241   -1.1286039   0.14238983    11285.448     1000 
 1386000   0.51543663   -1.8835983   0.77238179   -1.1112166   0.12894984    11348.254     1000 
 1388000   0.51854745   -1.8676394   0.77704336   -1.0905961   0.12307768     11422.88     1000 
 1390000   0.51872818   -1.8582182   0.77731418    -1.080904   0.13726829    11335.046     1000 
 1392000   0.51193017   -1.8912748   0.76712736   -1.1241474   0.12333382    11489.412     1000 
 1394000   0.51503799   -1.8737223   0.77178442   -1.1019379   0.13958281    11382.292     1000 
 1396000   0.50719102   -1.8550385   0.76002575   -1.0950127     0.132308     11321.45     1000 
 1398000   0.51563567   -1.9118251   0.77268005   -1.1391451   0.13431949    11399.909     1000 
 1400000   0.54514764   -1.8653837   0.81690374   -1.0484799   0.13055439    11383.499     1000 
 1402000   0.48268532   -1.8854233   0.72330395   -1.1621194    0.1294322     11459.88     1000 
 1404000   0.48715216   -1.8752439   0.72999752   -1.1452464   0.12855306    11326.996     1000 
 1406000   0.49049559   -1.9129398   0.73500764   -1.1779321   0.13083275    11394.987     1000 
 1408000    0.4971597   -1.8734917   0.74499382   -1.1284979   0.14001706     11284.11     1000 
 1410000    0.5253338   -1.9250321    0.7872127   -1.1378194   0.13339225    11374.477     1000 
 1412000   0.49622484   -1.9251189   0.74359292    -1.181526   0.12791383    11508.504     1000 
 1414000   0.52266524   -1.8943167   0.78321386   -1.1111028   0.13626177     11343.43     1000 
 1416000   0.52586094   -1.8900976   0.78800261    -1.102095     0.142279    11463.792     1000 
 1418000   0.50497684   -1.9025504    0.7567078   -1.1458426   0.12997137      11507.9     1000 
 1420000   0.51167346   -1.9120359   0.76674268   -1.1452933   0.13162055    11301.391     1000 
 1422000   0.50327463   -1.8724164   0.75415703   -1.1182594   0.13486252    11286.432     1000 
 1424000   0.52888653   -1.9368524   0.79253646    -1.144316   0.14412843    11351.077     1000 
 1426000    0.5027215   -1.9446651   0.75332817   -1.1913369   0.13265611    11478.427     1000 
 1428000    0.4925618   -1.8890007   0.73810385   -1.1508969   0.14079316    11281.265     1000 
 1430000   0.50160092   -1.8865898   0.75164897   -1.1349408    0.1405454    11527.192     1000 
 1432000    0.5135691   -1.8601752   0.76958329   -1.0905919    0.1423351    11321.386     1000 
 1434000    0.4964656    -1.877012    0.7439537   -1.1330583   0.12892903      11385.4     1000 
 1436000   0.48990814   -1.8544849   0.73412735   -1.1203576   0.12766353    11375.133     1000 
 1438000   0.52514922   -1.8731914    0.7869361   -1.0862553   0.13619903    11350.082     1000 
 1440000   0.52542692   -1.8973339   0.78735223   -1.1099817   0.13091425    11480.719     1000 
 1442000   0.51623099   -1.9046574   0.77357215   -1.1310853   0.13620626    11445.218     1000 
 1444000   0.53128881   -1.8669943   0.79613628    -1.070858   0.13909853    11296.763     1000 
 1446000   0.51300778   -1.8625691   0.76874216   -1.0938269   0.12313906    11508.469     1000 
 1448000   0.50148931   -1.8637403   0.75148172   -1.1122585   0.12794915    11578.263     1000 
 1450000    0.5253202   -1.9066757   0.78719233   -1.1194834   0.13341211    11447.944     1000 
 1452000   0.51618486   -1.9386754   0.77350301   -1.1651724   0.13245836    11392.441     1000 
 1454000   0.49772467   -1.8105769   0.74584042   -1.0647365   0.13052348    11309.802     1000 
 1456000   0.51135453   -1.9272031   0.76626476   -1.1609383   0.13886573    11395.158     1000 
 1458000   0.50918307   -1.9021206   0.76301083   -1.1391098   0.13939683     11314.54     1000 
 1460000   0.50203051   -1.9201224   0.75229272   -1.1678297   0.13084438    11410.684     1000 
 1462000   0.49431392   -1.9166553   0.74072941   -1.1759259   0.13348196    11402.113     1000 
 1464000   0.51160955   -1.8493016   0.76664691   -1.0826547   0.13285103    11254.012     1000 
 1466000   0.51503737   -1.8996761    0.7717835   -1.1278926   0.12820116    11533.113     1000 
 1468000   0.52678198   -1.8932403    0.7893828   -1.1038575   0.13571744    11320.759     1000 
 1470000   0.50508598   -1.8921042   0.75687135   -1.1352328   0.12427154    11642.217     1000 
 1472000   0.47745272   -1.8341571    0.7154629   -1.1186942   0.11547434    11456.387     1000 
 1474000   0.51117873   -1.8435588   0.76600133   -1.0775575   0.13153575    11441.251     1000 
 1476000    0.4957828   -1.8534129   0.74293052   -1.1104824   0.14019042    11282.843     1000 
 1478000   0.52543912   -1.9215247   0.78737052   -1.1341542    0.1195713    11595.675     1000 
 1480000   0.47742624   -1.8858881   0.71542323   -1.1704648   0.13127264    11359.754     1000 
 1482000   0.48598032   -1.8790887   0.72824151   -1.1508471   0.12717228    11358.364     1000 
 1484000   0.48508201    -1.829093   0.72689539   -1.1021976   0.14357969    11221.925     1000 
 1486000   0.51429661   -1.8589944   0.77067348    -1.088321   0.13252554    11368.928     1000 
 1488000    0.5204033   -1.8425053   0.77982435   -1.0626809   0.13859157    11258.714     1000 
 1490000   0.51203261   -1.8756869   0.76728086   -1.1084061   0.13080597    11337.458     1000 
 1492000   0.52329565   -1.8834533   0.78415853   -1.0992948   0.13026797    11387.646     1000 
 1494000   0.50250363   -1.8768929   0.75300169   -1.1238913   0.11840579    11525.832     1000 
 1496000   0.49811185    -1.899337   0.74642061   -1.1529164   0.13399375    11434.017     1000 
 1498000   0.53279556   -1.8579069   0.79839414   -1.0595128   0.13559822    11360.144     1000 
 1500000   0.50740833   -1.9617287   0.76035138   -1.2013773   0.13148037    11468.513     1000 
 1502000   0.49814386   -1.9290032   0.74646858   -1.1825346   0.11837738    11562.261     1000 
 1504000   0.50396265   -1.8969013   0.75518804   -1.1417133   0.12931978    11506.743     1000 
 1506000   0.51693502   -1.8695127   0.77462712   -1.0948856    0.1309986    11415.118     1000 
 1508000   0.50636153    -1.898091   0.75878276   -1.1393082   0.10734775    11608.875     1000 
 1510000   0.49119624   -1.9364126   0.73605757    -1.200355   0.11695646    11534.789     1000 
 1512000   0.49393066   -1.8891177   0.74015509   -1.1489626   0.13416073    11344.025     1000 
 1514000   0.49831044   -1.8643082    0.7467182     -1.11759   0.12103443     11455.84     1000 
 1516000   0.51111641     -1.89421   0.76590794    -1.128302   0.12338502     11604.57     1000 
 1518000   0.49215996   -1.8833344    0.7375017   -1.1458327   0.12927537    11554.585     1000 
 1520000   0.50941258   -1.9010917   0.76335475    -1.137737   0.12725208    11603.246     1000 
 1522000   0.49616883   -1.9050182   0.74350899   -1.1615092   0.13587156    11341.553     1000 
 1524000   0.51986771   -1.8674683   0.77902177   -1.0884465   0.13713689    11322.719     1000 
 1526000   0.49822489   -1.8661513   0.74658999   -1.1195613   0.13207411    11314.732     1000 
 1528000   0.51023788   -1.8199008   0.76459146   -1.0553093   0.13013723    11413.658     1000 
 1530000    0.4738819   -1.9418255   0.71011202   -1.2317135   0.12164836    11573.926     1000 
 1532000   0.48902853   -1.8645603   0.73280926   -1.1317511   0.13525203    11397.895     1000 
 1534000   0.52943401   -1.8656905   0.79335686   -1.0723336   0.12848122    11486.084     1000 
 1536000   0.50451384   -1.8853872   0.75601399   -1.1293732   0.13600436    11327.651     1000 
 1538000   0.51591515   -1.8587228   0.77309885    -1.085624    0.1348832     11425.57     1000 
 1540000    0.5184927   -1.8461631    0.7769613   -1.0692018   0.13786543    11276.918     1000 
 1542000    0.4864379   -1.8924963   0.72892719   -1.1635691   0.12427987    11471.399     1000 
 1544000   0.52584595   -1.8690464   0.78798016   -1.0810662   0.13360409     11366.17     1000 
 1546000   0.53049624   -1.9315811   0.79494861   -1.1366325   0.11747785    11505.202     1000 
 1548000   0.50995824   -1.9125358   0.76417242   -1.1483634   0.12528288    11517.472     1000 
 1550000   0.50475408   -1.8663738   0.75637398   -1.1099998   0.12486993    11370.813     1000 
 1552000   0.49033234   -1.8544172   0.73476302   -1.1196542   0.13888172    11351.365     1000 
 1554000   0.51446878   -1.9134494   0.77093147    -1.142518    0.1351904    11311.491     1000 
 1556000   0.50137222   -1.9000454   0.75130627   -1.1487391   0.13739703    11312.997     1000 
 1558000   0.49738519   -1.8843576   0.74533171   -1.1390259   0.14176986    11237.405     1000 
 1560000   0.50509476   -1.8946975    0.7568845    -1.137813   0.12439637     11388.94     1000 
 1562000    0.5292011   -1.8883787   0.79300784   -1.0953708   0.12844626    11498.928     1000 
 1564000   0.50202057   -1.8893296   0.75227783   -1.1370518   0.13737414    11392.294     1000 
 1566000   0.50428198   -1.8695582   0.75566654   -1.1138916   0.12189356     11604.53     1000 
 1568000   0.52380879   -1.9060987   0.78492748   -1.1211713    0.1204653    11512.088     1000 
 1570000   0.49072608   -1.8375533   0.73535303   -1.1022002   0.12285644    11337.871     1000 
 1572000   0.51201289   -1.8742155   0.76725132   -1.1069641    0.1491262    11184.526     1000 
 1574000   0.50019949   -1.8631978   0.74954893   -1.1136489    0.1327448    11422.401     1000 
 1576000   0.50535543   -1.8959701   0.75727511    -1.138695   0.12876045    11398.892     1000 
 1578000    0.5127789   -1.9013096   0.76839918   -1.1329105   0.13377083    11524.746     1000 
 1580000   0.53968798   -1.9395606   0.80872245   -1.1308382    0.1321845    11465.441     1000 
 1582000   0.51598806   -1.8452755   0.77320811   -1.0720674   0.14262584    11282.042     1000 
 1584000   0.51727265   -1.9239228   0.77513307   -1.1487897   0.11754332    11585.167     1000 
 1586000   0.49420371   -1.8437899   0.74056426   -1.1032257   0.13599112    11260.205     1000 
 1588000   0.51140376   -1.9037335   0.76633853    -1.137395    0.1267668    11472.512     1000 
[...]
 2614000   0.51433772    -1.893028   0.77073508   -1.1222929   0.13119857     11382.44     1000 
 2616000    0.5186756   -1.8837853   0.77723538     -1.10655   0.14099286    11194.977     1000 
 2618000   0.49885536    -1.892735   0.74753476   -1.1452002   0.12835773    11479.353     1000 
 2620000   0.50507073   -1.8873364   0.75684849   -1.1304879    0.1571803     11222.53     1000 
 2622000   0.49158323   -1.9234107   0.73663747   -1.1867732   0.14163229    11294.586     1000 
 2624000   0.51751534   -1.8512271   0.77549674   -1.0757304   0.12993002    11452.764     1000 
 2626000    0.4995468   -1.8896928   0.74857088   -1.1411219   0.13104747    11427.758     1000 
 2628000   0.49633146   -1.8940849   0.74375269   -1.1503322   0.13050688    11426.776     1000 
 2630000    0.5153629   -1.9369894    0.7722713   -1.1647181   0.13263932    11387.893     1000 
 2632000   0.51402418   -1.9027599   0.77026523   -1.1324947   0.11480831     11526.91     1000 
 2634000   0.51378224   -1.8901353   0.76990268   -1.1202326   0.13246898    11304.972     1000 
 2636000   0.51138003   -1.8994764   0.76630297   -1.1331734   0.12481294     11421.93     1000 
 2638000    0.5218825   -1.9009996   0.78204092   -1.1189587   0.12159226    11410.026     1000 
 2640000   0.51125158    -1.930129   0.76611049   -1.1640185   0.12407053    11419.839     1000 
 2642000   0.52112143   -1.8916466   0.78090047   -1.1107461   0.13500029    11413.196     1000 
 2644000    0.5277575   -1.8663067   0.79084462   -1.0754621   0.13894279    11286.983     1000 
 2646000   0.51892044   -1.8643291   0.77760229   -1.0867268   0.12395973    11518.453     1000 
 2648000   0.49793232   -1.8793466   0.74615159    -1.133195   0.13382102    11324.674     1000 
 2650000   0.50047578   -1.9013174   0.74996296   -1.1513545   0.12632345    11447.104     1000 
 2652000   0.51032261   -1.9449554   0.76471843    -1.180237   0.12608726    11331.414     1000 
 2654000   0.50212406   -1.8721734   0.75243291   -1.1197405   0.13750426    11295.392     1000 
 2656000   0.49756512    -1.898172   0.74560133   -1.1525707   0.13323134    11405.316     1000 
 2658000   0.52182495   -1.9511883   0.78195469   -1.1692336   0.13010301    11470.371     1000 
 2660000   0.53007385   -1.8625679   0.79431567   -1.0682522   0.14899201    11289.932     1000 
 2662000   0.51549793   -1.8534703   0.77247365   -1.0809967   0.11762803    11562.326     1000 
 2664000    0.4978294   -1.9337396   0.74599736   -1.1877422   0.12310613     11453.27     1000 
 2666000    0.5084237    -1.904462   0.76187291   -1.1425891   0.12038785    11529.491     1000 
 2668000   0.52138535   -1.8928666   0.78129594   -1.1115706   0.12585507     11441.82     1000 
 2670000    0.5097863   -1.8736837   0.76391477   -1.1097689   0.12901429    11411.555     1000 
 2672000   0.49343072   -1.8511901   0.73940593   -1.1117842   0.12174613    11443.769     1000 
 2674000   0.51043726    -1.929958   0.76489024   -1.1650678   0.12654671    11476.111     1000 
 2676000   0.50118665   -1.8790345    0.7510282   -1.1280063   0.12137105    11433.127     1000 
 2678000   0.49431162   -1.8744938   0.74072596   -1.1337679   0.13916597    11308.315     1000 
 2680000   0.48262497   -1.9398845   0.72321352    -1.216671   0.11545982    11568.193     1000 
 2682000   0.48340043    -1.934845   0.72437554   -1.2104694   0.12817299    11497.284     1000 
 2684000   0.50580107   -1.8929473   0.75794291   -1.1350044   0.12594248    11498.683     1000 
 2686000   0.50758236   -1.8849772   0.76061217   -1.1243651   0.13157039    11383.136     1000 
 2688000   0.51036914   -1.9055237   0.76478816   -1.1407355   0.12476245    11364.302     1000 
 2690000   0.51058949   -1.9076511   0.76511835   -1.1425327   0.12149195    11478.765     1000 
 2692000   0.49177655   -1.9044623   0.73692716   -1.1675351   0.12330343    11539.671     1000 
 2694000   0.50586708   -1.9234012   0.75804182   -1.1653594   0.12862259    11428.653     1000 
 2696000   0.51619385    -1.869642   0.77351648   -1.0961255   0.12843036    11339.844     1000 
 2698000   0.52676888   -1.8854192   0.78936316    -1.096056   0.13237335     11407.11     1000 
 2700000   0.52726795   -1.9175422   0.79011103   -1.1274312    0.1284046    11382.576     1000 
 2702000   0.49564895   -1.8891744   0.74272995   -1.1464444   0.12969778    11427.003     1000 
 2704000   0.53996364   -1.8760361   0.80913552   -1.0669005   0.12983922    11518.029     1000 
 2706000   0.50872089   -1.8867774   0.76231825   -1.1244592   0.12154455    11605.064     1000 
 2708000   0.49732108   -1.9240331   0.74523564   -1.1787974   0.13119788    11392.841     1000 
 2710000   0.52311393   -1.8823098   0.78388622   -1.0984236   0.12622265    11440.102     1000 
 2712000    0.5261118   -1.9199699   0.78837854   -1.1315914   0.11915379    11640.488     1000 
 2714000   0.51055664    -1.863869   0.76506912   -1.0987999   0.12984242    11403.559     1000 
 2716000   0.52035022   -1.9090742    0.7797448   -1.1293294   0.13225162    11509.482     1000 
 2718000    0.5029543   -1.8939887   0.75367702   -1.1403117   0.12798656    11390.866     1000 
 2720000   0.52911768   -1.8701242   0.79288285   -1.0772413   0.13657294    11397.198     1000 
 2722000   0.49202611    -1.885348   0.73730112   -1.1480468   0.11993411     11451.21     1000 
 2724000   0.50570514    -1.903076   0.75779915   -1.1452768   0.13815611    11313.574     1000 
 2726000   0.50463076   -1.8430133   0.75618919   -1.0868241   0.13999207    11281.098     1000 
 2728000   0.50949183   -1.8643266   0.76347351   -1.1008531   0.12810462    11452.466     1000 
 2730000   0.50846287   -1.8748162   0.76193161   -1.1128846   0.12376079    11525.987     1000 
 2732000   0.53051727   -1.8414744   0.79498012   -1.0464943   0.13879459    11273.222     1000 
 2734000   0.52175179   -1.8768493   0.78184505   -1.0950043   0.12425637    11422.295     1000 
 2736000   0.51283147   -1.9125317   0.76847795   -1.1440538   0.13876346    11406.655     1000 
 2738000   0.52120535   -1.8603847   0.78102622   -1.0793585   0.13933988    11190.012     1000 
 2740000   0.50100627    -1.857475   0.75075789   -1.1067171    0.1300182    11434.374     1000 
 2742000   0.53822685   -1.8465124   0.80653293   -1.0399795    0.1304742    11356.901     1000 
 2744000   0.48685646   -1.9404412   0.72955441   -1.2108868   0.12042767    11498.148     1000 
 2746000   0.50268172   -1.8745982   0.75326856   -1.1213296   0.12531547    11506.448     1000 
 2748000   0.49852919   -1.8969947   0.74704599   -1.1499487   0.12942682    11371.826     1000 
 2750000   0.48851353   -1.9107649   0.73203753   -1.1787274   0.12694824    11493.967     1000 
 2752000   0.50902906   -1.8523909   0.76278005   -1.0896108   0.12878509    11419.163     1000 
 2754000   0.50973602   -1.8942823   0.76383943   -1.1304429   0.13166085     11343.31     1000 
 2756000   0.48446487   -1.8343388    0.7259706   -1.1083682   0.12212204     11441.68     1000 
 2758000   0.49788497   -1.9015104   0.74608063   -1.1554297    0.1377895    11373.772     1000 
 2760000    0.5357758   -1.8889471   0.80286004    -1.086087   0.13746464    11341.264     1000 
 2762000   0.51149862   -1.8809706   0.76648068     -1.11449   0.12028171    11496.923     1000 
 2764000   0.48940716   -1.9189287   0.73337664    -1.185552   0.13362704    11315.827     1000 
 2766000   0.52243039   -1.8486729   0.78286194    -1.065811   0.12851783    11424.453     1000 
 2768000   0.50969173   -1.9037595   0.76377305   -1.1399864   0.12854916    11414.333     1000 
 2770000   0.51238555    -1.893106   0.76780974   -1.1252963   0.13714386    11220.668     1000 
 2772000   0.48933481   -1.8971733   0.73326822   -1.1639051    0.1346837     11406.48     1000 
 2774000   0.48719602   -1.8807749   0.73006324   -1.1507117   0.12168718    11381.721     1000 
 2776000   0.52048552   -1.9491625   0.77994755   -1.1692149   0.12127494    11528.143     1000 
 2778000   0.50075431   -1.8674649   0.75038034   -1.1170845   0.13601393    11376.279     1000 
 2780000   0.50656242   -1.8741579   0.75908378   -1.1150742   0.13694677    11330.679     1000 
 2782000   0.49318805   -1.9432405   0.73904229   -1.2041982   0.11729574    11516.371     1000 
 2784000   0.51282965   -1.8890036   0.76847523   -1.1205284   0.11659338    11633.285     1000 
 2786000   0.51938721   -1.8818912   0.77830174   -1.1035894   0.13039644     11499.78     1000 
 2788000   0.50938415   -1.9539831   0.76331214   -1.1906709   0.12555447    11470.655     1000 
 2790000   0.53132103    -1.931986   0.79618457   -1.1358014   0.11634983    11658.436     1000 
 2792000   0.49860243   -1.8449314   0.74715575   -1.0977756   0.13106841    11409.902     1000 
 2794000   0.51928812   -1.8944677   0.77815325   -1.1163144   0.13871751    11310.841     1000 
 2796000   0.49556372   -1.8083323   0.74260223   -1.0657301   0.13738888    11260.663     1000 
 2798000   0.52881955   -1.9546062   0.79243609   -1.1621701   0.14165668     11393.05     1000 
 2800000   0.50691226   -1.8802148   0.75960803   -1.1206068   0.12894674    11364.624     1000 
 2802000   0.51761389   -1.8459083   0.77564441   -1.0702639   0.14037354    11314.441     1000 
 2804000   0.48480198   -1.8895827   0.72647577    -1.163107   0.13096768    11362.126     1000 
 2806000   0.51361757   -1.8724538   0.76965593   -1.1027979   0.14088039    11229.923     1000 
 2808000   0.49971439   -1.8923395   0.74882201   -1.1435174    0.1225192    11410.509     1000 
 2810000   0.52361469    -1.895159   0.78463661   -1.1105224   0.12267751      11507.4     1000 
 2812000   0.53250272   -1.9342464   0.79795533    -1.136291   0.12215342    11441.726     1000 
 2814000   0.50554767   -1.8460956   0.75756319   -1.0885324   0.13096126    11244.073     1000 
 2816000   0.49931107   -1.8484747   0.74821764   -1.1002571   0.14102381    11209.967     1000 
 2818000   0.52501948   -1.8726069    0.7867417   -1.0858652   0.13375563    11375.967     1000 
 2820000   0.51801821   -1.8911553   0.77625028    -1.114905   0.13996288    11331.042     1000 
 2822000   0.49829086   -1.9117124   0.74668886   -1.1650235    0.1418102    11219.946     1000 
 2824000   0.50138491   -1.8661428   0.75132529   -1.1148175   0.13202267    11297.728     1000 
 2826000   0.50147531    -1.899648   0.75146076   -1.1481872    0.1222816    11444.039     1000 
 2828000   0.51389142   -1.8726123    0.7700663    -1.102546   0.13449292     11278.17     1000 
 2830000   0.52527985   -1.8755103   0.78713186   -1.0883784   0.12782168    11422.362     1000 
 2832000    0.5058625   -1.8634045   0.75803496   -1.1053696   0.14069436    11295.076     1000 
 2834000   0.51139388   -1.8918976   0.76632373   -1.1255739   0.13368429    11450.107     1000 
 2836000   0.52055863   -1.9003128   0.78005711   -1.1202557   0.13823974    11500.039     1000 
 2838000   0.50335073    -1.869881   0.75427107   -1.1156099   0.14447906    11240.084     1000 
 2840000   0.49129317   -1.8506514   0.73620282   -1.1144485    0.1539382    11113.182     1000 
 2842000   0.51104933   -1.8924602   0.76580742   -1.1266528    0.1268541     11385.95     1000 
 2844000   0.50740231   -1.8857058   0.76034236   -1.1253635   0.12784703    11477.839     1000 
 2846000   0.51945274   -1.8994537   0.77839993   -1.1210538   0.12664116    11602.544     1000 
 2848000   0.51383244   -1.8865102   0.76997791   -1.1165323   0.14040826    11285.287     1000 
 2850000   0.50712746   -1.9285964    0.7599305   -1.1686659   0.12325816    11485.594     1000 
 2852000   0.50033235   -1.9295527   0.74974803   -1.1798047   0.13940466    11458.412     1000 
 2854000   0.49485687   -1.8800102   0.74154303   -1.1384672   0.11944346    11529.815     1000 
 2856000   0.51439304   -1.9358078   0.77081796   -1.1649898   0.12309819    11623.371     1000 
 2858000   0.51331558   -1.8601662   0.76920339   -1.0909628   0.12992614    11345.303     1000 
 2860000    0.5171367    -1.871655   0.77492934   -1.0967256   0.12813719    11468.698     1000 
 2862000   0.53424782   -1.8640575   0.80057036   -1.0634871   0.14955624    11199.849     1000 
 2864000   0.51747779   -1.9225175   0.77544048    -1.147077   0.13608136    11386.076     1000 
 2866000    0.5074348    -1.883681   0.76039104   -1.1232899   0.12678016    11306.144     1000 
 2868000   0.48924525   -1.8736648   0.73313401   -1.1405308   0.12448424    11410.081     1000 
 2870000   0.51353039   -1.9176509   0.76952529   -1.1481256   0.12859567    11488.442     1000 
 2872000    0.5027634   -1.8229124   0.75339096   -1.0695215   0.13721689    11320.148     1000 
 2874000   0.50063679   -1.8755792   0.75020423    -1.125375    0.1179821    11399.886     1000 
 2876000   0.48429282   -1.9292827   0.72571279   -1.2035699   0.14185209    11254.855     1000 
 2878000   0.51833856   -1.9021019   0.77673033   -1.1253716   0.14661761    11277.169     1000 
 2880000   0.51722422   -1.9449925    0.7750605    -1.169932   0.13011677    11456.154     1000 
 2882000   0.47514107   -1.8776855   0.71199889   -1.1656866   0.12887854    11369.465     1000 
 2884000     0.530734   -1.8951024   0.79530491   -1.0997974   0.14691558    11228.331     1000 
 2886000   0.51481181   -1.8817527   0.77144549   -1.1103072   0.13610961    11295.285     1000 
 2888000   0.49376821   -1.8699292   0.73991166   -1.1300175   0.12283656    11569.062     1000 
 2890000   0.52777922   -1.9164442   0.79087716   -1.1255671   0.13022082    11540.076     1000 
 2892000   0.51180838   -1.8799042   0.76694485   -1.1129594   0.13746754    11386.691     1000 
 2894000   0.51984122   -1.8583748   0.77898207   -1.0793928    0.1287103    11343.336     1000 
 2896000   0.50668496   -1.8660604   0.75926741    -1.106793   0.12946526    11341.275     1000 
 2898000   0.53987483   -1.8911205   0.80900243    -1.082118   0.13181726    11415.918     1000 
 2900000   0.49648592   -1.8925444   0.74398415   -1.1485602   0.13150657    11446.307     1000 
 2902000   0.50823038   -1.8968716   0.76158323   -1.1352884   0.12109752    11576.696     1000 
 2904000   0.50831374   -1.9113661   0.76170814    -1.149658   0.13708444    11316.318     1000 
 2906000   0.52378759   -1.8595404    0.7848957   -1.0746447    0.1234448     11476.57     1000 
 2908000    0.4973679    -1.944693   0.74530579   -1.1993872   0.12818809    11373.848     1000 
 2910000   0.50332435   -1.9043446   0.75423155   -1.1501131   0.12975417     11409.15     1000 
 2912000   0.49829889   -1.9231657   0.74670088   -1.1764648   0.12978783    11416.326     1000 
 2914000   0.49767727    -1.909773   0.74576939   -1.1640036   0.13119471    11349.251     1000 
 2916000   0.51416001    -1.882312   0.77046878   -1.1118432   0.12825001    11502.096     1000 
 2918000   0.51715171   -1.8315926   0.77495183   -1.0566408   0.13954178     11277.93     1000 
 2920000   0.50119487   -1.9445393   0.75104051   -1.1934988   0.12673203     11477.23     1000 
 2922000   0.53976816   -1.9276944   0.80884259   -1.1188518   0.13270047    11451.276     1000 
 2924000   0.50706717   -1.8880791   0.75984015    -1.128239   0.12129012    11486.145     1000 
 2926000   0.51657804   -1.8385257    0.7740922   -1.0644335   0.12665874     11470.27     1000 
 2928000   0.50922693   -1.8501916   0.76307655    -1.087115   0.12272909    11371.409     1000 
 2930000   0.51883455   -1.8545696   0.77747357   -1.0770961   0.13241266    11402.618     1000 
 2932000   0.52157868   -1.8898693   0.78158564   -1.1082837   0.13589777     11334.93     1000 
 2934000   0.51279138   -1.8865018   0.76841788   -1.1180839   0.12946468     11464.01     1000 
 2936000   0.51954751   -1.9705594   0.77854194   -1.1920175   0.13994118    11307.571     1000 
 2938000   0.48150865   -1.8648818   0.72154071   -1.1433411   0.13370405    11385.475     1000 
 2940000   0.47874838   -1.8355664   0.71740445    -1.118162   0.12587442    11460.666     1000 
 2942000    0.5243919   -1.8708535   0.78580127   -1.0850522   0.12857084    11421.952     1000 
 2944000   0.52929711   -1.9099463   0.79315172   -1.1167946   0.12872609    11476.723     1000 
 2946000   0.49243412   -1.8753863   0.73791253   -1.1374737   0.13080288    11453.046     1000 
 2948000   0.50515431   -1.9234511   0.75697373   -1.1664774   0.13280906    11462.714     1000 
 2950000   0.50749934   -1.8767417   0.76048776    -1.116254   0.13766762    11411.525     1000 
 2952000   0.51632297   -1.8323752   0.77370996   -1.0586652    0.1359606    11151.577     1000 
 2954000   0.50175791   -1.8986394   0.75188423   -1.1467552    0.1340843    11387.285     1000 
 2956000    0.5185986   -1.8645503      0.77712   -1.0874303    0.1232101    11469.682     1000 
 2958000   0.52909552   -1.8704801   0.79284964   -1.0776305   0.12570837    11467.639     1000 
 2960000   0.49661518    -1.866783   0.74417785   -1.1226052   0.12720327    11411.752     1000 
 2962000   0.50397069   -1.9170621   0.75520007    -1.161862   0.12161056    11488.844     1000 
 2964000   0.51395677    -1.882382   0.77016422   -1.1122178    0.1285163    11344.902     1000 
 2966000   0.51758164   -1.8720305   0.77559609   -1.0964344   0.12506465     11501.09     1000 
 2968000   0.50049124   -1.9181227   0.74998612   -1.1681366   0.11460381    11554.442     1000 
 2970000   0.50218692   -1.8958693    0.7525271   -1.1433422   0.14346859    11289.844     1000 
 2972000   0.50226025   -1.8846907   0.75263699   -1.1320537   0.13801934    11442.691     1000 
 2974000   0.52400151   -1.8920716   0.78521626   -1.1068554   0.12426807    11595.113     1000 
 2976000   0.52872644   -1.8974281   0.79229657   -1.1051315   0.13570745    11396.758     1000 
 2978000   0.52621084   -1.8716162   0.78852695   -1.0830892   0.12206858    11525.766     1000 
 2980000   0.50222753   -1.8536866   0.75258795   -1.1010987   0.12415615    11527.178     1000 
 2982000    0.4856203   -1.9278721   0.72770202     -1.20017   0.11743241    11540.762     1000 
 2984000   0.52033427   -1.8632103    0.7797209   -1.0834894   0.14265349    11319.753     1000 
 2986000   0.50607343   -1.9458808   0.75835104   -1.1875298   0.13098968    11403.094     1000 
 2988000   0.51308145   -1.8597629   0.76885255   -1.0909104   0.12403633    11505.339     1000 
 2990000   0.49411502   -1.8794803   0.74043136    -1.139049   0.14390634    11357.458     1000 
 2992000   0.53066523   -1.8636967   0.79520184   -1.0684949   0.13227976    11394.791     1000 
 2994000   0.51120194   -1.8710253    0.7660361   -1.1049892   0.13117205    11388.324     1000 
 2996000   0.49990325   -1.8701648   0.74910502   -1.1210598   0.12849403    11295.598     1000 
 2998000   0.49848252   -1.8704766   0.74697605   -1.1235005   0.13115361    11346.034     1000 
 3000000   0.50822812   -1.8855157   0.76157984   -1.1239359   0.12902987    11321.113     1000 
Loop time of 1148.04 on 1 procs for 3000000 steps with 1000 atoms

Performance: 1128876.041 tau/day, 2613.139 timesteps/s
100.0% CPU use with 1 MPI tasks x 1 OpenMP threads

MPI task timing breakdown:
Section |  min time  |  avg time  |  max time  |%varavg| %total
---------------------------------------------------------------
Pair    | 901.5      | 901.5      | 901.5      |   0.0 | 78.53
Neigh   | 143.83     | 143.83     | 143.83     |   0.0 | 12.53
Comm    | 24.424     | 24.424     | 24.424     |   0.0 |  2.13
Output  | 0.018405   | 0.018405   | 0.018405   |   0.0 |  0.00
Modify  | 72.936     | 72.936     | 72.936     |   0.0 |  6.35
Other   |            | 5.336      |            |       |  0.46

Nlocal:        1000.00 ave        1000 max        1000 min
Histogram: 1 0 0 0 0 0 0 0 0 0
Nghost:        2162.00 ave        2162 max        2162 min
Histogram: 1 0 0 0 0 0 0 0 0 0
Neighs:        27688.0 ave       27688 max       27688 min
Histogram: 1 0 0 0 0 0 0 0 0 0

Total # of neighbors = 27688
Ave neighs/atom = 27.688000
Neighbor list builds = 150000
Dangerous builds not checked

Total wall time: 0:19:08
