LAMMPS (29 Sep 2021 - Update 2)
OMP_NUM_THREADS environment is not set. Defaulting to 1 thread. (src/comm.cpp:98)
  using 1 OpenMP thread(s) per MPI task
# ----------------------- Inicialização -----------------------

units			lj
atom_style 		atomic
dimension 		3
boundary 		p p p

# -------------------- Criação dos Átomos ---------------------

read_data 		topologia.txt
Reading data file ...
  orthogonal box = (0.0000000 0.0000000 0.0000000) to (21.540000 21.540000 21.540000)
  1 by 1 by 1 MPI processor grid
  reading atoms ...
  1000 atoms
  read_data CPU = 0.005 seconds

velocity 		all create ${temp} 87287 rot yes dist gaussian
velocity 		all create 0.63 87287 rot yes dist gaussian

# ------------------ Interação Interatômica -------------------

pair_style		table linear 1000
pair_coeff		1 1 force.table AA 5.0
WARNING: 2 of 1000 force values in table AA are inconsistent with -dE/dr.
WARNING:  Should only be flagged at inflection points (src/pair_table.cpp:465)
pair_coeff		1 2 force.table AB 5.0
WARNING: 1 of 1000 force values in table AB are inconsistent with -dE/dr.
WARNING:  Should only be flagged at inflection points (src/pair_table.cpp:465)
pair_coeff		2 2 force.table BB 5.0
pair_write		1 1 1000 r 0.008 5.0 table.check AA
Appending to table file table.check with DATE: 2023-06-15
Neighbor list info ...
  update every 1 steps, delay 10 steps, check yes
  max neighbors/atom: 2000, page size: 100000
  master list distance cutoff = 5.3
  ghost atom cutoff = 5.3
  binsize = 2.65, bins = 9 9 9
  1 neighbor lists, perpetual/occasional/extra = 1 0 0
  (1) pair table, perpetual
      attributes: half, newton on
      pair build: half/bin/atomonly/newton
      stencil: half/bin/3d
      bin: standard
pair_write		1 2 1000 r 0.008 5.0 table.check AB
Appending to table file table.check with DATE: 2023-06-15
pair_write		2 2 1000 r 0.008 5.0 table.check BB
Appending to table file table.check with DATE: 2023-06-15

neighbor 		0.3 bin
neigh_modify		every 20 delay 0 check no

# ------------------------- Ensemble --------------------------------------

fix 1			all npt temp ${temp} ${temp} 0.5 iso ${press} ${press} 5
fix 1			all npt temp 0.63 ${temp} 0.5 iso ${press} ${press} 5
fix 1			all npt temp 0.63 0.63 0.5 iso ${press} ${press} 5
fix 1			all npt temp 0.63 0.63 0.5 iso 0.13 ${press} 5
fix 1			all npt temp 0.63 0.63 0.5 iso 0.13 0.13 5

# ---------------------- Função de Distribuição Radial -----------------------

#compute RDF 		all rdf 2000 1 1 1 2 2 2
#fix 2 			all ave/time 1 2000 2000 c_RDF[*] file rdf.data mode vector

# ------------------------- Execução ---------------------------

timestep 		0.005
thermo_style		custom step temp pe ke etotal press vol atoms
thermo			2000
run			3000000
Per MPI rank memory allocation (min/avg/max) = 2.670 | 2.670 | 2.670 Mbytes
Step Temp PotEng KinEng TotEng Press Volume Atoms 
       0         0.63  -0.99052333     0.944055  -0.04646833   0.13207552    9993.9483     1000 
    2000   0.61720182   -1.5473139   0.92487693  -0.62243699   0.13162001    11474.351     1000 
    4000    0.6518088   -1.6028181   0.97673549  -0.62608265   0.12657612     11767.32     1000 
    6000   0.64103609   -1.5904375   0.96059258  -0.62984491   0.12622828    11391.237     1000 
    8000   0.63691619   -1.5736941   0.95441891  -0.61927515   0.13952525    11496.036     1000 
   10000     0.619779   -1.6351129   0.92873883  -0.70637406   0.12743332    11667.393     1000 
   12000   0.62716247   -1.5595675   0.93980296  -0.61976457   0.13204751    11437.116     1000 
   14000   0.59213592   -1.5763321   0.88731568  -0.68901637    0.1373664    11409.132     1000 
   16000   0.63181103   -1.6252752   0.94676883  -0.67850638      0.13478    11464.233     1000 
   18000   0.63128194   -1.5789479   0.94597598  -0.63297194   0.14199457    11554.715     1000 
   20000   0.59413208   -1.5974555   0.89030692  -0.70714858    0.1253864     11694.76     1000 
   22000   0.61197587   -1.5803332   0.91704584  -0.66328735   0.11842635     11729.75     1000 
   24000   0.60438746   -1.6375849   0.90567461   -0.7319103    0.1336457    11574.781     1000 
   26000   0.62696395    -1.658274   0.93950548  -0.71876848   0.12986816     11456.27     1000 
   28000   0.65621414   -1.5894224   0.98333689  -0.60608547   0.13349487    11620.816     1000 
   30000   0.63583859   -1.6347227   0.95280412  -0.68191853   0.13630442    11473.872     1000 
   32000   0.59976682   -1.6379065   0.89875058  -0.73915589   0.13126811    11562.251     1000 
   34000   0.63038594   -1.6499597   0.94463333  -0.70532639   0.12524327    11638.637     1000 
   36000     0.605863     -1.66607   0.90788571  -0.75818429   0.13299928    11459.727     1000 
   38000   0.63664988   -1.5837434   0.95401985  -0.62972356   0.14071317    11614.558     1000 
   40000   0.62246981   -1.6373641   0.93277101  -0.70459308   0.12458249    11751.223     1000 
   42000   0.62736827    -1.580877   0.94011135  -0.64076561   0.12529676    11593.013     1000 
   44000   0.63151136   -1.6169438   0.94631977  -0.67062403   0.12964327    11550.852     1000 
   46000   0.61962997   -1.5902944   0.92851552  -0.66177892   0.14005384    11634.059     1000 
   48000   0.62959718   -1.6567427   0.94345137  -0.71329132   0.13575148    11609.429     1000 
   50000   0.63950807   -1.5652347   0.95830284  -0.60693183   0.12383363    11547.596     1000 
   52000   0.62160179   -1.6075958   0.93147029  -0.67612551   0.13210639    11661.034     1000 
   54000   0.61507751   -1.6486535   0.92169365  -0.72695984   0.13242225    11492.791     1000 
   56000   0.62154691   -1.5888885   0.93138805  -0.65750041   0.14107229    11448.405     1000 
   58000   0.62122637   -1.6030988   0.93090772  -0.67219104   0.13153952    11532.673     1000 
   60000   0.64496804    -1.630261   0.96648461   -0.6637764   0.11929021     11731.93     1000 
   62000   0.62279169   -1.5994858   0.93325334  -0.66623245    0.1367562    11456.517     1000 
   64000   0.61977082   -1.6094961   0.92872657  -0.68076953   0.12087915    11699.656     1000 
   66000   0.61201296   -1.6187404   0.91710143  -0.70163902   0.13003462    11544.899     1000 
   68000   0.65133139   -1.5761007   0.97602008   -0.6000806   0.13320713    11546.633     1000 
   70000   0.59869545   -1.6465221   0.89714513  -0.74937697   0.13510542    11484.068     1000 
   72000   0.64016135   -1.5426155   0.95928179  -0.58333373   0.13131072    11354.352     1000 
   74000   0.62876882   -1.5778608   0.94221007  -0.63565075   0.13430033    11506.912     1000 
   76000   0.62851718   -1.5778738   0.94183299  -0.63604079   0.12782489    11390.465     1000 
   78000   0.63413913    -1.669011   0.95025748  -0.71875356   0.12520559    11604.026     1000 
   80000    0.6443579   -1.5919485   0.96557031  -0.62637819   0.12511969    11774.692     1000 
   82000   0.63716061   -1.6470028   0.95478517  -0.69221761   0.13675103    11568.662     1000 
   84000   0.61274552   -1.6010659   0.91819916  -0.68286679   0.13043006    11496.671     1000 
   86000   0.63636809   -1.6511857   0.95359758  -0.69758814   0.13001399    11666.192     1000 
   88000   0.61650462   -1.5899908   0.92383218  -0.66615863   0.14153764    11400.164     1000 
   90000   0.64515323   -1.5711004   0.96676212  -0.60433832   0.13005136    11613.367     1000 
   92000   0.60906582   -1.6605605   0.91268513  -0.74787539   0.13316533    11383.916     1000 
   94000   0.62769193   -1.6064873   0.94059635  -0.66589094   0.13562434    11545.081     1000 
   96000   0.63270337     -1.60481     0.948106  -0.65670401   0.13575099    11541.863     1000 
   98000   0.62424193   -1.6061888   0.93542653  -0.67076222   0.12798119    11448.339     1000 
  100000   0.65071464   -1.5542801   0.97509588  -0.57918418   0.14424134    11188.752     1000 
  102000    0.6181468   -1.5550697   0.92629298  -0.62877674   0.13064844    11485.618     1000 
  104000   0.64192289   -1.5432174   0.96192145  -0.58129598   0.13597751    11415.182     1000 
  106000     0.613109   -1.6090856   0.91874384  -0.69034173   0.13246094      11640.2     1000 
  108000   0.63971893   -1.6077106   0.95861881  -0.64909179   0.12739436    11561.523     1000 
  110000   0.59882315   -1.6409717   0.89733649   -0.7436352   0.11942686    11776.742     1000 
  112000   0.59947166   -1.6460312   0.89830828  -0.74772293   0.12060499    11755.205     1000 
  114000   0.62667689   -1.6089202   0.93907531  -0.66984487   0.12708772    11537.832     1000 
  116000   0.61159081   -1.6330141   0.91646883  -0.71654531   0.11854267    11622.228     1000 
  118000   0.62963317    -1.583555   0.94350531  -0.64004969   0.13593208    11606.948     1000 
  120000   0.66137488   -1.6435819   0.99107026  -0.65251168   0.13835394    11347.165     1000 
  122000   0.61317519   -1.5125703   0.91884302  -0.59372725   0.13795404     11496.78     1000 
  124000   0.64323388   -1.6046308   0.96388597  -0.64074483   0.12672856    11624.839     1000 
  126000   0.62241602   -1.5661785    0.9326904  -0.63348808    0.1384652    11391.908     1000 
  128000   0.65143001   -1.5743192   0.97616788  -0.59815128   0.13397531    11434.928     1000 
  130000    0.6289511   -1.6091138   0.94248322  -0.66663059   0.13256409    11567.287     1000 
  132000   0.63235977   -1.6097239   0.94759112  -0.66213277   0.12806622    11581.946     1000 
  134000   0.62620625    -1.605746   0.93837006  -0.66737589   0.12888954    11604.997     1000 
  136000   0.60158473   -1.5796326   0.90147472  -0.67815789   0.12668093    11582.738     1000 
  138000   0.62214136   -1.6140094   0.93227883  -0.68173053   0.12328641    11740.301     1000 
  140000   0.59832195    -1.648427   0.89658544  -0.75184156    0.1160989     11732.25     1000 
  142000    0.6297604   -1.6085338   0.94369596  -0.66483787   0.12107572    11656.959     1000 
  144000   0.62544532   -1.5801551   0.93722981   -0.6429253   0.12465779    11377.606     1000 
  146000   0.64795128   -1.6373072     0.970955  -0.66635222   0.12742935    11643.206     1000 
  148000   0.62629389   -1.6141348   0.93850139  -0.67563346   0.12753971    11693.374     1000 
  150000   0.63372635   -1.5831409   0.94963894  -0.63350195   0.12801954    11525.178     1000 
  152000   0.64273207   -1.6017183     0.963134  -0.63858432   0.13735172    11520.007     1000 
  154000   0.62489749    -1.622455   0.93640889  -0.68604612   0.12776318    11716.268     1000 
  156000   0.62571603   -1.6212106   0.93763548  -0.68357514    0.1225012    11565.525     1000 
  158000   0.63180108   -1.5664032   0.94675392  -0.61964931   0.12288618    11721.463     1000 
  160000   0.65010465   -1.5641433   0.97418182  -0.58996153   0.14100069    11493.264     1000 
  162000   0.64281241    -1.612157   0.96325439  -0.64890262    0.1361083    11441.662     1000 
  164000   0.60331731   -1.6411381   0.90407099  -0.73706711   0.14062536    11431.978     1000 
  166000   0.62312835   -1.6106186   0.93375783  -0.67686076   0.12532954    11625.979     1000 
  168000   0.64452754   -1.6094513   0.96582453  -0.64362678    0.1246241    11675.879     1000 
  170000   0.63869395   -1.5804653   0.95708289  -0.62338246   0.13171371    11416.315     1000 
  172000   0.63695994   -1.5853498   0.95448446  -0.63086534    0.1288232    11586.625     1000 
  174000    0.6681514   -1.6210893    1.0012249  -0.61986445   0.13384094     11677.99     1000 
  176000   0.63698822   -1.6165789   0.95452685  -0.66205204   0.12763692    11636.566     1000 
  178000   0.63525626   -1.6201589   0.95193151  -0.66822739   0.13488017    11689.445     1000 
  180000   0.62397128   -1.6022222   0.93502096  -0.66720119   0.12681232     11658.09     1000 
  182000   0.65055658   -1.5777149   0.97485903  -0.60285582   0.12997257    11395.114     1000 
  184000    0.6238452   -1.6296644   0.93483203  -0.69483234   0.12889335    11633.852     1000 
  186000   0.62439496   -1.5832962   0.93565585  -0.64764038   0.12001863    11710.073     1000 
  188000   0.65294354   -1.6209149    0.9784359  -0.64247904   0.12551157    11586.325     1000 
  190000   0.59792089   -1.6268098   0.89598446  -0.73082531   0.12655627    11580.889     1000 
  192000   0.62461776   -1.6126804   0.93598972  -0.67669073   0.12042538    11594.542     1000 
  194000   0.63453693   -1.6449473   0.95085359  -0.69409374   0.14236674     11432.18     1000 
  196000     0.646726   -1.6653386   0.96911891  -0.69621967   0.13365667    11480.549     1000 
  198000   0.60317611   -1.6809834    0.9038594  -0.77712405   0.12497513    11711.095     1000 
  200000   0.62546812     -1.58551   0.93726398  -0.64824598   0.12632501    11656.484     1000 
  202000   0.63977343   -1.6044975   0.95870048  -0.64579699   0.12783031    11578.361     1000 
  204000   0.61725805   -1.6069032   0.92496119  -0.68194197   0.12452261    11628.512     1000 
  206000   0.64368343   -1.6139478   0.96455963  -0.64938814   0.13566819    11408.343     1000 
  208000   0.63152479   -1.6764459    0.9463399  -0.73010602   0.13458023    11497.412     1000 
  210000   0.63115262   -1.6060956   0.94578221  -0.66031344    0.1253647    11673.833     1000 
  212000   0.64290368   -1.5828145   0.96339116  -0.61942333   0.13389001    11541.395     1000 
  214000   0.63560467    -1.580615    0.9524536  -0.62816141   0.13126129    11707.593     1000 
  216000   0.63171645   -1.6600652   0.94662709   -0.7134381   0.12848342     11764.08     1000 
  218000   0.61939979   -1.5815739   0.92817058  -0.65340335    0.1420613    11380.725     1000 
  220000   0.62920104   -1.5694157   0.94285775  -0.62655796   0.13240894    11539.663     1000 
  222000   0.62422029   -1.5757579   0.93539411  -0.64036382   0.12640292    11561.649     1000 
  224000   0.64343949   -1.5992667   0.96419407  -0.63507264   0.12825667     11550.77     1000 
  226000   0.63470759   -1.5900334   0.95110933  -0.63892403   0.13613351    11440.773     1000 
  228000   0.64451463    -1.640889   0.96580517  -0.67508381   0.13515592    11626.455     1000 
  230000   0.60898916   -1.5828675   0.91257026  -0.67029729   0.12876757    11598.342     1000 
  232000   0.63229928   -1.5556249   0.94750047  -0.60812439   0.12700209    11544.869     1000 
  234000   0.63066251   -1.6515835   0.94504776  -0.70653575   0.14077669    11629.518     1000 
  236000   0.64221683   -1.6177565   0.96236192  -0.65539458   0.13687775    11577.905     1000 
  238000    0.6229681   -1.6450034    0.9335177  -0.71148572   0.13146389    11474.678     1000 
  240000    0.6202729   -1.5805952   0.92947894  -0.65111624   0.13689719    11476.342     1000 
  242000   0.60568417   -1.6117949   0.90761774  -0.70417717     0.136542    11525.455     1000 
  244000   0.61958424   -1.5941672   0.92844698  -0.66572018   0.13288206    11590.402     1000 
  246000   0.62939408   -1.6188191   0.94314703  -0.67567202   0.12654456    11556.114     1000 
  248000    0.6373281    -1.637578   0.95503616  -0.68254188   0.14179601    11521.018     1000 
  250000   0.63041623   -1.6197331   0.94467872  -0.67505437   0.13022267    11509.332     1000 
  252000   0.65321605   -1.6055324   0.97884425  -0.62668817   0.13823029    11494.201     1000 
  254000   0.63198976   -1.6142644   0.94703666  -0.66722775   0.13088265    11636.228     1000 
  256000   0.63486672   -1.5485927   0.95134778  -0.59724497   0.13722675    11427.176     1000 
  258000   0.64169088   -1.6147712   0.96157378  -0.65319742   0.12157489    11588.876     1000 
  260000   0.62957071   -1.6528624    0.9434117  -0.70945069   0.11904126    11599.785     1000 
  262000   0.59728943   -1.6223915   0.89503822  -0.72735325    0.1214685    11661.347     1000 
  264000    0.6306092   -1.6198409   0.94496789  -0.67487306   0.12982932    11551.504     1000 
  266000   0.63270618   -1.6130746   0.94811022  -0.66496442   0.13262983    11574.336     1000 
  268000   0.61426309    -1.611531   0.92047323  -0.69105781   0.11887828    11657.037     1000 
  270000   0.59488361    -1.598687   0.89143308  -0.70725391   0.12587692    11697.928     1000 
  272000   0.63221884   -1.5899862   0.94737993  -0.64260628   0.14412169    11482.792     1000 
  274000   0.61498012   -1.5810592   0.92154771   -0.6595115    0.1405026    11424.729     1000 
  276000   0.62505513   -1.6240311   0.93664511  -0.68738602   0.12167891    11711.067     1000 
  278000   0.62909439   -1.5770338   0.94269794  -0.63433588   0.13012787    11433.286     1000 
  280000    0.6229115   -1.5796979   0.93343288  -0.64626497   0.12793111    11620.663     1000 
  282000   0.63501844     -1.63389   0.95157513  -0.68231482   0.12950092    11554.503     1000 
  284000   0.59641623   -1.6198875   0.89372972  -0.72615779    0.1191535    11610.467     1000 
  286000   0.61787643   -1.6095771   0.92588784  -0.68368922   0.14180344    11313.009     1000 
  288000   0.62098313   -1.5428338   0.93054322   -0.6122906   0.14081133    11402.973     1000 
  290000   0.65201918   -1.6309242   0.97705074  -0.65387342   0.12524643    11519.629     1000 
  292000   0.63456644   -1.6303594   0.95089781  -0.67946161   0.12853031    11585.313     1000 
  294000   0.64058544    -1.617413   0.95991729   -0.6574957   0.11417736    11701.132     1000 
  296000   0.64436498   -1.6403866   0.96558093   -0.6748057   0.14648474    11348.018     1000 
  298000   0.60764182   -1.6179246   0.91055127  -0.70737336   0.12281077     11572.53     1000 
  300000   0.62309025   -1.6304797   0.93370074  -0.69677891   0.13799497    11479.571     1000 
  302000   0.62527214   -1.5835221   0.93697031  -0.64655179   0.12931227    11501.798     1000 
  304000   0.59978906   -1.5551159    0.8987839  -0.65633195   0.13533607    11404.569     1000 
  306000   0.63760326   -1.5786935   0.95544848  -0.62324501   0.12820775    11636.238     1000 
  308000   0.63748498   -1.6751424   0.95527124  -0.71987118   0.12470829    11727.647     1000 
  310000   0.63710393   -1.5658748   0.95470024  -0.61117456   0.11725546    11765.144     1000 
  312000   0.64259794   -1.5793636   0.96293302  -0.61643059   0.11786152    11458.344     1000 
  314000   0.59281462   -1.5783789   0.88833271  -0.69004622   0.12482747    11478.596     1000 
  316000   0.61914524   -1.5642305   0.92778915  -0.63644132   0.14207172    11364.889     1000 
  318000   0.60926179   -1.5784122   0.91297879  -0.66543342   0.12904783     11571.24     1000 
  320000   0.64248714   -1.6151285   0.96276699   -0.6523615   0.13755635    11425.045     1000 
  322000   0.63297259   -1.6909435   0.94850942  -0.74243411   0.12336788    11778.584     1000 
  324000    0.6230929   -1.5647912   0.93370471  -0.63108653   0.14212087     11514.36     1000 
  326000   0.65667084   -1.5868116   0.98402126  -0.60279036   0.13093238    11507.685     1000 
  328000   0.60909947   -1.5982481   0.91273556  -0.68551258    0.1186421    11630.007     1000 
  330000   0.63417145   -1.5988833   0.95030592  -0.64857738   0.12695691    11584.275     1000 
  332000   0.62990777   -1.6750522   0.94391679  -0.73113539   0.12116457    11632.716     1000 
  334000   0.62491981   -1.5644695   0.93644233  -0.62802721   0.13129508    11430.814     1000 
  336000   0.62468707   -1.6019596   0.93609357  -0.66586607   0.13869506    11508.183     1000 
  338000   0.62520945   -1.6598659   0.93687636  -0.72298949   0.12144326    11775.797     1000 
  340000   0.64597207   -1.6377197   0.96798914  -0.66973056   0.13231914    11514.447     1000 
  342000   0.64009198   -1.6160234   0.95917784  -0.65684554   0.12246742    11539.146     1000 
  344000   0.61175553   -1.5913455   0.91671566  -0.67462985   0.13510895    11375.329     1000 
  346000   0.63122204    -1.599768   0.94588622  -0.65388182   0.13511378    11756.026     1000 
  348000    0.6122834   -1.6633696   0.91750667  -0.74586297   0.12651076    11581.495     1000 
  350000   0.62519908    -1.589697   0.93686083  -0.65283621   0.13461343    11429.953     1000 
  352000   0.61370164    -1.634645   0.91963191  -0.71501312   0.12698099    11550.289     1000 
  354000    0.6487323   -1.5945602   0.97212535  -0.62243485   0.13086652    11620.791     1000 
  356000    0.6284979   -1.6331053    0.9418041  -0.69130118   0.13994531    11457.886     1000 
  358000   0.61705434   -1.6331839   0.92465593  -0.70852798   0.12741983    11702.216     1000 
  360000   0.64843257   -1.6266947   0.97167621  -0.65501853   0.12857562    11486.957     1000 
  362000   0.61469375   -1.6233306   0.92111858  -0.70221203    0.1410953    11522.857     1000 
  364000   0.59203191   -1.6084718   0.88715981    -0.721312   0.12290011    11581.238     1000 
  366000   0.64085181   -1.6124712   0.96031643  -0.65215478   0.12831638    11717.402     1000 
  368000   0.61134858   -1.5830722   0.91610585  -0.66696631   0.12386522    11706.484     1000 
  370000   0.62703566   -1.5625132   0.93961294   -0.6229003   0.14417731    11318.709     1000 
  372000   0.63208369   -1.6327946    0.9471774  -0.68561724    0.1282959    11565.737     1000 
  374000   0.63436113   -1.6086832   0.95059015  -0.65809307   0.12768553     11559.82     1000 
  376000   0.59537028   -1.5990869   0.89216237  -0.70692449    0.1406916    11387.516     1000 
  378000   0.62251065   -1.5649132   0.93283221  -0.63208098   0.13435244    11440.302     1000 
  380000   0.60637967    -1.623979   0.90865994   -0.7153191   0.13654123    11545.684     1000 
  382000   0.65902563   -1.6035756   0.98754991  -0.61602566   0.12980557     11468.77     1000 
  384000   0.61529094   -1.6182321   0.92201348  -0.69621866   0.12045515    11731.172     1000 
  386000   0.65867858   -1.5754382   0.98702985  -0.58840832   0.12517367    11541.413     1000 
  388000   0.60033132   -1.5409304   0.89959648  -0.64133396   0.13919616    11489.091     1000 
  390000   0.63340411   -1.6235064   0.94915605  -0.67435038   0.14134253    11630.155     1000 
  392000   0.61610529   -1.5465821   0.92323377  -0.62334837   0.12838714    11460.328     1000 
  394000   0.63826912   -1.5851434   0.95644628  -0.62869708   0.12931008    11700.874     1000 
  396000   0.66270223   -1.6356493   0.99305929     -0.64259   0.13023116    11589.286     1000 
  398000   0.63279881    -1.582455   0.94824902  -0.63420598   0.12919194    11660.746     1000 
  400000   0.62790346   -1.5974478   0.94091334  -0.65653442   0.12883779    11574.573     1000 
  402000   0.64594282     -1.62939   0.96794531  -0.66144469   0.13505776    11596.395     1000 
  404000   0.65512011   -1.6322613   0.98169749  -0.65056377   0.13142203    11601.454     1000 
  406000   0.62229166   -1.5563832   0.93250405  -0.62387912   0.13181427    11341.438     1000 
  408000   0.63806704   -1.5390861   0.95614346  -0.58294262   0.13112392    11521.327     1000 
  410000   0.61625453   -1.6051394   0.92345742  -0.68168199   0.12313716    11570.201     1000 
  412000   0.58713506   -1.6204238   0.87982189   -0.7406019   0.12729374    11720.437     1000 
  414000   0.62958697   -1.6255543   0.94343608  -0.68211824   0.13237332    11579.627     1000 
  416000   0.63546387   -1.5785345   0.95224262   -0.6262919   0.14258351     11512.24     1000 
  418000    0.6378687   -1.6170825   0.95584625  -0.66123622   0.12539205    11672.328     1000 
  420000    0.6201281   -1.5907895   0.92926196  -0.66152752    0.1270276    11459.573     1000 
  422000   0.63177597   -1.6043977    0.9467163  -0.65768142   0.12426866    11512.846     1000 
  424000   0.62610026   -1.5578541   0.93821124  -0.61964291   0.13738901    11460.296     1000 
  426000    0.6382561   -1.5753441   0.95642677  -0.61891729   0.13413602    11509.372     1000 
  428000   0.62748742   -1.5944015    0.9402899  -0.65411161   0.14053639    11353.468     1000 
  430000   0.63757868   -1.6170646   0.95541165  -0.66165296   0.10670639    11880.225     1000 
  432000    0.6449564   -1.6265984   0.96646716  -0.66013128   0.12073025    11662.308     1000 
  434000   0.62445463    -1.634074   0.93574526  -0.69832875   0.13444755    11507.142     1000 
  436000   0.65717912   -1.6084666   0.98478291  -0.62368373    0.1317697    11429.832     1000 
  438000    0.6497251   -1.5858515   0.97361306  -0.61223845   0.13106055    11592.205     1000 
  440000    0.6069448    -1.614527   0.90950678  -0.70502027   0.13490871    11340.268     1000 
  442000   0.62537022   -1.6313899   0.93711728  -0.69427262    0.1398277    11370.866     1000 
  444000   0.62049243   -1.5476267    0.9298079  -0.61781882   0.13389958    11527.934     1000 
  446000   0.63399387   -1.6163638   0.95003981  -0.66632395   0.13336623    11517.394     1000 
  448000   0.61346275    -1.588269   0.91927393  -0.66899511   0.13326117    11429.447     1000 
  450000   0.63296594   -1.5753266   0.94849947  -0.62682713   0.13693891    11437.445     1000 
  452000   0.62224846   -1.5792568   0.93243931  -0.64681752   0.12558964    11739.234     1000 
  454000   0.62943302   -1.6104418   0.94320538  -0.66723642   0.12949719    11375.335     1000 
  456000   0.63265431   -1.5838318   0.94803248  -0.63579932   0.13393223    11527.625     1000 
  458000   0.61781457   -1.6200167   0.92579514  -0.69422155    0.1259186      11534.4     1000 
  460000   0.61856634   -1.5687593   0.92692166  -0.64183768    0.1294806    11542.798     1000 
  462000   0.63741571   -1.5703836   0.95516744  -0.61521614   0.12949055    11684.711     1000 
  464000   0.64529376    -1.589733   0.96697269  -0.62276035   0.14267164     11538.91     1000 
  466000   0.62399106   -1.5880685   0.93505061  -0.65301788   0.12742395    11516.129     1000 
  468000   0.60563867    -1.646361   0.90754955  -0.73881144   0.12561087    11561.006     1000 
  470000   0.62916237   -1.5263348   0.94279981  -0.58353502   0.15038157    11450.494     1000 
  472000    0.6361547   -1.5885342   0.95327781  -0.63525638   0.13868805    11408.169     1000 
  474000   0.63349929   -1.5862492   0.94929869  -0.63695049   0.12128886    11578.307     1000 
  476000   0.65821264   -1.5425664   0.98633164  -0.55623476   0.13833414    11483.985     1000 
  478000   0.64515387   -1.5640031   0.96676308  -0.59724001   0.14096436    11348.911     1000 
  480000   0.61607472   -1.5941002   0.92318796   -0.6709122   0.13365563    11597.883     1000 
  482000   0.63308361   -1.6203437   0.94867578  -0.67166793   0.11611582    11871.267     1000 
  484000   0.60822521   -1.6996392   0.91142548  -0.78821373   0.12626351    11605.208     1000 
  486000   0.61153038    -1.627187   0.91637827  -0.71080872   0.12281547    11714.777     1000 
  488000   0.63177661   -1.5930339   0.94671726  -0.64631664    0.1209062    11655.069     1000 
  490000   0.64142523   -1.6205344   0.96117571  -0.65935865   0.14233128    11494.074     1000 
  492000    0.6268249   -1.5649452   0.93929712  -0.62564806   0.12107425    11617.234     1000 
  494000   0.61617814   -1.5674007   0.92334295  -0.64405776   0.12977493    11592.077     1000 
  496000   0.62752088   -1.6222213   0.94034004  -0.68188124   0.12784968    11595.824     1000 
  498000   0.64793673   -1.5605753   0.97093319  -0.58964213   0.12774447    11511.785     1000 
  500000   0.63213019   -1.5626419   0.94724708   -0.6153948   0.13451556    11315.031     1000 
  502000   0.61197642   -1.6065798   0.91704667  -0.68953311   0.12033724    11668.446     1000 
  504000   0.63230461   -1.6467376   0.94750845  -0.69922917   0.11916918    11853.029     1000 
  506000   0.62695961   -1.5945864   0.93949897  -0.65508748   0.12042975    11631.502     1000 
  508000   0.60551638   -1.6069824    0.9073663  -0.69961614   0.13715927      11373.7     1000 
  510000   0.61087484   -1.5934471   0.91539595  -0.67805119   0.13417591     11414.82     1000 
  512000   0.63077885   -1.5666758   0.94522211  -0.62145368   0.14101056    11402.714     1000 
  514000    0.6258381   -1.6274213    0.9378184  -0.68960291   0.12043847    11778.756     1000 
  516000    0.6287713   -1.5953669    0.9422138  -0.65315313   0.13059271     11397.41     1000 
  518000   0.65823662   -1.5847455   0.98636758  -0.59837789   0.13160684    11513.872     1000 
  520000   0.62876184   -1.5811136   0.94219962  -0.63891396    0.1426933    11329.896     1000 
  522000   0.61139322   -1.5882271   0.91617274  -0.67205436   0.13331352    11676.255     1000 
  524000   0.66742376     -1.58475    1.0001345   -0.5846155    0.1361727    11566.351     1000 
  526000   0.62363801   -1.6103378   0.93452156  -0.67581625   0.12771757    11581.388     1000 
  528000    0.6379124   -1.5967227   0.95591173  -0.64081093   0.13650712    11509.495     1000 
  530000    0.6214669     -1.63755   0.93126815  -0.70628189   0.13251639    11539.324     1000 
  532000   0.63682606   -1.6003011   0.95428384  -0.64601724   0.12938455    11605.876     1000 
  534000   0.63758596   -1.5813696   0.95542257  -0.62594707   0.12816404    11510.081     1000 
  536000   0.62334967   -1.5752903   0.93408947  -0.64120081   0.13038255    11537.053     1000 
  538000   0.62260894   -1.5585128   0.93297949  -0.62553329   0.12927025    11511.896     1000 
  540000   0.63515357   -1.6004294   0.95177763  -0.64865174   0.14619204    11393.701     1000 
  542000     0.633541   -1.5961451   0.94936119   -0.6467839   0.12350029    11521.441     1000 
  544000   0.62214642   -1.5642626   0.93228641   -0.6319762   0.12329373    11581.953     1000 
  546000   0.64701097   -1.5619355   0.96954594   -0.5923896   0.11450501    11825.118     1000 
  548000   0.66428769    -1.634186   0.99543511  -0.63875089   0.13708429    11593.935     1000 
  550000   0.65148745   -1.5208154   0.97625394  -0.54456149   0.13226895    11322.957     1000 
  552000   0.60872581   -1.6651127   0.91217563  -0.75293711   0.11756559     11736.39     1000 
  554000   0.61514165   -1.5786421   0.92178977  -0.65685234   0.13322741    11407.839     1000 
  556000   0.65960206    -1.641423   0.98841368   -0.6530093    0.1219852     11555.42     1000 
  558000   0.62646729   -1.6294496   0.93876124   -0.6906884   0.12161438    11706.271     1000 
  560000   0.61049971   -1.5834959   0.91483382  -0.66866209   0.13301135    11469.915     1000 
  562000    0.6581738   -1.5954332   0.98627343  -0.60915982   0.14294834     11415.99     1000 
  564000   0.60569561    -1.620383   0.90763487  -0.71274809   0.13424159    11494.405     1000 
  566000   0.63381913   -1.5901215   0.94977797  -0.64034354    0.1321678    11552.253     1000 
  568000   0.63243885   -1.6072057   0.94770962  -0.65949608   0.11617986    11768.069     1000 
  570000   0.63504412   -1.5981533   0.95161362  -0.64653969   0.13411259    11369.268     1000 
  572000   0.64351958   -1.6551026   0.96431409  -0.69078851   0.13381504    11497.497     1000 
  574000   0.65093129   -1.6093192   0.97542054  -0.63389865   0.12737339    11699.684     1000 
  576000   0.64708599   -1.6113501   0.96965836  -0.64169171   0.13001101    11563.933     1000 
  578000   0.62412594   -1.5606868   0.93525273  -0.62543403   0.13459284    11404.956     1000 
  580000   0.62499606   -1.5652976    0.9365566  -0.62874097   0.14371809    11369.902     1000 
  582000   0.60351924   -1.5664633   0.90437358  -0.66208972   0.12422724     11557.38     1000 
  584000   0.64061284   -1.5994864   0.95995834  -0.63952802   0.12877297    11454.267     1000 
  586000   0.63307889   -1.6390967   0.94866871  -0.69042794   0.13728222    11347.421     1000 
  588000   0.66199339   -1.5760766   0.99199709  -0.58407955   0.12974682    11687.854     1000 
  590000   0.61835667    -1.560266   0.92660748   -0.6336585    0.1310545    11589.704     1000 
  592000   0.60830753   -1.5980762   0.91154883  -0.68652736   0.11807444    11709.765     1000 
  594000   0.63406769   -1.6109641   0.95015043  -0.66081364   0.13416584    11606.413     1000 
  596000    0.6490496   -1.5814056   0.97260082  -0.60880475   0.14258327     11304.77     1000 
  598000   0.61243153   -1.5681005   0.91772865  -0.65037187   0.13703923    11460.414     1000 
  600000   0.63035307   -1.5811224   0.94458407  -0.63653831   0.12028434    11568.829     1000 
  602000   0.65571876   -1.6329568   0.98259457  -0.65036218   0.14229299    11479.256     1000 
  604000   0.62671362   -1.6605276   0.93913036  -0.72139726   0.12561179    11689.125     1000 
  606000   0.61311289   -1.6084009   0.91874966  -0.68965129   0.12732186    11451.701     1000 
  608000   0.59835941   -1.6190982   0.89664158  -0.72245661   0.12656719    11517.657     1000 
  610000   0.63037953   -1.6012112   0.94462373  -0.65658751   0.13533402    11459.013     1000 
  612000   0.64430298   -1.6214516   0.96548802  -0.65596357   0.14235894    11539.475     1000 
  614000   0.62482685   -1.5670763   0.93630303  -0.63077329   0.13396928    11525.496     1000 
  616000   0.64002564   -1.5821917   0.95907842  -0.62311329   0.13339873    11583.562     1000 
  618000   0.64455977   -1.6299625   0.96587282  -0.66408972   0.13985935    11361.488     1000 
  620000   0.61401782   -1.6752523    0.9201057  -0.75514655   0.12831057    11674.152     1000 
  622000   0.61583483   -1.6164873   0.92282849  -0.69365881   0.12303767    11535.007     1000 
  624000   0.63172637    -1.585137   0.94664197  -0.63849503   0.13290142    11594.367     1000 
  626000   0.64456285    -1.583502   0.96587743  -0.61762452   0.14310251    11345.897     1000 
  628000   0.64670475   -1.5892669   0.96908707   -0.6201798   0.14228806    11511.222     1000 
  630000   0.62069897   -1.6093169   0.93011741  -0.67919948   0.14882209    11269.325     1000 
  632000    0.6279741   -1.6161375   0.94101918  -0.67511829   0.12683467    11529.231     1000 
  634000   0.63588062   -1.5395606   0.95286711  -0.58669353   0.13141602    11357.112     1000 
  636000   0.63904022    -1.628303   0.95760178   -0.6707012   0.11324404     11774.72     1000 
  638000   0.62916256    -1.568935   0.94280009  -0.62613486    0.1303812    11553.921     1000 
  640000   0.66113372   -1.6076927   0.99070888  -0.61698386     0.133413     11670.94     1000 
  642000   0.64228606   -1.5644292   0.96246566  -0.60196352    0.1298363    11340.324     1000 
  644000   0.63478993   -1.5579067   0.95123271    -0.606674   0.13387838    11522.812     1000 
  646000   0.62946652   -1.6217458   0.94325557  -0.67849024    0.1415674    11384.725     1000 
  648000   0.62446884   -1.5662668   0.93576655   -0.6305002   0.12558478    11565.709     1000 
  650000   0.63661316   -1.5841787   0.95396481  -0.63021393   0.13642757    11349.566     1000 
  652000   0.62961756   -1.5764355   0.94348191  -0.63295356    0.1398524    11338.997     1000 
  654000    0.6231775   -1.5707668   0.93383148  -0.63693532   0.13889495    11480.515     1000 
  656000   0.68019407   -1.5608784    1.0192708  -0.54160761   0.14638543    11337.545     1000 
  658000    0.6119653   -1.5608037      0.91703   -0.6437737   0.13766995    11475.932     1000 
  660000   0.60846384   -1.5998582   0.91178307  -0.68807511   0.13326993    11615.971     1000 
  662000   0.64168546   -1.5744818   0.96156566  -0.61291616   0.14709038    11320.141     1000 
  664000   0.61997197   -1.5759192     0.929028  -0.64689118    0.1272458    11525.895     1000 
  666000   0.65653949   -1.5946395   0.98382442  -0.61081503   0.12632953    11578.882     1000 
  668000   0.64991073   -1.6032709   0.97389124  -0.62937967   0.13647262    11537.596     1000 
  670000   0.63599203    -1.599185   0.95303406  -0.64615098   0.12869751    11691.422     1000 
  672000   0.62019726   -1.6270782    0.9293656   -0.6977126   0.11937388    11728.601     1000 
  674000   0.62417942   -1.5743311   0.93533286  -0.63899828   0.13410471    11604.907     1000 
  676000   0.62517343    -1.548487   0.93682238   -0.6116646   0.12209373    11496.786     1000 
  678000   0.65161392    -1.659629   0.97644346  -0.68318552   0.13169013    11496.352     1000 
  680000     0.647088   -1.5637776   0.96966137  -0.59411618   0.12278111     11664.88     1000 
  682000   0.61391363   -1.5678537   0.91994957   -0.6479041    0.1237992    11586.548     1000 
  684000   0.65067958   -1.5842907   0.97504335   -0.6092473   0.12446684    11591.282     1000 
  686000   0.58933037    -1.536725   0.88311157  -0.65361338   0.11306693    11779.257     1000 
  688000    0.6096458    -1.600399   0.91355423  -0.68684478   0.14088268    11410.745     1000 
  690000   0.63890955   -1.5866806   0.95740596  -0.62927463   0.11489676    11700.732     1000 
  692000   0.65673005    -1.543599   0.98410998  -0.55948907   0.12055831     11620.43     1000 
  694000   0.62154492   -1.5899957   0.93138507  -0.65861064   0.12341083    11703.354     1000 
  696000    0.6315406   -1.5885672    0.9463636   -0.6422036   0.12143493    11656.122     1000 
  698000   0.63925262   -1.5911039   0.95792005  -0.63318382   0.13422521    11726.355     1000 
  700000   0.65112758   -1.6242372   0.97571467  -0.64852256   0.13245135    11639.779     1000 
  702000   0.65276031   -1.6243197   0.97816132  -0.64615837   0.13737602    11508.324     1000 
  704000   0.65343088   -1.6052287   0.97916618  -0.62606256   0.13457874    11576.883     1000 
  706000   0.64735054   -1.5785942   0.97005479  -0.60853941   0.13384935    11614.826     1000 
  708000   0.63228824   -1.5862888   0.94748393  -0.63880482   0.11702561    11752.449     1000 
  710000   0.63841875   -1.5906398    0.9566705  -0.63396933   0.14299462     11405.52     1000 
  712000   0.64566474   -1.6083835   0.96752862   -0.6408549   0.13075317    11509.564     1000 
  714000   0.63951057   -1.6210831    0.9583066  -0.66277648   0.14023906    11429.293     1000 
  716000   0.60575418   -1.6526413   0.90772264  -0.74491866   0.12144461    11776.163     1000 
  718000   0.64913251   -1.6109068   0.97272506  -0.63818177   0.12985905    11697.024     1000 
  720000   0.60630397    -1.619667   0.90854651  -0.71112045   0.11278326     11723.57     1000 
  722000   0.60744372   -1.6336487   0.91025441  -0.72339425   0.12053333    11685.701     1000 
  724000   0.63966983   -1.5818327   0.95854524  -0.62328744   0.14223374    11408.626     1000 
  726000   0.62624189   -1.6006564   0.93842346  -0.66223294   0.12535205    11554.356     1000 
  728000   0.65386629   -1.6153902   0.97981863  -0.63557152   0.13751796    11496.901     1000 
  730000   0.65053142   -1.6072082   0.97482133   -0.6323869    0.1293878     11554.01     1000 
  732000   0.63362027   -1.5812227   0.94947998  -0.63174276   0.13022705    11493.059     1000 
  734000   0.61894434   -1.5903252    0.9274881  -0.66283714   0.13693279      11451.3     1000 
  736000     0.604255   -1.6003068   0.90547612  -0.69483071   0.13386802    11455.979     1000 
  738000   0.61086088   -1.5818902   0.91537503   -0.6665152   0.11528561    11685.572     1000 
  740000    0.6339709   -1.5985466   0.95000539  -0.64854117   0.13023677    11586.573     1000 
  742000   0.61833405   -1.5935415   0.92657357  -0.66696797   0.14849046    11360.969     1000 
  744000   0.66415544    -1.559724   0.99523693   -0.5644871   0.13718951    11705.109     1000 
  746000   0.59886447   -1.6003378   0.89739841  -0.70293938   0.13363262    11508.138     1000 
  748000   0.62023831   -1.6023657   0.92942711  -0.67293859   0.13249869     11489.23     1000 
  750000   0.63950053   -1.6237225   0.95829155  -0.66543095   0.12137139    11628.351     1000 
  752000   0.63335474   -1.6146622   0.94908207  -0.66558008   0.13490846    11486.167     1000 
  754000   0.62151893   -1.5898168   0.93134612  -0.65847069   0.13376844    11477.632     1000 
  756000    0.6459011   -1.6322151    0.9678828  -0.66433234   0.13192225     11510.83     1000 
  758000   0.65017659   -1.5726664   0.97428962  -0.59837682   0.12340699    11654.883     1000 
  760000   0.63335439   -1.6218013   0.94908155  -0.67271972    0.1257508     11554.51     1000 
  762000   0.63972185   -1.6101947   0.95862319   -0.6515715   0.12732368    11624.524     1000 
  764000   0.64609303   -1.5848008    0.9681704  -0.61663038   0.14325336     11306.91     1000 
  766000   0.62616542   -1.6085422   0.93830888  -0.67023335   0.12622417    11861.901     1000 
  768000   0.60572819   -1.6185187   0.90768369  -0.71083503   0.13396907    11482.654     1000 
  770000   0.65257076   -1.5546621   0.97787728  -0.57678487   0.12193241    11575.517     1000 
  772000   0.63325712    -1.598852    0.9489358  -0.64991625   0.12996892    11555.537     1000 
  774000   0.61631936   -1.5739901   0.92355456   -0.6504355   0.13052181    11585.561     1000 
  776000   0.63761096   -1.6191158   0.95546002   -0.6636558    0.1248339    11667.855     1000 
  778000   0.67043885   -1.6344305    1.0046526  -0.62977791   0.13029457    11617.161     1000 
  780000   0.60255207   -1.5729719   0.90292428  -0.67004762    0.1374673    11355.662     1000 
  782000   0.65758606   -1.5904828   0.98539271   -0.6050901   0.12978526    11665.802     1000 
  784000   0.62223137   -1.5820069   0.93241371  -0.64959322   0.13534148    11538.241     1000 
  786000   0.66060342   -1.6023006   0.98991423  -0.61238633   0.15288703    11165.632     1000 
  788000   0.64526095   -1.6332669   0.96692354  -0.66634337   0.12746301    11531.171     1000 
  790000   0.62696861   -1.5399468   0.93951246  -0.60043435   0.13348783    11374.085     1000 
  792000   0.65047531   -1.5882883   0.97473725  -0.61355104   0.12432375    11688.852     1000 
  794000   0.63679435   -1.6365104   0.95423633  -0.68227409   0.13868092    11580.819     1000 
  796000   0.63389814   -1.5566871   0.94989637  -0.60679077   0.13163703    11295.679     1000 
  798000   0.65616459   -1.6081141   0.98326264  -0.62485149   0.12779025    11533.587     1000 
  800000   0.64945569   -1.5995587   0.97320935  -0.62634937   0.14213349    11502.212     1000 
  802000   0.61858906   -1.6212399    0.9269557  -0.69428417   0.12243236    11526.443     1000 
  804000   0.63125499   -1.6147006   0.94593561  -0.66876497   0.13049099     11598.32     1000 
  806000   0.63734498   -1.5785855   0.95506145  -0.62352404   0.12285419     11634.54     1000 
  808000   0.65367313   -1.5762102   0.97952918    -0.596681   0.13581996    11593.172     1000 
  810000   0.64948197   -1.6263299   0.97324874  -0.65308116   0.12757969    11749.743     1000 
  812000   0.63201638   -1.6252579   0.94707654  -0.67818139   0.12439395    11632.497     1000 
  814000   0.62301211   -1.6077032   0.93358365  -0.67411957   0.13070485    11424.446     1000 
  816000   0.59052194   -1.6018123   0.88489713  -0.71691515   0.13942198    11354.706     1000 
  818000   0.66474692    -1.646625   0.99612326  -0.65050173    0.1241166    11624.257     1000 
  820000    0.6292453   -1.5930378   0.94292408  -0.65011367   0.13295201    11631.529     1000 
  822000    0.6632673    -1.592144   0.99390605  -0.59823792   0.13569941    11439.466     1000 
  824000   0.63907471    -1.623501   0.95765346  -0.66584752   0.12960899    11683.816     1000 
  826000   0.64099473   -1.6198389   0.96053061  -0.65930828   0.14113952    11528.993     1000 
  828000   0.63255069   -1.5754747    0.9478772  -0.62759746   0.13900168    11400.952     1000 
  830000   0.61236367   -1.6136652   0.91762696  -0.69603824   0.13218017    11553.449     1000 
  832000    0.6162397   -1.5789049   0.92343519  -0.65546975   0.13860299    11525.503     1000 
  834000   0.62470517   -1.6129194    0.9361207  -0.67679871   0.12519366      11609.7     1000 
  836000   0.65766813   -1.5847345   0.98551569  -0.59921884    0.1343828    11775.633     1000 
  838000   0.61445577   -1.5932884   0.92076197  -0.67252642   0.12296567    11746.539     1000 
  840000   0.62367245   -1.5640593   0.93457317  -0.62948615   0.13618045    11464.265     1000 
  842000   0.64517788    -1.524777   0.96679905  -0.55797792    0.1297926     11537.14     1000 
  844000   0.63657075   -1.6857447   0.95390127  -0.73184339   0.12896771    11705.579     1000 
  846000   0.62638711   -1.6001721   0.93864108  -0.66153105    0.1350161    11559.798     1000 
  848000   0.60105919   -1.5749409   0.90068719  -0.67425368    0.1255089    11706.933     1000 
  850000   0.65072658   -1.5233343   0.97511379  -0.54822056    0.1433885     11310.55     1000 
  852000     0.627826   -1.6547658   0.94079726   -0.7139685   0.12607792    11583.002     1000 
  854000    0.6202885   -1.6165312   0.92950232  -0.68702892    0.1277264    11611.268     1000 
  856000   0.63660428   -1.5761928   0.95395152  -0.62224128   0.13233527    11624.615     1000 
  858000   0.63146248   -1.5471668   0.94624653  -0.60092029   0.14143571    11354.939     1000 
  860000   0.66863713   -1.6314902    1.0019527   -0.6295375   0.12434181    11658.652     1000 
  862000   0.62176293   -1.6109208   0.93171174   -0.6792091   0.13492905    11467.825     1000 
  864000   0.63528282   -1.6294115    0.9519713  -0.67744015   0.12754576    11711.428     1000 
  866000   0.62947476   -1.6017372   0.94326793  -0.65846927     0.131425     11461.26     1000 
  868000   0.61746772   -1.5506894   0.92527538  -0.62541398   0.12237341    11780.204     1000 
  870000   0.62252015   -1.5664546   0.93284645  -0.63360811   0.12334725    11551.858     1000 
  872000   0.62862615   -1.6086804   0.94199629  -0.66668411   0.14851644    11413.646     1000 
  874000   0.64505086   -1.6020338   0.96660871  -0.63542514   0.14716518    11416.672     1000 
  876000     0.656211   -1.6361491   0.98333219  -0.65281687   0.12830942    11712.208     1000 
  878000   0.63765985   -1.6106127   0.95553329  -0.65507939   0.12735987    11635.423     1000 
  880000   0.61455087   -1.5506123   0.92090448   -0.6297078    0.1398451    11565.659     1000 
  882000    0.6501525   -1.5556454   0.97425353  -0.58139189   0.14602483    11345.329     1000 
  884000    0.6106464   -1.6036196   0.91505363  -0.68856596   0.13044173    11544.943     1000 
  886000    0.6553284   -1.5365971   0.98200961  -0.55458753   0.13363982    11344.165     1000 
  888000   0.62763353   -1.6289748   0.94050884  -0.68846597   0.13014265    11678.574     1000 
  890000   0.62523759   -1.6273144   0.93691852  -0.69039584   0.12899657    11365.586     1000 
  892000   0.62454442   -1.5988448   0.93587982  -0.66296496   0.12960937    11457.003     1000 
  894000   0.64424755   -1.5962073   0.96540495  -0.63080236   0.13134861    11535.788     1000 
  896000   0.64702748   -1.5751101   0.96957068  -0.60553942   0.14150573     11532.99     1000 
  898000   0.60698591   -1.6400189   0.90956839  -0.73045055   0.12376844    11715.555     1000 
  900000   0.63247074   -1.6305176   0.94775741   -0.6827602   0.12694872      11490.5     1000 
  902000    0.6344635   -1.6395446   0.95074356  -0.68880101   0.11407283    11761.185     1000 
  904000   0.61955552   -1.5493336   0.92840394  -0.62092965   0.12460003    11399.519     1000 
  906000    0.6525953   -1.6112889   0.97791405  -0.63337484   0.12203514    11698.954     1000 
  908000    0.6296175   -1.6306551   0.94348183  -0.68717323   0.12744912    11635.622     1000 
  910000   0.62424432   -1.6319121   0.93543012  -0.69648197   0.13140431    11517.147     1000 
  912000   0.66182719   -1.5580857   0.99174805  -0.56633767   0.13671546    11473.476     1000 
  914000   0.66065846   -1.6019154   0.98999671  -0.61191873   0.11703674    11718.925     1000 
  916000   0.62824023   -1.5979845   0.94141799  -0.65656655   0.12765139    11618.989     1000 
  918000    0.6126278   -1.5736487   0.91802276  -0.65562598   0.13347236    11447.537     1000 
  920000   0.64357419   -1.5948441   0.96439592  -0.63044822   0.12675329    11576.903     1000 
  922000   0.63512113   -1.5413993   0.95172901  -0.58967034   0.14469624     11409.63     1000 
  924000   0.60625297   -1.6102365   0.90847007   -0.7017664   0.13832309     11511.26     1000 
  926000   0.62309764   -1.6070546   0.93371182  -0.67334282   0.12614194    11722.755     1000 
  928000   0.61970452   -1.5462619   0.92862722  -0.61763467   0.13643657    11222.033     1000 
  930000   0.65289609    -1.586458   0.97836479  -0.60809318   0.14746064    11377.191     1000 
  932000   0.63230431   -1.6024463   0.94750802  -0.65493825   0.12025769    11727.482     1000 
  934000   0.63867759   -1.6069007   0.95705837  -0.64984233   0.15526382    11162.604     1000 
  936000   0.64373791   -1.6020705   0.96464125  -0.63742929   0.12602353    11577.803     1000 
  938000   0.61536085   -1.5938831   0.92211823   -0.6717649   0.11572178     11790.96     1000 
  940000   0.63651986   -1.5920267   0.95382501  -0.63820172   0.12465034     11381.44     1000 
  942000   0.66472936   -1.5789784   0.99609695  -0.58288142   0.11656531    11924.909     1000 
  944000   0.62201621   -1.6026933   0.93209129  -0.67060199   0.12208279    11708.514     1000 
  946000   0.63920237   -1.6071117   0.95784475  -0.64926696   0.13802281    11490.247     1000 
  948000   0.63363076   -1.6084818   0.94949569   -0.6589861   0.11669564    11558.193     1000 
  950000   0.64794831   -1.6119509   0.97095054  -0.64100034   0.12883071      11768.1     1000 
  952000   0.63234739   -1.5945636   0.94757256  -0.64699102   0.13950301    11470.779     1000 
  954000    0.6433145   -1.6522866   0.96400678   -0.6882798   0.12614542    11716.985     1000 
  956000   0.60984202   -1.5752113   0.91384826  -0.66136302     0.135926    11549.477     1000 
  958000   0.62255184    -1.547334   0.93289393  -0.61444005   0.14696114     11470.91     1000 
  960000   0.63321842   -1.6352213    0.9488778  -0.68634351   0.12980517    11718.938     1000 
  962000   0.61481777    -1.607178   0.92130443  -0.68587356   0.11773276    11866.454     1000 
  964000   0.62732737    -1.621288   0.94005006  -0.68123796   0.12169431    11637.163     1000 
  966000   0.63601002   -1.5868391   0.95306101  -0.63377812   0.12654321    11702.955     1000 
  968000   0.65351604   -1.5368808   0.97929378  -0.55758697   0.14318967    11397.642     1000 
  970000   0.62645416   -1.5922979   0.93874156  -0.65355631   0.13078827    11622.223     1000 
  972000   0.64277408   -1.5832152   0.96319695  -0.62001828   0.13437918    11635.333     1000 
  974000   0.62246001   -1.6261929   0.93275633   -0.6934366   0.11856822    11651.237     1000 
  976000   0.62563552   -1.5796262   0.93751483  -0.64211138   0.12621859    11528.601     1000 
  978000    0.6086525   -1.5962164   0.91206577  -0.68415066   0.14317482    11507.531     1000 
  980000   0.61516652   -1.6034903   0.92182703  -0.68166323   0.13860616    11432.923     1000 
  982000    0.6393216   -1.5735769   0.95802342  -0.61555344   0.13475454    11633.269     1000 
  984000   0.63112511   -1.5953846   0.94574097  -0.64964365   0.12833991    11545.053     1000 
  986000   0.62330893   -1.5584003   0.93402843  -0.62437186   0.11052987    11898.081     1000 
  988000   0.62685966    -1.630048    0.9393492  -0.69069877   0.13407172    11449.705     1000 
  990000   0.63989961   -1.6232674   0.95888956  -0.66437787   0.12948101    11526.187     1000 
  992000   0.63838045   -1.6009151    0.9566131  -0.64430202   0.13088182    11560.013     1000 
  994000   0.62556986    -1.532579   0.93741643  -0.59516258   0.12930876    11651.612     1000 
  996000   0.60783006   -1.6270851   0.91083334  -0.71625172   0.11375935    11769.097     1000 
  998000   0.63443196   -1.5548365    0.9506963  -0.60414016   0.14208079    11520.092     1000 
 1000000   0.61807084   -1.5345142   0.92617915  -0.60833507    0.1493595    11187.263     1000 
 1002000   0.59719336   -1.6396221   0.89489424  -0.74472785   0.12170541    11716.767     1000 
 1004000   0.60173745   -1.4995326   0.90170357  -0.59782904   0.13853564    11243.262     1000 
 1006000   0.61438274   -1.5924372   0.92065254  -0.67178467   0.13023796    11502.728     1000 
 1008000   0.61151642   -1.6478609   0.91635735  -0.73150356   0.11770096    11695.543     1000 
 1010000    0.6346065   -1.6099242   0.95095784  -0.65896638   0.11548964    11792.244     1000 
 1012000    0.6366956   -1.6725708   0.95408835  -0.71848245   0.13007142    11519.925     1000 
 1014000   0.64908749    -1.579262   0.97265761  -0.60660438   0.12079951    11689.639     1000 
 1016000   0.62627223   -1.5842624   0.93846894  -0.64579345     0.135895     11344.98     1000 
 1018000    0.6484149   -1.6220187   0.97164973  -0.65036898   0.13473722    11736.814     1000 
 1020000    0.6403513   -1.5593196   0.95956643  -0.59975315   0.13136835    11512.549     1000 
 1022000   0.63491414   -1.6008669   0.95141883  -0.64944809   0.13391193    11312.113     1000 
 1024000   0.64830985   -1.5991343    0.9714923  -0.62764195   0.12609066    11682.096     1000 
 1026000   0.63360523   -1.6234312   0.94945743  -0.67397377   0.12579976    11657.936     1000 
 1028000   0.63670671   -1.5849369   0.95410501  -0.63083192   0.12943438    11601.707     1000 
 1030000    0.6409107   -1.6307934   0.96040469  -0.67038876    0.1286083    11593.486     1000 
 1032000   0.61787659   -1.5552315   0.92588807  -0.62934348   0.12833628    11807.211     1000 
 1034000   0.62815128   -1.6422908   0.94128469  -0.70100607    0.1255732    11581.529     1000 
 1036000   0.65328459   -1.6020616   0.97894696  -0.62311467   0.14076745     11583.12     1000 
 1038000   0.63827786   -1.6348948   0.95645937  -0.67843545   0.13250961    11516.951     1000 
 1040000   0.64467038   -1.5863958   0.96603857  -0.62035727   0.12548315    11615.884     1000 
 1042000   0.61572084   -1.5803308   0.92265768  -0.65767309   0.12971588    11586.356     1000 
 1044000   0.65895474   -1.6223456   0.98744368  -0.63490189   0.12384855    11839.469     1000 
 1046000   0.62692023   -1.5984626   0.93943997  -0.65902263   0.13185631    11524.432     1000 
 1048000   0.63511936   -1.5779845   0.95172635  -0.62625815    0.1084081    11792.985     1000 
 1050000   0.63416037   -1.6079563   0.95028932    -0.657667   0.11868995    11799.334     1000 
 1052000   0.63371998    -1.590372    0.9496294   -0.6407426   0.12903203    11564.443     1000 
 1054000   0.63651731   -1.5939737   0.95382119  -0.64015255   0.13113241    11442.207     1000 
 1056000   0.61771616   -1.6057377   0.92564766  -0.68009008   0.12190607    11711.283     1000 
 1058000   0.61903272   -1.5980262   0.92762054  -0.67040564   0.12730224    11436.968     1000 
 1060000   0.64315637   -1.5960258   0.96376982  -0.63225596   0.13429256    11543.909     1000 
 1062000   0.64463533   -1.5973141   0.96598604  -0.63132811   0.12851154    11527.825     1000 
 1064000   0.66617594   -1.5761925   0.99826465  -0.57792785   0.13293908    11642.885     1000 
 1066000   0.65146058   -1.5898165   0.97621367  -0.61360288   0.13003469    11537.932     1000 
 1068000   0.63829534   -1.5913163   0.95648557  -0.63483076   0.13697714    11434.095     1000 
 1070000   0.62649995   -1.5982262   0.93881017  -0.65941605   0.12639121    11583.106     1000 
 1072000   0.62661072   -1.6164774   0.93897616  -0.67750125   0.13718569    11359.875     1000 
 1074000   0.61731586   -1.5777428   0.92504782  -0.65269493   0.12713743    11531.957     1000 
 1076000   0.61323718   -1.6010267   0.91893591   -0.6820908   0.11370153    11794.867     1000 
 1078000    0.6472949   -1.5765926   0.96997141  -0.60662121   0.13799514    11519.805     1000 
 1080000   0.63762793    -1.596169   0.95548545  -0.64068358   0.13578619    11392.633     1000 
 1082000   0.60400051    -1.585922   0.90509476  -0.68082723   0.12485067    11618.817     1000 
 1084000   0.65988608   -1.5517227   0.98883928   -0.5628834   0.12718161    11596.704     1000 
 1086000   0.62776767   -1.5585539   0.94070986  -0.61784401   0.14408276     11324.47     1000 
 1088000   0.62020797   -1.5696843   0.92938165  -0.64030263   0.12917497     11585.31     1000 
 1090000   0.62064952   -1.5718765   0.93004331  -0.64183324   0.13041953    11546.234     1000 
 1092000   0.61819754   -1.5976433   0.92636901   -0.6712743   0.12567014    11510.171     1000 
 1094000   0.64154534   -1.5883169   0.96135569  -0.62696116   0.13433643    11392.993     1000 
 1096000   0.61984688   -1.5735762   0.92884055  -0.64473563   0.12886444    11601.765     1000 
 1098000   0.61142838   -1.6352531   0.91622542  -0.71902765   0.12055432    11560.411     1000 
 1100000   0.60791714   -1.6510922   0.91096383  -0.74012841   0.14175752    11387.296     1000 
 1102000   0.64110229   -1.5357464   0.96069178  -0.57505462    0.1432467    11396.905     1000 
 1104000   0.62859919    -1.560479   0.94195588  -0.61852309   0.12302971    11734.996     1000 
 1106000     0.628627   -1.5850804   0.94199756   -0.6430828   0.13930473    11559.165     1000 
 1108000   0.64927625   -1.5485151   0.97294046  -0.57557464   0.13990073    11380.351     1000 
 1110000   0.63029126    -1.616522   0.94449145  -0.67203059   0.12232884    11631.821     1000 
 1112000   0.62670952    -1.611663   0.93912422  -0.67253877   0.13410254    11570.452     1000 
 1114000   0.61628936    -1.527859   0.92350961  -0.60434936   0.13873274     11436.76     1000 
 1116000   0.62451968   -1.5775489   0.93584273  -0.64170616   0.12584808    11522.001     1000 
 1118000   0.64625967   -1.6204304   0.96842012  -0.65201025   0.13105842    11568.324     1000 
 1120000   0.62770814   -1.5985329   0.94062065  -0.65791223   0.13414813     11603.74     1000 
 1122000   0.63423215   -1.6028384   0.95039688  -0.65244148   0.13532876    11486.927     1000 
 1124000   0.63316773   -1.5895586   0.94880184  -0.64075675   0.12780175    11439.073     1000 
 1126000   0.62453152    -1.579639   0.93586048  -0.64377855   0.13160492    11596.008     1000 
 1128000   0.63870161   -1.6036659   0.95709436  -0.64657156   0.13643998    11448.109     1000 
 1130000   0.62490658   -1.6563276   0.93642251  -0.71990509   0.11546407    11862.788     1000 
 1132000   0.64222297   -1.6091597   0.96237111  -0.64678856   0.12377831    11553.124     1000 
 1134000   0.64060338    -1.579817   0.95994416  -0.61987287   0.11869611    11544.435     1000 
 1136000   0.63828196   -1.6245081   0.95646552  -0.66804257   0.12109848    11612.662     1000 
 1138000   0.60108196   -1.5936787   0.90072132  -0.69295739   0.12920327    11663.631     1000 
 1140000   0.65174671   -1.6193939   0.97664244  -0.64275141   0.13565913    11464.832     1000 
 1142000   0.63207627    -1.559421   0.94716629  -0.61225467   0.12977066    11689.541     1000 
 1144000   0.64175915   -1.5432438   0.96167609   -0.5815677   0.13297924    11565.272     1000 
 1146000   0.62513335   -1.5674866   0.93676233  -0.63072422   0.14459304    11479.803     1000 
 1148000   0.62849584   -1.5814193   0.94180102  -0.63961829   0.12621607    11625.942     1000 
 1150000   0.61989362   -1.5551121   0.92891059  -0.62620153    0.1399937    11240.004     1000 
 1152000   0.63650188   -1.6079417   0.95379807  -0.65414365   0.12298519    11626.561     1000 
 1154000   0.64893207   -1.6080257   0.97242471  -0.63560102    0.1263727    11690.027     1000 
 1156000   0.62673544   -1.5586894   0.93916305  -0.61952632   0.13319396    11360.588     1000 
 1158000   0.62985559   -1.6045469    0.9438386  -0.66070832    0.1344163    11496.471     1000 
 1160000   0.64460855   -1.6364931   0.96594592  -0.67054719   0.13641582    11392.385     1000 
 1162000   0.67017445   -1.6223765    1.0042564  -0.61812005   0.14749151    11457.817     1000 
 1164000   0.61800853   -1.6354434   0.92608579  -0.70935762   0.12725596    11616.106     1000 
 1166000   0.62156111   -1.6612017   0.93140933  -0.72979233   0.12703253    11678.832     1000 
 1168000   0.66886042   -1.6383942    1.0022873  -0.63610689   0.13220953    11777.055     1000 
 1170000   0.61358584   -1.5703245   0.91945838   -0.6508661   0.13067675    11457.087     1000 
 1172000   0.64631032    -1.583887   0.96849601  -0.61539096   0.12668992    11422.204     1000 
 1174000   0.59614528   -1.6191679   0.89332371  -0.72584421   0.12622117    11594.759     1000 
 1176000   0.65327243   -1.5800543   0.97892874  -0.60112556   0.14112154    11488.198     1000 
 1178000   0.64277036   -1.5855809   0.96319138  -0.62238947   0.11989785    11637.292     1000 
 1180000   0.60234528   -1.5567917   0.90261441  -0.65417726   0.12678491    11487.475     1000 
 1182000   0.62562324   -1.6298788   0.93749642  -0.69238241   0.13589128    11647.768     1000 
 1184000   0.63553743   -1.6125087   0.95235284   -0.6601559   0.13361486    11491.658     1000 
 1186000   0.63222798    -1.601294   0.94739363   -0.6539004   0.13071736    11653.708     1000 
 1188000   0.63806413   -1.5520643    0.9561391   -0.5959252   0.12418647    11608.825     1000 
 1190000   0.63524702   -1.6574623   0.95191766  -0.70554468   0.12605669     11582.49     1000 
 1192000   0.61712939   -1.6108945   0.92476839  -0.68612615   0.12323912    11651.895     1000 
 1194000   0.61848016   -1.6032165   0.92679252  -0.67642401   0.13371227    11498.151     1000 
 1196000   0.63734867    -1.627969   0.95506699  -0.67290201   0.13412774    11616.454     1000 
 1198000   0.62001491   -1.5738684   0.92909235  -0.64477608   0.13195081    11458.465     1000 
 1200000   0.64282348   -1.6194786   0.96327099  -0.65620759   0.12848556    11498.496     1000 
 1202000   0.62530248   -1.6121928   0.93701576  -0.67517706    0.1271946    11557.373     1000 
 1204000   0.62355431   -1.5772058   0.93439613  -0.64280968   0.12398092    11580.121     1000 
 1206000   0.60922354   -1.6430027   0.91292148  -0.73008117   0.14458548    11522.903     1000 
 1208000   0.62419735   -1.5779017   0.93535973  -0.64254195   0.12457735    11630.374     1000 
 1210000    0.6279519   -1.5706598   0.94098593  -0.62967384   0.12867946    11445.119     1000 
 1212000   0.63645411   -1.5984724   0.95372649  -0.64474591   0.12466553    11555.368     1000 
 1214000    0.6351921   -1.6093014   0.95183537  -0.65746605   0.12404536    11719.092     1000 
 1216000   0.63939375   -1.5602966   0.95813154  -0.60216511   0.13048128    11559.623     1000 
 1218000   0.62252368   -1.5484632   0.93285173  -0.61561152   0.14405158     11485.28     1000 
 1220000   0.61448811   -1.5551874   0.92081044  -0.63437698   0.13709401    11360.067     1000 
 1222000   0.62645474   -1.6189695   0.93874243  -0.68022707    0.1218106     11716.69     1000 
 1224000   0.62067303   -1.6632527   0.93007854  -0.73317417   0.12174627    11785.502     1000 
 1226000   0.61291815   -1.6470735   0.91845784  -0.72861568   0.11242625    11773.523     1000 
 1228000   0.61800707   -1.5581525    0.9260836   -0.6320689   0.12585081    11513.494     1000 
 1230000    0.6124873   -1.6099889   0.91781223   -0.6921767   0.11899387    11667.933     1000 
 1232000   0.62066956   -1.6326545   0.93007333  -0.70258121   0.12373919    11772.941     1000 
 1234000   0.62119161   -1.6461638   0.93085562  -0.71530818   0.13011858     11592.93     1000 
 1236000   0.62323888   -1.6367378   0.93392346  -0.70281436   0.12982195    11489.774     1000 
 1238000   0.63527115   -1.6003955   0.95195381  -0.64844173   0.12246341    11571.563     1000 
 1240000    0.6145145   -1.5963933   0.92084998  -0.67554334   0.12211848    11720.032     1000 
 1242000   0.59624449   -1.6188182   0.89347237  -0.72534587   0.13976541    11454.132     1000 
 1244000   0.63179288   -1.6431498   0.94674163  -0.69640819   0.13127448    11614.718     1000 
 1246000   0.63280463   -1.6238698   0.94825774  -0.67561203   0.13456612    11534.605     1000 
 1248000   0.61116499   -1.6168057   0.91583073  -0.70097498   0.12370821    11815.941     1000 
 1250000   0.62056175   -1.5837708   0.92991178  -0.65385902   0.12152143    11656.116     1000 
 1252000   0.64479873   -1.5891654   0.96623089  -0.62293449   0.12836031    11534.967     1000 
 1254000   0.61847594   -1.5971368    0.9267862  -0.67035059   0.13752654    11467.306     1000 
 1256000   0.60527057   -1.6412037   0.90699795  -0.73420574   0.13443676    11649.432     1000 
 1258000   0.61397775    -1.570197   0.92004565  -0.65015133    0.1291934    11581.625     1000 
 1260000   0.64609182    -1.590568   0.96816859  -0.62239946     0.136224    11514.796     1000 
 1262000   0.61834735    -1.576533   0.92659351  -0.64993947   0.12815278    11617.672     1000 
 1264000   0.61460554   -1.5539575   0.92098641  -0.63297114   0.12750791     11621.45     1000 
 1266000   0.62123499   -1.5749513   0.93092063  -0.64403065   0.12800603    11629.982     1000 
 1268000   0.62822471   -1.5618529   0.94139473  -0.62045813   0.12591543    11526.145     1000 
 1270000   0.61500555     -1.59134   0.92158582  -0.66975418   0.12398415    11736.128     1000 
 1272000    0.6202253   -1.5568585    0.9294076  -0.62745092   0.13527879    11497.733     1000 
 1274000   0.66578017   -1.5934862   0.99767159  -0.59581457   0.13587671    11375.613     1000 
 1276000   0.66145621   -1.5888673   0.99119213  -0.59767517   0.12743159    11524.619     1000 
 1278000   0.61282262   -1.6334759   0.91831469  -0.71516124   0.12196222    11776.923     1000 
 1280000   0.63533101   -1.6121807   0.95204352  -0.66013715   0.13646088    11536.891     1000 
 1282000   0.62849618   -1.6084606   0.94180153   -0.6666591   0.12544449    11575.655     1000 
 1284000   0.61338553   -1.6272147   0.91915822  -0.70805646   0.12390946    11521.783     1000 
 1286000   0.64242675   -1.5632072   0.96267648  -0.60053071    0.1444897    11383.819     1000 
 1288000   0.62066948   -1.6084362   0.93007322    -0.678363   0.13466054    11602.967     1000 
 1290000   0.63734892   -1.5848132   0.95506735  -0.62974585   0.12011434    11698.393     1000 
 1292000   0.63812599   -1.6188877   0.95623179  -0.66265594   0.13400737     11548.52     1000 
 1294000     0.627329   -1.6232676    0.9400525  -0.68321507   0.13838734    11479.579     1000 
 1296000   0.63488531   -1.6005207   0.95137564  -0.64914508   0.13249839    11501.453     1000 
 1298000   0.61872739    -1.561526   0.92716299  -0.63436299   0.13843597    11565.832     1000 
 1300000   0.63691571   -1.5772763    0.9544182  -0.62285807    0.1207952    11680.162     1000 
 1302000   0.61339693   -1.6313761   0.91917531  -0.71220075   0.12307562    11693.147     1000 
 1304000   0.63004793   -1.5918568   0.94412682  -0.64772998   0.13109493    11389.583     1000 
 1306000   0.64364674   -1.5545268   0.96450465  -0.59002215   0.13084287    11647.047     1000 
 1308000   0.63166966   -1.5998556   0.94655698  -0.65329858   0.13115955    11466.383     1000 
 1310000   0.62919416   -1.6436312   0.94284745   -0.7007838   0.12908523    11556.395     1000 
 1312000   0.63232012   -1.6360684    0.9475317  -0.68853666   0.12845133    11580.909     1000 
 1314000   0.65913845   -1.5640052   0.98771897  -0.57628625   0.12559449    11503.491     1000 
 1316000   0.65095553   -1.6165143   0.97545686  -0.64105749   0.13158724    11645.428     1000 
 1318000   0.64466912   -1.6013528   0.96603668  -0.63531611   0.12553198    11735.225     1000 
 1320000   0.62221975   -1.6052668   0.93239629  -0.67287055   0.14034451    11442.361     1000 
 1322000   0.63275926   -1.5911178   0.94818975  -0.64292802   0.13911585    11481.119     1000 
 1324000   0.61255952   -1.5591503   0.91792043  -0.64122986   0.11829667    11764.906     1000 
 1326000   0.61928323   -1.6184191   0.92799593  -0.69042318   0.12849534    11601.974     1000 
 1328000    0.6321803   -1.6206871   0.94732219  -0.67336495   0.12509498    11608.005     1000 
 1330000   0.64437103   -1.5778141   0.96558999  -0.61222415   0.13027671     11354.09     1000 
 1332000   0.65214878   -1.5975565   0.97724494  -0.62031158   0.13199049    11575.195     1000 
 1334000   0.63976205   -1.6418624   0.95868343    -0.683179   0.12682603    11477.996     1000 
 1336000   0.62315175   -1.6297738   0.93379289  -0.69598093   0.13221167    11645.165     1000 
 1338000    0.6462101   -1.5773283   0.96834584  -0.60898249   0.13897816    11382.955     1000 
 1340000   0.63575865   -1.5942624   0.95268433  -0.64157802   0.11984976    11648.418     1000 
 1342000   0.63183191    -1.614534   0.94680012  -0.66773391   0.12664482    11538.505     1000 
 1344000   0.60930504   -1.5735181    0.9130436  -0.66047448   0.12719352    11537.567     1000 
 1346000   0.62115637   -1.6078597   0.93080282   -0.6770569   0.12863001    11637.881     1000 
 1348000   0.63523197   -1.6333581   0.95189511    -0.681463   0.13033832    11666.144     1000 
 1350000   0.61925565   -1.6127741    0.9279546  -0.68481946   0.13663047    11313.822     1000 
 1352000   0.61884933   -1.5848521   0.92734572  -0.65750639   0.12921875    11518.309     1000 
 1354000   0.65450364   -1.5915476    0.9807737  -0.61077386    0.1296857    11626.764     1000 
 1356000   0.59855607   -1.5767164   0.89693627  -0.67978009   0.14251022      11356.8     1000 
 1358000   0.63372802   -1.6125956   0.94964144  -0.66295412   0.12791608     11619.72     1000 
 1360000   0.62060366   -1.6159437   0.92997459  -0.68596911   0.14588117    11400.076     1000 
 1362000   0.63027298   -1.5905563   0.94446406  -0.64609219   0.13358696    11531.023     1000 
 1364000   0.62047197   -1.5673396   0.92977724  -0.63756237   0.12914149    11654.522     1000 
 1366000   0.64015356   -1.5922843   0.95927012  -0.63301422   0.11445676    11609.934     1000 
 1368000   0.59889742   -1.5776427   0.89744778  -0.68019488   0.13191239    11403.967     1000 
 1370000    0.6273432   -1.6269617   0.94007379  -0.68688796   0.11961638    11733.726     1000 
 1372000   0.63421103   -1.5675259   0.95036522  -0.61716064    0.1345612    11449.692     1000 
 1374000   0.62905038   -1.6162257   0.94263199  -0.67359367   0.12657701    11576.719     1000 
 1376000   0.63285449   -1.5574732   0.94833245  -0.60914072   0.13612517    11472.282     1000 
 1378000   0.59880633   -1.6549772   0.89731129  -0.75766593   0.11468354    11600.743     1000 
 1380000   0.60884705    -1.585826   0.91235731   -0.6734687   0.13866148    11539.436     1000 
 1382000   0.63835826   -1.6341379   0.95657985  -0.67755807   0.14209023    11649.442     1000 
 1384000    0.6521996    -1.623052    0.9773211  -0.64573086   0.13851187    11390.721     1000 
 1386000   0.59988625   -1.6381687   0.89892955  -0.73923911   0.12280064    11503.597     1000 
 1388000   0.66189102    -1.578919   0.99184369  -0.58707534   0.13834304    11616.144     1000 
 1390000   0.61940834   -1.6489263    0.9281834  -0.72074292   0.12953476    11609.209     1000 
 1392000   0.62730752   -1.6144615   0.94002032  -0.67444113   0.13732336    11443.608     1000 
 1394000   0.62668312   -1.5800235   0.93908465  -0.64093881   0.11933958    11765.517     1000 
 1396000   0.64409437   -1.6494747   0.96517541  -0.68429932   0.12924872    11747.141     1000 
 1398000   0.61333878   -1.6055564   0.91908816  -0.68646824   0.12826306    11632.635     1000 
 1400000   0.63141971   -1.6152775   0.94618244  -0.66909503   0.13189569    11733.847     1000 
 1402000   0.63250286   -1.6370762   0.94780553  -0.68927063   0.11850505    11694.997     1000 
 1404000   0.61354452   -1.6255066   0.91939646  -0.70611013   0.12009383    11667.765     1000 
 1406000   0.60122482   -1.5801836    0.9009354  -0.67924823   0.12080716    11753.694     1000 
 1408000    0.6399564   -1.5706845   0.95897466  -0.61170987     0.130991    11530.584     1000 
 1410000    0.6020465   -1.6185849   0.90216668  -0.71641825   0.13448961    11397.303     1000 
 1412000   0.64511948   -1.5730306   0.96671154  -0.60631904   0.13646144    11362.979     1000 
 1414000   0.65538553   -1.6418921   0.98209521   -0.6597969     0.125178     11790.63     1000 
 1416000   0.65241764   -1.6203577   0.97764783  -0.64270988   0.15269446     11296.44     1000 
 1418000   0.63155607   -1.5991584   0.94638677  -0.65277165     0.138254     11506.19     1000 
 1420000   0.60953947   -1.6224716   0.91339489  -0.70907675   0.12668031    11610.838     1000 
 1422000   0.64628639   -1.5249091   0.96846016  -0.55644897   0.14021579    11393.932     1000 
 1424000   0.62691012   -1.5976814   0.93942482  -0.65825662   0.12222348    11650.291     1000 
 1426000   0.63595932    -1.583179   0.95298505  -0.63019391   0.12847972    11523.281     1000 
 1428000   0.62814331   -1.5931168   0.94127275  -0.65184401   0.12957507    11526.526     1000 
 1430000   0.62275604    -1.611679   0.93319993  -0.67847903   0.13283748    11507.476     1000 
 1432000    0.6489667   -1.6914697   0.97247659  -0.71899312   0.12025803    11738.665     1000 
 1434000   0.62886023   -1.5826256   0.94234705  -0.64027857   0.12122016    11746.612     1000 
 1436000    0.6148439   -1.5625221   0.92134358  -0.64117854   0.13430341    11471.842     1000 
 1438000   0.64137662   -1.6573268   0.96110287  -0.69622398   0.12890388     11443.11     1000 
 1440000   0.63233886   -1.6159622   0.94755978  -0.66840241   0.12842412    11632.316     1000 
 1442000   0.61983307   -1.6421142   0.92881985   -0.7132943   0.12663609    11513.267     1000 
 1444000   0.63141958   -1.5905528   0.94618224  -0.64437051   0.12069709    11567.538     1000 
 1446000   0.62880157   -1.6109337   0.94225916  -0.66867452   0.12374815    11589.699     1000 
 1448000   0.62528513    -1.584762   0.93698977  -0.64777221   0.13061651    11504.158     1000 
 1450000   0.62404823   -1.5738933   0.93513628    -0.638757   0.12437377    11716.072     1000 
 1452000   0.61898926   -1.6119956   0.92755541  -0.68444023    0.1446872     11418.49     1000 
 1454000   0.67540466   -1.5798792    1.0120939  -0.56778531   0.14610682    11401.851     1000 
 1456000   0.62796267   -1.6138553   0.94100206  -0.67285325   0.12349978     11709.74     1000 
 1458000   0.62858774   -1.5614968   0.94193872  -0.61955809   0.12538315    11548.293     1000 
 1460000   0.62969654   -1.6009101   0.94360026  -0.65730988   0.12635663    11563.857     1000 
 1462000   0.62622989   -1.5946267   0.93840549  -0.65622119   0.12925542    11414.809     1000 
 1464000   0.58236482   -1.5665622   0.87267368  -0.69388856   0.13278724    11518.589     1000 
 1466000   0.63114498   -1.6419587   0.94577075   -0.6961879   0.13091788    11624.028     1000 
 1468000    0.6343822   -1.5971945   0.95062173  -0.64657274   0.13101855     11558.58     1000 
 1470000   0.63977214   -1.5813139   0.95869855  -0.62261536    0.1370944     11489.79     1000 
 1472000   0.60978773   -1.5762646   0.91376691  -0.66249766   0.13043095     11667.19     1000 
 1474000   0.61555809   -1.5641543   0.92241379  -0.64174048   0.13209057    11481.472     1000 
 1476000   0.64187221   -1.6392862    0.9618455  -0.67744073    0.1311683    11422.105     1000 
 1478000   0.63084943   -1.6158298   0.94532786   -0.6705019   0.13012318    11469.395     1000 
 1480000   0.63829935   -1.6391149   0.95649158  -0.68262335   0.11694701    11768.515     1000 
 1482000      0.64989   -1.5891684   0.97386016  -0.61530826   0.16501082    11173.573     1000 
 1484000    0.6309934   -1.5735754   0.94554361  -0.62803181   0.12915658    11632.126     1000 
 1486000   0.64604245   -1.5571949   0.96809462  -0.58910032   0.12875005    11504.566     1000 
 1488000   0.65279954   -1.5983202   0.97822012  -0.62010004   0.13566963    11506.996     1000 
 1490000   0.63923842   -1.6009229   0.95789877  -0.64302411   0.13482601    11442.329     1000 
 1492000   0.66015739   -1.5955549   0.98924585   -0.6063091   0.12738689    11809.595     1000 
 1494000   0.61877956   -1.6461436   0.92724117  -0.71890243   0.13581795    11609.682     1000 
 1496000   0.58636078   -1.5201465   0.87866163  -0.64148486   0.13201451    11247.751     1000 
 1498000   0.61444783   -1.5651329   0.92075007  -0.64438281   0.11025694    11862.153     1000 
 1500000   0.64080625   -1.6020769   0.96024816  -0.64182879   0.13701566    11608.192     1000 
 1502000   0.62953665   -1.5845735   0.94336067  -0.64121279   0.12999216    11565.112     1000 
 1504000   0.64252721   -1.5951789   0.96282702   -0.6323519   0.11745483    11640.859     1000 
 1506000   0.64018799   -1.7054032    0.9593217  -0.74608148     0.132027    11749.254     1000 
 1508000   0.63027549    -1.611433   0.94446782  -0.66696516   0.13065163    11482.381     1000 
 1510000   0.64981584   -1.6073434   0.97374904  -0.63359437   0.14412551     11389.84     1000 
 1512000   0.63778544     -1.54407   0.95572148  -0.58834851   0.12270748    11625.725     1000 
 1514000    0.6145544   -1.5699302   0.92090977   -0.6490204   0.12334855    11611.032     1000 
 1516000   0.64002775   -1.5584578   0.95908158   -0.5993762   0.13618816    11498.647     1000 
 1518000   0.66156326    -1.650799   0.99135254   -0.6594465   0.13116372    11642.428     1000 
 1520000   0.61370965    -1.601093   0.91964391   -0.6814491   0.12586969    11508.938     1000 
 1522000   0.60276629   -1.5658443   0.90324528  -0.66259903   0.12742386    11503.419     1000 
 1524000   0.62893362   -1.6418848   0.94245704  -0.69942778   0.13785928    11440.491     1000 
 1526000   0.60868821   -1.5888289   0.91211928  -0.67670966   0.11979249    11672.463     1000 
 1528000   0.60798165   -1.5823725    0.9110605  -0.67131198   0.11967298    11627.546     1000 
 1530000   0.60163755   -1.5749321   0.90155387  -0.67337824   0.12848011    11585.905     1000 
 1532000   0.62857026   -1.6263956   0.94191253  -0.68448306   0.12713067    11528.366     1000 
 1534000   0.62551808   -1.5997208   0.93733884  -0.66238192   0.12916503    11546.226     1000 
 1536000   0.61016361   -1.5730658   0.91433017   -0.6587356   0.13426586    11681.126     1000 
 1538000   0.63364872     -1.62236   0.94952261  -0.67283736   0.14469961    11406.658     1000 
 1540000   0.62329191    -1.633176   0.93400293  -0.69917303   0.12528173    11667.315     1000 
 1542000   0.63979174   -1.5895188   0.95872793  -0.63079087   0.11939774    11749.136     1000 
 1544000   0.63248942   -1.6114739   0.94778539  -0.66368853   0.13438963    11504.685     1000 
 1546000    0.6153505   -1.5795254   0.92210273  -0.65742267   0.14058982    11465.501     1000 
 1548000    0.6438675   -1.6462886   0.96483544  -0.68145313   0.13132074    11561.787     1000 
 1550000   0.63799443   -1.5711427   0.95603465   -0.6151081   0.14246685    11306.964     1000 
 1552000   0.58929863   -1.6488287   0.88306399  -0.76576467   0.11582316    11608.634     1000 
 1554000    0.6396792   -1.6239749   0.95855927  -0.66541561    0.1443482    11457.036     1000 
 1556000   0.62788398   -1.5659687   0.94088414  -0.62508452   0.13397564    11625.999     1000 
 1558000   0.61303263   -1.6225273   0.91862939  -0.70389789   0.12867681     11582.71     1000 
 1560000   0.61661253   -1.6202955   0.92399387  -0.69630168   0.13890247    11384.116     1000 
 1562000    0.6293832   -1.5496546   0.94313073  -0.60652387   0.13137099    11415.821     1000 
 1564000   0.62577642   -1.6413637   0.93772596  -0.70363778   0.12875526    11550.564     1000 
 1566000   0.64997211   -1.6024167   0.97398321  -0.62843345   0.12332951    11685.637     1000 
 1568000   0.61829391   -1.5569429   0.92651342  -0.63042948   0.13004956    11496.278     1000 
 1570000   0.60459099   -1.6536337    0.9059796  -0.74765415   0.12341935    11715.374     1000 
 1572000   0.63742645    -1.607945   0.95518353  -0.65276145   0.13093233    11647.297     1000 
 1574000   0.66328625   -1.5862517   0.99393444  -0.59231729   0.12819055    11642.122     1000 
 1576000   0.64069664   -1.5789557   0.96008392  -0.61887176   0.13249002    11543.714     1000 
 1578000   0.63822535     -1.59749   0.95638069  -0.64110932   0.12643836    11568.673     1000 
 1580000    0.6334982   -1.5977477   0.94929706  -0.64845064   0.11872169    11570.446     1000 
 1582000   0.61223203   -1.6177156    0.9174297  -0.70028589   0.13466399    11384.147     1000 
 1584000   0.61283687    -1.637424   0.91833605  -0.71908793   0.11049428    11733.346     1000 
 1586000   0.63471248   -1.5943829   0.95111665  -0.64326625   0.11955298     11659.66     1000 
 1588000   0.63283518   -1.5770211   0.94830351  -0.62871759   0.13323363    11391.064     1000 
[...]
 2614000   0.63271548   -1.5749427   0.94812415  -0.62681855   0.13262785    11556.209     1000 
 2616000   0.63848722   -1.6247513    0.9567731  -0.66797824   0.12455625    11672.211     1000 
 2618000   0.62273985   -1.5930747   0.93317567  -0.65989908   0.12055072    11570.128     1000 
 2620000   0.62274925   -1.5996301   0.93318975   -0.6664404   0.12897663    11741.981     1000 
 2622000   0.65078623   -1.5342447   0.97520316  -0.55904151   0.13771044    11476.109     1000 
 2624000   0.62020541   -1.6158125    0.9293778  -0.68643474    0.1265918    11487.612     1000 
 2626000   0.61884337   -1.5662142   0.92733679  -0.63887737   0.11054693    11892.375     1000 
 2628000   0.62127856   -1.6272833   0.93098592  -0.69629739    0.1230047    11582.765     1000 
 2630000   0.65597094   -1.6815982   0.98297246  -0.69862573   0.12901789    11740.525     1000 
 2632000   0.62848627   -1.5711493   0.94178667  -0.62936262   0.12183617    11670.434     1000 
 2634000   0.64421089   -1.5826431   0.96535002  -0.61729309   0.12518563    11578.385     1000 
 2636000   0.62506592   -1.5942788   0.93666129  -0.65761747   0.12747296    11562.572     1000 
 2638000   0.60944051   -1.6006805   0.91324661  -0.68743385   0.13897939    11606.682     1000 
 2640000   0.63703639   -1.6084882   0.95459903  -0.65388915   0.13146831    11602.446     1000 
 2642000    0.6335276   -1.5387782   0.94934111  -0.58943709   0.14472571    11303.893     1000 
 2644000    0.6355798    -1.627692   0.95241634  -0.67527569   0.12015529    11789.249     1000 
 2646000   0.61916444   -1.5879445   0.92781791  -0.66012655   0.13525115    11507.487     1000 
 2648000   0.62850998   -1.5776692   0.94182221  -0.63584702   0.14017913    11470.055     1000 
 2650000   0.62783024   -1.5906787   0.94080362  -0.64987512   0.13271045    11493.576     1000 
 2652000   0.62945697   -1.5962127   0.94324126  -0.65297143   0.12581221    11540.736     1000 
 2654000   0.63937409    -1.626662   0.95810207  -0.66855992   0.12680956    11510.203     1000 
 2656000   0.64511555   -1.5992745   0.96670565  -0.63256886   0.13899248    11525.196     1000 
 2658000   0.65360963   -1.5664817   0.97943403  -0.58704771   0.13253975    11663.632     1000 
 2660000   0.63479899   -1.5638557   0.95124629  -0.61260939   0.14090515    11367.918     1000 
 2662000   0.64377646   -1.5899968   0.96469902  -0.62529781   0.12627825    11627.387     1000 
 2664000   0.63694632   -1.5693815   0.95446407  -0.61491742   0.13597038    11436.157     1000 
 2666000   0.63861602   -1.5607496   0.95696611   -0.6037835   0.13125532    11631.816     1000 
 2668000   0.62770588   -1.6511327   0.94061726  -0.71051544   0.12863941    11614.015     1000 
 2670000   0.62815103   -1.5738939   0.94128431  -0.63260959   0.12472229     11614.18     1000 
 2672000   0.63653089   -1.6003694   0.95384154  -0.64652783   0.12816157    11787.956     1000 
 2674000    0.6096437   -1.5498476   0.91355108  -0.63629649   0.12232449     11573.91     1000 
 2676000   0.60119718    -1.595834   0.90089398  -0.69494003   0.12222518    11536.655     1000 
 2678000   0.59088174   -1.5930661   0.88543629   -0.7076298    0.1305232    11518.007     1000 
 2680000   0.63769944   -1.6210012   0.95559261  -0.66540859   0.12648422    11583.747     1000 
 2682000   0.59580879   -1.6733995   0.89281947  -0.78058006   0.13722697    11364.648     1000 
 2684000   0.66097459   -1.6442533   0.99047043  -0.65378292   0.12799819    11571.914     1000 
 2686000   0.61116514   -1.5557657   0.91583096  -0.63993479   0.12667739    11526.045     1000 
 2688000   0.61818691   -1.6249238   0.92635308  -0.69857077   0.12747273    11531.601     1000 
 2690000   0.61739247   -1.5832494   0.92516262  -0.65808674   0.14089841     11393.96     1000 
 2692000   0.63037904   -1.5879165     0.944623  -0.64329353   0.12853218    11499.073     1000 
 2694000   0.65717784   -1.6205921   0.98478099  -0.63581107   0.13476191    11625.022     1000 
 2696000   0.63002436    -1.631121    0.9440915  -0.68702951   0.12775543    11366.381     1000 
 2698000   0.63250963   -1.6371426   0.94781568  -0.68932695   0.13089948    11563.284     1000 
 2700000   0.64893636   -1.6042771   0.97243114  -0.63184596   0.11979956     11776.69     1000 
 2702000   0.62054927   -1.5451213   0.92989308  -0.61522819   0.13839735     11348.59     1000 
 2704000   0.64199585   -1.6053231   0.96203078  -0.64329235    0.1269505     11554.96     1000 
 2706000   0.63315563   -1.6168858   0.94878371  -0.66810209   0.13073753    11555.733     1000 
 2708000   0.63172114   -1.6262585   0.94663413   -0.6796244   0.13447402    11477.138     1000 
 2710000   0.63135513    -1.572203   0.94608566  -0.62611732   0.13653013    11485.412     1000 
 2712000   0.62240605   -1.5885363   0.93267546   -0.6558608    0.1242298    11536.456     1000 
 2714000   0.60232599   -1.6631576   0.90258549  -0.76057215   0.13038516    11630.022     1000 
 2716000   0.61316792   -1.5860741   0.91883213    -0.667242   0.13381682    11500.077     1000 
 2718000   0.62298656   -1.5774079   0.93354535  -0.64386258   0.13690536    11311.621     1000 
 2720000   0.60958709   -1.6230751   0.91346625  -0.70960887    0.1314299    11546.159     1000 
 2722000   0.62890918   -1.6092445    0.9424204  -0.66682406    0.1321149    11593.526     1000 
 2724000   0.64863064   -1.6549052   0.97197301  -0.68293224   0.12065083    11713.951     1000 
 2726000    0.6129812    -1.588207   0.91855233   -0.6696547   0.13275056    11479.855     1000 
 2728000   0.60000665   -1.6075782   0.89910996  -0.70846823   0.12173076     11611.22     1000 
 2730000    0.6496027   -1.5506709   0.97342965  -0.57724124   0.13589609    11458.165     1000 
 2732000   0.64053958   -1.6352909   0.95984856   -0.6754423   0.13463515    11629.832     1000 
 2734000   0.62765275   -1.6121117   0.94053765  -0.67157407   0.12902169     11517.41     1000 
 2736000   0.61968073   -1.5953864   0.92859157  -0.66679481   0.11815179    11625.149     1000 
 2738000   0.64428063   -1.5853643   0.96545452   -0.6199098   0.13458853     11539.82     1000 
 2740000   0.60184296    -1.578728   0.90186168   -0.6768663   0.13592828    11465.304     1000 
 2742000    0.6393689   -1.6376427    0.9580943  -0.67954838   0.13561246    11472.021     1000 
 2744000   0.64292738   -1.5244092   0.96342669  -0.56098253   0.13256775    11443.479     1000 
 2746000    0.6226896   -1.5672988   0.93310037  -0.63419843   0.13828249    11492.783     1000 
 2748000   0.63519573   -1.5791603   0.95184079  -0.62731954   0.12741456    11550.117     1000 
 2750000   0.62975493   -1.6344659   0.94368777  -0.69077816   0.12843333    11614.833     1000 
 2752000   0.61885005   -1.5899825    0.9273468  -0.66263573   0.13176325     11633.07     1000 
 2754000    0.6018242   -1.6155467   0.90183357  -0.71371313   0.12869598     11678.73     1000 
 2756000    0.6246977   -1.6377645   0.93610951    -0.701655   0.11957351    11709.684     1000 
 2758000   0.63678219   -1.6188739   0.95421811  -0.66465576    0.1279657    11429.325     1000 
 2760000   0.63554762   -1.5597851   0.95236811  -0.60741702   0.13706593    11478.945     1000 
 2762000   0.62345803   -1.5677492   0.93425186  -0.63349732   0.14489824    11282.189     1000 
 2764000    0.6258789   -1.6285038   0.93787953  -0.69062424   0.14023728    11442.912     1000 
 2766000   0.62509123    -1.567587    0.9366992  -0.63088779   0.13270209    11391.156     1000 
 2768000   0.63434511   -1.5959264   0.95056614  -0.64536028   0.12638972    11462.333     1000 
 2770000   0.64201128   -1.5798522    0.9620539  -0.61779835   0.13026335     11539.99     1000 
 2772000   0.61979417   -1.5882537   0.92876156  -0.65949214    0.1388536    11563.545     1000 
 2774000   0.64968703   -1.6067652   0.97355602  -0.63320914   0.13949178    11575.731     1000 
 2776000   0.64251255   -1.6220053   0.96280505  -0.65920022   0.12307323    11700.441     1000 
 2778000   0.62528753   -1.5596533   0.93699336  -0.62265994   0.14051675    11441.464     1000 
 2780000   0.62989158   -1.5633035   0.94389253  -0.61941093   0.13891327    11341.844     1000 
 2782000   0.65320709   -1.5963921   0.97883082  -0.61756131   0.11766822    11599.959     1000 
 2784000   0.63392123   -1.5319193   0.94993096  -0.58198831   0.13397058    11565.962     1000 
 2786000   0.62298785   -1.5860555    0.9335473  -0.65250816   0.14529147    11454.834     1000 
 2788000     0.630593   -1.5841493    0.9449436  -0.63920572   0.13405613    11516.203     1000 
 2790000   0.60736067   -1.6068325   0.91012997  -0.69670257   0.12941316    11600.403     1000 
 2792000   0.59442046   -1.6329047   0.89073906  -0.74216559   0.12432147    11665.104     1000 
 2794000   0.63239459   -1.6000005   0.94764329  -0.65235721   0.12699402    11487.033     1000 
 2796000    0.6400844   -1.5519679   0.95916648  -0.59280143   0.13537139    11373.052     1000 
 2798000   0.63198087    -1.594243   0.94702334  -0.64721965    0.1396565    11583.359     1000 
 2800000   0.64091458   -1.5899404   0.96041051  -0.62952986   0.12400243     11672.76     1000 
 2802000    0.6468685   -1.5941396   0.96933245  -0.62480718   0.12565943    11669.645     1000 
 2804000   0.66319735   -1.5894652   0.99380122  -0.59566395   0.14134808    11424.336     1000 
 2806000   0.64449697   -1.6054571   0.96577871  -0.63967836    0.1316604     11504.07     1000 
 2808000   0.60936692   -1.6053481   0.91313633  -0.69221181   0.12698148    11727.707     1000 
 2810000   0.63052424   -1.5830705   0.94484057  -0.63822994   0.12656738    11564.854     1000 
 2812000   0.64914656   -1.5958855   0.97274611  -0.62313937   0.13323335    11525.328     1000 
 2814000   0.62836931   -1.6275181   0.94161141  -0.68590667   0.12874787    11577.345     1000 
 2816000   0.64709509   -1.5588616     0.969672  -0.58918964   0.13165474    11436.481     1000 
 2818000   0.62170489   -1.5219584   0.93162477  -0.59033366    0.1254822    11670.307     1000 
 2820000   0.63527403   -1.5940696   0.95195814  -0.64211147   0.12309299    11554.309     1000 
 2822000    0.6243383   -1.6042668   0.93557095  -0.66869588   0.13228563    11512.273     1000 
 2824000   0.62474451   -1.5918535   0.93617965  -0.65567387   0.12842184     11439.04     1000 
 2826000   0.63439717   -1.5960324   0.95064416  -0.64538829   0.13647415     11420.28     1000 
 2828000    0.6410897   -1.6060091   0.96067291  -0.64533619   0.14105722    11516.903     1000 
 2830000   0.62659251   -1.6096256   0.93894888  -0.67067668   0.12173742    11594.724     1000 
 2832000   0.65169363   -1.5830822   0.97656291  -0.60651931   0.13306409     11488.61     1000 
 2834000   0.63110706   -1.5824613   0.94571393  -0.63674738   0.13035666    11715.063     1000 
 2836000   0.63063116    -1.605099    0.9450008  -0.66009816   0.12926369    11475.191     1000 
 2838000   0.61715593   -1.6349166   0.92480817  -0.71010843   0.12557888    11586.116     1000 
 2840000   0.60962652   -1.6360558   0.91352534  -0.72253049   0.13631656    11518.235     1000 
 2842000   0.63665358   -1.6039505   0.95402538  -0.64992517   0.12911526     11484.12     1000 
 2844000   0.63309599   -1.6375866   0.94869434  -0.68889229   0.11239225     11835.51     1000 
 2846000   0.65725714   -1.5608084   0.98489983  -0.57590854   0.14148775    11507.567     1000 
 2848000   0.60941068   -1.5992074   0.91320191  -0.68600553    0.1293324    11614.382     1000 
 2850000   0.63471612   -1.6059581    0.9511221  -0.65483599   0.12091535    11615.799     1000 
 2852000   0.63999418   -1.6191147   0.95903128  -0.66008339   0.12997607    11583.837     1000 
 2854000   0.65751808   -1.5681849   0.98529085  -0.58289407   0.12130359    11704.753     1000 
 2856000   0.65841563   -1.5904663   0.98663583  -0.60383048   0.13149042    11404.008     1000 
 2858000   0.62989157   -1.6521356   0.94389252  -0.70824308   0.11485734    11893.849     1000 
 2860000   0.65617035   -1.6633749   0.98327126   -0.6801036   0.12631361    11735.409     1000 
 2862000   0.62449632   -1.5772518   0.93580774  -0.64144406   0.13243824    11537.153     1000 
 2864000      0.62951   -1.6137725   0.94332074  -0.67045171   0.13997644    11392.184     1000 
 2866000   0.64844478   -1.5721616    0.9716945  -0.60046706   0.13055145    11454.931     1000 
 2868000   0.62965844   -1.5782044   0.94354318  -0.63466124   0.12328765    11737.972     1000 
 2870000   0.65550485   -1.5719161   0.98227402  -0.58964207   0.13497712    11561.736     1000 
 2872000   0.63977262   -1.6283077   0.95869927  -0.66960839   0.11606845    11782.077     1000 
 2874000   0.61545178   -1.5343148   0.92225449   -0.6120603    0.1398902    11335.809     1000 
 2876000   0.63243354   -1.5965389   0.94770166  -0.64883724   0.13854991    11428.034     1000 
 2878000   0.62812184   -1.5322484   0.94124057  -0.59100786   0.12955085    11319.442     1000 
 2880000   0.65332349   -1.6052942   0.97900525   -0.6262889   0.13831405    11485.341     1000 
 2882000   0.65881554   -1.5422708   0.98723508  -0.55503572   0.13039224    11582.354     1000 
 2884000   0.61972856   -1.6014457   0.92866325  -0.67278243   0.13382786    11395.967     1000 
 2886000   0.61499813   -1.6549516   0.92157469  -0.73337692   0.11998106    11750.284     1000 
 2888000   0.63452402   -1.6189237   0.95083425  -0.66808948   0.12540704    11619.766     1000 
 2890000   0.62975313   -1.6014462   0.94368506  -0.65776113   0.12761194    11593.565     1000 
 2892000   0.63540594    -1.620326   0.95215581  -0.66817024   0.12987171    11440.723     1000 
 2894000   0.62603292   -1.6068913   0.93811032  -0.66878097   0.12857928    11584.039     1000 
 2896000   0.64102199   -1.5809295   0.96057145  -0.62035801   0.12323378    11746.215     1000 
 2898000   0.62437505   -1.6280619   0.93562601  -0.69243585   0.12815468    11449.962     1000 
 2900000   0.63269437   -1.5643337   0.94809251  -0.61624121   0.14708215    11442.317     1000 
 2902000   0.63302138   -1.5833645   0.94858254  -0.63478199   0.13307094    11441.976     1000 
 2904000   0.65568317   -1.5939347   0.98254123  -0.61139343   0.13455423    11516.473     1000 
 2906000   0.64144879   -1.6221781   0.96121101   -0.6609671   0.13211075     11636.18     1000 
 2908000   0.62290517   -1.5734293    0.9334234  -0.64000585   0.13528553    11398.454     1000 
 2910000   0.63965126   -1.6546616   0.95851742  -0.69614423    0.1199453     11588.44     1000 
 2912000   0.63894411   -1.5992908   0.95745775  -0.64183303   0.14216545    11345.607     1000 
 2914000    0.6211884   -1.6183894   0.93085082  -0.68753859   0.12852863    11673.176     1000 
 2916000   0.62641793   -1.6462779   0.93868727  -0.70759063   0.13372904    11674.359     1000 
 2918000   0.61344552   -1.5820557   0.91924811  -0.66280762     0.132947    11527.307     1000 
 2920000   0.63004598    -1.624684   0.94412391  -0.68056004   0.13572712      11468.2     1000 
 2922000   0.60490641    -1.595812   0.90645225  -0.68935976   0.12039516    11597.296     1000 
 2924000   0.62853214   -1.5751341   0.94185541   -0.6332787   0.13933203     11590.08     1000 
 2926000   0.64349583   -1.5596936    0.9642785  -0.59541508    0.1412713    11488.101     1000 
 2928000   0.63205405   -1.6038319     0.947133  -0.65669893   0.12635982    11528.281     1000 
 2930000   0.62233665   -1.6806471   0.93257147  -0.74807559   0.13157173    11443.521     1000 
 2932000   0.63469151   -1.5272827   0.95108523  -0.57619747   0.12441817    11589.359     1000 
 2934000   0.65405228   -1.6267737   0.98009734   -0.6466764   0.12610668     11608.37     1000 
 2936000   0.64795078   -1.6096191   0.97095425  -0.63866484   0.11643195    11812.234     1000 
 2938000   0.61680634   -1.6236884    0.9242843  -0.69940409    0.1136649    11867.153     1000 
 2940000   0.63262058   -1.6335619   0.94798194  -0.68557994   0.13079822     11432.23     1000 
 2942000   0.64444426   -1.6033211   0.96569973  -0.63762133   0.13523806    11567.874     1000 
 2944000   0.62392478   -1.6480204   0.93495128  -0.71306915    0.1277393    11649.585     1000 
 2946000   0.60988126   -1.6585415   0.91390707  -0.74463447   0.11876918    11723.118     1000 
 2948000    0.6445108   -1.6019467   0.96579943  -0.63614726   0.13956498    11388.926     1000 
 2950000   0.65592707   -1.6578974   0.98290672  -0.67499065    0.1276363    11416.352     1000 
 2952000   0.61126151   -1.6253207   0.91597537  -0.70934536    0.1480936    11286.377     1000 
 2954000   0.64350693   -1.6012115   0.96429513  -0.63691635   0.13675379    11496.944     1000 
 2956000   0.61550395   -1.5135914   0.92233267  -0.59125869   0.13562891    11461.106     1000 
 2958000    0.6206767   -1.5607417   0.93008403  -0.63065764   0.11992028    11679.806     1000 
 2960000   0.64037096   -1.6186829   0.95959589  -0.65908698   0.13128343     11778.18     1000 
 2962000   0.61125889   -1.5364081   0.91597145  -0.62043667    0.1401726    11341.206     1000 
 2964000   0.61648328   -1.5684537    0.9238002  -0.64465353   0.12831689    11572.838     1000 
 2966000   0.66686836   -1.5811804   0.99930224   -0.5818782   0.12525572    11651.044     1000 
 2968000   0.61870207   -1.6220223   0.92712505  -0.69489724   0.13317239    11638.259     1000 
 2970000   0.61600402   -1.5673716   0.92308203  -0.64428961    0.1368182    11440.415     1000 
 2972000   0.63230226   -1.6495056   0.94750494  -0.70200062   0.12870055    11555.039     1000 
 2974000   0.62039586   -1.6256848   0.92966319  -0.69602164   0.13927773    11275.583     1000 
 2976000   0.62739829   -1.5886899   0.94015633   -0.6485336   0.12830662    11793.948     1000 
 2978000   0.61996051   -1.5120982   0.92901083  -0.58308732   0.13243474    11462.174     1000 
 2980000   0.65270883   -1.5763899   0.97808419  -0.59830575    0.1296837    11734.758     1000 
 2982000   0.64669111   -1.6421634   0.96906663  -0.67309675   0.13071674    11503.105     1000 
 2984000   0.63096324   -1.6009001   0.94549842  -0.65540167    0.1269542    11516.856     1000 
 2986000   0.65592322   -1.5893814   0.98290094  -0.60648048   0.13655502    11653.464     1000 
 2988000   0.60300469   -1.6259047   0.90360252   -0.7223022      0.12571    11734.927     1000 
 2990000   0.61400277   -1.5903752   0.92008315  -0.67029209    0.1263904    11532.643     1000 
 2992000   0.62336318   -1.6488677   0.93410972  -0.71475794   0.11923365    11702.973     1000 
 2994000   0.63223226   -1.5591064   0.94740004  -0.61170639   0.14435728    11361.236     1000 
 2996000   0.62583533   -1.6122757   0.93781424  -0.67446144   0.13504917    11396.274     1000 
 2998000   0.63602887   -1.6089167   0.95308926  -0.65582746   0.12603264    11540.573     1000 
 3000000   0.64393591    -1.609691   0.96493796  -0.64475304   0.13296932    11652.775     1000 
Loop time of 1162.67 on 1 procs for 3000000 steps with 1000 atoms

Performance: 1114675.144 tau/day, 2580.267 timesteps/s
100.0% CPU use with 1 MPI tasks x 1 OpenMP threads

MPI task timing breakdown:
Section |  min time  |  avg time  |  max time  |%varavg| %total
---------------------------------------------------------------
Pair    | 913.92     | 913.92     | 913.92     |   0.0 | 78.60
Neigh   | 145.35     | 145.35     | 145.35     |   0.0 | 12.50
Comm    | 25.117     | 25.117     | 25.117     |   0.0 |  2.16
Output  | 0.018237   | 0.018237   | 0.018237   |   0.0 |  0.00
Modify  | 72.791     | 72.791     | 72.791     |   0.0 |  6.26
Other   |            | 5.474      |            |       |  0.47

Nlocal:        1000.00 ave        1000 max        1000 min
Histogram: 1 0 0 0 0 0 0 0 0 0
Nghost:        2179.00 ave        2179 max        2179 min
Histogram: 1 0 0 0 0 0 0 0 0 0
Neighs:        26735.0 ave       26735 max       26735 min
Histogram: 1 0 0 0 0 0 0 0 0 0

Total # of neighbors = 26735
Ave neighs/atom = 26.735000
Neighbor list builds = 150000
Dangerous builds not checked

Total wall time: 0:19:22
