LAMMPS (29 Sep 2021 - Update 2)
OMP_NUM_THREADS environment is not set. Defaulting to 1 thread. (src/comm.cpp:98)
  using 1 OpenMP thread(s) per MPI task
# ----------------------- Inicialização -----------------------

units			lj
atom_style 		atomic
dimension 		3
boundary 		p p p

# -------------------- Criação dos Átomos ---------------------

read_data 		topologia.txt
Reading data file ...
  orthogonal box = (0.0000000 0.0000000 0.0000000) to (21.540000 21.540000 21.540000)
  1 by 1 by 1 MPI processor grid
  reading atoms ...
  1000 atoms
  read_data CPU = 0.005 seconds

velocity 		all create ${temp} 87287 rot yes dist gaussian
velocity 		all create 0.57 87287 rot yes dist gaussian

# ------------------ Interação Interatômica -------------------

pair_style		table linear 1000
pair_coeff		1 1 force.table AA 5.0
WARNING: 2 of 1000 force values in table AA are inconsistent with -dE/dr.
WARNING:  Should only be flagged at inflection points (src/pair_table.cpp:465)
pair_coeff		1 2 force.table AB 5.0
WARNING: 1 of 1000 force values in table AB are inconsistent with -dE/dr.
WARNING:  Should only be flagged at inflection points (src/pair_table.cpp:465)
pair_coeff		2 2 force.table BB 5.0
pair_write		1 1 1000 r 0.008 5.0 table.check AA
Appending to table file table.check with DATE: 2023-06-15
Neighbor list info ...
  update every 1 steps, delay 10 steps, check yes
  max neighbors/atom: 2000, page size: 100000
  master list distance cutoff = 5.3
  ghost atom cutoff = 5.3
  binsize = 2.65, bins = 9 9 9
  1 neighbor lists, perpetual/occasional/extra = 1 0 0
  (1) pair table, perpetual
      attributes: half, newton on
      pair build: half/bin/atomonly/newton
      stencil: half/bin/3d
      bin: standard
pair_write		1 2 1000 r 0.008 5.0 table.check AB
Appending to table file table.check with DATE: 2023-06-15
pair_write		2 2 1000 r 0.008 5.0 table.check BB
Appending to table file table.check with DATE: 2023-06-15

neighbor 		0.3 bin
neigh_modify		every 20 delay 0 check no

# ------------------------- Ensemble --------------------------------------

fix 1			all npt temp ${temp} ${temp} 0.5 iso ${press} ${press} 5
fix 1			all npt temp 0.57 ${temp} 0.5 iso ${press} ${press} 5
fix 1			all npt temp 0.57 0.57 0.5 iso ${press} ${press} 5
fix 1			all npt temp 0.57 0.57 0.5 iso 0.13 ${press} 5
fix 1			all npt temp 0.57 0.57 0.5 iso 0.13 0.13 5

# ---------------------- Função de Distribuição Radial -----------------------

#compute RDF 		all rdf 2000 1 1 1 2 2 2
#fix 2 			all ave/time 1 2000 2000 c_RDF[*] file rdf.data mode vector

# ------------------------- Execução ---------------------------

timestep 		0.005
thermo_style		custom step temp pe ke etotal press vol atoms
thermo			2000
run			3000000
Per MPI rank memory allocation (min/avg/max) = 2.670 | 2.670 | 2.670 Mbytes
Step Temp PotEng KinEng TotEng Press Volume Atoms 
       0         0.57  -0.99052333     0.854145  -0.13637833   0.12607789    9993.9483     1000 
    2000   0.54509277    -1.760568   0.81682152   -0.9437465   0.13613561    11428.173     1000 
    4000   0.55301086     -1.73822   0.82868678  -0.90953318    0.1277113    11501.815     1000 
    6000   0.57266274   -1.7329045   0.85813512  -0.87476941   0.13750049     11388.13     1000 
    8000    0.5742935   -1.7165536   0.86057881  -0.85597482   0.13680702    11442.656     1000 
   10000    0.5569352   -1.7510191    0.8345674  -0.91645169   0.13158992    11568.777     1000 
   12000   0.58613079   -1.7590962   0.87831699   -0.8807792   0.12662212    11567.383     1000 
   14000    0.5748035   -1.6606806   0.86134304  -0.79933751    0.1281857     11450.39     1000 
   16000   0.55484936   -1.7063047   0.83144176  -0.87486293   0.12910393    11483.059     1000 
   18000    0.5726282    -1.709587   0.85808335  -0.85150362   0.12110608    11620.094     1000 
   20000   0.56994876   -1.7548831   0.85406822  -0.90081491   0.12148138    11444.993     1000 
   22000   0.56134186   -1.7047561   0.84117078  -0.86358535   0.13020808    11563.058     1000 
   24000   0.56908567   -1.7092138   0.85277488  -0.85643891    0.1289918    11322.352     1000 
   26000   0.56942611   -1.7206944   0.85328503  -0.86740936   0.12955298    11537.384     1000 
   28000   0.59302077   -1.7380893   0.88864162  -0.84944764   0.14883104    11288.383     1000 
   30000   0.55461062   -1.7424999   0.83108401  -0.91141589   0.13302151    11343.565     1000 
   32000   0.55801862   -1.7292116   0.83619091  -0.89302065   0.12598422    11482.243     1000 
   34000   0.57287622   -1.7473965   0.85845502   -0.8889415   0.14418396    11470.538     1000 
   36000   0.59916058   -1.7370647   0.89784213  -0.83922252   0.13402397    11549.736     1000 
   38000   0.57810522   -1.7326674   0.86629067  -0.86637677   0.15273685    11231.509     1000 
   40000    0.5748628   -1.7276944    0.8614319  -0.86626245   0.13028545    11578.063     1000 
   42000   0.56015006   -1.6597946   0.83938487  -0.82040968   0.12709801     11467.55     1000 
   44000   0.56227103   -1.7311498   0.84256314  -0.88858664   0.12477344    11675.294     1000 
   46000   0.54627818   -1.6981273   0.81859786  -0.87952944   0.13449953    11225.549     1000 
   48000   0.58821798   -1.6964044   0.88144464  -0.81495975   0.12563989    11522.714     1000 
   50000   0.56297081   -1.7429861   0.84361176  -0.89937438   0.12364202    11477.347     1000 
   52000    0.5926168   -1.7057031   0.88803628  -0.81766685   0.12769109    11486.263     1000 
   54000   0.55164719   -1.6830759   0.82664331  -0.85643262   0.12944625    11380.813     1000 
   56000   0.57160104   -1.7000173   0.85654416  -0.84347311   0.13984904    11229.932     1000 
   58000   0.56749127   -1.7363701   0.85038566  -0.88598442   0.13956858    11411.663     1000 
   60000   0.55740565   -1.7071016   0.83527237  -0.87182921    0.1384893    11396.896     1000 
   62000   0.58157615   -1.7421476   0.87149186  -0.87065578   0.14428386    11365.362     1000 
   64000   0.57120677   -1.6820364   0.85595335  -0.82608306   0.13210401    11244.136     1000 
   66000   0.56203207   -1.6979892   0.84220506  -0.85578414   0.12442953    11418.932     1000 
   68000   0.57715371   -1.7870642   0.86486483  -0.92219937   0.12740765      11563.3     1000 
   70000   0.55954467   -1.7622119   0.83847769  -0.92373423   0.13476483    11409.665     1000 
   72000   0.55933134   -1.6891655   0.83815801  -0.85100745   0.14592305    11208.306     1000 
   74000   0.57786545   -1.7158723   0.86593138  -0.84994087   0.13078453     11502.74     1000 
   76000   0.57238645    -1.741958   0.85772109  -0.88423689   0.12065208     11491.99     1000 
   78000   0.56288582   -1.7383998    0.8434844  -0.89491535   0.12979573    11462.282     1000 
   80000     0.594502   -1.7046314   0.89086124  -0.81377013    0.1394282    11307.467     1000 
   82000   0.60609546   -1.7815093   0.90823405  -0.87327525   0.13454195    11525.372     1000 
   84000     0.571516   -1.6423596   0.85641673  -0.78594284   0.12844543    11476.609     1000 
   86000   0.56456051   -1.7307776   0.84599392  -0.88478373   0.12441447    11519.315     1000 
   88000    0.5735539   -1.7533134   0.85947052  -0.89384291   0.12808489    11472.883     1000 
   90000   0.56952677   -1.7711225   0.85343587  -0.91768663   0.12823762    11480.815     1000 
   92000   0.58609059   -1.7249952   0.87825675  -0.84673848   0.13551912    11322.616     1000 
   94000   0.56755538   -1.7717193   0.85048174  -0.92123755   0.12577437    11480.748     1000 
   96000   0.59107609   -1.7523492   0.88572752  -0.86662165   0.13329292    11353.641     1000 
   98000   0.56638601   -1.7129762   0.84872944  -0.86424674   0.13617126    11425.539     1000 
  100000   0.58453523    -1.750227   0.87592605  -0.87430091   0.12670141    11519.539     1000 
  102000   0.56994124   -1.6860623   0.85405694   -0.8320054   0.13731189    11337.155     1000 
  104000   0.55012495   -1.7172791   0.82436224   -0.8929169   0.11606857    11466.388     1000 
  106000   0.56003935   -1.7606976   0.83921897  -0.92147866   0.12040846     11637.45     1000 
  108000   0.55425465   -1.7371598   0.83055059  -0.90660924   0.12991235    11442.397     1000 
  110000   0.54267073   -1.6952188   0.81319209  -0.88202674   0.13067085    11329.148     1000 
  112000   0.55126639   -1.7965076   0.82607268  -0.97043495     0.121826    11608.547     1000 
  114000   0.53964653   -1.6988074   0.80866033  -0.89014704   0.13181496     11335.26     1000 
  116000   0.55136886   -1.6988018   0.82622623  -0.87257553   0.12002317    11430.997     1000 
  118000   0.56934235    -1.738595   0.85315951  -0.88543547   0.13575131    11396.563     1000 
  120000   0.56780391   -1.7718955   0.85085416  -0.92104133   0.13051138     11472.94     1000 
  122000   0.57196421   -1.7267838   0.85708837  -0.86969544   0.12291946    11647.749     1000 
  124000   0.56754034   -1.7589939    0.8504592  -0.90853472   0.12138746    11453.735     1000 
  126000   0.56141884   -1.7402495   0.84128613   -0.8989634   0.12561166    11530.923     1000 
  128000   0.58276913   -1.7455569   0.87327954  -0.87227732   0.12592276    11507.599     1000 
  130000   0.54833977    -1.737863   0.82168714  -0.91617586   0.13815363    11310.333     1000 
  132000   0.56681092   -1.7234104   0.84936616  -0.87404428   0.13649126    11332.551     1000 
  134000   0.58411446   -1.7163775   0.87529551  -0.84108196   0.12897997    11367.965     1000 
  136000   0.58895441   -1.7326909   0.88254818  -0.85014273   0.14406441    11305.397     1000 
  138000   0.58260628   -1.7545328   0.87303552  -0.88149728   0.13455471    11318.644     1000 
  140000   0.60976381   -1.7171722   0.91373107  -0.80344115   0.13826957    11404.347     1000 
  142000   0.56041502   -1.6855386   0.83978191   -0.8457567   0.12521243    11555.579     1000 
  144000   0.54357649   -1.7292218   0.81454937  -0.91467244   0.12509389    11556.911     1000 
  146000   0.57371474   -1.7346493   0.85971154  -0.87493772   0.13770008     11261.36     1000 
  148000   0.57762351   -1.7779809   0.86556883  -0.91241207   0.12754895    11604.212     1000 
  150000    0.5732693   -1.7675229   0.85904404  -0.90847888   0.12728735    11588.989     1000 
  152000   0.56292589   -1.7034966   0.84354445  -0.85995217   0.13218163    11533.875     1000 
  154000   0.56281748   -1.7483339   0.84338199  -0.90495187    0.1207465    11526.651     1000 
  156000   0.58394828   -1.6883818    0.8750465   -0.8133353   0.13599065    11348.452     1000 
  158000   0.58686578   -1.7038508   0.87941837  -0.82443243   0.13800737      11452.5     1000 
  160000   0.57521315   -1.7505142    0.8619569  -0.88855733   0.12965711    11414.058     1000 
  162000   0.56905902   -1.7399372   0.85273494  -0.88720226    0.1158111    11547.816     1000 
  164000   0.59136212   -1.7289219   0.88615614  -0.84276581   0.13312249     11455.13     1000 
  166000   0.59531815   -1.6928707   0.89208424  -0.80078647   0.13788641    11605.966     1000 
  168000   0.57933913   -1.7894209   0.86813969  -0.92128124   0.12062287    11727.065     1000 
  170000   0.57212061   -1.7729148   0.85732274  -0.91559202   0.12689993    11446.001     1000 
  172000   0.56567757   -1.7481149   0.84766784  -0.90044707   0.14492757    11383.956     1000 
  174000   0.55661093   -1.7269097   0.83408147  -0.89282826   0.13567602    11361.784     1000 
  176000   0.55102057   -1.7022552   0.82570432  -0.87655086   0.13407893    11474.661     1000 
  178000   0.56883394    -1.762218   0.85239766  -0.90982031   0.12422247    11416.559     1000 
  180000     0.570758   -1.8089734   0.85528087   -0.9536925   0.11885655    11744.518     1000 
  182000   0.55211211   -1.6990366   0.82733999  -0.87169661   0.12967856    11323.574     1000 
  184000   0.54155028   -1.7393398   0.81151309  -0.92782676   0.12085694    11605.643     1000 
  186000   0.57982883   -1.7504701   0.86887351  -0.88159655   0.13771291    11494.548     1000 
  188000   0.58256309   -1.7587336   0.87297078   -0.8857628   0.13278924    11451.599     1000 
  190000   0.59320345   -1.7410371   0.88891537  -0.85212171   0.13066768    11434.449     1000 
  192000   0.56087712   -1.7800782   0.84047436  -0.93960385   0.13050467    11434.259     1000 
  194000    0.5986655   -1.7456991   0.89710025  -0.84859885   0.12919108    11627.284     1000 
  196000   0.53773013   -1.7318451    0.8057886  -0.92605648   0.12862447    11512.603     1000 
  198000   0.58010496   -1.7491758   0.86928729  -0.87988847   0.13373986    11439.668     1000 
  200000   0.58161454   -1.7379023   0.87154939   -0.8663529   0.11851547    11596.704     1000 
  202000   0.58495387   -1.8213751   0.87655338  -0.94482168   0.12332404    11608.283     1000 
  204000   0.55026725   -1.7117352   0.82457547  -0.88715975   0.12254319    11422.169     1000 
  206000    0.5584515   -1.6775808   0.83683957  -0.84074122   0.13501617    11479.161     1000 
  208000    0.5931774   -1.7513229   0.88887634  -0.86244659   0.13565298    11438.784     1000 
  210000   0.56141018   -1.7060311   0.84127315  -0.86475791   0.12476764    11524.152     1000 
  212000   0.58175239   -1.7111193   0.87175596  -0.83936338   0.12737065    11485.528     1000 
  214000   0.58275017   -1.7729502   0.87325112  -0.89969906   0.13721279    11375.085     1000 
  216000   0.54804302   -1.7178695   0.82124246  -0.89662705   0.13919158    11287.236     1000 
  218000   0.56711301   -1.7143683   0.84981884   -0.8645495   0.12276116    11603.676     1000 
  220000    0.5576014   -1.7807525   0.83556569   -0.9451868    0.1201587    11631.928     1000 
  222000   0.57067736   -1.7426268   0.85516003  -0.88746675   0.13237203    11573.552     1000 
  224000   0.54690463   -1.6955561   0.81953659  -0.87601951    0.1225785    11546.685     1000 
  226000   0.56267292   -1.7957634   0.84316537  -0.95259807   0.13047973    11413.252     1000 
  228000   0.56556348   -1.7178992   0.84749688  -0.87040236   0.13328474    11395.498     1000 
  230000   0.59535481   -1.7408064   0.89213919  -0.84866717   0.12184609     11647.93     1000 
  232000   0.57074862   -1.7193234   0.85526681  -0.86405657   0.13899364    11516.328     1000 
  234000   0.57520417   -1.7586793   0.86194345  -0.89673581   0.13007897    11444.785     1000 
  236000    0.5718863   -1.7499735   0.85697162  -0.89300192   0.12223768    11711.616     1000 
  238000   0.60909709   -1.7029764   0.91273199  -0.79024444   0.13835757    11349.209     1000 
  240000   0.58015818    -1.735483   0.86936703  -0.86611594   0.13000579    11425.857     1000 
  242000    0.5811552   -1.7047564   0.87086107  -0.83389537   0.14817614    11293.216     1000 
  244000   0.53841422   -1.7568061   0.80681371  -0.94999235   0.13564515    11333.641     1000 
  246000   0.55375001   -1.7479977   0.82979439  -0.91820327   0.12396138    11479.527     1000 
  248000   0.54874502   -1.7079519   0.82229441  -0.88565753   0.12142538    11353.976     1000 
  250000   0.59766569   -1.7321191   0.89560204  -0.83651709   0.12456398    11439.862     1000 
  252000   0.58514098   -1.7248888   0.87683376    -0.848055   0.12889276    11590.405     1000 
  254000   0.56440206   -1.7450307   0.84575649  -0.89927422   0.13476816    11437.493     1000 
  256000   0.59224366   -1.7613323   0.88747713   -0.8738552   0.14205296    11415.303     1000 
  258000   0.58096009   -1.7602039   0.87056869   -0.8896352   0.12893314    11449.399     1000 
  260000   0.55534469   -1.7108098   0.83218402  -0.87862578   0.14899236    11295.981     1000 
  262000   0.57909398   -1.6901559   0.86777233  -0.82238353   0.13673991     11285.64     1000 
  264000    0.5978268   -1.7129131   0.89584346  -0.81706962   0.12051496        11567     1000 
  266000   0.60759736   -1.7398686   0.91048465  -0.82938393    0.1262704    11503.299     1000 
  268000   0.57814162    -1.737431   0.86634522  -0.87108579   0.14637697    11397.066     1000 
  270000   0.53666788   -1.7681836   0.80419681   -0.9639868   0.12376643     11524.66     1000 
  272000   0.57877925   -1.7101533    0.8673007  -0.84285259   0.12723705     11456.67     1000 
  274000   0.57024637   -1.7017593   0.85451418  -0.84724509   0.12008001    11494.813     1000 
  276000   0.54835397   -1.7343825   0.82170843  -0.91267411   0.11775544    11536.914     1000 
  278000   0.57292506   -1.7249107   0.85852821   -0.8663825   0.12657565    11554.573     1000 
  280000   0.59225388   -1.7706989   0.88749243  -0.88320642   0.12002575    11620.452     1000 
  282000   0.54264009   -1.7628157   0.81314617   -0.9496695   0.13318556    11444.594     1000 
  284000   0.53678431   -1.7521944   0.80437128  -0.94782308    0.1221617     11679.25     1000 
  286000   0.55631783   -1.7050419   0.83364226   -0.8713996   0.13379505    11379.157     1000 
  288000   0.57003966   -1.7184873   0.85420443  -0.86428282   0.13450273    11557.807     1000 
  290000   0.57753711   -1.7795065   0.86543935  -0.91406718   0.11634924    11592.765     1000 
  292000   0.56713538   -1.7405924   0.84985237  -0.89073999   0.12368915    11527.594     1000 
  294000   0.53742516   -1.7724425    0.8053316  -0.96711087    0.1245544    11463.783     1000 
  296000   0.58114898   -1.7526555   0.87085174  -0.88180374   0.13766057    11490.052     1000 
  298000   0.57432142    -1.760518   0.86062065  -0.89989732   0.12437329    11580.563     1000 
  300000   0.58080652   -1.7526078   0.87033857  -0.88226925   0.12675706    11599.777     1000 
  302000   0.54823503   -1.7088385   0.82153019   -0.8873083   0.12735023    11564.142     1000 
  304000   0.57954212   -1.6957544   0.86844386  -0.82731056   0.13832829    11285.727     1000 
  306000   0.58738697   -1.7204462   0.88019937  -0.84024682   0.11649592     11623.52     1000 
  308000   0.57192979   -1.7475735    0.8570368  -0.89053671   0.13048584    11446.063     1000 
  310000   0.55227055   -1.7082759   0.82757742  -0.88069848    0.1229578    11485.989     1000 
  312000   0.58221277   -1.7615667   0.87244583  -0.88912084    0.1345529    11376.679     1000 
  314000   0.57013358   -1.7818261   0.85434517  -0.92748096   0.13483993    11534.779     1000 
  316000   0.56217295   -1.7196779   0.84241616   -0.8772617   0.13253536    11335.493     1000 
  318000   0.56829704   -1.7033263   0.85159311  -0.85173319   0.13290195    11450.267     1000 
  320000   0.55867322   -1.7499845   0.83717183  -0.91281264   0.12895971     11321.58     1000 
  322000   0.55903483   -1.7343704    0.8377137   -0.8966567   0.12259058     11490.93     1000 
  324000    0.5524124   -1.7567773   0.82778999  -0.92898733   0.11472987    11598.801     1000 
  326000    0.5648428   -1.6986345   0.84641694  -0.85221756   0.14678792     11375.65     1000 
  328000   0.57718307   -1.7461403   0.86490883  -0.88123149   0.13517847     11549.38     1000 
  330000   0.57862233   -1.7091883   0.86706556   -0.8421227   0.13682038    11191.772     1000 
  332000   0.57079926   -1.7101284   0.85534269   -0.8547857   0.12714154    11389.122     1000 
  334000   0.59026726   -1.7600425   0.88451548  -0.87552702   0.12788514    11525.457     1000 
  336000   0.59838405   -1.7516445    0.8966785  -0.85496598   0.13435617    11544.471     1000 
  338000   0.56157008   -1.7049884   0.84151276  -0.86347566   0.13783975    11443.088     1000 
  340000   0.55743212   -1.6971976   0.83531204  -0.86188555   0.12704862     11431.24     1000 
  342000   0.55604348    -1.770643   0.83323116  -0.93741181     0.118228    11656.442     1000 
  344000   0.56825567   -1.7501394   0.85153113  -0.89860823   0.13342287    11527.501     1000 
  346000   0.54871417   -1.6831725   0.82224819  -0.86092432   0.12695632    11529.506     1000 
  348000   0.56838541    -1.660947   0.85172554  -0.80922143   0.12994158    11457.094     1000 
  350000   0.57931969   -1.7343349   0.86811055  -0.86622438   0.13369963    11504.716     1000 
  352000   0.59136785   -1.7433519   0.88616473  -0.85718718    0.1247055    11635.402     1000 
  354000   0.56398178   -1.7601901    0.8451267  -0.91506341   0.11924816    11554.401     1000 
  356000   0.58115484   -1.7839031   0.87086052  -0.91304262   0.12730507    11516.059     1000 
  358000   0.59784718   -1.7263098     0.895874  -0.83043578   0.11826539    11725.031     1000 
  360000   0.54685672   -1.7240836   0.81946479  -0.90461879   0.12583276    11407.055     1000 
  362000   0.57128417   -1.7205386   0.85606934  -0.86446931   0.12772469     11567.97     1000 
  364000   0.54922507   -1.7146263   0.82301377  -0.89161256   0.13935978    11257.128     1000 
  366000   0.55312713    -1.753908     0.828861  -0.92504704   0.12109351    11661.625     1000 
  368000   0.58250751   -1.7789436    0.8728875  -0.90605607   0.12995996    11558.839     1000 
  370000    0.5623109   -1.7141384   0.84262289  -0.87151551   0.12623414    11319.731     1000 
  372000   0.55484828   -1.7333746   0.83144015  -0.90193446   0.12366632    11590.521     1000 
  374000   0.56146426   -1.7127876   0.84135419  -0.87143345   0.12441318    11583.164     1000 
  376000   0.55453711   -1.7489125   0.83097386  -0.91793859   0.12924746    11541.537     1000 
  378000   0.54840426   -1.7238586   0.82178379  -0.90207479   0.13910572    11387.242     1000 
  380000   0.54795867   -1.7458096   0.82111606   -0.9246935   0.12655825    11446.445     1000 
  382000   0.58384552   -1.7749381   0.87489251  -0.90004559   0.13224791    11453.868     1000 
  384000   0.57873067    -1.758501   0.86722791  -0.89127306   0.13722706    11254.727     1000 
  386000   0.57543386    -1.721421   0.86228763  -0.85913336   0.13396676    11407.445     1000 
  388000   0.59190408   -1.7165771   0.88696826  -0.82960882   0.13747848    11287.923     1000 
  390000   0.56693596   -1.6867285   0.84955353  -0.83717501   0.13118825    11404.583     1000 
  392000   0.58858687   -1.6527042   0.88199743  -0.77070676   0.12129372    11540.221     1000 
  394000   0.59228525   -1.7084116   0.88753945  -0.82087214    0.1337719    11411.248     1000 
  396000    0.5798867   -1.7397251   0.86896022   -0.8707649   0.13082076    11465.106     1000 
  398000   0.58715779   -1.6862327   0.87985595  -0.80637672   0.13873412    11383.572     1000 
  400000    0.5621684   -1.7205696   0.84240935  -0.87816023    0.1246775    11456.229     1000 
  402000   0.58077127   -1.7497501   0.87028575  -0.87946434   0.13598103    11510.197     1000 
  404000   0.57369138   -1.7378308   0.85967654   -0.8781543   0.13003299    11489.906     1000 
  406000   0.56480529   -1.8046903   0.84636073  -0.95832954   0.14052212    11400.609     1000 
  408000   0.59968037   -1.7572279   0.89862104  -0.85860685   0.14215481     11313.39     1000 
  410000   0.57057891   -1.7381697   0.85501249  -0.88315724   0.13846019    11187.946     1000 
  412000   0.57322943   -1.7023889   0.85898429  -0.84340462   0.14538228    11430.205     1000 
  414000   0.56742074   -1.7448728   0.85027997  -0.89459286   0.13262725    11485.926     1000 
  416000   0.58851509   -1.7435302   0.88188986  -0.86164037   0.11713613    11551.924     1000 
  418000   0.57651029   -1.7436233   0.86390066  -0.87972262   0.12662123    11514.012     1000 
  420000   0.56540163   -1.7230187   0.84725434   -0.8757644   0.12749767    11413.073     1000 
  422000   0.56373155   -1.7459998   0.84475172  -0.90124804   0.13060362    11397.983     1000 
  424000   0.56856344   -1.7766629   0.85199231  -0.92467064   0.12452587    11497.693     1000 
  426000   0.57834635   -1.7350983     0.866652  -0.86844629   0.11545016     11694.53     1000 
  428000   0.56729474   -1.6666411   0.85009118  -0.81654988   0.14413618    11242.735     1000 
  430000   0.56619036   -1.7353214   0.84843626   -0.8868851   0.13964101    11327.153     1000 
  432000   0.58856598   -1.7248468   0.88196613  -0.84288072   0.13776999    11371.759     1000 
  434000   0.57520072    -1.662313   0.86193828   -0.8003747   0.12441151    11487.459     1000 
  436000   0.57566766   -1.7571475   0.86263799  -0.89450954   0.12803674    11373.513     1000 
  438000   0.55726757   -1.6766121   0.83506546  -0.84154666   0.12765391    11429.903     1000 
  440000   0.56281613   -1.7377255   0.84337997  -0.89434549   0.13106743    11492.048     1000 
  442000   0.57013538   -1.7029631   0.85434786  -0.84861526   0.13185164     11523.63     1000 
  444000   0.57474039    -1.759689   0.86124847  -0.89844048   0.12322773    11519.102     1000 
  446000   0.57684226   -1.7502159   0.86439812  -0.88581774   0.13960657    11556.458     1000 
  448000   0.56098154   -1.7677035   0.84063083   -0.9270727   0.12377792    11519.425     1000 
  450000   0.57012424   -1.7752493   0.85433118  -0.92091809   0.13763294    11544.329     1000 
  452000   0.59796615   -1.7501703   0.89605227  -0.85411805   0.12828344    11484.575     1000 
  454000   0.56902848   -1.7220399   0.85268917  -0.86935073    0.1442119    11215.741     1000 
  456000   0.60943017   -1.7195824   0.91323111  -0.80635125   0.14008822    11373.096     1000 
  458000   0.55969782   -1.7403546   0.83870718   -0.9016474   0.11833889    11577.735     1000 
  460000   0.59557856   -1.7022741   0.89247448  -0.80979961   0.12422239    11517.222     1000 
  462000   0.58532424    -1.735904   0.87710837  -0.85879564   0.12767858    11451.445     1000 
  464000   0.59648877   -1.7282951   0.89383842  -0.83445671   0.13772352    11438.904     1000 
  466000   0.55233748   -1.7167509   0.82767771  -0.88907321   0.12214304    11542.751     1000 
  468000   0.58196305   -1.7651665   0.87207163  -0.89309485   0.12517734    11463.132     1000 
  470000   0.57980658   -1.7360807   0.86884016  -0.86724058    0.1363673    11398.489     1000 
  472000   0.56993639   -1.7237052   0.85404967  -0.86965548   0.12686361    11599.089     1000 
  474000   0.57383672   -1.7574159   0.85989433  -0.89752159   0.13567225    11458.234     1000 
  476000   0.55021603   -1.7326862   0.82449872  -0.90818748    0.1317495    11455.996     1000 
  478000   0.56746752   -1.7199659   0.85035008  -0.86961582   0.12597061    11602.479     1000 
  480000   0.55764943   -1.7158406   0.83563766  -0.88020295   0.12831069     11443.61     1000 
  482000   0.57118114   -1.7531001   0.85591494  -0.89718517   0.12654015    11539.902     1000 
  484000    0.5566239   -1.7054258   0.83410091  -0.87132491   0.12922044    11331.057     1000 
  486000   0.56505923   -1.7211956   0.84674126  -0.87445432   0.12643583    11447.291     1000 
  488000    0.5456481   -1.7328106   0.81765368  -0.91515688   0.12840214    11439.876     1000 
  490000   0.57480988   -1.7305249   0.86135261  -0.86917231    0.1270701    11357.808     1000 
  492000   0.54284686   -1.7239067   0.81345602  -0.91045068   0.12861606    11405.624     1000 
  494000   0.58234363   -1.7429349   0.87264192  -0.87029302   0.13182753    11498.274     1000 
  496000   0.56764202   -1.7360375   0.85061157  -0.88542596   0.12249819    11574.746     1000 
  498000   0.56253964   -1.7323375   0.84296565  -0.88937183   0.13566931    11452.164     1000 
  500000   0.57190415   -1.7212848   0.85699837  -0.86428644   0.13021058    11439.294     1000 
  502000   0.54513885   -1.7096802   0.81689056   -0.8927896   0.12543077    11623.899     1000 
  504000   0.57785333   -1.7529939   0.86591322  -0.88708071   0.12870426     11528.23     1000 
  506000   0.57457892   -1.7738356   0.86100651  -0.91282905   0.12536586    11605.591     1000 
  508000    0.5841095    -1.740804   0.87528809  -0.86551593    0.1373842    11339.286     1000 
  510000   0.56914052   -1.7040434   0.85285708  -0.85118634   0.13349142    11470.723     1000 
  512000    0.5649774    -1.739502   0.84661863  -0.89288336   0.12101932     11708.72     1000 
  514000   0.54614262   -1.7492862   0.81839472  -0.93089151    0.1211994    11430.836     1000 
  516000   0.56958224   -1.7011064   0.85351898  -0.84758746   0.14353188    11295.305     1000 
  518000    0.5925293    -1.701206   0.88790516  -0.81330088   0.13388376    11291.442     1000 
  520000   0.59926656   -1.6865151   0.89800094  -0.78851417   0.13407955    11394.022     1000 
  522000   0.59053128   -1.7609794   0.88491112  -0.87606825   0.12295769    11588.542     1000 
  524000   0.56578949   -1.7600982   0.84783554  -0.91226266    0.1334319    11464.546     1000 
  526000   0.58245194   -1.7926599   0.87280423   -0.9198557   0.12128768    11585.963     1000 
  528000   0.58436145   -1.7251244   0.87566563  -0.84945874   0.13549922    11646.659     1000 
  530000   0.56834222   -1.7069258   0.85166081    -0.855265   0.12820224    11478.575     1000 
  532000   0.55703537    -1.781448    0.8347175  -0.94673054    0.1222169    11599.536     1000 
  534000   0.57854933   -1.7502246   0.86695617  -0.88326843   0.13765698    11509.044     1000 
  536000   0.59812186   -1.7056673    0.8962856  -0.80938167   0.13472719    11477.035     1000 
  538000   0.55513744    -1.759249   0.83187345  -0.92737556   0.13491031    11530.038     1000 
  540000   0.57072728    -1.704046   0.85523483  -0.84881119   0.11954145    11555.844     1000 
  542000   0.55929342   -1.7513139   0.83810119  -0.91321267   0.12319533    11483.707     1000 
  544000   0.56713473   -1.7777206   0.84985139  -0.92786919   0.11175753    11644.555     1000 
  546000   0.57234572   -1.7439151   0.85766006  -0.88625507   0.13137459    11562.274     1000 
  548000   0.56087773   -1.7206114   0.84047528  -0.88013613   0.12959627    11372.408     1000 
  550000   0.53888088   -1.7828333   0.80751299   -0.9753203    0.1353697    11474.076     1000 
  552000   0.55375337   -1.7519106   0.82979943  -0.92211117   0.12064255    11618.657     1000 
  554000    0.5562685   -1.7106307   0.83356835  -0.87706232   0.13029424    11485.665     1000 
  556000   0.57047321    -1.694304    0.8548541  -0.83944993   0.13229443    11387.801     1000 
  558000   0.59979832   -1.7486105   0.89879778  -0.84981276   0.14801578    11372.248     1000 
  560000   0.59218233   -1.7028952   0.88738523  -0.81550996   0.12655028    11373.721     1000 
  562000   0.56690924   -1.7547135    0.8495135  -0.90519999   0.12306876    11554.278     1000 
  564000   0.57874922   -1.7170743    0.8672557  -0.84981861   0.12820413    11482.882     1000 
  566000   0.59595519     -1.73063   0.89303885  -0.83759112    0.1324121    11496.885     1000 
  568000   0.60353664   -1.7557042   0.90439966  -0.85130454   0.12905251    11442.295     1000 
  570000    0.5437312   -1.7507052   0.81478121  -0.93592398   0.12166937    11461.172     1000 
  572000   0.56856066   -1.6927877   0.85198815   -0.8407996   0.12991087    11357.137     1000 
  574000   0.55713095   -1.7528579   0.83486073  -0.91799717   0.11983297    11575.997     1000 
  576000   0.57101992   -1.7225615   0.85567335  -0.86688817     0.131933    11344.652     1000 
  578000    0.5603728   -1.7550004   0.83971864  -0.91528172   0.13682208    11450.488     1000 
  580000   0.57978794   -1.7211175   0.86881223  -0.85230532   0.12231036     11494.95     1000 
  582000   0.58326229   -1.7860779   0.87401855  -0.91205938   0.13747093    11308.522     1000 
  584000   0.61016454   -1.6747082   0.91433157   -0.7603766    0.1441638    11339.341     1000 
  586000    0.5721413    -1.741821   0.85735374   -0.8844673   0.12447266    11506.094     1000 
  588000   0.57818645   -1.7432796   0.86641239  -0.87686716   0.12408006    11582.322     1000 
  590000    0.5466323   -1.7573528    0.8191285  -0.93822433   0.11952981    11578.038     1000 
  592000   0.55335014   -1.7061466   0.82919518  -0.87695144   0.13464875    11544.081     1000 
  594000   0.56004604   -1.7203672   0.83922898  -0.88113817   0.12311873    11506.949     1000 
  596000   0.58540949   -1.7592417   0.87723613   -0.8820056   0.12255054    11558.951     1000 
  598000    0.5759162   -1.7787756   0.86301043  -0.91576515   0.12492779    11598.425     1000 
  600000   0.57090142   -1.7216848   0.85549577  -0.86618907   0.12364944    11433.935     1000 
  602000   0.59382305   -1.7463637   0.88984384  -0.85651991   0.13270768    11392.922     1000 
  604000   0.56943781   -1.7522652   0.85330255  -0.89896264   0.12655366    11480.974     1000 
  606000    0.5852975   -1.7245843    0.8770683  -0.84751605   0.11888069    11669.373     1000 
  608000   0.57146924   -1.7327142   0.85634665  -0.87636756   0.13485356    11513.757     1000 
  610000   0.56427056    -1.742689   0.84555944  -0.89712958   0.13921937    11327.921     1000 
  612000   0.57972783   -1.7672672   0.86872215  -0.89854507   0.12695252    11351.688     1000 
  614000   0.56520304   -1.7591439   0.84695676  -0.91218719    0.1230159     11410.49     1000 
  616000   0.55882366   -1.7521161   0.83739726  -0.91471885   0.13584918    11478.872     1000 
  618000   0.60378194   -1.6891582   0.90476724  -0.78439092   0.14264785    11482.732     1000 
  620000   0.59219944   -1.6604174   0.88741086  -0.77300654      0.12661    11276.813     1000 
  622000   0.55649289   -1.7045395   0.83390459  -0.87063496   0.12535545    11507.856     1000 
  624000   0.56651176   -1.7225913   0.84891788  -0.87367344    0.1208316    11511.965     1000 
  626000   0.58037688    -1.792386   0.86969476  -0.92269122   0.13373565    11627.408     1000 
  628000   0.55539128   -1.7374385   0.83225384  -0.90518466   0.13574061    11368.609     1000 
  630000   0.54865431   -1.7755164   0.82215848  -0.95335788    0.1273808    11456.063     1000 
  632000   0.56029667    -1.697578   0.83960456  -0.85797343   0.13103595    11491.583     1000 
  634000   0.55252046   -1.7315522    0.8279519   -0.9036003   0.13676402     11349.61     1000 
  636000   0.58135583   -1.7475899   0.87116172  -0.87642815   0.13743965    11433.673     1000 
  638000   0.56142951   -1.7021721   0.84130213     -0.86087   0.14424243    11320.186     1000 
  640000   0.58147239    -1.711246   0.87133637  -0.83990961   0.12531375    11606.122     1000 
  642000   0.57051445    -1.760111    0.8549159  -0.90519514   0.13563039    11430.399     1000 
  644000   0.57156151   -1.7518917   0.85648492  -0.89540675   0.13702947    11598.162     1000 
  646000   0.56353973   -1.7397605   0.84446429  -0.89529623    0.1205577    11479.863     1000 
  648000   0.56116584   -1.7374355   0.84090702  -0.89652848   0.12018444    11405.875     1000 
  650000   0.56530987    -1.747179   0.84711684   -0.9000622   0.12689439    11543.162     1000 
  652000   0.59728772   -1.6951044   0.89503565  -0.80006876   0.14330934    11266.734     1000 
  654000   0.55614621   -1.6915139   0.83338509   -0.8581288   0.13074768    11397.269     1000 
  656000   0.57820352   -1.7299842   0.86643798  -0.86354617   0.13747559    11146.326     1000 
  658000   0.55849735   -1.7593646   0.83690828  -0.92245637   0.11734906    11524.068     1000 
  660000   0.56660851   -1.7209614   0.84906286  -0.87189857   0.12539629    11587.975     1000 
  662000   0.58047658   -1.7247032   0.86984416  -0.85485901   0.13338251     11388.53     1000 
  664000   0.56447393   -1.7719031   0.84586418  -0.92603894   0.12497025    11525.609     1000 
  666000    0.5505318   -1.7103836    0.8249719  -0.88541175   0.11971632    11649.015     1000 
  668000   0.55648884   -1.7194471   0.83389853  -0.88554856   0.12244137    11380.935     1000 
  670000   0.55442955   -1.7503377   0.83081268  -0.91952503   0.11715899    11671.555     1000 
  672000   0.56477242   -1.7154603   0.84631147  -0.86914882   0.14780726    11341.825     1000 
  674000   0.58405366   -1.7512632    0.8752044  -0.87605877    0.1321316    11503.004     1000 
  676000   0.59253301   -1.7425112   0.88791071  -0.85460053   0.13430374    11506.868     1000 
  678000   0.55235006   -1.7023179   0.82769656  -0.87462132   0.14047023    11338.375     1000 
  680000   0.58514482   -1.7241582   0.87683951  -0.84731874   0.13915411    11282.363     1000 
  682000   0.56922167   -1.7038946   0.85297867  -0.85091598   0.14116236    11338.837     1000 
  684000   0.57107256   -1.7626007   0.85575224  -0.90684848   0.12134966    11703.197     1000 
  686000   0.56720094   -1.7592876   0.84995061    -0.909337   0.13130481    11472.906     1000 
  688000   0.55980041    -1.691755   0.83886092  -0.85289406   0.12874873    11423.287     1000 
  690000   0.57937877    -1.755603   0.86819908  -0.88740389   0.13469505    11477.702     1000 
  692000   0.58866391   -1.6960897   0.88211286  -0.81397684   0.14141642     11299.23     1000 
  694000   0.56877195   -1.7771149   0.85230477   -0.9248101    0.1362664    11382.794     1000 
  696000   0.57357168   -1.7032774   0.85949717  -0.84378019   0.13588278    11474.023     1000 
  698000    0.5567708   -1.7204133   0.83432104  -0.88609227   0.12958633    11573.002     1000 
  700000    0.5726866   -1.7389239   0.85817087  -0.88075305   0.13270892    11537.497     1000 
  702000   0.59291105   -1.7639945   0.88847722  -0.87551731   0.14275175    11503.852     1000 
  704000   0.57692412   -1.7208174    0.8645208  -0.85629663   0.13079307    11446.651     1000 
  706000    0.5541505    -1.746282   0.83039453  -0.91588743   0.13587538    11431.596     1000 
  708000   0.56735305   -1.7041496   0.85017855  -0.85397104    0.1243194    11553.998     1000 
  710000     0.570709   -1.7268689   0.85520744  -0.87166145   0.14655245     11431.72     1000 
  712000   0.57631614   -1.8203111   0.86360974  -0.95670133   0.12070121    11703.015     1000 
  714000   0.57337658   -1.7081981    0.8592048   -0.8489933   0.12747742    11409.531     1000 
  716000   0.56999406   -1.7362977   0.85413609  -0.88216157   0.12906341    11575.724     1000 
  718000   0.57988033   -1.7593768   0.86895067  -0.89042614   0.13569106    11360.847     1000 
  720000    0.5410492   -1.6607556   0.81076222  -0.84999333   0.13095899    11284.255     1000 
  722000   0.58461819   -1.6804471   0.87605036  -0.80439675   0.13439122    11439.829     1000 
  724000   0.55628799   -1.7151778   0.83359755  -0.88158029   0.13979175    11577.318     1000 
  726000   0.55407252   -1.6526087   0.83027768  -0.82233104   0.13674866    11358.802     1000 
  728000   0.58430304   -1.7760464    0.8755781  -0.90046831   0.13311431    11554.686     1000 
  730000   0.57684471    -1.759064   0.86440179  -0.89466217   0.13195504    11296.203     1000 
  732000   0.59258347   -1.7784607   0.88798632   -0.8904744   0.14181772    11489.028     1000 
  734000    0.5868747      -1.7228   0.87943174  -0.84336831   0.13706849    11274.008     1000 
  736000   0.56041237   -1.7005366   0.83977793  -0.86075864   0.12755883    11552.706     1000 
  738000   0.60034061   -1.7358835    0.8996104  -0.83627314   0.12648579    11547.058     1000 
  740000   0.58194738   -1.7533515   0.87204814  -0.88130332   0.12859461    11487.517     1000 
  742000   0.57499778      -1.7594   0.86163417  -0.89776587   0.13448375    11439.102     1000 
  744000   0.58011886   -1.7289098   0.86930811  -0.85960167   0.12005391    11626.772     1000 
  746000   0.56701643   -1.8135386   0.84967412  -0.96386446   0.11326412    11626.591     1000 
  748000   0.57232851   -1.7685609   0.85763427  -0.91092661   0.13036178     11485.23     1000 
  750000   0.56515676   -1.7376014   0.84688741  -0.89071402   0.12419229    11652.072     1000 
  752000   0.56882366   -1.7791098   0.85238225  -0.92672757   0.13269658    11432.278     1000 
  754000   0.54332977   -1.7327745   0.81417966  -0.91859483   0.11655009    11576.979     1000 
  756000   0.55607414   -1.7409626   0.83327709  -0.90768552   0.13522808    11371.592     1000 
  758000   0.57613301   -1.7441919   0.86333531  -0.88085655   0.13962633    11409.545     1000 
  760000   0.57764234   -1.7399231   0.86559705  -0.87432601   0.12761791     11457.75     1000 
  762000    0.5719493   -1.7487123   0.85706603   -0.8916463   0.12848585    11439.764     1000 
  764000   0.54977044   -1.7196942   0.82383101   -0.8958632   0.12673957    11615.361     1000 
  766000   0.56910455    -1.674158   0.85280317  -0.82135482   0.13006684     11329.66     1000 
  768000   0.57015219   -1.7602222   0.85437306  -0.90584916   0.13838773     11355.36     1000 
  770000   0.57020911   -1.7312536   0.85445835  -0.87679522   0.12577065    11643.916     1000 
  772000   0.57191435   -1.7760489   0.85701365  -0.91903522   0.12572256    11593.572     1000 
  774000   0.59432151   -1.7454819   0.89059079  -0.85489107   0.12359891    11516.516     1000 
  776000   0.55798831   -1.7571932   0.83614549   -0.9210477   0.13645526    11486.099     1000 
  778000   0.54185919   -1.7361683     0.811976  -0.92419225   0.14288299    11383.449     1000 
  780000   0.55805718   -1.7415837   0.83624869  -0.90533502   0.13654155    11319.317     1000 
  782000   0.58047353   -1.7215061   0.86983959   -0.8516665    0.1368657    11346.504     1000 
  784000   0.56385205   -1.7169321    0.8449323  -0.87199982   0.14412024    11327.828     1000 
  786000   0.58946537   -1.6950913   0.88331385  -0.81177741    0.1390808    11249.279     1000 
  788000   0.55801129   -1.7038714   0.83617993  -0.86769145   0.13087116    11388.972     1000 
  790000   0.56652502   -1.6784898   0.84893775  -0.82955209   0.14156722     11290.91     1000 
  792000   0.58649982   -1.7710069   0.87886998  -0.89213695   0.12495936    11479.869     1000 
  794000   0.58864626     -1.73225   0.88208642  -0.85016356   0.14405565    11287.018     1000 
  796000   0.56697008   -1.7301794   0.84960466  -0.88057476   0.13322035    11391.769     1000 
  798000   0.55107789   -1.7236931   0.82579022  -0.89790288   0.15010792    11251.501     1000 
  800000   0.57686758   -1.7192981   0.86443607  -0.85486199   0.12774041    11368.933     1000 
  802000   0.56586735   -1.7319593   0.84795222   -0.8840071    0.1244242     11473.24     1000 
  804000   0.57362945   -1.7206104   0.85958373  -0.86102668   0.12909633    11561.955     1000 
  806000   0.61197411   -1.7845351   0.91704321  -0.86749189   0.13602012    11372.145     1000 
  808000   0.57247748   -1.7615679    0.8578575  -0.90371044   0.13478606    11394.768     1000 
  810000   0.57356538   -1.7749267   0.85948772    -0.915439   0.13137295    11439.058     1000 
  812000   0.55313872   -1.7431654   0.82887838    -0.914287   0.12958899    11474.081     1000 
  814000   0.53302909   -1.7345757   0.79874409  -0.93583162   0.12324405    11398.694     1000 
  816000   0.57162923   -1.7012962    0.8565864  -0.84470977    0.1332439    11426.881     1000 
  818000   0.57453153   -1.7138609    0.8609355  -0.85292541    0.1313602    11516.211     1000 
  820000   0.54960675    -1.782429   0.82358571  -0.95884328   0.11399096    11784.878     1000 
  822000   0.59964559   -1.7254033   0.89856892  -0.82683434   0.13228146    11422.576     1000 
  824000   0.54081506   -1.7175613   0.81041137  -0.90714988   0.12025811     11610.38     1000 
  826000   0.58181055   -1.7227889   0.87184311  -0.85094575    0.1319061    11517.446     1000 
  828000   0.57789542   -1.8098063   0.86597629  -0.94383003    0.1248706    11605.419     1000 
  830000   0.55521995   -1.7103816   0.83199709  -0.87838451   0.12747728    11396.066     1000 
  832000   0.55984962   -1.7379938   0.83893466  -0.89905912   0.12329267    11490.811     1000 
  834000   0.56174815   -1.7634926   0.84177961  -0.92171296   0.12757246    11510.691     1000 
  836000   0.58702996   -1.7083973    0.8796644   -0.8287329   0.11380071      11638.8     1000 
  838000   0.57113786    -1.721936   0.85585008  -0.86608587   0.12143784    11473.794     1000 
  840000   0.56860547    -1.669231   0.85205529  -0.81717568   0.13469787    11388.345     1000 
  842000   0.57105327   -1.6874123   0.85572332  -0.83168902   0.13332146    11334.833     1000 
  844000   0.57914314   -1.7746298   0.86784599  -0.90678377   0.12689285    11554.409     1000 
  846000    0.5592762    -1.735549   0.83807539  -0.89747358   0.12724477    11389.897     1000 
  848000   0.56907256   -1.7651803   0.85275523  -0.91242505   0.11900561    11648.871     1000 
  850000   0.54969148   -1.7515452   0.82371268  -0.92783248   0.11845434    11563.254     1000 
  852000    0.5985266    -1.739749    0.8968921  -0.84285693   0.12023996    11717.807     1000 
  854000   0.59177541   -1.7392953   0.88677546  -0.85251981   0.13364571    11492.022     1000 
  856000   0.56238162   -1.7196704   0.84272885  -0.87694152    0.1275497    11412.826     1000 
  858000    0.5395713   -1.7677612   0.80854759  -0.95921361   0.12331107    11527.098     1000 
  860000   0.55794918   -1.7581969   0.83608685  -0.92211009   0.12465153    11440.492     1000 
  862000   0.56066793   -1.7359814   0.84016089  -0.89582056   0.12842544    11472.732     1000 
  864000   0.55822083   -1.7284412   0.83649392  -0.89194726   0.14321567    11299.378     1000 
  866000   0.56158259   -1.7065042   0.84153152  -0.86497268   0.13935393    11343.522     1000 
  868000   0.56837499   -1.7308323   0.85170993  -0.87912236   0.11788419    11631.384     1000 
  870000   0.56696155     -1.73928   0.84959189   -0.8896881   0.11700461    11440.217     1000 
  872000   0.56650628    -1.735465   0.84890966  -0.88655535   0.12261981    11460.617     1000 
  874000   0.55307986   -1.7221114   0.82879017  -0.89332123   0.12185369    11476.521     1000 
  876000   0.56435263   -1.7096007   0.84568242   -0.8639183   0.12558594    11411.345     1000 
  878000   0.57626206    -1.691373    0.8635287  -0.82784426   0.12037806    11619.678     1000 
  880000   0.56682651    -1.764148   0.84938953  -0.91475844   0.12846814    11518.857     1000 
  882000   0.57440918   -1.7385624   0.86075216  -0.87781025   0.13057177    11470.262     1000 
  884000   0.57188349    -1.747601   0.85696741  -0.89063362   0.12946186    11494.828     1000 
  886000   0.56767936    -1.682275   0.85066752  -0.83160744   0.12962951    11473.116     1000 
  888000   0.55893436   -1.7243184   0.83756314  -0.88675523   0.13313121    11468.406     1000 
  890000   0.58665353   -1.7241915   0.87910031   -0.8450912   0.14194372    11337.752     1000 
  892000   0.59666437   -1.7445006   0.89410156  -0.85039909   0.14649751    11222.028     1000 
  894000   0.59108793   -1.7300381   0.88574526  -0.84429286   0.13239549    11572.627     1000 
  896000   0.56754693   -1.7708477   0.85046907  -0.92037865   0.11760922    11649.864     1000 
  898000    0.5661883   -1.7588138   0.84843316  -0.91038062   0.11527299    11429.243     1000 
  900000   0.56245164   -1.7648161   0.84283378  -0.92198232   0.13592429    11530.891     1000 
  902000    0.5815689   -1.7070507   0.87148099  -0.83556976    0.1344743    11317.349     1000 
  904000     0.564219   -1.7240549   0.84548217  -0.87857277   0.13631294    11467.052     1000 
  906000   0.60445055   -1.7436303   0.90576914   -0.8378612   0.13998235     11510.46     1000 
  908000   0.55867865   -1.7825168   0.83717996  -0.94533685   0.12621598     11622.35     1000 
  910000   0.57092696   -1.7084977   0.85553405  -0.85296365   0.12459683    11636.536     1000 
  912000   0.57369247    -1.724292   0.85967817  -0.86461387   0.12542892    11487.682     1000 
  914000   0.53388124   -1.7457387   0.80002105   -0.9457177   0.13242804    11514.063     1000 
  916000   0.55021792   -1.7634334   0.82450155  -0.93893187   0.11701384    11627.454     1000 
  918000   0.57730902   -1.7520349   0.86509757  -0.88693736   0.12940695    11520.579     1000 
  920000   0.59365187   -1.7683658   0.88958732  -0.87877849   0.13935808    11417.522     1000 
  922000   0.58449653   -1.7482585   0.87586805  -0.87239042   0.13862602    11351.597     1000 
  924000   0.57164367   -1.7161725   0.85660805  -0.85956445   0.14060007    11411.938     1000 
  926000   0.59658602   -1.7871701   0.89398415  -0.89318596   0.13067813    11514.081     1000 
  928000   0.57360373   -1.7206685   0.85954519  -0.86112328   0.14175093    11300.921     1000 
  930000   0.57013974   -1.6897427    0.8543544  -0.83538834   0.13081211    11404.806     1000 
  932000   0.54105152   -1.7315256    0.8107657  -0.92075991   0.12280198    11452.442     1000 
  934000   0.56123181   -1.6730124   0.84100586  -0.83200658   0.15154082     11312.65     1000 
  936000   0.58980476   -1.7498999   0.88382243  -0.86607742    0.1275668    11479.771     1000 
  938000   0.56632859   -1.7240817   0.84864339  -0.87543834   0.13218497    11530.359     1000 
  940000   0.61735698   -1.7415983   0.92510944  -0.81648884   0.13359908    11350.205     1000 
  942000   0.58653858   -1.7394834   0.87892806  -0.86055534   0.13441497    11344.587     1000 
  944000   0.57214045   -1.7267618   0.85735247  -0.86940934    0.1325214    11322.451     1000 
  946000   0.57246791   -1.7755297   0.85784316  -0.91768655   0.12295023    11556.768     1000 
  948000   0.56177154   -1.7711381   0.84181465  -0.92932348   0.12784233    11601.297     1000 
  950000   0.55025326   -1.7654708   0.82455451  -0.94091633   0.12095503    11621.616     1000 
  952000   0.57680066   -1.6717299   0.86433578  -0.80739415   0.15093608    11177.472     1000 
  954000   0.58676806   -1.7671394   0.87927194  -0.88786746   0.12323435      11507.6     1000 
  956000   0.57455857   -1.7045384   0.86097601   -0.8435624   0.14163388    11282.128     1000 
  958000   0.55964027   -1.7607537   0.83862094  -0.92213275   0.13790995    11419.934     1000 
  960000   0.57212893   -1.7210443    0.8573352   -0.8637091   0.13000713    11651.341     1000 
  962000   0.57918072   -1.7466916   0.86790231  -0.87878929   0.12498111    11644.444     1000 
  964000   0.55917791   -1.7388057    0.8379281  -0.90087759   0.12810449    11326.587     1000 
  966000   0.57460725   -1.6947392   0.86104897  -0.83369022   0.15324746    11210.331     1000 
  968000   0.55859183   -1.7037848   0.83704986  -0.86673492   0.11061723    11639.772     1000 
  970000   0.55506557   -1.7066187   0.83176575  -0.87485296    0.1249529     11538.09     1000 
  972000   0.56582862   -1.7592606   0.84789419  -0.91136646   0.13261946    11516.504     1000 
  974000   0.55789765   -1.8045445   0.83600963  -0.96853489   0.11859741    11540.639     1000 
  976000   0.60648494   -1.7779512   0.90881769  -0.86913355   0.12674088     11792.88     1000 
  978000   0.56893936   -1.7348067   0.85255563  -0.88225105   0.12048068    11579.027     1000 
  980000   0.56888071   -1.7755532   0.85246774  -0.92308545   0.13389821    11459.019     1000 
  982000   0.56402171   -1.7243253   0.84518653   -0.8791388   0.12724566    11375.827     1000 
  984000   0.55846633   -1.7525838    0.8368618  -0.91572205   0.11723462    11758.513     1000 
  986000   0.57795351   -1.7046675   0.86606334  -0.83860417   0.13297967    11476.737     1000 
  988000   0.55802534   -1.7512218   0.83620097  -0.91502088   0.13036463    11401.264     1000 
  990000    0.5939944   -1.7585484   0.89010061  -0.86844781   0.13461465    11351.003     1000 
  992000   0.59924157   -1.7008192   0.89796349  -0.80285576   0.12958078    11482.015     1000 
  994000   0.56026733   -1.7257484   0.83956059  -0.88618781    0.1306541    11523.004     1000 
  996000   0.60013628   -1.7547845   0.89930421  -0.85548025   0.12791784    11534.809     1000 
  998000   0.53249091    -1.713814   0.79793763  -0.91587641   0.13017328    11476.675     1000 
 1000000   0.56273633   -1.6969054   0.84326038  -0.85364503   0.13673106    11450.473     1000 
 1002000   0.58743394   -1.7597084   0.88026976  -0.87943859   0.13614357    11567.729     1000 
 1004000   0.57760284   -1.7522324   0.86553786  -0.88669451   0.13726527    11504.983     1000 
 1006000   0.56994768   -1.6993575    0.8540666  -0.84529089   0.12922757    11608.114     1000 
 1008000   0.57142119    -1.719393   0.85627465  -0.86311839   0.12296676    11564.155     1000 
 1010000   0.58387618   -1.7727358   0.87493845  -0.89779732   0.11552574    11691.077     1000 
 1012000    0.5846948    -1.694675   0.87616515  -0.81850982   0.13382662    11332.778     1000 
 1014000   0.57803755    -1.753869   0.86618928  -0.88767972   0.11501243    11694.992     1000 
 1016000   0.59022325   -1.7262245   0.88444954  -0.84177491   0.14188397    11395.209     1000 
 1018000   0.59833892   -1.7070916   0.89661087  -0.81048076    0.1251002    11664.268     1000 
 1020000   0.56622139   -1.7059721   0.84848276  -0.85748937    0.1221915    11514.783     1000 
 1022000   0.53824445   -1.7098535   0.80655931  -0.90329418   0.11990797    11654.651     1000 
 1024000    0.5836385   -1.7658476   0.87458229  -0.89126536   0.12678219    11608.137     1000 
 1026000   0.59438965   -1.7138924    0.8906929  -0.82319954   0.14521796     11274.88     1000 
 1028000   0.56566174   -1.7360424   0.84764412  -0.88839831   0.12577935    11583.709     1000 
 1030000   0.58076014    -1.729277   0.87026907  -0.85900796   0.13161076    11497.845     1000 
 1032000   0.57900715   -1.7587795   0.86764221  -0.89113727   0.13820972    11518.653     1000 
 1034000   0.56465438   -1.7822993   0.84613459  -0.93616473   0.11497548     11628.85     1000 
 1036000   0.58571734   -1.7546976   0.87769744  -0.87700015   0.13844909    11471.353     1000 
 1038000   0.55437107   -1.6978836   0.83072505  -0.86715855   0.13453438    11251.141     1000 
 1040000   0.56014804   -1.7554697   0.83938185  -0.91608789   0.13530301    11363.378     1000 
 1042000   0.57521763   -1.7514247   0.86196362  -0.88946112   0.13284229    11463.727     1000 
 1044000   0.56338034   -1.7590813   0.84422545  -0.91485587   0.13660376    11394.246     1000 
 1046000   0.57970897   -1.7308693   0.86869389  -0.86217544   0.13968622    11373.186     1000 
 1048000    0.5613416   -1.7274395   0.84117038   -0.8862691   0.12372675    11610.989     1000 
 1050000   0.59770579   -1.7167448   0.89566213  -0.82108266    0.1331587    11374.621     1000 
 1052000   0.57915625   -1.7399034   0.86786564  -0.87203772   0.14148969    11499.232     1000 
 1054000   0.58158082   -1.7190995   0.87149886  -0.84760062    0.1399587    11419.829     1000 
 1056000   0.55743317   -1.6853674    0.8353136  -0.85005376   0.13906278    11495.914     1000 
 1058000   0.58899553   -1.7362504   0.88260979  -0.85364063   0.13672119    11563.601     1000 
 1060000   0.55597059   -1.6640509   0.83312193  -0.83092894   0.13011086     11281.21     1000 
 1062000    0.5562585   -1.7355234   0.83355337  -0.90196999    0.1292454    11451.933     1000 
 1064000   0.54739217   -1.7730138   0.82026717  -0.95274664   0.11991257    11434.957     1000 
 1066000   0.56042944   -1.6969559   0.83980352  -0.85715236   0.13501537    11261.487     1000 
 1068000    0.5757525   -1.7285707   0.86276512  -0.86580555   0.14052606    11346.026     1000 
 1070000   0.57477496   -1.7288234   0.86130027   -0.8675231   0.12364855    11507.215     1000 
 1072000   0.56687183   -1.7386028   0.84945743  -0.88914534    0.1399625    11453.782     1000 
 1074000   0.59823145   -1.7369008   0.89644982  -0.84045094    0.1247775    11420.216     1000 
 1076000    0.5905536    -1.755311   0.88494456  -0.87036647   0.13085548    11495.195     1000 
 1078000   0.58113053   -1.7596943    0.8708241  -0.88887017   0.13463086    11544.265     1000 
 1080000   0.57084071   -1.7488246   0.85540481  -0.89341981   0.12881028    11591.375     1000 
 1082000    0.5739382   -1.7253705   0.86004639   -0.8653241   0.12453308    11482.183     1000 
 1084000   0.54857994   -1.7479297   0.82204704   -0.9258827   0.12061994    11611.387     1000 
 1086000   0.55151926   -1.7631978   0.82645162  -0.93674619   0.12222733     11668.99     1000 
 1088000   0.56326081   -1.7675527   0.84404632  -0.92350636   0.12317506    11561.296     1000 
 1090000   0.56723296   -1.7657618   0.84999858  -0.91576318   0.12852752    11516.831     1000 
 1092000   0.55990027   -1.7718429   0.83901056  -0.93283238   0.13760055    11285.453     1000 
 1094000   0.55602993   -1.6968804   0.83321086   -0.8636695   0.13464693    11409.626     1000 
 1096000   0.55697214   -1.7191711   0.83462275  -0.88454834   0.12953976    11342.491     1000 
 1098000   0.59280757   -1.7555902   0.88832215  -0.86726808   0.13444965    11392.629     1000 
 1100000   0.56193821   -1.7363594    0.8420644  -0.89429497   0.13127598    11614.526     1000 
 1102000   0.58887622   -1.7872219   0.88243101  -0.90479088   0.13576531     11452.75     1000 
 1104000   0.57354721   -1.7843846    0.8594605  -0.92492412   0.12347853    11522.166     1000 
 1106000   0.56771558   -1.6966305    0.8507218  -0.84590874   0.13138046    11329.911     1000 
 1108000   0.56210474   -1.7412698   0.84231395  -0.89895586   0.13218682     11305.57     1000 
 1110000   0.57058599   -1.7819132   0.85502311  -0.92689006   0.12720961    11492.937     1000 
 1112000   0.53591646   -1.7454195   0.80307081  -0.94234865   0.13032245    11374.788     1000 
 1114000   0.57863716   -1.7440839   0.86708778  -0.87699613   0.12493898    11559.032     1000 
 1116000   0.54979092   -1.7267941   0.82386169  -0.90293244   0.13760733    11225.664     1000 
 1118000   0.56356157   -1.7380854   0.84449701  -0.89358843   0.13208577    11432.081     1000 
 1120000   0.56498282   -1.7845055   0.84662676  -0.93787872   0.12561928    11622.397     1000 
 1122000   0.56955098   -1.7244856   0.85347214   -0.8710135   0.13524392    11414.115     1000 
 1124000   0.55841442   -1.7084328   0.83678401  -0.87164881   0.12090441    11521.503     1000 
 1126000   0.56724754   -1.7537269   0.85002043  -0.90370646   0.13465211    11543.683     1000 
 1128000   0.54819778   -1.6940223   0.82147438  -0.87254791   0.11635793    11553.214     1000 
 1130000   0.56873428   -1.7340058   0.85224832  -0.88175751   0.12344299    11474.818     1000 
 1132000   0.56931206   -1.6892818   0.85311412  -0.83616769    0.1408099    11367.182     1000 
 1134000   0.56185113   -1.7171153   0.84193391  -0.87518139    0.1269684    11458.437     1000 
 1136000   0.61055934   -1.7523821   0.91492317  -0.83745892   0.14611317    11377.715     1000 
 1138000   0.56893468    -1.719677   0.85254862  -0.86712839   0.13512188    11401.823     1000 
 1140000   0.53542138   -1.6873003   0.80232893  -0.88497141    0.1473059    11178.193     1000 
 1142000    0.5941358   -1.7030278    0.8903125   -0.8127153   0.12365977    11454.472     1000 
 1144000   0.57503245   -1.6929285   0.86168613  -0.83124238   0.13790045    11495.013     1000 
 1146000    0.5499497   -1.6771025   0.82409963  -0.85300288   0.12845127    11411.071     1000 
 1148000   0.57870704   -1.7669627    0.8671925  -0.89977023   0.13179093    11409.251     1000 
 1150000   0.59312355   -1.7234717   0.88879565  -0.83467604   0.14042742    11310.929     1000 
 1152000   0.58665256   -1.7191068   0.87909886  -0.84000789   0.12305551    11531.399     1000 
 1154000   0.54678549   -1.7394632   0.81935806  -0.92010513   0.13144555    11440.505     1000 
 1156000    0.5492133   -1.7739908   0.82299613  -0.95099463   0.12770551    11437.182     1000 
 1158000   0.56758149   -1.7411944   0.85052086   -0.8906735   0.12647099    11545.675     1000 
 1160000   0.58578254   -1.7197315   0.87779513  -0.84193635   0.12219815    11524.576     1000 
 1162000   0.58455409   -1.7025598    0.8759543  -0.82660547   0.14089562    11315.964     1000 
 1164000   0.58434121   -1.7786171   0.87563531  -0.90298176   0.14439461    11326.563     1000 
 1166000   0.58702306   -1.6828016   0.87965405  -0.80314756   0.13927562    11490.207     1000 
 1168000   0.57073549   -1.7578008   0.85524713  -0.90255369   0.11809114    11635.746     1000 
 1170000   0.55903663   -1.7216284   0.83771639  -0.88391198   0.13815879    11510.846     1000 
 1172000   0.56307754    -1.731805   0.84377169  -0.88803331    0.1370673     11377.66     1000 
 1174000   0.57043272   -1.7363095   0.85479343  -0.88151605   0.12843029    11475.525     1000 
 1176000    0.5763739   -1.7309356   0.86369629  -0.86723936   0.11373679    11666.679     1000 
 1178000   0.55029168   -1.6946915   0.82461208  -0.87007944   0.11094964    11523.929     1000 
 1180000   0.57437531   -1.7133138   0.86070139  -0.85261239   0.12830219    11500.815     1000 
 1182000   0.55227871   -1.7247305   0.82758965  -0.89714089   0.12929337    11360.106     1000 
 1184000    0.5530131   -1.7511005   0.82869014  -0.92241039   0.13850338    11488.795     1000 
 1186000   0.55640229   -1.7060114   0.83376883  -0.87224253   0.13135796    11337.955     1000 
 1188000   0.56101403   -1.7356577   0.84067953  -0.89497817   0.13011629    11471.988     1000 
 1190000   0.54963448   -1.7028846   0.82362727  -0.87925736   0.12624561    11488.556     1000 
 1192000   0.57867211   -1.7088467   0.86714015  -0.84170658   0.13520309    11312.019     1000 
 1194000   0.57501329   -1.7659111   0.86165742  -0.90425363   0.12008469    11592.676     1000 
 1196000   0.56205064   -1.7087578   0.84223289  -0.86652496   0.13777481    11207.547     1000 
 1198000   0.57395111   -1.7185531   0.86006574  -0.85848737   0.12176021    11547.314     1000 
 1200000   0.59374296   -1.7599127   0.88972383  -0.87018884   0.13458293    11477.039     1000 
 1202000    0.5878327   -1.7600718    0.8808673  -0.87920447   0.12374443    11487.696     1000 
 1204000   0.55664709   -1.7950897   0.83413567  -0.96095404   0.10463261     11837.67     1000 
 1206000   0.57298325    -1.698873   0.85861539  -0.84025757   0.12979458    11450.032     1000 
 1208000   0.53953593   -1.7280473   0.80849459  -0.91955267   0.11857887    11512.426     1000 
 1210000    0.5806292   -1.7118666   0.87007285  -0.84179376   0.12610674    11475.468     1000 
 1212000   0.57607347   -1.7085571   0.86324609  -0.84531098   0.13393414     11295.98     1000 
 1214000   0.55192729   -1.7671092   0.82706304  -0.94004612   0.13335279    11483.303     1000 
 1216000   0.55281713   -1.8016008   0.82839647  -0.97320431   0.12274938     11811.47     1000 
 1218000    0.5434015   -1.7137309   0.81428715  -0.89944372   0.12026421    11397.398     1000 
 1220000   0.53657387   -1.7491763   0.80405594  -0.94512037   0.11691701    11525.066     1000 
 1222000   0.58171295   -1.7265539   0.87169685  -0.85485706   0.12288594    11540.992     1000 
 1224000   0.57651203   -1.7410273   0.86390327    -0.877124   0.14661994    11302.138     1000 
 1226000   0.53083341   -1.7386782   0.79545387  -0.94322433   0.13355765    11447.924     1000 
 1228000   0.57191742    -1.696917   0.85701826  -0.83989876   0.12808919    11509.245     1000 
 1230000   0.57706548   -1.7380809   0.86473262  -0.87334831   0.13289055    11486.057     1000 
 1232000   0.54016766   -1.7718181   0.80944124  -0.96237687   0.13533227    11454.377     1000 
 1234000   0.57920295   -1.7395345   0.86793561  -0.87159887   0.13742291    11416.148     1000 
 1236000   0.57677988   -1.7235252   0.86430465  -0.85922051   0.11079748    11625.327     1000 
 1238000   0.56611264   -1.7106664   0.84831979  -0.86234656   0.14011884    11358.578     1000 
 1240000   0.55749516   -1.7654641    0.8354065  -0.93005759   0.12379614    11459.672     1000 
 1242000   0.53774145   -1.7633723   0.80580557  -0.95756673   0.13121528    11359.066     1000 
 1244000   0.58296378   -1.7355341   0.87357123  -0.86196291   0.14068416    11350.884     1000 
 1246000   0.55864185     -1.75177   0.83712482  -0.91464522   0.11986104    11590.541     1000 
 1248000   0.55224674   -1.7561668   0.82754175  -0.92862505    0.1201744     11561.12     1000 
 1250000   0.56714306   -1.7294445   0.84986388  -0.87958058   0.13039438      11500.2     1000 
 1252000   0.58257363   -1.7318276   0.87298658  -0.85884099   0.12677796    11511.305     1000 
 1254000   0.56875069   -1.6844368   0.85227292   -0.8321639   0.13352485    11266.517     1000 
 1256000   0.58399655   -1.7484951   0.87511883  -0.87337629   0.13652805    11489.985     1000 
 1258000   0.57950683   -1.7760868   0.86839099   -0.9076958   0.12299887    11617.067     1000 
 1260000    0.5497456   -1.7102663   0.82379378  -0.88647248   0.12400628    11375.021     1000 
 1262000   0.57295488   -1.7120523   0.85857288  -0.85347937   0.13229907    11475.232     1000 
 1264000   0.57534349   -1.7216193   0.86215222  -0.85946707   0.13434226    11415.342     1000 
 1266000   0.56411946   -1.7505806   0.84533302  -0.90524761   0.12953958    11407.622     1000 
 1268000   0.56146674   -1.6855116   0.84135791  -0.84415369   0.13308046    11380.453     1000 
 1270000   0.56234315   -1.7161831   0.84267121  -0.87351189   0.11745722    11595.059     1000 
 1272000   0.59327891   -1.7972553   0.88902845  -0.90822687     0.133886    11532.026     1000 
 1274000   0.57520545   -1.7461516   0.86194537  -0.88420624   0.14316132    11392.403     1000 
 1276000   0.58236548   -1.7582646   0.87267468  -0.88558988   0.11903717    11726.928     1000 
 1278000   0.58206833    -1.706849   0.87222939  -0.83461961   0.13791473    11495.524     1000 
 1280000   0.55817538   -1.7279844    0.8364258  -0.89155858    0.1304414    11316.615     1000 
 1282000   0.56608872   -1.6769415   0.84828395  -0.82865753   0.14171817    11404.677     1000 
 1284000   0.56800259   -1.7337503   0.85115189  -0.88259841   0.12480246    11531.292     1000 
 1286000   0.58032809   -1.7430431   0.86962165  -0.87342144   0.11788341    11566.918     1000 
 1288000   0.56015725   -1.7075263   0.83939564  -0.86813062   0.12957947     11474.68     1000 
 1290000   0.58957702   -1.7747226   0.88348117  -0.89124141   0.13157394    11596.678     1000 
 1292000   0.54798462   -1.7453812   0.82115496  -0.92422622   0.12381361    11541.672     1000 
 1294000   0.55192034   -1.7500811   0.82705263   -0.9230285   0.13189186    11435.756     1000 
 1296000    0.6052036   -1.7346072    0.9068976  -0.82770965   0.11807238    11744.045     1000 
 1298000   0.55251699   -1.7839316    0.8279467  -0.95598491   0.11167668    11630.241     1000 
 1300000   0.58045568   -1.7504658   0.86981283  -0.88065295   0.12801263    11481.532     1000 
 1302000   0.57749553   -1.7365834   0.86537705  -0.87120635   0.13654332    11383.658     1000 
 1304000   0.55372199   -1.7281093    0.8297524  -0.89835686   0.13854327    11363.842     1000 
 1306000   0.58993764   -1.7913479   0.88402156  -0.90732632   0.14140494    11437.245     1000 
 1308000   0.56702847   -1.6902689   0.84969216  -0.84057676   0.14288852    11327.404     1000 
 1310000   0.58096775   -1.7492064   0.87058018  -0.87862625   0.12962097    11483.212     1000 
 1312000   0.58916861   -1.7525261   0.88286917  -0.86965689   0.12379636    11569.826     1000 
 1314000   0.56412139   -1.7140025    0.8453359  -0.86866661   0.12473777     11486.44     1000 
 1316000   0.57024429   -1.7963827   0.85451107  -0.94187164    0.1271645    11711.559     1000 
 1318000   0.59047622   -1.7210879   0.88482861  -0.83625927   0.14141876    11357.612     1000 
 1320000   0.58533089   -1.7157102   0.87711834  -0.83859185   0.13226121    11499.139     1000 
 1322000   0.56023799   -1.7384763   0.83951663  -0.89895968   0.13545225    11360.371     1000 
 1324000   0.56923379   -1.7481951   0.85299683   -0.8951983   0.14067803    11346.818     1000 
 1326000    0.5744872   -1.7128577   0.86086907  -0.85198865   0.13614626    11478.743     1000 
 1328000   0.57168064   -1.6964465   0.85666345  -0.83978303   0.13814682     11284.85     1000 
 1330000    0.5890051   -1.7407647   0.88262415  -0.85814058   0.12975944    11325.991     1000 
 1332000   0.59327017    -1.710104   0.88901534  -0.82108868   0.14295833    11335.051     1000 
 1334000   0.58020385   -1.7585922   0.86943546  -0.88915675   0.12626426    11603.296     1000 
 1336000   0.56753898    -1.733787   0.85045715  -0.88332985   0.13346534    11310.283     1000 
 1338000   0.57230614   -1.7579028   0.85760075  -0.90030204   0.12117186    11491.114     1000 
 1340000   0.57040098   -1.7658821   0.85474587  -0.91113621   0.12874963    11518.773     1000 
 1342000   0.57044024   -1.7331775    0.8548047  -0.87837282   0.13181401     11485.59     1000 
 1344000   0.54149681   -1.7250505   0.81143297  -0.91361749   0.12497664     11543.45     1000 
 1346000    0.5727891   -1.7677462   0.85832446  -0.90942174   0.13444189    11441.209     1000 
 1348000   0.58684678   -1.7921094    0.8793899  -0.91271951   0.12242739    11649.896     1000 
 1350000   0.60782335   -1.7183898   0.91082329  -0.80756653   0.12799943    11566.017     1000 
 1352000   0.58932423   -1.7657897   0.88310236  -0.88268729   0.12489306     11565.98     1000 
 1354000   0.56396263   -1.7385496     0.845098  -0.89345162   0.13368763    11347.187     1000 
 1356000   0.55206533   -1.7202492    0.8272699  -0.89297927   0.14569964    11258.238     1000 
 1358000   0.57535623    -1.706295   0.86217131  -0.84412366    0.1341196     11371.27     1000 
 1360000   0.55217367   -1.6911814   0.82743225  -0.86374917   0.14210051    11315.176     1000 
 1362000   0.56042473   -1.7025339   0.83979645  -0.86273743     0.130838    11529.805     1000 
 1364000   0.58298882   -1.7612713   0.87360875  -0.88766255   0.13356356    11438.886     1000 
 1366000   0.56878969   -1.7514567   0.85233135  -0.89912531   0.13056674    11524.644     1000 
 1368000   0.59480905    -1.725255   0.89132137  -0.83393366   0.13131061    11464.636     1000 
 1370000    0.5916667   -1.7573974   0.88661254  -0.87078484   0.14884846    11332.468     1000 
 1372000    0.5697343   -1.7664333   0.85374685  -0.91268645   0.12162288    11502.377     1000 
 1374000   0.55450884   -1.7025019    0.8309315  -0.87157041   0.13043178    11469.153     1000 
 1376000   0.57982549   -1.6917237   0.86886849  -0.82285521   0.13121738    11523.764     1000 
 1378000   0.56885461   -1.7212353   0.85242864  -0.86880664   0.12475847    11359.329     1000 
 1380000   0.56655287   -1.7646283   0.84897947  -0.91564882   0.11703465    11546.866     1000 
 1382000   0.57195485   -1.7799275   0.85707434  -0.92285321   0.11583519    11650.987     1000 
 1384000   0.56904545   -1.7788938   0.85271461  -0.92617919   0.13040124    11506.172     1000 
 1386000   0.56399668   -1.6798085   0.84514902  -0.83465951   0.13865992    11449.123     1000 
 1388000   0.56872124   -1.6856828   0.85222878  -0.83345403   0.14505432    11290.984     1000 
 1390000   0.58699727   -1.7541604   0.87961542  -0.87454503   0.14401921    11423.389     1000 
 1392000   0.56324996   -1.7570541   0.84403006  -0.91302404   0.12582173    11462.365     1000 
 1394000    0.5526648   -1.6739699    0.8281682  -0.84580166   0.11976639    11372.564     1000 
 1396000   0.57450569   -1.7372869   0.86089677  -0.87639017   0.13172767    11420.146     1000 
 1398000   0.58816877   -1.7112729    0.8813709  -0.82990201   0.12615239    11395.036     1000 
 1400000   0.54945533   -1.7365711   0.82335881  -0.91321226   0.14305537    11323.282     1000 
 1402000   0.59032983   -1.7661831   0.88460925  -0.88157386   0.12629836     11532.58     1000 
 1404000   0.55541738   -1.7751716   0.83229294  -0.94287865   0.12848245    11494.602     1000 
 1406000   0.56347898   -1.7123869   0.84437325  -0.86801369   0.12712543    11557.431     1000 
 1408000   0.58563751   -1.7354857   0.87757781  -0.85790786   0.13559993      11461.7     1000 
 1410000   0.57176532   -1.7719756   0.85679033  -0.91518531   0.14167184    11517.808     1000 
 1412000   0.55725094   -1.6966752   0.83504054  -0.86163466   0.12613807    11285.394     1000 
 1414000    0.5954934   -1.7255977   0.89234686  -0.83325086   0.12197051    11572.678     1000 
 1416000   0.57530069   -1.7688093   0.86208808  -0.90672121   0.13578484    11488.875     1000 
 1418000   0.57199125   -1.7432134   0.85712888  -0.88608456   0.12459615    11637.162     1000 
 1420000   0.57628171   -1.7845747   0.86355814  -0.92101655   0.11833259    11569.728     1000 
 1422000   0.58895455   -1.7378278   0.88254839  -0.85527945   0.12754984     11491.62     1000 
 1424000   0.57494155   -1.7859062   0.86154992  -0.92435631   0.11430893    11605.084     1000 
 1426000   0.57610193   -1.7208244   0.86328874  -0.85753571   0.12979618     11461.81     1000 
 1428000   0.54483098   -1.7450116   0.81642922  -0.92858241   0.12175876    11424.902     1000 
 1430000   0.56326394    -1.726598   0.84405101  -0.88254698   0.12186324    11477.667     1000 
 1432000   0.57571016   -1.7275152   0.86270167  -0.86481353   0.14442931    11174.418     1000 
 1434000   0.55959624   -1.7411311   0.83855497  -0.90257615   0.14174411    11336.536     1000 
 1436000   0.55424661    -1.762324   0.83053854  -0.93178547   0.11800863    11590.973     1000 
 1438000   0.57228668   -1.7476749   0.85757159  -0.89010332   0.14081041    11442.379     1000 
 1440000   0.58142996   -1.7191836   0.87127279  -0.84791086   0.13323109    11401.046     1000 
 1442000   0.57072685    -1.682847   0.85523418  -0.82761286   0.13704205    11144.037     1000 
 1444000   0.58300355     -1.72586   0.87363083  -0.85222915   0.12797805    11635.495     1000 
 1446000   0.56247472   -1.6961213   0.84286837  -0.85325288   0.12589948    11478.372     1000 
 1448000   0.59550819   -1.7591308   0.89236902  -0.86676177   0.11515717    11686.482     1000 
 1450000   0.56562639   -1.7087756   0.84759115  -0.86118443   0.12573166    11383.686     1000 
 1452000   0.54890816   -1.7642832   0.82253888  -0.94174428   0.13112842    11538.576     1000 
 1454000   0.54678826   -1.6735656    0.8193622  -0.85420339    0.1381236    11401.284     1000 
 1456000   0.57994455   -1.7716735    0.8690469  -0.90262664   0.13224097    11534.782     1000 
 1458000    0.5289861   -1.7362105   0.79268567  -0.94352482   0.13745192    11359.222     1000 
 1460000   0.58592106   -1.7386765   0.87800271  -0.86067376   0.13798883    11362.169     1000 
 1462000   0.58091905   -1.6605852    0.8705072  -0.79007796   0.12630504    11497.555     1000 
 1464000   0.53900697    -1.754991   0.80770195  -0.94728908    0.1303955     11542.55     1000 
 1466000   0.58589713   -1.7217199   0.87796685  -0.84375308   0.13716798    11397.692     1000 
 1468000   0.57135854    -1.749591   0.85618077  -0.89341023   0.12171795    11543.794     1000 
 1470000   0.55341498   -1.7196613   0.82929235  -0.89036898   0.11043217    11638.071     1000 
 1472000   0.57903525   -1.6924059   0.86768433  -0.82472156   0.14024453    11293.352     1000 
 1474000   0.56230843   -1.7508594   0.84261918   -0.9082402   0.12343517     11526.66     1000 
 1476000   0.58366548   -1.7108204   0.87462272  -0.83619772   0.12883919    11373.902     1000 
 1478000   0.57408671   -1.7464005   0.86026893  -0.88613161    0.1310214    11530.179     1000 
 1480000   0.55818338   -1.7795229   0.83643779  -0.94308512   0.11385835    11653.236     1000 
 1482000    0.5751679   -1.7342564    0.8618891  -0.87236729   0.13781651    11397.913     1000 
 1484000   0.53514025   -1.7364976   0.80190767  -0.93458994   0.12655539    11552.086     1000 
 1486000   0.57547429   -1.7755406   0.86234823  -0.91319235    0.1288884    11466.367     1000 
 1488000   0.55760182   -1.7802646   0.83556633  -0.94469827    0.1129507    11653.931     1000 
 1490000   0.57435215   -1.7392513   0.86066669  -0.87858461   0.13426085    11461.537     1000 
 1492000   0.57608657   -1.7315009   0.86326572  -0.86823523   0.12021418    11601.081     1000 
 1494000   0.59670702   -1.7371471   0.89416546  -0.84298159   0.14073845    11368.573     1000 
 1496000   0.57166038   -1.7475074   0.85663308   -0.8908743   0.13720938    11333.844     1000 
 1498000   0.58577751   -1.7313241    0.8777876  -0.85353647   0.12880017    11618.211     1000 
 1500000   0.56237265   -1.6900145   0.84271541  -0.84729906   0.12820095    11503.055     1000 
 1502000    0.5860494   -1.7404779   0.87819502  -0.86228293   0.14312876    11489.621     1000 
 1504000   0.57116914   -1.7197683   0.85589696  -0.86387134   0.12981203    11535.294     1000 
 1506000    0.5661543   -1.7823041   0.84838222  -0.93392192   0.13263219    11410.892     1000 
 1508000   0.54532376   -1.7477426   0.81716765  -0.93057495   0.12903106     11482.44     1000 
 1510000   0.55621936   -1.7389685   0.83349472  -0.90547378   0.14560419    11302.847     1000 
 1512000   0.54566678   -1.7749056   0.81768167  -0.95722398   0.12457227    11548.583     1000 
 1514000   0.58107482   -1.7128632   0.87074063  -0.84212253   0.12284568    11401.974     1000 
 1516000   0.59159238   -1.7572915   0.88650118  -0.87079031   0.12467869    11573.486     1000 
 1518000    0.5763783     -1.74013   0.86370288  -0.87642707   0.11681921    11538.615     1000 
 1520000   0.57309438   -1.7850432   0.85878193  -0.92626127    0.1307393    11728.041     1000 
 1522000   0.57274155   -1.7312062   0.85825322  -0.87295293   0.12107196    11590.114     1000 
 1524000   0.58429058   -1.6835777   0.87555944  -0.80801824   0.13879189    11340.419     1000 
 1526000   0.56014651   -1.7134546   0.83937954  -0.87407506   0.11676677    11449.207     1000 
 1528000   0.59829002   -1.7120525   0.89653759  -0.81551488   0.13513254    11551.675     1000 
 1530000   0.56310292   -1.7221275   0.84380973  -0.87831775   0.13381288     11500.36     1000 
 1532000   0.57196862   -1.7998822   0.85709498  -0.94278724   0.12978602     11564.61     1000 
 1534000   0.56765933   -1.7411529   0.85063751  -0.89051537   0.13257734    11444.247     1000 
 1536000   0.55476484   -1.6881544   0.83131511   -0.8568393   0.12836129    11389.513     1000 
 1538000   0.60120393    -1.709928   0.90090409  -0.80902395   0.13400285    11518.198     1000 
 1540000   0.55452911   -1.7066399   0.83096188  -0.87567799   0.13013641    11448.653     1000 
 1542000   0.56426194   -1.7138478   0.84554651  -0.86830129   0.13519035    11515.184     1000 
 1544000   0.55372522   -1.7296667   0.82975723   -0.8999095   0.13095352    11432.652     1000 
 1546000   0.57945633   -1.7569023   0.86831531  -0.88858699   0.11090085    11677.404     1000 
 1548000   0.56507784   -1.7432236   0.84676914  -0.89645451   0.11806024    11540.806     1000 
 1550000   0.56039095   -1.7571074   0.83974584  -0.91736161   0.14586511    11429.399     1000 
 1552000   0.58011458   -1.7075941    0.8693017  -0.83829236   0.13500661     11537.77     1000 
 1554000   0.54644602   -1.7330416   0.81884936  -0.91419219   0.13345305    11472.842     1000 
 1556000   0.58380931   -1.7203424   0.87483825  -0.84550416   0.13841889     11403.99     1000 
 1558000   0.57133501   -1.7523529   0.85614552  -0.89620735    0.1346466    11529.374     1000 
 1560000   0.54198127   -1.7516006   0.81215893  -0.93944172    0.1268541    11528.917     1000 
 1562000   0.59624704   -1.7201479    0.8934762  -0.82667169    0.1375674    11427.213     1000 
 1564000   0.55916445   -1.7451634   0.83790793  -0.90725544   0.10885048    11757.065     1000 
 1566000   0.56587592   -1.7380194   0.84796506  -0.89005437   0.12096168    11661.602     1000 
 1568000   0.56173768   -1.6723736   0.84176392  -0.83060968    0.1287469    11321.576     1000 
 1570000   0.55969744    -1.748898   0.83870661  -0.91019142    0.1293521    11484.751     1000 
 1572000   0.56684972   -1.7753759   0.84942431  -0.92595155   0.13062761    11521.443     1000 
 1574000   0.55436487   -1.7440593   0.83071575   -0.9133436    0.1197496    11669.926     1000 
 1576000    0.5920478   -1.6658291   0.88718363  -0.77864542   0.13711287    11398.784     1000 
 1578000   0.56039249    -1.710877   0.83974814  -0.87112885   0.13059357    11413.968     1000 
 1580000   0.57920982   -1.7874991   0.86794592  -0.91955316   0.12211238    11561.836     1000 
 1582000   0.57553102   -1.7200917   0.86243323   -0.8576585   0.13566482     11526.19     1000 
 1584000   0.56091068   -1.7529883   0.84052465  -0.91246366   0.13474619    11508.822     1000 
 1586000   0.55581399   -1.7817238   0.83288727  -0.94883657    0.1316864     11510.05     1000 
 1588000   0.54805958   -1.6214547   0.82126728  -0.80018742   0.12962727    11432.827     1000 
[...]
 2614000   0.57944496   -1.7529679   0.86829828  -0.88466961   0.13354515    11419.628     1000 
 2616000   0.56989491   -1.7433188   0.85398752  -0.88933127   0.13038463    11476.822     1000 
 2618000   0.56264646   -1.7209706   0.84312572  -0.87784488   0.13943075    11355.873     1000 
 2620000   0.56979909   -1.7731411   0.85384393  -0.91929715   0.14330918    11417.881     1000 
 2622000   0.56457066   -1.7336823   0.84600913  -0.88767317   0.13206954    11271.564     1000 
 2624000   0.57000749   -1.7665798   0.85415623  -0.91242353   0.12333308    11567.017     1000 
 2626000   0.54852613   -1.7285959   0.82196641  -0.90662948   0.12807367    11572.033     1000 
 2628000   0.56175416   -1.7172014   0.84178861  -0.87541278   0.13215759    11434.503     1000 
 2630000   0.58504234   -1.7417654   0.87668594  -0.86507945   0.14075879    11479.182     1000 
 2632000   0.56834284   -1.7528586   0.85166174  -0.90119682   0.13074203    11472.677     1000 
 2634000    0.5839473   -1.7157499   0.87504502  -0.84070488   0.12148324    11553.563     1000 
 2636000   0.56715543   -1.7219877   0.84988242  -0.87210532   0.12699082    11604.028     1000 
 2638000   0.54188311    -1.725602   0.81201184  -0.91359019   0.13429942    11392.877     1000 
 2640000   0.58336299   -1.7103915   0.87416944  -0.83622201   0.13936525    11358.164     1000 
 2642000   0.56130208   -1.7257462   0.84111117  -0.88463502   0.13286824    11421.319     1000 
 2644000   0.56880269   -1.7660785   0.85235084   -0.9137277   0.13474356    11458.539     1000 
 2646000   0.54251834   -1.7514633   0.81296373  -0.93849962   0.12582664    11325.576     1000 
 2648000   0.57504923   -1.7864152   0.86171127  -0.92470396   0.11960269    11584.464     1000 
 2650000   0.54902707     -1.73359   0.82271706  -0.91087295   0.12570513    11490.717     1000 
 2652000   0.57438097   -1.7137988   0.86070988  -0.85308892   0.13700876    11350.914     1000 
 2654000   0.58142325   -1.7776587   0.87126275  -0.90639596   0.14296631    11377.226     1000 
 2656000    0.5556188   -1.7240516   0.83259477  -0.89145688    0.1365847    11375.439     1000 
 2658000   0.57106107   -1.6969383   0.85573501  -0.84120331   0.13048248    11518.285     1000 
 2660000   0.57081796   -1.7283128   0.85537071  -0.87294205   0.12107613    11627.003     1000 
 2662000   0.57415033   -1.7458852   0.86036426   -0.8855209   0.12914343    11442.707     1000 
 2664000   0.56764558   -1.7146568    0.8506169  -0.86403988   0.13102261    11365.819     1000 
 2666000   0.58593091    -1.752586   0.87801747  -0.87456854   0.12511866    11551.856     1000 
 2668000   0.56552861   -1.7203308   0.84744463  -0.87288622   0.13211168    11387.704     1000 
 2670000   0.58461558   -1.7666869   0.87604644   -0.8906405   0.13316608    11517.853     1000 
 2672000   0.55402188   -1.7446325   0.83020179  -0.91443066   0.13101069    11353.607     1000 
 2674000   0.57904676    -1.687537   0.86770156  -0.81983541   0.14816928    11223.087     1000 
 2676000    0.5676668   -1.7372457    0.8506487  -0.88659696   0.13739978    11448.188     1000 
 2678000   0.54999211   -1.7258023   0.82416317  -0.90163917   0.13085477    11379.637     1000 
 2680000   0.55535633   -1.6934364   0.83220146  -0.86123495   0.13883642      11238.1     1000 
 2682000   0.56664436   -1.7557876   0.84911657  -0.90667103   0.13950463    11313.007     1000 
 2684000   0.55170166   -1.7216103   0.82672494  -0.89488532   0.13048794    11355.392     1000 
 2686000   0.58149757   -1.7613949   0.87137411  -0.89002075   0.13351855    11372.876     1000 
 2688000   0.56318803   -1.7478105   0.84393727  -0.90387327   0.13734171    11326.195     1000 
 2690000   0.54507702   -1.7248426   0.81679792  -0.90804468   0.13623325    11352.001     1000 
 2692000   0.55899012   -1.7022606   0.83764669  -0.86461389   0.11681987    11868.118     1000 
 2694000   0.56880917   -1.7223777   0.85236054  -0.87001714   0.12921079    11512.207     1000 
 2696000   0.55901036   -1.7662189   0.83767703  -0.92854187   0.12827123    11399.416     1000 
 2698000    0.5837412   -1.7190627   0.87473619  -0.84432649    0.1248343    11619.393     1000 
 2700000   0.58488757    -1.770165   0.87645403  -0.89371096   0.12675669     11445.71     1000 
 2702000   0.58833711   -1.7337401   0.88162316  -0.85211694   0.13245523     11605.22     1000 
 2704000   0.57277447   -1.6978538   0.85830255  -0.83955127   0.13547192    11406.498     1000 
 2706000   0.58399692   -1.6825516   0.87511938  -0.80743223   0.13304511    11457.398     1000 
 2708000   0.58612095   -1.7486453   0.87830224   -0.8703431   0.13595907    11473.894     1000 
 2710000   0.58463317   -1.7153987   0.87607281  -0.83932589   0.13798841    11443.842     1000 
 2712000   0.57413121   -1.7052876   0.86033561  -0.84495197   0.13276111    11403.106     1000 
 2714000   0.53287795   -1.7489993   0.79851761  -0.95048173   0.12021947    11673.603     1000 
 2716000   0.58758762   -1.7064731   0.88050005  -0.82597302   0.12069262     11524.69     1000 
 2718000   0.56197786   -1.7048238   0.84212382  -0.86269998   0.13334341    11505.754     1000 
 2720000   0.56434511   -1.7275227   0.84567114  -0.88185158   0.12970621    11390.565     1000 
 2722000   0.56185321   -1.7398982   0.84193703   -0.8979612   0.14473272    11323.237     1000 
 2724000    0.5734366   -1.7262891   0.85929474  -0.86699437   0.13113637    11430.776     1000 
 2726000   0.57840161   -1.7488979   0.86673482  -0.88216305    0.1274403    11533.249     1000 
 2728000   0.56041752   -1.7756008   0.83978566  -0.93581518   0.12122622    11552.981     1000 
 2730000   0.57185981   -1.7404075   0.85693192  -0.88347554   0.12566614    11576.966     1000 
 2732000   0.57232111   -1.7098546   0.85762318  -0.85223139   0.15126392    11192.547     1000 
 2734000   0.55161858   -1.7365489   0.82660044  -0.90994849   0.14126914    11373.165     1000 
 2736000   0.56687093   -1.6951205    0.8494561  -0.84566439   0.13321685     11398.79     1000 
 2738000    0.5446603   -1.6852362   0.81617345  -0.86906277    0.1340706    11425.038     1000 
 2740000   0.58165905    -1.801343   0.87161609  -0.92972692   0.13716243    11302.779     1000 
 2742000   0.56847917   -1.7145874   0.85186603  -0.86272142   0.12024785     11546.25     1000 
 2744000   0.55821835   -1.7010921    0.8364902  -0.86460192    0.1173518     11602.21     1000 
 2746000   0.58053474   -1.7816478    0.8699313  -0.91171652   0.14764312    11236.798     1000 
 2748000   0.55485406   -1.7756069   0.83144881  -0.94415807   0.11794321    11622.338     1000 
 2750000   0.53749159    -1.730313   0.80543115  -0.92488187   0.12335787    11500.716     1000 
 2752000    0.5841424   -1.7510832   0.87533739  -0.87574581   0.14051033    11314.892     1000 
 2754000   0.56980883   -1.7383726   0.85385852  -0.88451406   0.12956195    11424.394     1000 
 2756000   0.55299996   -1.7185189   0.82867044  -0.88984844   0.12158267    11717.603     1000 
 2758000   0.58538199   -1.7409742   0.87719492  -0.86377928   0.13357038    11496.755     1000 
 2760000   0.57940323   -1.7160375   0.86823573  -0.84780181   0.12753366    11453.071     1000 
 2762000    0.5698034   -1.8236887   0.85385039  -0.96983827      0.11282    11773.174     1000 
 2764000   0.56949476   -1.7525826   0.85338789  -0.89919468   0.11687522    11479.758     1000 
 2766000   0.60794444   -1.7234225   0.91100475  -0.81241779   0.13541585    11447.864     1000 
 2768000   0.56392739   -1.7113862   0.84504519  -0.86634106   0.13636002        11262     1000 
 2770000   0.55812166   -1.7607658   0.83634531  -0.92442053   0.11971562    11521.602     1000 
 2772000   0.56916386   -1.6619976   0.85289204   -0.8091056   0.12581674    11389.355     1000 
 2774000   0.55316825   -1.7271995   0.82892263  -0.89827683   0.12934513    11562.857     1000 
 2776000   0.58060122   -1.7562808   0.87003093  -0.88624986   0.12831852     11515.11     1000 
 2778000   0.59048276   -1.7080465   0.88483841  -0.82320811   0.13852067    11498.182     1000 
 2780000    0.5855666   -1.7183826   0.87747156  -0.84091108   0.13056137    11360.387     1000 
 2782000   0.58777237   -1.7356884    0.8807769  -0.85491149   0.13016533    11536.163     1000 
 2784000   0.56035757    -1.773346   0.83969582  -0.93365014   0.13804629    11391.817     1000 
 2786000   0.56185108   -1.7127592   0.84193385  -0.87082539   0.13251583    11455.778     1000 
 2788000   0.55329918   -1.7282175   0.82911882  -0.89909869   0.12395088    11502.969     1000 
 2790000   0.56544544   -1.7502655      0.84732  -0.90294553   0.12719484    11460.176     1000 
 2792000    0.5798049   -1.7921028   0.86883764  -0.92326517   0.12555086    11673.361     1000 
 2794000   0.57809001   -1.7368518   0.86626789  -0.87058396   0.12423352    11557.228     1000 
 2796000   0.56139585   -1.7420799   0.84125168   -0.9008282   0.14039702    11407.071     1000 
 2798000   0.55474847   -1.6973415   0.83129058  -0.86605096   0.12772782     11521.58     1000 
 2800000   0.55600567   -1.7683469   0.83317449  -0.93517236   0.11404439    11555.446     1000 
 2802000    0.5828533   -1.7449157   0.87340567  -0.87151005   0.14090156     11445.32     1000 
 2804000   0.56424632   -1.7812109   0.84552311  -0.93568778   0.13174489    11564.003     1000 
 2806000   0.55861051   -1.7613223   0.83707785  -0.92424446   0.12137634    11667.863     1000 
 2808000    0.5543578    -1.714952   0.83070516  -0.88424683   0.12814484    11504.716     1000 
 2810000   0.54828698   -1.7740106   0.82160803   -0.9524026    0.1272833    11493.021     1000 
 2812000   0.56985342   -1.7113752   0.85392535  -0.85744985   0.12802305    11407.946     1000 
 2814000    0.5767738   -1.7134971   0.86429554   -0.8492016   0.12401662    11522.256     1000 
 2816000   0.57620532   -1.7631781   0.86344368  -0.89973444    0.1263794    11605.446     1000 
 2818000   0.57305421   -1.7194037   0.85872174    -0.860682   0.12298376     11509.64     1000 
 2820000   0.56192133   -1.7742656   0.84203912  -0.93222651   0.13177552    11447.997     1000 
 2822000   0.57255575   -1.7482539   0.85797479  -0.89027912   0.12643794    11442.978     1000 
 2824000    0.5775439   -1.7373017   0.86544954  -0.87185219   0.13083486    11463.693     1000 
 2826000   0.56907436   -1.7629017   0.85275793  -0.91014374   0.12472725     11592.32     1000 
 2828000    0.5768389   -1.7180835   0.86439309  -0.85369042   0.13050166     11587.84     1000 
 2830000   0.55560341    -1.727196    0.8325717  -0.89462433   0.13246903    11521.149     1000 
 2832000   0.57150366   -1.7231375   0.85639823  -0.86673922   0.12024271    11470.877     1000 
 2834000    0.5440247   -1.7234989   0.81522102  -0.90827789   0.12234827    11542.702     1000 
 2836000   0.59245269   -1.7488319   0.88779035  -0.86104156   0.12777133    11558.209     1000 
 2838000   0.57774969   -1.8083183   0.86575791  -0.94256043    0.1334433    11568.423     1000 
 2840000   0.58644772   -1.7845518   0.87879191  -0.90575987   0.12054384    11678.338     1000 
 2842000   0.55608172   -1.7158442   0.83328846  -0.88255575   0.12656487    11467.051     1000 
 2844000   0.56057848   -1.7167175   0.84002685  -0.87669066    0.1271855    11383.034     1000 
 2846000   0.56437688   -1.7311859   0.84571876  -0.88546714   0.13060255    11390.474     1000 
 2848000   0.58801046   -1.7422206   0.88113367   -0.8610869   0.14011592    11303.669     1000 
 2850000   0.55901994   -1.7275648   0.83769139  -0.88987343   0.13171035    11466.136     1000 
 2852000   0.56767447   -1.7181679    0.8506602  -0.86750772   0.12852217    11472.697     1000 
 2854000   0.58579432   -1.7854868   0.87781278  -0.90767406    0.1246222    11668.199     1000 
 2856000   0.56345521   -1.7300159   0.84433763  -0.88567824   0.13079164    11552.339     1000 
 2858000   0.59193719   -1.7136172   0.88701787   -0.8265993   0.13230697    11408.823     1000 
 2860000   0.56611947   -1.7694087   0.84833002  -0.92107872   0.11846985    11498.807     1000 
 2862000   0.60129857   -1.7105729   0.90104591  -0.80952703   0.12341384    11478.203     1000 
 2864000   0.56003147   -1.7412017   0.83920715  -0.90199452   0.12244504    11663.983     1000 
 2866000   0.55829967   -1.7732575   0.83661205  -0.93664549   0.12688153    11471.027     1000 
 2868000   0.56104212   -1.7322238   0.84072161  -0.89150223   0.11667807    11550.922     1000 
 2870000   0.55851903   -1.7966665   0.83694077   -0.9597257     0.112506    11615.314     1000 
 2872000    0.5775338   -1.7952792    0.8654344  -0.92984479   0.12355014    11652.936     1000 
 2874000   0.58408163    -1.768997   0.87524632   -0.8937507   0.13016253    11478.277     1000 
 2876000   0.57864206   -1.6676191   0.86709513  -0.80052398   0.15000731    11389.101     1000 
 2878000   0.60194443   -1.6735446   0.90201373  -0.77153091   0.13819365    11379.077     1000 
 2880000   0.53689745   -1.7264534   0.80454083  -0.92191252   0.12355918    11672.573     1000 
 2882000   0.55748248    -1.680639   0.83538749  -0.84525154   0.14070847    11384.141     1000 
 2884000   0.59218572   -1.7380396   0.88739031   -0.8506493   0.13363689    11388.319     1000 
 2886000   0.57768981   -1.7043981   0.86566818  -0.83872989   0.13181474      11431.3     1000 
 2888000   0.55834062   -1.7464843   0.83667341  -0.90981084   0.12482166    11691.242     1000 
 2890000   0.53687612   -1.6936728   0.80450887  -0.88916392   0.12640886    11489.363     1000 
 2892000   0.59410922   -1.7887937   0.89027267  -0.89852101   0.11314699    11719.489     1000 
 2894000   0.56089321   -1.7803241   0.84049847  -0.93982559   0.11797444    11617.087     1000 
 2896000   0.55670109   -1.7136857   0.83421658  -0.87946911   0.13299983    11494.259     1000 
 2898000   0.55206284   -1.8060394   0.82726617  -0.97877324   0.13858181    11533.075     1000 
 2900000   0.59420222   -1.7292461   0.89041202  -0.83883412   0.13369063    11418.948     1000 
 2902000   0.54591471   -1.7642699   0.81805319  -0.94621674   0.13404359    11475.093     1000 
 2904000   0.55747779    -1.691555   0.83538047  -0.85617451    0.1242407    11478.576     1000 
 2906000   0.57251935   -1.7307226   0.85792025  -0.87280233   0.10693008    11731.875     1000 
 2908000    0.5862503   -1.7650559   0.87849608  -0.88655977   0.12407643    11621.478     1000 
 2910000     0.595679   -1.7499638   0.89262498  -0.85733882   0.12894915    11575.239     1000 
 2912000   0.57257675   -1.6997382   0.85800626  -0.84173197   0.13660841    11300.464     1000 
 2914000   0.56320097   -1.7381404   0.84395666  -0.89418372   0.12075641    11567.169     1000 
 2916000   0.55121538   -1.7092999   0.82599625  -0.88330363   0.13055671    11408.808     1000 
 2918000   0.55412644   -1.7652555   0.83035848  -0.93489698   0.12085945     11570.51     1000 
 2920000   0.59491865   -1.7059847   0.89148559  -0.81449912   0.11342232    11574.025     1000 
 2922000   0.56327456   -1.7583593   0.84406692  -0.91429242   0.12544085    11492.301     1000 
 2924000   0.59178951   -1.6642603   0.88679658  -0.77746374    0.1456086    11203.376     1000 
 2926000   0.57133609   -1.7636782   0.85614713  -0.90753104   0.11770172    11779.821     1000 
 2928000    0.5665714   -1.6839633   0.84900724  -0.83495606   0.14035542    11453.255     1000 
 2930000   0.56887874   -1.7013584    0.8524648  -0.84889359   0.13371183    11573.191     1000 
 2932000    0.5915882   -1.7479778   0.88649491  -0.86148291    0.1267962    11564.598     1000 
 2934000   0.54722649   -1.7198009   0.82001889  -0.89978203   0.13637124    11484.436     1000 
 2936000    0.5572073   -1.8053785   0.83497514  -0.97040332   0.12106804    11580.939     1000 
 2938000   0.58677421   -1.7432954   0.87928115  -0.86401427   0.13472804    11513.544     1000 
 2940000   0.60197929   -1.7675856   0.90206596   -0.8655196    0.1314858    11564.809     1000 
 2942000   0.57260312   -1.7255676   0.85804578  -0.86752179   0.14229793    11170.316     1000 
 2944000   0.58306371   -1.7685233   0.87372097   -0.8948023   0.12437826    11706.829     1000 
 2946000   0.54500331   -1.7431082   0.81668746  -0.92642072    0.1193874     11513.74     1000 
 2948000   0.54713502   -1.7535232   0.81988183  -0.93364135   0.13421691    11439.477     1000 
 2950000   0.56967705   -1.6864427   0.85366106  -0.83278163   0.13224694    11391.977     1000 
 2952000   0.55953772   -1.7269556   0.83846727  -0.88848829   0.12885216    11463.016     1000 
 2954000   0.57295226   -1.6822618   0.85856896  -0.82369282   0.13019689    11403.105     1000 
 2956000    0.5559858   -1.6725255   0.83314472  -0.83938079   0.12681601    11365.361     1000 
 2958000   0.57235409   -1.7310123    0.8576726  -0.87333972   0.12046724    11732.511     1000 
 2960000   0.56861428   -1.7629553   0.85206849  -0.91088677   0.12592958    11609.573     1000 
 2962000   0.57196479   -1.7243435   0.85708924   -0.8672543   0.11964091    11537.231     1000 
 2964000   0.58678454   -1.7904877   0.87929663  -0.91119107   0.12618573    11525.746     1000 
 2966000   0.59095004   -1.7590994   0.88553863  -0.87356078   0.13902405    11476.082     1000 
 2968000   0.56520661    -1.777605    0.8469621  -0.93064287   0.14404516    11280.271     1000 
 2970000   0.57459148   -1.7670896   0.86102534   -0.9060643   0.12741411    11585.364     1000 
 2972000   0.56604632   -1.7212667   0.84822041  -0.87304625   0.13985258    11369.232     1000 
 2974000   0.56357011   -1.7277539   0.84450981  -0.88324407   0.13835248    11483.426     1000 
 2976000   0.58744302   -1.6925415   0.88028337  -0.81225812    0.1418541     11350.23     1000 
 2978000    0.5932943   -1.7457767    0.8890515  -0.85672518   0.12301168    11608.696     1000 
 2980000   0.56843029    -1.771076   0.85179279  -0.91928324   0.12290403    11622.169     1000 
 2982000   0.55803883   -1.6865771   0.83622119  -0.85035586   0.13218555    11274.366     1000 
 2984000   0.59517898   -1.7017945    0.8918757  -0.80991875   0.12257599    11653.711     1000 
 2986000   0.56347981    -1.775143   0.84437449  -0.93076855   0.12047704    11601.209     1000 
 2988000   0.54809538   -1.7425684   0.82132093  -0.92124743   0.12390448    11503.289     1000 
 2990000   0.58067802   -1.7267748   0.87014601  -0.85662883   0.13621817    11426.988     1000 
 2992000   0.54481153   -1.7575154   0.81640007   -0.9411153   0.10612698    11625.106     1000 
 2994000   0.57549528   -1.6773686   0.86237968  -0.81498887   0.12217702    11509.475     1000 
 2996000   0.59053008   -1.7095542   0.88490932  -0.82464486   0.12843522    11443.893     1000 
 2998000   0.58544642   -1.7086859   0.87729147  -0.83139445   0.13744189     11327.91     1000 
 3000000    0.5907509   -1.7147436   0.88524023  -0.82950338   0.13387994    11329.394     1000 
Loop time of 1159.22 on 1 procs for 3000000 steps with 1000 atoms

Performance: 1117990.585 tau/day, 2587.941 timesteps/s
100.0% CPU use with 1 MPI tasks x 1 OpenMP threads

MPI task timing breakdown:
Section |  min time  |  avg time  |  max time  |%varavg| %total
---------------------------------------------------------------
Pair    | 911.68     | 911.68     | 911.68     |   0.0 | 78.65
Neigh   | 144.11     | 144.11     | 144.11     |   0.0 | 12.43
Comm    | 25.139     | 25.139     | 25.139     |   0.0 |  2.17
Output  | 0.017      | 0.017      | 0.017      |   0.0 |  0.00
Modify  | 72.87      | 72.87      | 72.87      |   0.0 |  6.29
Other   |            | 5.407      |            |       |  0.47

Nlocal:        1000.00 ave        1000 max        1000 min
Histogram: 1 0 0 0 0 0 0 0 0 0
Nghost:        2181.00 ave        2181 max        2181 min
Histogram: 1 0 0 0 0 0 0 0 0 0
Neighs:        27539.0 ave       27539 max       27539 min
Histogram: 1 0 0 0 0 0 0 0 0 0

Total # of neighbors = 27539
Ave neighs/atom = 27.539000
Neighbor list builds = 150000
Dangerous builds not checked

Total wall time: 0:19:19
