LAMMPS (29 Sep 2021 - Update 2)
OMP_NUM_THREADS environment is not set. Defaulting to 1 thread. (src/comm.cpp:98)
  using 1 OpenMP thread(s) per MPI task
# ----------------------- Inicialização -----------------------

units			lj
atom_style 		atomic
dimension 		3
boundary 		p p p

# -------------------- Criação dos Átomos ---------------------

read_data 		topologia.txt
Reading data file ...
  orthogonal box = (0.0000000 0.0000000 0.0000000) to (21.540000 21.540000 21.540000)
  1 by 1 by 1 MPI processor grid
  reading atoms ...
  1000 atoms
  read_data CPU = 0.003 seconds

velocity 		all create ${temp} 87287 rot yes dist gaussian
velocity 		all create 0.39 87287 rot yes dist gaussian

# ------------------ Interação Interatômica -------------------

pair_style		table linear 1000
pair_coeff		1 1 force.table AA 5.0
WARNING: 2 of 1000 force values in table AA are inconsistent with -dE/dr.
WARNING:  Should only be flagged at inflection points (src/pair_table.cpp:465)
pair_coeff		1 2 force.table AB 5.0
WARNING: 1 of 1000 force values in table AB are inconsistent with -dE/dr.
WARNING:  Should only be flagged at inflection points (src/pair_table.cpp:465)
pair_coeff		2 2 force.table BB 5.0
pair_write		1 1 1000 r 0.008 5.0 table.check AA
Appending to table file table.check with DATE: 2023-06-15
Neighbor list info ...
  update every 1 steps, delay 10 steps, check yes
  max neighbors/atom: 2000, page size: 100000
  master list distance cutoff = 5.3
  ghost atom cutoff = 5.3
  binsize = 2.65, bins = 9 9 9
  1 neighbor lists, perpetual/occasional/extra = 1 0 0
  (1) pair table, perpetual
      attributes: half, newton on
      pair build: half/bin/atomonly/newton
      stencil: half/bin/3d
      bin: standard
pair_write		1 2 1000 r 0.008 5.0 table.check AB
Appending to table file table.check with DATE: 2023-06-15
pair_write		2 2 1000 r 0.008 5.0 table.check BB
Appending to table file table.check with DATE: 2023-06-15

neighbor 		0.3 bin
neigh_modify		every 20 delay 0 check no

# ------------------------- Ensemble --------------------------------------

fix 1			all npt temp ${temp} ${temp} 0.5 iso ${press} ${press} 5
fix 1			all npt temp 0.39 ${temp} 0.5 iso ${press} ${press} 5
fix 1			all npt temp 0.39 0.39 0.5 iso ${press} ${press} 5
fix 1			all npt temp 0.39 0.39 0.5 iso 0.13 ${press} 5
fix 1			all npt temp 0.39 0.39 0.5 iso 0.13 0.13 5

# ---------------------- Função de Distribuição Radial -----------------------

#compute RDF 		all rdf 2000 1 1 1 2 2 2
#fix 2 			all ave/time 1 2000 2000 c_RDF[*] file rdf.data mode vector

# ------------------------- Execução ---------------------------

timestep 		0.005
thermo_style		custom step temp pe ke etotal press vol atoms
thermo			2000
run			3000000
Per MPI rank memory allocation (min/avg/max) = 2.670 | 2.670 | 2.670 Mbytes
Step Temp PotEng KinEng TotEng Press Volume Atoms 
       0         0.39  -0.99052333     0.584415  -0.40610833     0.108085    9993.9483     1000 
    2000   0.37891939   -2.2351651    0.5678107   -1.6673544   0.11955596    11357.997     1000 
    4000   0.41375085    -2.222091   0.62000565   -1.6020854   0.12737579    11327.161     1000 
    6000   0.39532855   -2.2906054   0.59239983   -1.6982055   0.12638734    11418.634     1000 
    8000   0.41034042   -2.2576613   0.61489512   -1.6427661   0.13781639    11279.735     1000 
   10000   0.38140479   -2.2478163   0.57153509   -1.6762812   0.12144665    11489.526     1000 
   12000   0.39543456   -2.2845693   0.59255869   -1.6920106   0.12815635     11388.58     1000 
   14000   0.40540818   -2.2927275   0.60750416   -1.6852233   0.14170063    11292.307     1000 
   16000   0.39697701   -2.2421309   0.59487005   -1.6472608   0.13383725    11346.309     1000 
   18000   0.38923481   -2.2639688   0.58326836   -1.6807005   0.12345554     11403.55     1000 
   20000   0.40386967   -2.2699312    0.6051987   -1.6647325   0.13035159    11390.369     1000 
   22000   0.39097885   -2.2807206    0.5858818   -1.6948388   0.11836118    11423.146     1000 
   24000   0.39978299   -2.2860846   0.59907482   -1.6870098   0.13369951    11337.409     1000 
   26000   0.35992346   -2.2476061    0.5393453   -1.7082608   0.13632614     11296.66     1000 
   28000   0.39486837   -2.3001673   0.59171025   -1.7084571   0.12978921    11344.584     1000 
   30000   0.40948324   -2.3158531   0.61361064   -1.7022424   0.13092515    11425.813     1000 
   32000   0.39750983   -2.2468898   0.59566847   -1.6512213   0.12740366    11425.095     1000 
   34000   0.39276883   -2.2661876    0.5885641   -1.6776235   0.13078524    11451.003     1000 
   36000   0.37862063   -2.2024809   0.56736301   -1.6351179   0.14133081    11228.775     1000 
   38000   0.40377897   -2.2528671   0.60506279   -1.6478043   0.13378109    11329.664     1000 
   40000   0.39710409   -2.2528312   0.59506047   -1.6577707   0.12183019     11515.93     1000 
   42000   0.38754376   -2.2539066   0.58073433   -1.6731723   0.13478913    11353.656     1000 
   44000   0.39650225   -2.2684787   0.59415861   -1.6743201   0.13107413    11323.557     1000 
   46000   0.40127214   -2.2243524    0.6013063   -1.6230461   0.12697907    11379.642     1000 
   48000    0.3892697   -2.2859654   0.58332064   -1.7026447   0.12995417    11371.821     1000 
   50000   0.40187773   -2.3063091   0.60221377   -1.7040954   0.13268203    11406.029     1000 
   52000   0.38151304    -2.267888   0.57169729   -1.6961907   0.14233563    11327.731     1000 
   54000   0.38088174   -2.2306795   0.57075129   -1.6599283   0.13422053    11346.168     1000 
   56000   0.37555585   -2.3271132   0.56277045   -1.7643428   0.12069749    11404.416     1000 
   58000   0.38245199   -2.2818881   0.57310431   -1.7087838   0.12232885    11492.433     1000 
   60000   0.38487312   -2.2745966   0.57673237   -1.6978642   0.12269367    11341.301     1000 
   62000   0.37882517   -2.2343903   0.56766952   -1.6667208   0.13898327    11270.534     1000 
   64000   0.39237067   -2.2491305   0.58796744   -1.6611631   0.12823094     11381.01     1000 
   66000     0.396102   -2.2889117   0.59355885   -1.6953529   0.12702573    11385.166     1000 
   68000    0.3799967   -2.2838665   0.56942506   -1.7144415   0.14099366    11335.248     1000 
   70000   0.39556579   -2.2075511   0.59275533   -1.6147957   0.13233585    11341.194     1000 
   72000    0.3880189   -2.2749704   0.58144632   -1.6935241   0.12129668    11448.745     1000 
   74000   0.39773974   -2.2869415     0.596013   -1.6909285   0.12640335    11416.014     1000 
   76000   0.38865233   -2.3270668   0.58239551   -1.7446713   0.12976136     11457.68     1000 
   78000   0.38806321   -2.2301246   0.58151273   -1.6486119   0.12930757    11341.299     1000 
   80000   0.40132078   -2.2634538   0.60137919   -1.6620746   0.13204941    11472.334     1000 
   82000   0.37883908   -2.2868378   0.56769037   -1.7191474   0.14021872    11331.459     1000 
   84000   0.39623059    -2.240178   0.59375154   -1.6464265   0.13660717    11304.385     1000 
   86000   0.39477252   -2.2724486   0.59156662   -1.6808819   0.13150233     11375.31     1000 
   88000   0.39528026   -2.2745802   0.59232747   -1.6822527   0.12115716    11449.137     1000 
   90000   0.37973846   -2.2614903   0.56903809   -1.6924522   0.13248767    11292.003     1000 
   92000   0.37365255   -2.2384412   0.55991835   -1.6785228   0.13130428    11372.421     1000 
   94000   0.38193348   -2.2574666   0.57232732   -1.6851392   0.13526094    11323.897     1000 
   96000   0.37439152   -2.2472869   0.56102569   -1.6862612   0.12678122    11352.178     1000 
   98000    0.4010938   -2.2380665   0.60103906   -1.6370274   0.13397726    11295.144     1000 
  100000   0.39352156   -2.2949842   0.58969207   -1.7052922   0.11837063    11405.733     1000 
  102000   0.37666939   -2.2517046   0.56443908   -1.6872655   0.12604696    11435.271     1000 
  104000   0.36499337   -2.2661273   0.54694257   -1.7191847   0.11598264    11461.576     1000 
  106000   0.39172884   -2.2663263   0.58700567   -1.6793207     0.126169    11479.219     1000 
  108000   0.39151009   -2.2678121   0.58667787   -1.6811342   0.13350194    11321.785     1000 
  110000   0.40060478   -2.2544023   0.60030627   -1.6540961   0.13003363    11391.375     1000 
  112000   0.39828013   -2.2821414   0.59682277   -1.6853187   0.13089122     11385.25     1000 
  114000    0.3882226   -2.2619907   0.58175156   -1.6802391   0.12675445    11428.846     1000 
  116000   0.37468888   -2.2515437   0.56147129   -1.6900724    0.1349024    11286.447     1000 
  118000   0.37720599   -2.2014072   0.56524317    -1.636164    0.1313572    11290.582     1000 
  120000   0.39057796   -2.2687637   0.58528107   -1.6834826   0.12950462    11456.389     1000 
  122000   0.40748757   -2.2600206   0.61062012   -1.6494004   0.13292041    11300.374     1000 
  124000    0.3919815   -2.2711469   0.58738428   -1.6837626   0.13358574    11380.631     1000 
  126000   0.38180066   -2.2572131   0.57212828   -1.6850848   0.13498064    11264.492     1000 
  128000   0.39120481   -2.2717602    0.5862204   -1.6855398   0.13021561    11341.863     1000 
  130000   0.36737058   -2.2500925   0.55050481   -1.6995877   0.12511395    11363.964     1000 
  132000   0.40329841   -2.2205256   0.60434266   -1.6161829   0.13899578    11304.672     1000 
  134000   0.39422925   -2.2379214   0.59075254   -1.6471689   0.13292609    11325.762     1000 
  136000    0.3946927   -2.2442383   0.59144701   -1.6527913   0.14736072    11232.321     1000 
  138000   0.37326855   -2.2656649   0.55934292    -1.706322     0.129515    11402.689     1000 
  140000   0.36995997   -2.2479333   0.55438502   -1.6935483   0.12468382    11389.688     1000 
  142000    0.3974309   -2.2615647    0.5955502   -1.6660145   0.13191556    11337.019     1000 
  144000   0.38475732   -2.2470043   0.57655884   -1.6704455   0.11810397    11407.772     1000 
  146000   0.39173696   -2.2863025   0.58701783   -1.6992847   0.14006485    11206.549     1000 
  148000   0.38450732    -2.312257   0.57618422   -1.7360728   0.12795202     11470.22     1000 
  150000   0.39061062   -2.2956226   0.58533002   -1.7102925   0.13243912    11390.998     1000 
  152000   0.38372783   -2.3050883   0.57501616   -1.7300721   0.12791951    11375.834     1000 
  154000   0.39158253   -2.2640875   0.58678642   -1.6773011   0.13745575    11385.894     1000 
  156000   0.39301136   -2.2459865   0.58892752    -1.657059   0.13652915    11348.369     1000 
  158000    0.3837401   -2.2950595   0.57503454   -1.7200249   0.13893049    11336.277     1000 
  160000   0.39342677   -2.2686105   0.58955002   -1.6790605   0.13050084    11407.234     1000 
  162000   0.37044493   -2.2622323   0.55511173   -1.7071206   0.12899276     11390.98     1000 
  164000   0.38034848   -2.2772501   0.56995219   -1.7072979   0.13002884    11334.424     1000 
  166000   0.39690642   -2.2789104   0.59476427   -1.6841461    0.1281766    11413.988     1000 
  168000    0.4007706   -2.2623572   0.60055474   -1.6618025   0.13809829    11366.771     1000 
  170000   0.40988104   -2.2714943   0.61420673   -1.6572876   0.12815364    11346.843     1000 
  172000   0.39684846    -2.260273   0.59467742   -1.6655956   0.11928133     11387.37     1000 
  174000   0.39982387   -2.2974134   0.59913607   -1.6982773   0.12733603    11461.841     1000 
  176000   0.38651878   -2.2748962   0.57919839   -1.6956978   0.12431276    11434.705     1000 
  178000   0.40004524   -2.2140689    0.5994678   -1.6146011   0.13497429    11388.312     1000 
  180000   0.39866682   -2.2531915   0.59740222   -1.6557893   0.12298358    11308.446     1000 
  182000   0.38141842   -2.2809216    0.5715555   -1.7093661   0.12643141    11423.694     1000 
  184000   0.40552415   -2.2327542   0.60767794   -1.6250763   0.13134406    11330.855     1000 
  186000   0.41229367    -2.314562   0.61782206     -1.69674   0.12747189     11482.51     1000 
  188000   0.37941491   -2.2858789   0.56855325   -1.7173257   0.12593875    11460.027     1000 
  190000   0.40168746   -2.2527249   0.60192867   -1.6507962   0.11949243    11505.613     1000 
  192000   0.38901302   -2.2589203   0.58293601   -1.6759842   0.12397272    11388.929     1000 
  194000   0.42046698   -2.3082218   0.63006977   -1.6781521   0.13681189    11436.043     1000 
  196000   0.38439618   -2.2390096   0.57601767    -1.662992   0.12881868    11393.963     1000 
  198000   0.38532228   -2.2863269   0.57740544   -1.7089215   0.12987387    11384.436     1000 
  200000   0.40384596   -2.2550428   0.60516317   -1.6498796   0.12507623    11376.949     1000 
  202000   0.38996205   -2.3039534   0.58435813   -1.7195952   0.12304358    11461.245     1000 
  204000   0.38858442   -2.2354186   0.58229375   -1.6531248   0.14111291    11287.414     1000 
  206000   0.40084291   -2.2713755    0.6006631   -1.6707124   0.12040139    11518.547     1000 
  208000   0.40592004   -2.2700309   0.60827118   -1.6617597   0.12976088    11386.898     1000 
  210000   0.38709954   -2.2916305   0.58006866   -1.7115618   0.13172695    11357.978     1000 
  212000   0.38197471   -2.2812812    0.5723891   -1.7088921   0.12182659    11388.305     1000 
  214000   0.38792261   -2.2485722   0.58130203   -1.6672702     0.141513    11332.661     1000 
  216000   0.39184624   -2.3141267   0.58718158   -1.7269452   0.13080897     11342.37     1000 
  218000   0.39281319   -2.2981922   0.58863056   -1.7095617   0.12990625    11425.093     1000 
  220000   0.38744076   -2.2882322   0.58057999   -1.7076522   0.13502016     11385.14     1000 
  222000   0.37303158   -2.3006057   0.55898783   -1.7416179   0.13611774    11286.904     1000 
  224000   0.38361687   -2.3001136   0.57484987   -1.7252637   0.13559435    11364.137     1000 
  226000   0.37979035   -2.2843088   0.56911585   -1.7151929   0.13528914    11390.635     1000 
  228000   0.38651854   -2.2760798   0.57919804   -1.6968818   0.13016662    11356.346     1000 
  230000   0.37934155   -2.2706623   0.56844332    -1.702219   0.13406054    11356.671     1000 
  232000   0.39432645   -2.2368608   0.59089818   -1.6459627   0.13156749    11368.932     1000 
  234000   0.37917476   -2.2652303   0.56819338   -1.6970369    0.1150627    11455.058     1000 
  236000   0.38749035   -2.2972623   0.58065429    -1.716608   0.13540103    11333.708     1000 
  238000    0.3824889   -2.2605224   0.57315962   -1.6873628   0.13185446    11390.937     1000 
  240000     0.385509    -2.252126   0.57768524   -1.6744408   0.12145118    11399.248     1000 
  242000   0.39242337   -2.2704119   0.58804642   -1.6823655   0.12789677    11312.995     1000 
  244000   0.38485529   -2.2735175   0.57670565   -1.6968118   0.11889549    11485.433     1000 
  246000   0.40572958   -2.2895442   0.60798578   -1.6815584   0.11995007    11458.228     1000 
  248000   0.39412002    -2.217569   0.59058884   -1.6269802   0.13035664    11346.717     1000 
  250000   0.38195777    -2.267561   0.57236371   -1.6951973   0.13164914    11439.307     1000 
  252000   0.40963741   -2.2995209   0.61384166   -1.6856792    0.1394423    11384.518     1000 
  254000    0.4133194   -2.2850651   0.61935913    -1.665706   0.11948347    11426.401     1000 
  256000   0.38760078   -2.2425306   0.58081978   -1.6617108   0.14003219    11298.635     1000 
  258000   0.36363905   -2.3048899   0.54491311   -1.7599768   0.12423061    11466.196     1000 
  260000   0.39044181   -2.2855457   0.58507706   -1.7004687   0.13077202    11457.657     1000 
  262000   0.39987462   -2.2869463   0.59921212   -1.6877341   0.12604208    11407.486     1000 
  264000   0.37476738   -2.2578478   0.56158891   -1.6962588   0.12210502    11490.397     1000 
  266000   0.40750348    -2.228575   0.61064397    -1.617931   0.13083475    11391.839     1000 
  268000   0.39739781   -2.2852389   0.59550061   -1.6897383   0.12060126      11551.6     1000 
  270000   0.39171197   -2.2447732   0.58698039   -1.6577929    0.1315339    11427.273     1000 
  272000   0.40872392   -2.2817731   0.61247279   -1.6693003   0.12412041    11411.976     1000 
  274000   0.37091011   -2.2580924    0.5558088   -1.7022836   0.12810078    11418.253     1000 
  276000   0.39507212   -2.2169907   0.59201556   -1.6249752   0.13682788    11370.818     1000 
  278000   0.39720727   -2.2099738   0.59521509   -1.6147587    0.1308122    11354.989     1000 
  280000   0.38669507   -2.2534391   0.57946256   -1.6739765    0.1286628     11484.14     1000 
  282000   0.39682066   -2.2657713   0.59463576   -1.6711355   0.13805263    11349.251     1000 
  284000   0.38593248   -2.2494592   0.57831982   -1.6711394   0.11969333    11422.126     1000 
  286000   0.38824664   -2.2735358    0.5817876   -1.6917482   0.13106732    11327.739     1000 
  288000   0.37797775    -2.283656   0.56639966   -1.7172563   0.13398876    11407.854     1000 
  290000   0.38007854   -2.2548223   0.56954768   -1.6852746   0.14060075    11256.369     1000 
  292000     0.406916   -2.2869033   0.60976362   -1.6771397   0.12192906    11430.781     1000 
  294000   0.38239818   -2.2980119   0.57302368   -1.7249882   0.13252893    11398.308     1000 
  296000   0.40020503    -2.282554   0.59970723   -1.6828467   0.12916224    11376.487     1000 
  298000   0.38448129   -2.2850315   0.57614522   -1.7088863   0.13201615    11346.197     1000 
  300000   0.38665658   -2.2635134   0.57940489   -1.6841085    0.1278882    11284.727     1000 
  302000   0.38775518   -2.2669597   0.58105114   -1.6859086   0.13113778    11389.931     1000 
  304000    0.3899047    -2.242486    0.5842722   -1.6582138   0.12328241    11362.074     1000 
  306000   0.38734328   -2.2844586    0.5804339   -1.7040247   0.13300264    11344.395     1000 
  308000   0.38957422   -2.2988863   0.58377696   -1.7151093   0.12255612    11472.132     1000 
  310000   0.40049877   -2.2620445    0.6001474   -1.6618971   0.13326632    11317.485     1000 
  312000   0.40467285   -2.2812175   0.60640226   -1.6748152   0.13764052    11399.455     1000 
  314000   0.38945709   -2.2772673   0.58360146   -1.6936659   0.13441087     11375.05     1000 
  316000   0.37868006   -2.3112119   0.56745207   -1.7437598   0.12513965    11490.476     1000 
  318000    0.4012527   -2.2679169   0.60127717   -1.6666397   0.13127962    11448.688     1000 
  320000   0.38056497   -2.3348328   0.57027661   -1.7645562   0.12802842    11479.611     1000 
  322000   0.37102286   -2.2752424   0.55597776   -1.7192646   0.12080371    11429.982     1000 
  324000   0.38115632   -2.2523486   0.57116274   -1.6811858   0.13806101    11266.711     1000 
  326000   0.39209625   -2.2470508   0.58755623   -1.6594946   0.12309136     11459.76     1000 
  328000   0.38769863   -2.2457875    0.5809664   -1.6648211   0.12545965    11383.413     1000 
  330000   0.39599771   -2.2575671   0.59340257   -1.6641645   0.12602376    11375.505     1000 
  332000   0.38681331   -2.2617126   0.57963975   -1.6820729   0.12983852    11342.943     1000 
  334000   0.39953204   -2.2520913   0.59869876   -1.6533925   0.13273178    11359.777     1000 
  336000    0.3983897   -2.2399393   0.59698697   -1.6429524   0.14074716    11286.932     1000 
  338000   0.37639151   -2.2449294   0.56402268   -1.6809067   0.13759487    11270.292     1000 
  340000   0.37489249      -2.2461   0.56177639   -1.6843236   0.13534047    11320.209     1000 
  342000   0.36557974   -2.2603207   0.54782124   -1.7124995   0.12047042    11442.193     1000 
  344000   0.39128228   -2.2332125    0.5863365    -1.646876   0.13167784    11358.993     1000 
  346000   0.39276587   -2.2761007   0.58855965    -1.687541   0.13104225    11327.033     1000 
  348000   0.39513666   -2.2613436   0.59211228   -1.6692313   0.13475545    11371.309     1000 
  350000   0.39295347   -2.3155308   0.58884078     -1.72669   0.13081467    11386.315     1000 
  352000   0.39444016   -2.2777387   0.59106858   -1.6866701    0.1385091    11240.772     1000 
  354000   0.38962402   -2.2279346   0.58385159    -1.644083   0.12504912    11350.016     1000 
  356000    0.3981313   -2.2892692   0.59659975   -1.6926695    0.1258501    11464.785     1000 
  358000   0.39793392   -2.2399647   0.59630399   -1.6436607   0.12725167    11360.811     1000 
  360000   0.38583238   -2.2446668   0.57816983    -1.666497   0.13289527    11383.319     1000 
  362000   0.38546215   -2.2233515   0.57761504   -1.6457365   0.12426105    11344.192     1000 
  364000   0.38504353   -2.2788737   0.57698773    -1.701886   0.11981026    11456.394     1000 
  366000   0.38171631   -2.2637989   0.57200189    -1.691797   0.13408088    11334.018     1000 
  368000   0.39430938   -2.2918382    0.5908726   -1.7009656   0.13351073    11330.948     1000 
  370000   0.38675695   -2.2525026    0.5795553   -1.6729473   0.14699524    11273.751     1000 
  372000   0.38476462   -2.2303518   0.57656979    -1.653782   0.13898455    11279.526     1000 
  374000   0.38846689   -2.2339657   0.58211764    -1.651848   0.12042632     11492.14     1000 
  376000   0.38887364   -2.2883902   0.58272716   -1.7056631   0.12250173    11462.578     1000 
  378000   0.39149199   -2.2825688   0.58665075    -1.695918   0.13259161    11369.889     1000 
  380000   0.39413993   -2.2657633   0.59061868   -1.6751446   0.13068531    11431.328     1000 
  382000   0.39567836   -2.2447792   0.59292402   -1.6518552   0.13017514    11401.349     1000 
  384000   0.38814981   -2.2434108    0.5816425   -1.6617683   0.13240413    11357.931     1000 
  386000   0.40446238   -2.2843587   0.60608688   -1.6782719   0.12882331     11403.32     1000 
  388000   0.39372495   -2.2879147   0.58999683   -1.6979179    0.1238459    11444.712     1000 
  390000   0.37022356   -2.2293174      0.55478   -1.6745374   0.13874133    11249.777     1000 
  392000   0.38397094   -2.2813284   0.57538045    -1.705948   0.12156353    11425.596     1000 
  394000   0.39381982   -2.2322575     0.590139   -1.6421185   0.12368626    11435.306     1000 
  396000   0.38192208   -2.2799664   0.57231024   -1.7076562   0.13330528    11338.932     1000 
  398000    0.3843604   -2.2313609   0.57596406   -1.6553968   0.13731451    11299.682     1000 
  400000   0.38765076   -2.2929488   0.58089467   -1.7120542    0.1262562    11472.396     1000 
  402000    0.4063987   -2.2658932   0.60898845   -1.6569047    0.1266053    11440.224     1000 
  404000   0.38680047   -2.2763494    0.5796205   -1.6967289   0.13401674    11431.269     1000 
  406000   0.38932601   -2.2745091   0.58340502    -1.691104   0.12413145    11472.877     1000 
  408000   0.39820541   -2.2519975   0.59671081   -1.6552867   0.13921022    11250.929     1000 
  410000   0.38037051   -2.2591861   0.56998521   -1.6892009   0.13593748    11260.596     1000 
  412000   0.40482008   -2.2657416   0.60662289   -1.6591187   0.13636597    11358.839     1000 
  414000   0.39512662   -2.3327923   0.59209725    -1.740695   0.13561779    11387.392     1000 
  416000   0.39076279   -2.3073946   0.58555805   -1.7218366   0.13046032     11394.73     1000 
  418000   0.39182486   -2.3051013   0.58714955   -1.7179518   0.12779714    11384.498     1000 
  420000     0.400132   -2.2203846   0.59959781   -1.6207868   0.12222074    11435.673     1000 
  422000   0.38907242   -2.2584202   0.58302502   -1.6753952   0.12078889     11477.32     1000 
  424000   0.39318231   -2.2550528    0.5891837   -1.6658692   0.13387627    11336.074     1000 
  426000   0.38987436   -2.2279577   0.58422673    -1.643731   0.13386164    11351.151     1000 
  428000   0.39104961    -2.279106   0.58598784   -1.6931182   0.13102219    11331.906     1000 
  430000    0.3811138   -2.2423208   0.57109903   -1.6712218   0.14190131    11170.664     1000 
  432000    0.4067877   -2.2459366   0.60957136   -1.6363653   0.13210397    11353.124     1000 
  434000   0.38773635   -2.2660459   0.58102292    -1.685023   0.14603012    11280.779     1000 
  436000   0.39210367   -2.2591591   0.58756734   -1.6715917   0.11975478    11416.992     1000 
  438000    0.4079769   -2.2568651   0.61135338   -1.6455118   0.14567953    11339.398     1000 
  440000   0.37652152    -2.240199    0.5642175   -1.6759815   0.12796608    11329.927     1000 
  442000   0.38606845    -2.305306   0.57852357   -1.7267824   0.12627443    11403.666     1000 
  444000   0.37900842   -2.2431625   0.56794412   -1.6752184   0.13768165    11308.738     1000 
  446000   0.39109253   -2.2944808   0.58605216   -1.7084286   0.12860577    11459.586     1000 
  448000   0.38452263   -2.2637151   0.57620716   -1.6875079   0.12926859    11430.686     1000 
  450000     0.393737   -2.2228083   0.59001489   -1.6327934   0.12600089     11411.97     1000 
  452000   0.37892139   -2.2477962   0.56781371   -1.6799824   0.13088273    11350.428     1000 
  454000   0.37688675   -2.2750365   0.56476479   -1.7102717   0.13099338    11366.424     1000 
  456000   0.39314014    -2.241242    0.5891205   -1.6521215   0.13114519    11327.587     1000 
  458000   0.38783258   -2.2246797   0.58116711   -1.6435126   0.13367347    11250.466     1000 
  460000   0.40169298   -2.3288256   0.60193692   -1.7268887   0.13056499    11374.667     1000 
  462000   0.39112398   -2.2969098   0.58609928   -1.7108105   0.13207222    11399.017     1000 
  464000   0.39076769   -2.2920683   0.58556539   -1.7065029   0.11917852    11466.959     1000 
  466000   0.40136461   -2.2515422   0.60144487   -1.6500973   0.13958602    11359.844     1000 
  468000   0.38904203   -2.2707395   0.58297949     -1.68776   0.11557635    11417.341     1000 
  470000   0.38385299   -2.2658094    0.5752037   -1.6906057   0.11735412    11427.864     1000 
  472000   0.40305426   -2.2564823    0.6039768   -1.6525055   0.13540433    11377.846     1000 
  474000    0.3793678   -2.2698932   0.56848264   -1.7014106   0.12734767    11373.557     1000 
  476000   0.39917164   -2.2451058    0.5981587   -1.6469471   0.12758392     11376.39     1000 
  478000   0.39634256   -2.2666496   0.59391933   -1.6727302   0.12559005    11450.291     1000 
  480000   0.39048756   -2.2586938    0.5851456   -1.6735482   0.13648494    11400.163     1000 
  482000   0.38686301   -2.2814115   0.57971421   -1.7016972   0.12298404    11445.969     1000 
  484000   0.40428871   -2.2684358   0.60582664   -1.6626092   0.12462401    11361.676     1000 
  486000   0.39412199   -2.2371672    0.5905918   -1.6465754   0.13728875     11313.22     1000 
  488000   0.39199627    -2.269292    0.5874064   -1.6818856   0.12949087    11441.496     1000 
  490000   0.39860349   -2.2239532   0.59730733   -1.6266459   0.13620722     11275.13     1000 
  492000   0.37700633   -2.2455465   0.56494398   -1.6806025   0.13057438    11280.459     1000 
  494000   0.39124272   -2.2495314   0.58627722   -1.6632542   0.12836057     11430.54     1000 
  496000   0.38502219   -2.2938318   0.57695576    -1.716876   0.11469335    11504.471     1000 
  498000    0.4018015    -2.230043   0.60209955   -1.6279435   0.12651679    11310.061     1000 
  500000   0.40391982   -2.2589618   0.60527386   -1.6536879    0.1353422    11347.898     1000 
  502000   0.39081926   -2.2771432   0.58564266   -1.6915006   0.13393017    11360.504     1000 
  504000    0.3932329   -2.3041437   0.58925951   -1.7148842   0.12677045    11404.709     1000 
  506000   0.38106319   -2.2745207    0.5710232   -1.7034975   0.13043694    11330.445     1000 
  508000   0.39400093   -2.2445999    0.5904104   -1.6541895   0.12770973    11430.241     1000 
  510000   0.39984553   -2.2599398   0.59916853   -1.6607713   0.12826573    11387.576     1000 
  512000   0.39397423   -2.2590455   0.59037038   -1.6686752   0.14039444    11267.363     1000 
  514000   0.38711287   -2.2939491   0.58008863   -1.7138605   0.12557785     11438.33     1000 
  516000    0.3832148   -2.2308022   0.57424738   -1.6565549   0.13009197    11355.232     1000 
  518000   0.38716848   -2.2776395   0.58017197   -1.6974675   0.13893668    11403.234     1000 
  520000   0.38449244    -2.271056   0.57616193   -1.6948941   0.12662612    11462.169     1000 
  522000   0.38850642   -2.2484895   0.58217688   -1.6663127   0.12182587    11433.143     1000 
  524000   0.41672259   -2.2800473   0.62445881   -1.6555885   0.13105375    11449.042     1000 
  526000   0.38069616   -2.2439464   0.57047319   -1.6734732   0.13068392    11392.376     1000 
  528000   0.38225149   -2.2571694   0.57280385   -1.6843656   0.13479207    11366.446     1000 
  530000   0.39001413   -2.2734519   0.58443617   -1.6890157   0.12489732    11467.308     1000 
  532000    0.3672846   -2.2311754   0.55037597   -1.6807994    0.1263947     11430.98     1000 
  534000   0.38837685   -2.2417935   0.58198271   -1.6598108   0.13017086    11306.158     1000 
  536000   0.38626058   -2.2652893   0.57881149   -1.6864778   0.13087292    11346.952     1000 
  538000   0.37833453   -2.3106918   0.56693429   -1.7437575   0.12809506    11466.274     1000 
  540000   0.37884061   -2.2598831   0.56769265   -1.6921905   0.12328689    11453.169     1000 
  542000   0.38981925   -2.2601275   0.58414414   -1.6759834   0.12363128    11389.422     1000 
  544000   0.37240233   -2.2252655   0.55804489   -1.6672206   0.13011104    11331.758     1000 
  546000    0.3858839   -2.2735789   0.57824702   -1.6953319   0.12140717    11405.504     1000 
  548000   0.37923886   -2.2755554   0.56828943    -1.707266   0.13026874    11409.719     1000 
  550000   0.39707179   -2.2916489   0.59501208   -1.6966368   0.12569504    11414.414     1000 
  552000   0.39120407   -2.2840433   0.58621929    -1.697824   0.14071452    11347.421     1000 
  554000   0.39469942   -2.2512461   0.59145709    -1.659789   0.13118116    11354.732     1000 
  556000   0.38614485   -2.2430513   0.57863806   -1.6644133   0.12344489    11459.421     1000 
  558000   0.39416999    -2.272832   0.59066374   -1.6821683   0.12665683    11351.748     1000 
  560000    0.3991739   -2.2665859   0.59816209   -1.6684238   0.13736677    11285.678     1000 
  562000   0.39155832   -2.2615479   0.58675014   -1.6747978   0.13174033    11469.441     1000 
  564000   0.39547772   -2.2667918   0.59262337   -1.6741684   0.11964956    11419.822     1000 
  566000   0.40028786   -2.2464969   0.59983136   -1.6466655   0.12664059    11358.895     1000 
  568000    0.3879931    -2.293265   0.58140766   -1.7118574   0.12333405    11421.481     1000 
  570000   0.38547003   -2.2666945   0.57762685   -1.6890676   0.12863528     11388.53     1000 
  572000   0.39068702   -2.2045594    0.5854445   -1.6191149   0.13874423    11253.732     1000 
  574000   0.38029487   -2.2975999   0.56987186   -1.7277281   0.12196761    11478.993     1000 
  576000   0.36795661   -2.2504573   0.55138298   -1.6990743   0.13383029    11370.807     1000 
  578000   0.38368627   -2.2760391   0.57495388   -1.7010852   0.11268309    11428.363     1000 
  580000   0.38615546   -2.2921797   0.57865396   -1.7135257   0.13497786     11413.37     1000 
  582000   0.37435556   -2.2268693   0.56097181   -1.6658975   0.12125369    11345.574     1000 
  584000   0.39896758   -2.2791796   0.59785292   -1.6813267   0.13466493    11357.313     1000 
  586000   0.38849576   -2.2871617   0.58216089   -1.7050008   0.12824382    11419.116     1000 
  588000   0.38230768   -2.2671327   0.57288806   -1.6942446   0.13026989    11410.502     1000 
  590000    0.3988601   -2.2925719   0.59769186   -1.6948801   0.13020901    11374.817     1000 
  592000   0.38270427   -2.2563207   0.57348235   -1.6828383   0.13271409    11292.266     1000 
  594000   0.38288643   -2.1989374   0.57375531   -1.6251821   0.14885996    11297.563     1000 
  596000   0.39904914    -2.232423   0.59797514   -1.6344478   0.12616958    11481.448     1000 
  598000   0.39715029   -2.2884178   0.59512972   -1.6932881   0.14112977    11364.045     1000 
  600000   0.39127917   -2.2538763   0.58633184   -1.6675445   0.13309151    11406.541     1000 
  602000   0.38154164   -2.2893282   0.57174015   -1.7175881   0.12561838    11406.823     1000 
  604000   0.36242896   -2.2569755    0.5430998   -1.7138757   0.13154105    11307.317     1000 
  606000   0.40341659   -2.2164489   0.60451977   -1.6119291   0.13841843    11308.541     1000 
  608000   0.37965534   -2.2505396   0.56891353   -1.6816261   0.12523675    11350.658     1000 
  610000   0.38606908   -2.3041879   0.57852452   -1.7256633   0.13052384    11407.076     1000 
  612000   0.38287208   -2.2802368   0.57373381    -1.706503   0.12358746    11474.987     1000 
  614000   0.38825683   -2.3163004   0.58180285   -1.7344975   0.12552073    11433.494     1000 
  616000   0.41297417    -2.285148   0.61884179   -1.6663062    0.1294294    11395.314     1000 
  618000   0.38402675   -2.2506679   0.57546409   -1.6752038   0.11695205    11430.841     1000 
  620000   0.39186845   -2.2764586   0.58721487   -1.6892438   0.12935916    11467.653     1000 
  622000   0.37831794   -2.2737476   0.56690944   -1.7068382   0.12286983    11423.022     1000 
  624000   0.38214227   -2.2541064   0.57264019   -1.6814662   0.13934579    11289.123     1000 
  626000   0.39297779   -2.2922662   0.58887722    -1.703389   0.13142425      11405.4     1000 
  628000   0.39466628   -2.2560523   0.59140741   -1.6646449   0.12785989    11397.738     1000 
  630000   0.38542475   -2.2787851   0.57755898   -1.7012261     0.126402    11395.435     1000 
  632000   0.38118862   -2.2582429   0.57121115   -1.6870317   0.12978874     11354.25     1000 
  634000   0.41301857   -2.2846193   0.61890833    -1.665711    0.1316796    11367.508     1000 
  636000   0.39480258    -2.261261   0.59161167   -1.6696493   0.14521467    11255.072     1000 
  638000   0.38853121   -2.2512522   0.58221401   -1.6690382    0.1212158    11488.241     1000 
  640000   0.38248814   -2.3072035   0.57315848    -1.734045   0.13121134    11431.343     1000 
  642000   0.39757286   -2.3000552   0.59576294   -1.7042922   0.13491963    11395.812     1000 
  644000   0.38840163   -2.3085705   0.58201984   -1.7265506   0.12380784     11388.63     1000 
  646000   0.39416655   -2.2627652   0.59065858   -1.6721066   0.12894251    11396.209     1000 
  648000   0.40547401   -2.2431341    0.6076028   -1.6355313   0.13467487     11318.39     1000 
  650000    0.3859425   -2.2491684   0.57833483   -1.6708336   0.13179298    11315.115     1000 
  652000   0.39698361   -2.2617548   0.59487995   -1.6668748   0.12533976    11421.654     1000 
  654000    0.3860022    -2.267831    0.5784243   -1.6894067   0.12959952    11358.377     1000 
  656000   0.40173188   -2.2507051   0.60199523   -1.6487098   0.13753641    11373.412     1000 
  658000   0.39255872   -2.2932295   0.58824925   -1.7049803   0.12579839    11390.661     1000 
  660000   0.40213369   -2.2847472   0.60259734   -1.6821498   0.13553088     11307.67     1000 
  662000    0.4027977   -2.3075491   0.60359236   -1.7039568   0.12966635    11372.641     1000 
  664000   0.39223869   -2.2537216   0.58776967    -1.665952    0.1208001    11427.361     1000 
  666000   0.39906864   -2.2923457   0.59800436   -1.6943414   0.13063168     11396.01     1000 
  668000   0.37392397   -2.2425356   0.56032507   -1.6822106   0.12955548    11339.502     1000 
  670000   0.37241531   -2.2851637   0.55806435   -1.7270994    0.1217653    11420.884     1000 
  672000   0.39056165   -2.2588323   0.58525663   -1.6735756    0.1282441    11430.448     1000 
  674000   0.38621299    -2.280452   0.57874017   -1.7017119   0.13119757    11426.796     1000 
  676000   0.38632726   -2.2444546   0.57891139   -1.6655432   0.12992502    11351.696     1000 
  678000    0.3928753   -2.2620389   0.58872364   -1.6733153    0.1142405    11502.979     1000 
  680000   0.39690621   -2.3097835   0.59476396   -1.7150195   0.12722885    11444.899     1000 
  682000   0.38506525   -2.2823105   0.57702028   -1.7052902   0.12657663    11430.968     1000 
  684000   0.41066661   -2.2592041   0.61538391   -1.6438201   0.13248762    11374.417     1000 
  686000   0.38602502   -2.3033561    0.5784585   -1.7248976    0.1338139    11420.535     1000 
  688000    0.4029939   -2.2914039   0.60388636   -1.6875175   0.11965832    11498.887     1000 
  690000   0.40033348   -2.2739117   0.59989972    -1.674012    0.1393883    11218.251     1000 
  692000   0.41320196   -2.2416569   0.61918313   -1.6224738   0.12813645    11475.329     1000 
  694000   0.38921197   -2.2535673   0.58323413   -1.6703332   0.12805758    11347.831     1000 
  696000   0.40982778   -2.2531268   0.61412693   -1.6389998    0.1282753    11346.512     1000 
  698000   0.39316969    -2.283556   0.58916478   -1.6943912   0.12292943    11520.663     1000 
  700000   0.38114924   -2.2192136   0.57115213   -1.6480615   0.13537454    11248.946     1000 
  702000   0.38518845   -2.2712243   0.57720489   -1.6940194     0.136935    11256.234     1000 
  704000   0.38589502    -2.245087   0.57826369   -1.6668233     0.135518    11265.663     1000 
  706000    0.3945052   -2.2992545   0.59116605   -1.7080885   0.11996387    11458.846     1000 
  708000   0.39600816   -2.2121834   0.59341823   -1.6187651   0.13183938    11329.611     1000 
  710000   0.38146256   -2.3168906   0.57162164    -1.745269   0.12311404    11482.591     1000 
  712000   0.38338644   -2.2387008   0.57450458   -1.6641962   0.13512132    11357.677     1000 
  714000   0.39605256   -2.2934327   0.59348477   -1.6999479   0.11760323    11491.865     1000 
  716000   0.39205489   -2.2354398   0.58749425   -1.6479455   0.13542885    11340.982     1000 
  718000   0.39331938     -2.21984    0.5893891   -1.6304509   0.12667826    11318.266     1000 
  720000   0.39490558   -2.2519867   0.59176602   -1.6602207   0.12728028    11449.124     1000 
  722000   0.38930016   -2.2829715   0.58336629   -1.6996052   0.11843018    11475.476     1000 
  724000   0.38173036   -2.2585331   0.57202294   -1.6865101   0.12944182    11376.219     1000 
  726000   0.38759986   -2.3255739   0.58081839   -1.7447555   0.11222665      11510.2     1000 
  728000   0.40266389   -2.2560491   0.60339183   -1.6526573   0.14300959    11336.885     1000 
  730000   0.38895786   -2.2431782   0.58285336   -1.6603248   0.13350515    11327.637     1000 
  732000    0.4002785   -2.2733493   0.59981733    -1.673532   0.11983459    11400.246     1000 
  734000   0.40737008   -2.2818143   0.61044406   -1.6713702   0.13647391    11322.213     1000 
  736000   0.40790193    -2.260467   0.61124104    -1.649226   0.13279998     11349.25     1000 
  738000   0.40282443   -2.2785518    0.6036324   -1.6749194   0.13471645    11323.843     1000 
  740000    0.3997523    -2.230912   0.59902882   -1.6318832   0.13285583    11275.876     1000 
  742000   0.38130366   -2.2660932   0.57138353   -1.6947097   0.12190188     11417.52     1000 
  744000   0.40159908   -2.2497376   0.60179621   -1.6479414    0.1369796     11266.79     1000 
  746000    0.3948059   -2.2676155   0.59161663   -1.6759989   0.12876802    11310.503     1000 
  748000   0.40180351    -2.269342   0.60210256   -1.6672394   0.13328161    11389.238     1000 
  750000   0.38638487   -2.2660211   0.57899772   -1.6870234   0.12709707    11412.816     1000 
  752000    0.3935341    -2.244768   0.58971085   -1.6550572   0.13608001    11344.455     1000 
  754000   0.39359814   -2.2410269   0.58980681   -1.6512201   0.13715496    11270.115     1000 
  756000   0.37830281   -2.2574304   0.56688676   -1.6905437   0.12592464    11386.747     1000 
  758000   0.39023692   -2.2727015   0.58477003   -1.6879315   0.13830859    11346.434     1000 
  760000   0.37117469   -2.2509165   0.55620528   -1.6947112   0.12759765    11391.526     1000 
  762000   0.37904356   -2.2290718   0.56799678    -1.661075    0.1286466    11424.136     1000 
  764000   0.39498742   -2.2793926   0.59188864    -1.687504   0.13364868    11375.611     1000 
  766000   0.37115226   -2.3180802   0.55617167   -1.7619085   0.13416668    11341.275     1000 
  768000   0.38148873    -2.276214   0.57166085   -1.7045532   0.12619862    11375.464     1000 
  770000   0.41218397     -2.21981   0.61765768   -1.6021523   0.13495136    11386.939     1000 
  772000    0.3891908   -2.2938408   0.58320241   -1.7106384   0.13258667    11336.957     1000 
  774000   0.38518819   -2.2696866    0.5772045   -1.6924821   0.13254223    11323.925     1000 
  776000   0.38901892   -2.2668775   0.58294485   -1.6839327    0.1395217    11303.305     1000 
  778000   0.40208057   -2.2946956   0.60251774   -1.6921779   0.14326237    11323.727     1000 
  780000   0.38401962   -2.2699241    0.5754534   -1.6944707   0.13855415    11325.427     1000 
  782000   0.38158299   -2.2793051   0.57180211    -1.707503    0.1286118    11453.356     1000 
  784000   0.38372498   -2.2320586   0.57501188   -1.6570467   0.13782014    11321.951     1000 
  786000   0.37408696   -2.2659326   0.56056931   -1.7053633   0.13258794     11403.78     1000 
  788000   0.39399711   -2.2730718   0.59040467   -1.6826672   0.13968333    11361.078     1000 
  790000   0.38464143   -2.2277439   0.57638518   -1.6513587   0.12972905    11400.864     1000 
  792000   0.38332288   -2.2540304   0.57440934    -1.679621   0.12580302    11428.882     1000 
  794000    0.3910495   -2.2115178   0.58598767   -1.6255302    0.1309233    11363.452     1000 
  796000   0.38614701   -2.2774494   0.57864129   -1.6988081    0.1262052    11408.098     1000 
  798000   0.39423689   -2.2569272   0.59076398   -1.6661632   0.12128948    11480.261     1000 
  800000   0.39970136   -2.2821635   0.59895248   -1.6832111   0.12707664    11395.925     1000 
  802000   0.38718273   -2.2481541   0.58019332   -1.6679608   0.13153152     11304.82     1000 
  804000   0.39544463   -2.2511868   0.59257377    -1.658613   0.13781822    11239.637     1000 
  806000   0.39032352   -2.2648676   0.58489979   -1.6799678   0.12749522    11322.532     1000 
  808000   0.38804678    -2.269789    0.5814881   -1.6883009   0.12816637    11428.108     1000 
  810000   0.40201135    -2.259401   0.60241401    -1.656987    0.1294767    11448.894     1000 
  812000   0.36746216   -2.2507147   0.55064205   -1.7000726   0.11869132    11405.705     1000 
  814000   0.39853717    -2.248959   0.59720794   -1.6517511   0.12790289     11352.03     1000 
  816000   0.39630547    -2.259189   0.59386375   -1.6653253   0.13276797    11332.595     1000 
  818000   0.38529597   -2.2339347   0.57736601   -1.6565687   0.12972872    11302.251     1000 
  820000   0.39223512   -2.2836124   0.58776433   -1.6958481   0.13250975    11391.715     1000 
  822000   0.38777581   -2.2365827   0.58108204   -1.6555006   0.13047139    11342.773     1000 
  824000   0.38668244   -2.2719487   0.57944364   -1.6925051   0.13467767    11351.358     1000 
  826000   0.39063103   -2.3014216   0.58536059    -1.716061   0.13983995    11400.868     1000 
  828000   0.40975224   -2.2666337   0.61401373     -1.65262   0.13679243    11345.382     1000 
  830000   0.39253807   -2.2834513    0.5882183    -1.695233   0.12328822    11471.177     1000 
  832000    0.3958069   -2.2675437   0.59311663   -1.6744271   0.14095988    11301.392     1000 
  834000   0.37159462   -2.2686369   0.55683454   -1.7118023   0.12826733    11407.761     1000 
  836000   0.40296949     -2.27122   0.60384977   -1.6673702   0.13172299    11321.291     1000 
  838000   0.36911383   -2.2506152   0.55311708   -1.6974981   0.12098341    11480.583     1000 
  840000   0.37249887    -2.252093   0.55818956   -1.6939035   0.12428809     11324.09     1000 
  842000   0.38498042   -2.2171326   0.57689316   -1.6402395   0.14314196    11214.719     1000 
  844000   0.39389377   -2.2629428   0.59024982    -1.672693   0.12211582     11368.51     1000 
  846000   0.39542312   -2.2627117   0.59254154   -1.6701702   0.12722543    11432.857     1000 
  848000   0.38917292   -2.2388388   0.58317562   -1.6556631   0.12734087    11418.948     1000 
  850000   0.39254356   -2.2608093   0.58822653   -1.6725828   0.13760834    11293.417     1000 
  852000    0.3907485   -2.2588611   0.58553663   -1.6733245   0.11849152    11477.182     1000 
  854000   0.40046262   -2.2627229   0.60009323   -1.6626297   0.11961259    11420.663     1000 
  856000   0.38310362     -2.26272   0.57408077   -1.6886393   0.12112479    11514.492     1000 
  858000   0.40079122   -2.3094011   0.60058564   -1.7088155   0.12598233    11472.093     1000 
  860000   0.38148791    -2.275708   0.57165963   -1.7040484   0.12596892    11480.664     1000 
  862000   0.38822867   -2.2749035   0.58176066   -1.6931428    0.1282372     11478.25     1000 
  864000      0.38804   -2.2881377   0.58147794   -1.7066597   0.11988851    11467.506     1000 
  866000   0.37799133   -2.2891506      0.56642   -1.7227306   0.12298369    11459.778     1000 
  868000   0.39997764   -2.2504488   0.59936649   -1.6510823   0.12544513    11401.887     1000 
  870000   0.37430499   -2.2330913   0.56089602   -1.6721953   0.13410114    11320.752     1000 
  872000   0.38935756   -2.2500529    0.5834523   -1.6666006   0.12198601    11403.544     1000 
  874000   0.40644802   -2.3166821   0.60906235   -1.7076198    0.1230414    11437.866     1000 
  876000   0.37896073   -2.2586992   0.56787266   -1.6908265   0.11340707     11504.85     1000 
  878000   0.38521366   -2.2459262   0.57724266   -1.6686836   0.12760012    11380.597     1000 
  880000   0.39177057   -2.2238736   0.58706819   -1.6368054   0.13917453    11293.154     1000 
  882000   0.37514003   -2.2616929   0.56214733   -1.6995455   0.11853995    11413.214     1000 
  884000   0.39609645   -2.2328045   0.59355053    -1.639254   0.14281103    11217.324     1000 
  886000     0.382317   -2.2794429   0.57290202   -1.7065409   0.12924023    11267.817     1000 
  888000   0.39603273   -2.2685446   0.59345505   -1.6750896   0.13199957     11471.83     1000 
  890000   0.38376557   -2.2619264    0.5750727   -1.6868537   0.13368348    11327.249     1000 
  892000   0.38123897   -2.2997944   0.57128659   -1.7285078   0.12730821    11432.962     1000 
  894000   0.38859171   -2.2033729   0.58230468   -1.6210682   0.13311854    11298.641     1000 
  896000    0.3927734   -2.2574988   0.58857094   -1.6689278   0.13649362    11343.736     1000 
  898000   0.39388133   -2.2785525   0.59023117   -1.6883213    0.1114405    11611.709     1000 
  900000   0.39938024    -2.242391   0.59847129   -1.6439197   0.12305244    11374.957     1000 
  902000    0.3764802   -2.2649876   0.56415558   -1.7008321   0.13186762    11389.691     1000 
  904000   0.39707381   -2.2614256    0.5950151   -1.6664104   0.11845813    11481.834     1000 
  906000   0.40311606   -2.2731384   0.60406941   -1.6690689   0.12702952    11429.826     1000 
  908000   0.37875028   -2.2591308   0.56755729   -1.6915735    0.1209463    11436.598     1000 
  910000   0.37270285   -2.2614644   0.55849523   -1.7029692   0.12360144    11463.306     1000 
  912000    0.3933826   -2.2958994   0.58948383   -1.7064156   0.12941889    11431.481     1000 
  914000   0.40235789   -2.3015643    0.6029333    -1.698631   0.11830245     11434.67     1000 
  916000   0.38957148   -2.2542679   0.58377286    -1.670495   0.13057181    11461.982     1000 
  918000   0.37967688   -2.2569678    0.5689458    -1.688022   0.13078267    11399.856     1000 
  920000    0.3828381   -2.2532432    0.5736829   -1.6795603    0.1338353    11297.408     1000 
  922000   0.37562622   -2.2345894   0.56287588   -1.6717135   0.13950355    11298.294     1000 
  924000   0.39857831    -2.287823    0.5972696   -1.6905534   0.12318151    11436.889     1000 
  926000   0.36942164   -2.2395721   0.55357833   -1.6859937   0.12666313     11394.13     1000 
  928000   0.39395782    -2.281525    0.5903458   -1.6911792   0.12287473    11433.506     1000 
  930000   0.37283393   -2.2405079   0.55869165   -1.6818163   0.12785888    11386.837     1000 
  932000   0.40122778   -2.2500899   0.60123983   -1.6488501   0.12621956     11469.91     1000 
  934000   0.41035407   -2.2636303   0.61491557   -1.6487148   0.12980761    11416.618     1000 
  936000   0.36870736   -2.2706875   0.55250797   -1.7181795   0.11732375    11435.375     1000 
  938000   0.37819459    -2.266496   0.56672459   -1.6997714   0.12782689    11416.563     1000 
  940000    0.4010203   -2.2740681   0.60092892   -1.6731392   0.13652201     11308.82     1000 
  942000   0.37641169   -2.2158819   0.56405292   -1.6518289   0.13503883    11281.264     1000 
  944000   0.39163068   -2.2521399   0.58685858   -1.6652814   0.12818733    11369.281     1000 
  946000   0.36888303   -2.2673677   0.55277122   -1.7145964   0.12787029    11334.334     1000 
  948000   0.36951682    -2.272987   0.55372095    -1.719266    0.1212551    11433.515     1000 
  950000   0.40066198   -2.3073856   0.60039197   -1.7069937    0.1350064      11337.9     1000 
  952000   0.40301659   -2.2533463   0.60392036   -1.6494259   0.12121453    11446.545     1000 
  954000   0.39591253   -2.2269734   0.59327493   -1.6336985   0.13567216    11355.824     1000 
  956000   0.37915807   -2.2764947   0.56816836   -1.7083264   0.11385135    11549.097     1000 
  958000   0.38531975   -2.2769537   0.57740164    -1.699552   0.13995896    11289.774     1000 
  960000   0.38442306   -2.2780944   0.57605796   -1.7020365   0.13101491    11336.205     1000 
  962000    0.3808117   -2.2676498   0.57064634   -1.6970035   0.13211275    11354.811     1000 
  964000   0.39421685   -2.2466835   0.59073395   -1.6559495   0.13508745    11323.733     1000 
  966000   0.39593083   -2.2628972   0.59330236   -1.6695948   0.14135898    11299.495     1000 
  968000   0.38389096   -2.2646851    0.5752606   -1.6894245   0.12374535     11461.19     1000 
  970000   0.38890845   -2.2746173   0.58277931    -1.691838   0.13212401    11308.488     1000 
  972000   0.38703493   -2.2868721   0.57997185   -1.7069002   0.12827316    11428.317     1000 
  974000   0.39987164   -2.2292206   0.59920766    -1.630013   0.12862681    11377.693     1000 
  976000   0.39509753    -2.213762   0.59205365   -1.6217083   0.13086163      11297.3     1000 
  978000   0.37498177   -2.2272816   0.56191018   -1.6653714   0.13459913    11280.211     1000 
  980000   0.39229907   -2.3058189   0.58786015   -1.7179587   0.12510484    11440.939     1000 
  982000   0.39110288   -2.3008173   0.58606767   -1.7147497   0.12673989    11433.456     1000 
  984000   0.40202008   -2.2755346   0.60242708   -1.6731075   0.12728621    11369.811     1000 
  986000   0.40200597    -2.298077   0.60240595    -1.695671   0.13517832    11371.498     1000 
  988000   0.37461564   -2.1948437   0.56136154   -1.6334822   0.13569822    11129.843     1000 
  990000   0.39291878   -2.2473487   0.58878879   -1.6585599   0.12993904     11421.64     1000 
  992000   0.37407401   -2.2967282    0.5605499   -1.7361783   0.11961167    11468.947     1000 
  994000   0.38755193   -2.2581968   0.58074657   -1.6774502   0.12567826      11366.2     1000 
  996000   0.40676867   -2.2691548   0.60954285    -1.659612   0.13009697     11324.09     1000 
  998000   0.37453562   -2.2891293   0.56124162   -1.7278877   0.13446549    11408.942     1000 
 1000000   0.38778856   -2.2441967   0.58110116   -1.6630955   0.12463033    11374.883     1000 
 1002000   0.39586861   -2.2470109   0.59320911   -1.6538018   0.14867369    11168.508     1000 
 1004000   0.38267881   -2.2776675    0.5734442   -1.7042233   0.12275133    11343.833     1000 
 1006000   0.39233556   -2.2712646   0.58791483   -1.6833498   0.13264481    11353.059     1000 
 1008000   0.39447021   -2.2822935   0.59111361   -1.6911799   0.12286648    11460.607     1000 
 1010000   0.38914709   -2.2267866   0.58313692   -1.6436497   0.12295275    11410.976     1000 
 1012000   0.38120566   -2.3239604   0.57123668   -1.7527237   0.13958808    11415.686     1000 
 1014000   0.37904812   -2.2610247   0.56800361   -1.6930211   0.14225149    11212.298     1000 
 1016000   0.37469654   -2.2390572   0.56148277   -1.6775744   0.12889447    11338.279     1000 
 1018000   0.38225786   -2.2849072    0.5728134   -1.7120938   0.12908798    11395.812     1000 
 1020000   0.37302053   -2.2466358   0.55897126   -1.6876646   0.12673877    11314.964     1000 
 1022000   0.39760203   -2.2710625   0.59580664   -1.6752559   0.12708135    11498.587     1000 
 1024000   0.37159125   -2.2521119   0.55682949   -1.6952824    0.1278545     11466.68     1000 
 1026000   0.39755393   -2.2733174   0.59573456   -1.6775829   0.12100541    11553.939     1000 
 1028000   0.38904922   -2.2968413   0.58299025   -1.7138511   0.12230438    11406.584     1000 
 1030000    0.3942455   -2.2302955   0.59077689   -1.6395186   0.13105164      11330.8     1000 
 1032000   0.37709169   -2.2450593   0.56507189   -1.6799874   0.13297555     11277.13     1000 
 1034000   0.37496336    -2.269185    0.5618826   -1.7073024   0.12337867    11502.765     1000 
 1036000   0.38295216   -2.2614591   0.57385382   -1.6876053   0.13407384    11303.494     1000 
 1038000   0.39771554   -2.2754775   0.59597674   -1.6795008   0.12448659    11439.669     1000 
 1040000    0.3841985   -2.2532522   0.57572146   -1.6775307    0.1256947    11360.582     1000 
 1042000   0.38183908   -2.2623145   0.57218586   -1.6901286   0.11405187    11467.594     1000 
 1044000   0.36935232   -2.2233545   0.55347444   -1.6698801   0.13116025    11242.323     1000 
 1046000   0.39846058   -2.2608485   0.59709318   -1.6637553   0.14054167    11370.945     1000 
 1048000    0.3900399   -2.2854343    0.5844748   -1.7009595   0.14404939     11270.86     1000 
 1050000   0.38146014   -2.2186747   0.57161802   -1.6470567   0.14049435    11231.122     1000 
 1052000   0.38945352   -2.2611638    0.5835961   -1.6775677   0.11893623    11384.132     1000 
 1054000   0.38649761     -2.24495   0.57916667   -1.6657833   0.13112297    11329.764     1000 
 1056000   0.40136796   -2.2929481   0.60144988   -1.6914982   0.13137522    11351.823     1000 
 1058000   0.39004262   -2.2957348   0.58447887   -1.7112559   0.12120629    11478.772     1000 
 1060000   0.39332496   -2.2779538   0.58939745   -1.6885563   0.13350261    11345.713     1000 
 1062000    0.3997997   -2.3076405   0.59909984   -1.7085406   0.12808801    11431.444     1000 
 1064000   0.38646605   -2.2386768   0.57911937   -1.6595575   0.14218274     11338.02     1000 
 1066000   0.38775201   -2.2425361   0.58104639   -1.6614897   0.13803313    11268.136     1000 
 1068000   0.39197192   -2.3347171   0.58736992   -1.7473471   0.12817265    11427.574     1000 
 1070000   0.39328269   -2.2490063   0.58933411   -1.6596722   0.13301953    11385.558     1000 
 1072000   0.38607477    -2.258057   0.57853305    -1.679524   0.12710072    11335.525     1000 
 1074000   0.40825863    -2.286121   0.61177556   -1.6743455   0.13363007    11473.263     1000 
 1076000   0.38096864   -2.2503007   0.57088151   -1.6794192   0.12554813    11420.681     1000 
 1078000   0.38113517   -2.2963466   0.57113106   -1.7252155   0.13609331    11393.172     1000 
 1080000    0.3826405   -2.2427879   0.57338679   -1.6694011   0.13383242    11291.391     1000 
 1082000   0.41668824   -2.2430384   0.62440732   -1.6186311   0.13605168     11278.37     1000 
 1084000   0.40675008   -2.2395739   0.60951499   -1.6300589   0.14623134    11197.935     1000 
 1086000   0.38158793    -2.289471   0.57180951   -1.7176614   0.12770687    11329.945     1000 
 1088000   0.38345182    -2.271551   0.57460255   -1.6969485   0.12696827    11438.198     1000 
 1090000   0.38934434   -2.2563508    0.5834325   -1.6729183   0.13256007    11322.059     1000 
 1092000   0.38539439   -2.2600506   0.57751349   -1.6825371   0.13556955     11312.44     1000 
 1094000   0.37729081   -2.2247725   0.56537027   -1.6594022   0.14316822    11272.569     1000 
 1096000   0.41001142   -2.2545088   0.61440211   -1.6401067   0.13071078    11383.153     1000 
 1098000   0.37830177    -2.268311   0.56688521   -1.7014258   0.13040953    11433.496     1000 
 1100000   0.37968425   -2.2650137   0.56895685   -1.6960569   0.11930608    11481.245     1000 
 1102000   0.39225538   -2.2032669   0.58779468   -1.6154722   0.12371811    11362.752     1000 
 1104000   0.38788856    -2.286329   0.58125101    -1.705078    0.1228398    11372.918     1000 
 1106000   0.39684007     -2.26317   0.59466484   -1.6685052   0.14186894    11301.895     1000 
 1108000   0.39681354   -2.2807638    0.5946251   -1.6861387   0.12697893    11411.981     1000 
 1110000   0.39588121   -2.2710135   0.59322799   -1.6777855   0.13065283    11367.847     1000 
 1112000   0.39310334   -2.2631119   0.58906536   -1.6740466   0.12926033    11293.358     1000 
 1114000   0.38703906    -2.283559   0.57997803    -1.703581   0.13763633    11272.323     1000 
 1116000   0.39197331   -2.2715919     0.587372   -1.6842199   0.12389135    11383.253     1000 
 1118000   0.39980956   -2.2932883   0.59911462   -1.6941736   0.12999853    11383.251     1000 
 1120000   0.39512118   -2.2318252   0.59208908   -1.6397361   0.13294548     11287.98     1000 
 1122000   0.39960124    -2.295096   0.59880246   -1.6962935   0.12697055    11399.594     1000 
 1124000    0.3899964   -2.2315353    0.5844096   -1.6471257   0.13586273    11307.078     1000 
 1126000   0.38802603    -2.259152     0.581457    -1.677695   0.12860205    11337.267     1000 
 1128000   0.40274684   -2.2716933   0.60351614   -1.6681771   0.13328045    11444.272     1000 
 1130000    0.3957584   -2.2595382   0.59304396   -1.6664942   0.12734761    11418.241     1000 
 1132000   0.37485468   -2.2937641   0.56171973   -1.7320444   0.13533612    11381.032     1000 
 1134000   0.36808375   -2.2494505    0.5515735    -1.697877   0.14139905    11367.938     1000 
 1136000   0.39676303   -2.2779824    0.5945494    -1.683433   0.12851164    11421.744     1000 
 1138000     0.401266   -2.2788308    0.6012971   -1.6775337   0.13981473    11293.181     1000 
 1140000   0.37399651    -2.273681   0.56043378   -1.7132472   0.12996646      11323.9     1000 
 1142000   0.40045603   -2.2849953   0.60008336   -1.6849119   0.13975047    11296.007     1000 
 1144000   0.41348586   -2.2857878   0.61960857   -1.6661792   0.12992067      11426.8     1000 
 1146000   0.40281351   -2.2579148   0.60361605   -1.6542988   0.13657896    11293.203     1000 
 1148000   0.38173175   -2.2808161   0.57202503   -1.7087911   0.13020822     11433.23     1000 
 1150000   0.39188208   -2.2467056    0.5872353   -1.6594703   0.12038645    11511.514     1000 
 1152000     0.386171   -2.2282106   0.57867725   -1.6495333   0.12885975    11377.589     1000 
 1154000   0.39848982    -2.275178   0.59713699   -1.6780411   0.14545078    11211.358     1000 
 1156000   0.39366288   -2.2732156   0.58990383   -1.6833118   0.13347523    11324.778     1000 
 1158000   0.40286159   -2.2627057    0.6036881   -1.6590176   0.13534674    11410.405     1000 
 1160000   0.38607927   -2.2380861   0.57853978   -1.6595463   0.12368345    11463.232     1000 
 1162000   0.39925817   -2.2551711   0.59828836   -1.6568827   0.14746562    11243.403     1000 
 1164000   0.39227072   -2.2621136   0.58781768   -1.6742959   0.13005589    11441.521     1000 
 1166000    0.3851558   -2.2396324   0.57715597   -1.6624765   0.13846021    11331.976     1000 
 1168000   0.39033565   -2.2460112   0.58491797   -1.6610932   0.12670086    11427.384     1000 
 1170000   0.39127999   -2.2595494   0.58633306   -1.6732164   0.13503095    11250.888     1000 
 1172000    0.3808406   -2.2556267   0.57068963   -1.6849371   0.12959705    11290.149     1000 
 1174000   0.38665544   -2.2213783   0.57940318   -1.6419752   0.12910292    11366.875     1000 
 1176000   0.38717451   -2.2883359     0.580181   -1.7081549   0.13723346    11327.956     1000 
 1178000   0.40171115   -2.2727532   0.60196415   -1.6707891   0.12378488    11351.872     1000 
 1180000   0.38749249   -2.2331541    0.5806575   -1.6524966     0.126171    11406.456     1000 
 1182000   0.39270678   -2.2222227    0.5884711   -1.6337516   0.13116359    11232.566     1000 
 1184000   0.39323696   -2.2577711   0.58926558   -1.6685056   0.12117408    11399.526     1000 
 1186000    0.4007082   -2.2840498   0.60046124   -1.6835886   0.13748778    11365.135     1000 
 1188000   0.39553282   -2.2659186   0.59270593   -1.6732127    0.1295089    11416.752     1000 
 1190000   0.39557445   -2.2663518   0.59276831   -1.6735835   0.13449442    11314.594     1000 
 1192000    0.3909237    -2.235487   0.58579917   -1.6496879   0.14644392    11310.686     1000 
 1194000   0.38803583   -2.2950684   0.58147169   -1.7135968   0.12647767     11364.72     1000 
 1196000    0.3961306   -2.2613847   0.59360171    -1.667783   0.11803275    11489.058     1000 
 1198000   0.40035246   -2.2131422   0.59992817    -1.613214   0.14221134    11262.321     1000 
 1200000   0.38220099   -2.2500978   0.57272819   -1.6773697   0.13803927    11303.193     1000 
 1202000   0.41224152   -2.2731011   0.61774392   -1.6553572   0.13319851    11348.126     1000 
 1204000   0.39496853   -2.2910787   0.59186035   -1.6992183   0.11539136    11477.948     1000 
 1206000   0.40319852   -2.2918557   0.60419298   -1.6876627   0.12886641    11389.733     1000 
 1208000   0.37326245   -2.2522865   0.55933378   -1.6929527   0.13475797    11376.794     1000 
 1210000   0.39598389   -2.2383608   0.59338185    -1.644979   0.13436882    11312.756     1000 
 1212000   0.36579235   -2.2468007   0.54813984   -1.6986609   0.13137638    11340.682     1000 
 1214000   0.39600271   -2.2630751   0.59341005   -1.6696651   0.13709934    11303.757     1000 
 1216000   0.39529858   -2.2715747   0.59235493   -1.6792198    0.1314857    11378.376     1000 
 1218000   0.39893466   -2.3018598   0.59780359   -1.7040562   0.13763001    11307.561     1000 
 1220000   0.37779568   -2.2889708   0.56612683   -1.7228439    0.1387261    11263.333     1000 
 1222000   0.39038718   -2.2472003   0.58499518   -1.6622051   0.13159187    11334.887     1000 
 1224000   0.39308441    -2.236371   0.58903698    -1.647334   0.12857237    11378.179     1000 
 1226000   0.37706834   -2.2577241    0.5650369   -1.6926872   0.13325124    11361.354     1000 
 1228000   0.38460772   -2.2540355   0.57633467   -1.6777008   0.13156383    11235.884     1000 
 1230000   0.39868245   -2.2479497   0.59742565   -1.6505241   0.13309392    11386.037     1000 
 1232000   0.37711387   -2.2728528   0.56510513   -1.7077477   0.13205646    11426.742     1000 
 1234000   0.38276724   -2.2593357   0.57357671    -1.685759   0.12610324    11411.338     1000 
 1236000   0.37668939    -2.290806   0.56446904   -1.7263369   0.12713516    11357.667     1000 
 1238000   0.40157821   -2.2811138   0.60176495   -1.6793489   0.12650058    11348.789     1000 
 1240000    0.3918311   -2.2707338    0.5871589   -1.6835749   0.14631326    11264.838     1000 
 1242000   0.38292666   -2.3027004    0.5738156   -1.7288848   0.13179577    11440.539     1000 
 1244000   0.39486017   -2.2464401   0.59169797   -1.6547422   0.13194303    11353.652     1000 
 1246000   0.37949938   -2.2390724   0.56867983   -1.6703925   0.13214095    11326.067     1000 
 1248000   0.39347168   -2.2630034   0.58961732   -1.6733861   0.13006629    11363.731     1000 
 1250000   0.40431596    -2.308405   0.60586747   -1.7025376   0.12078137    11426.288     1000 
 1252000    0.4008975   -2.2938764    0.6007449   -1.6931315   0.12373541    11382.931     1000 
 1254000   0.40017758   -2.2511676    0.5996661   -1.6515015   0.13060157    11384.061     1000 
 1256000   0.38050966   -2.2323812   0.57019372   -1.6621875   0.13298968    11151.501     1000 
 1258000   0.37856556   -2.2450375    0.5672805    -1.677757   0.13745551     11282.15     1000 
 1260000   0.38540641   -2.2553574   0.57753151   -1.6778258   0.12294907    11354.065     1000 
 1262000   0.40365319   -2.2396872   0.60487431   -1.6348129   0.14471838    11198.717     1000 
 1264000   0.39640757   -2.2716074   0.59401675   -1.6775906   0.14352352    11279.274     1000 
 1266000   0.39877494     -2.25369   0.59756424   -1.6561258   0.14089338    11350.177     1000 
 1268000   0.39143414   -2.2542077   0.58656406   -1.6676436   0.12793912    11379.911     1000 
 1270000   0.38430144   -2.2684331    0.5758757   -1.6925574   0.13133891    11388.083     1000 
 1272000   0.36515302   -2.2349437    0.5471818   -1.6877619   0.12288391    11377.214     1000 
 1274000    0.3947851   -2.2625839   0.59158547   -1.6709984   0.13601226    11281.365     1000 
 1276000   0.39099827   -2.2756268    0.5859109   -1.6897159   0.12076967    11461.549     1000 
 1278000   0.38405205   -2.2234721   0.57550199   -1.6479701   0.13001925    11287.105     1000 
 1280000   0.39878924   -2.2784412   0.59758568   -1.6808556   0.12941789    11463.701     1000 
 1282000   0.36931122   -2.2425432   0.55341287   -1.6891303   0.13185258     11279.92     1000 
 1284000   0.38365756    -2.308692   0.57491085   -1.7337812   0.12309725    11466.017     1000 
 1286000    0.4195931   -2.2918059   0.62876025   -1.6630457   0.12299346    11502.062     1000 
 1288000   0.38166586   -2.2521458   0.57192629   -1.6802195   0.12908195    11389.042     1000 
 1290000   0.40357388   -2.2695205   0.60475546   -1.6647651   0.12737554    11349.535     1000 
 1292000   0.37710663   -2.2475078   0.56509429   -1.6824135   0.11495751    11531.447     1000 
 1294000   0.37805189   -2.2618829   0.56651076   -1.6953722   0.12010595    11445.764     1000 
 1296000   0.36655493    -2.252451   0.54928257   -1.7031685   0.12307397    11427.714     1000 
 1298000   0.39341888   -2.2289686   0.58953819   -1.6394304   0.12382668    11337.082     1000 
 1300000   0.38897722   -2.2588809   0.58288236   -1.6759986   0.13077712    11376.732     1000 
 1302000   0.38049836   -2.2880025    0.5701768   -1.7178257   0.12891548    11348.445     1000 
 1304000   0.37775877   -2.2338307   0.56607151   -1.6677592   0.13212653     11482.18     1000 
 1306000   0.39018615   -2.2827562   0.58469394   -1.6980622   0.12473286    11414.987     1000 
 1308000   0.39332707   -2.2768974   0.58940061   -1.6874968   0.12931343    11412.676     1000 
 1310000   0.38265437   -2.2888618   0.57340757   -1.7154543   0.12659903    11439.229     1000 
 1312000   0.38981509   -2.2755567   0.58413791   -1.6914187   0.13894215    11288.823     1000 
 1314000   0.38842963   -2.1942132    0.5820618   -1.6121514   0.13586814     11277.95     1000 
 1316000   0.39486176   -2.2636716   0.59170035   -1.6719712   0.12600737    11507.964     1000 
 1318000    0.3847901    -2.290639   0.57660796    -1.714031   0.12654097     11494.22     1000 
 1320000   0.39453115   -2.2236381   0.59120493   -1.6324332   0.13068003    11339.782     1000 
 1322000   0.38176423   -2.2963213    0.5720737   -1.7242476    0.1321172    11348.677     1000 
 1324000   0.39366672   -2.2561762   0.58990958   -1.6662666   0.12284135    11349.839     1000 
 1326000   0.38590946    -2.292811   0.57828532   -1.7145257   0.12536976    11453.419     1000 
 1328000   0.38095453   -2.2486052   0.57086037   -1.6777448   0.13843932    11367.205     1000 
 1330000   0.39647971   -2.2478082   0.59412484   -1.6536834   0.12370632    11432.466     1000 
 1332000    0.3907709   -2.2686658    0.5855702   -1.6830956   0.12769638     11440.39     1000 
 1334000   0.38429346   -2.3041661   0.57586375   -1.7283023   0.11628194    11511.599     1000 
 1336000   0.39015358   -2.2290341   0.58464514   -1.6443889   0.13355048    11360.068     1000 
 1338000   0.39806577   -2.2083167   0.59650156   -1.6118151   0.13793376    11342.309     1000 
 1340000   0.39910126   -2.2927468   0.59805324   -1.6946936   0.13444812    11440.877     1000 
 1342000   0.38066467    -2.250802   0.57042601    -1.680376   0.13610329    11308.614     1000 
 1344000   0.37903019    -2.247896   0.56797674   -1.6799192   0.13019859    11416.467     1000 
 1346000   0.40946626   -2.2291033   0.61358519   -1.6155181   0.12155682    11420.682     1000 
 1348000   0.39571581   -2.3051141   0.59298015   -1.7121339   0.12272468    11475.426     1000 
 1350000   0.38442485   -2.2468621   0.57606064   -1.6708015   0.13856101    11258.443     1000 
 1352000   0.39374441   -2.2720199     0.590026   -1.6819939    0.1311988    11336.113     1000 
 1354000   0.39872863   -2.2769137   0.59749485   -1.6794189   0.13302655    11339.736     1000 
 1356000   0.39473409    -2.221103   0.59150903    -1.629594   0.13679461    11264.743     1000 
 1358000    0.3765255   -2.2596128   0.56422346   -1.6953893   0.12824082    11415.477     1000 
 1360000   0.38914171   -2.2603188   0.58312886     -1.67719   0.12988091    11377.616     1000 
 1362000   0.38188387   -2.2473812   0.57225298   -1.6751282   0.12573109    11378.354     1000 
 1364000    0.3947715     -2.23069   0.59156509    -1.639125   0.13154814    11217.721     1000 
 1366000    0.3842094   -2.2299787   0.57573779   -1.6542409   0.13116216    11246.689     1000 
 1368000   0.38059327   -2.2788937   0.57031902   -1.7085747   0.12757757    11344.921     1000 
 1370000   0.40118031   -2.2951049   0.60116869   -1.6939362   0.12741084    11440.985     1000 
 1372000   0.37637259   -2.2433562   0.56399433   -1.6793619    0.1277253    11312.698     1000 
 1374000   0.41150619   -2.2668725   0.61664203   -1.6502304   0.13739952    11332.305     1000 
 1376000   0.39657844   -2.2685593   0.59427279   -1.6742865   0.12565604    11338.187     1000 
 1378000   0.40375706   -2.2198652   0.60502995   -1.6148352   0.13234884    11337.971     1000 
 1380000   0.39400141   -2.2638479   0.59041111   -1.6734368   0.13197448    11447.559     1000 
 1382000   0.39874792   -2.2935259   0.59752376   -1.6960021   0.13408188    11362.783     1000 
 1384000   0.39963905   -2.3041021   0.59885912    -1.705243   0.12617033      11460.6     1000 
 1386000   0.39225075   -2.2897003   0.58778774   -1.7019126   0.12855245    11515.767     1000 
 1388000   0.39270036   -2.2786505   0.58846149    -1.690189   0.12605545    11366.045     1000 
 1390000   0.39383871   -2.2176788    0.5901673   -1.6275115   0.13319073    11353.796     1000 
 1392000   0.39125075   -2.2815403   0.58628924   -1.6952511   0.12829141    11449.884     1000 
 1394000   0.37459638    -2.228042   0.56133267   -1.6667094   0.14115029    11280.464     1000 
 1396000   0.37177216    -2.254842   0.55710058   -1.6977414   0.12780229    11353.472     1000 
 1398000   0.39440914   -2.2544935   0.59102209   -1.6634715   0.13769978    11283.686     1000 
 1400000   0.38870571   -2.2881217   0.58247551   -1.7056462   0.11714741    11514.697     1000 
 1402000    0.4078524    -2.215247   0.61116683   -1.6040802   0.14133469    11387.331     1000 
 1404000   0.40062185   -2.2299905   0.60033184   -1.6296586   0.12031397    11414.048     1000 
 1406000   0.39240523   -2.2488918   0.58801924   -1.6608726   0.14085225    11300.657     1000 
 1408000   0.40046388   -2.2590112   0.60009513   -1.6589161    0.1329083    11359.606     1000 
 1410000   0.39253844   -2.2990311   0.58821885   -1.7108123   0.12419156    11417.166     1000 
 1412000   0.38858923   -2.2633248   0.58230097   -1.6810239   0.12551837    11432.303     1000 
 1414000   0.37100399   -2.2881154   0.55594947    -1.732166   0.13212826     11324.97     1000 
 1416000   0.36816466   -2.2850894   0.55169474   -1.7333946   0.12077996    11478.276     1000 
 1418000   0.39477667   -2.2436869   0.59157285    -1.652114   0.13670607    11229.909     1000 
 1420000   0.39361267   -2.2507025   0.58982859   -1.6608739   0.14784704    11155.784     1000 
 1422000    0.3962219   -2.2200191   0.59373851   -1.6262806     0.144919    11275.836     1000 
 1424000   0.37494057   -2.2174327   0.56184845   -1.6555843    0.1449265    11243.124     1000 
 1426000   0.37718584   -2.2596711   0.56521299   -1.6944581   0.12392138    11394.156     1000 
 1428000   0.39275042   -2.2558362   0.58853651   -1.6672997   0.14675199    11277.054     1000 
 1430000   0.39758971   -2.2944727   0.59578819   -1.6986845   0.14823924    11323.463     1000 
 1432000   0.39720611   -2.2244643   0.59521336   -1.6292509   0.13042482    11228.262     1000 
 1434000   0.38509915    -2.264281   0.57707107   -1.6872099   0.12883687    11454.167     1000 
 1436000    0.4090335   -2.2987303   0.61293671   -1.6857936   0.12883097    11440.937     1000 
 1438000   0.39403749   -2.3130739   0.59046518   -1.7226087   0.13422987    11333.381     1000 
 1440000   0.41354352   -2.2436493   0.61969497   -1.6239544   0.14420348    11213.787     1000 
 1442000    0.3967836   -2.2301321   0.59458022   -1.6355518   0.13861308    11274.531     1000 
 1444000   0.38356406   -2.2638257   0.57477075   -1.6890549   0.13633998    11387.087     1000 
 1446000   0.40412407   -2.2604985   0.60557992   -1.6549186   0.12895777    11457.784     1000 
 1448000   0.39678827   -2.2410988   0.59458722   -1.6465116   0.13335742    11307.316     1000 
 1450000   0.37884585   -2.2468326    0.5677005   -1.6791321   0.12192124    11397.726     1000 
 1452000    0.3966975   -2.2714513    0.5944512   -1.6770001   0.13372701    11405.595     1000 
 1454000   0.39734751   -2.2560918   0.59542525   -1.6606666   0.12898895    11340.349     1000 
 1456000   0.38322553   -2.2473845   0.57426346    -1.673121   0.13592055    11330.608     1000 
 1458000   0.38610006   -2.2634836   0.57857094   -1.6849127    0.1278287     11349.39     1000 
 1460000   0.39440206   -2.2744469   0.59101149   -1.6834354   0.13594193    11331.565     1000 
 1462000   0.37763698   -2.2318699   0.56588901   -1.6659808   0.12894209    11324.507     1000 
 1464000    0.3884547   -2.2524933   0.58209936   -1.6703939   0.12694417    11354.781     1000 
 1466000   0.38706741    -2.296041   0.58002051   -1.7160205   0.13326913    11400.879     1000 
 1468000   0.37882429   -2.3038785   0.56766819   -1.7362103   0.12149825    11420.622     1000 
 1470000   0.39080015    -2.265266   0.58561402    -1.679652   0.12877768    11385.818     1000 
 1472000   0.37567541   -2.2455849   0.56294961   -1.6826353   0.11959138    11402.184     1000 
 1474000   0.41424497    -2.273083   0.62074608   -1.6523369   0.13443189    11333.322     1000 
 1476000   0.38263398   -2.2775033   0.57337701   -1.7041263   0.12529714    11371.116     1000 
 1478000   0.39872906   -2.2744731   0.59749549   -1.6769776   0.13513798    11263.509     1000 
 1480000   0.39255273   -2.3063715   0.58824026   -1.7181312   0.12649584    11425.154     1000 
 1482000    0.3894988   -2.2115231   0.58366395   -1.6278591   0.13733161     11269.12     1000 
 1484000   0.39691881   -2.2548817   0.59478284   -1.6600989    0.1225513    11411.531     1000 
 1486000    0.3766005   -2.2628117   0.56433586   -1.6984758   0.12764536    11433.095     1000 
 1488000   0.38366878   -2.3002326   0.57492767   -1.7253049   0.12555996     11437.38     1000 
 1490000   0.38290906   -2.2863933   0.57378922    -1.712604   0.13084803    11362.379     1000 
 1492000   0.40711692   -2.2227063   0.61006471   -1.6126416   0.13055809    11425.497     1000 
 1494000   0.37355127   -2.2998662   0.55976658   -1.7400996   0.12184538    11398.915     1000 
 1496000   0.39662299   -2.2917354   0.59433956   -1.6973958   0.12763049    11461.216     1000 
 1498000   0.36499595   -2.2570355   0.54694642   -1.7100891   0.12539425    11403.177     1000 
 1500000   0.38043791   -2.2848933   0.57008621    -1.714807   0.12969502    11369.429     1000 
 1502000   0.38987428   -2.2790381   0.58422661   -1.6948115   0.13196352    11434.153     1000 
 1504000   0.37791047   -2.2831579   0.56629884   -1.7168591   0.11782686    11478.818     1000 
 1506000   0.39777066   -2.3095771   0.59605933   -1.7135178   0.12484195    11486.661     1000 
 1508000   0.38531879   -2.2440382   0.57740021    -1.666638   0.12256811    11434.817     1000 
 1510000   0.39543299   -2.2685973   0.59255633    -1.676041    0.1330429     11281.46     1000 
 1512000   0.38171915   -2.2679235   0.57200615   -1.6959174   0.12578303    11484.441     1000 
 1514000   0.38552874   -2.2753375   0.57771482   -1.6976227   0.13530848    11392.734     1000 
 1516000   0.39275018   -2.2966459   0.58853615   -1.7081097   0.12925596    11319.718     1000 
 1518000   0.39512815   -2.2765903   0.59209954   -1.6844907   0.13010259    11466.615     1000 
 1520000   0.39111169   -2.3064599   0.58608087   -1.7203791   0.13325869     11372.44     1000 
 1522000   0.39731707   -2.2397358   0.59537963   -1.6443562   0.13102379    11300.143     1000 
 1524000   0.38944405   -2.2861257   0.58358191   -1.7025438   0.12872975    11343.524     1000 
 1526000   0.38144482   -2.2435805   0.57159506   -1.6719855   0.14067822    11322.448     1000 
 1528000    0.3747223   -2.2431221   0.56152137   -1.6816008   0.12348305    11410.137     1000 
 1530000   0.39067395   -2.2588057   0.58542491   -1.6733808   0.13272341    11336.192     1000 
 1532000    0.3894861   -2.2810117   0.58364493   -1.6973667   0.12122659    11436.673     1000 
 1534000   0.38904591   -2.2744008    0.5829853   -1.6914155   0.11697783    11471.929     1000 
 1536000   0.38347552   -2.2404454   0.57463807   -1.6658073   0.13122373    11380.201     1000 
 1538000   0.38984079    -2.292403   0.58417642   -1.7082266   0.11694952    11543.775     1000 
 1540000   0.40379935   -2.2757237   0.60509333   -1.6706303   0.13425681    11399.185     1000 
 1542000   0.40497483   -2.3003658   0.60685478   -1.6935111   0.13491127    11483.955     1000 
 1544000   0.39402437   -2.2926507   0.59044551   -1.7022052   0.12555186    11403.913     1000 
 1546000   0.38944349   -2.2733608   0.58358107   -1.6897797   0.11851056    11530.624     1000 
 1548000   0.39781038   -2.2869578   0.59611886   -1.6908389   0.12373121    11480.758     1000 
 1550000   0.39828788   -2.2519126   0.59683439   -1.6550782   0.13731575    11382.661     1000 
 1552000   0.39012127   -2.2591658   0.58459672   -1.6745691   0.14534458    11230.685     1000 
 1554000   0.38330813   -2.2398467   0.57438723   -1.6654595   0.12412031    11397.761     1000 
 1556000   0.39725984   -2.2360437   0.59529387   -1.6407498   0.13920947    11336.043     1000 
 1558000    0.3906071    -2.265946   0.58532474   -1.6806213   0.12523912    11391.108     1000 
 1560000   0.38686679   -2.2936401   0.57971989   -1.7139202   0.12264893    11424.647     1000 
 1562000   0.38155653   -2.2538224   0.57176246     -1.68206   0.12559454    11387.543     1000 
 1564000   0.37907839   -2.2951849   0.56804897   -1.7271359    0.1264101    11454.594     1000 
 1566000   0.38962608   -2.3024117   0.58385468    -1.718557   0.11620188    11523.512     1000 
 1568000   0.39261477   -2.2326743   0.58833324   -1.6443411   0.11568759      11462.6     1000 
 1570000   0.39427756   -2.2845598   0.59082492   -1.6937349   0.13506269    11292.691     1000 
 1572000   0.38996982   -2.2748214   0.58436977   -1.6904516   0.12416814    11484.485     1000 
 1574000   0.39005427   -2.2951823   0.58449632    -1.710686   0.14093169     11353.17     1000 
 1576000   0.39778495   -2.2995048   0.59608075    -1.703424   0.13240348    11428.114     1000 
 1578000   0.37715043   -2.2937036   0.56515992   -1.7285437   0.13127871    11314.307     1000 
 1580000   0.39291333   -2.2643503   0.58878063   -1.6755697    0.1368777    11287.092     1000 
 1582000   0.38700573   -2.2531089   0.57992809   -1.6731808   0.13608436    11337.811     1000 
 1584000   0.38920278   -2.2446183   0.58322036   -1.6613979   0.14114552    11319.261     1000 
 1586000   0.39402444   -2.2601531   0.59044562   -1.6697074   0.12542502     11399.09     1000 
 1588000    0.3942567   -2.2315971   0.59079366   -1.6408034   0.12883265    11331.743     1000 
[...]
 2614000   0.37482878   -2.2793367   0.56168093   -1.7176557   0.12439158    11415.123     1000 
 2616000   0.41492687   -2.2117395   0.62176792   -1.5899716   0.14367544    11319.179     1000 
 2618000   0.39151764   -2.2626348   0.58668919   -1.6759456   0.13508454    11361.356     1000 
 2620000   0.37671091   -2.2392158    0.5645013   -1.6747145   0.13557504    11329.312     1000 
 2622000   0.39113484   -2.2464265   0.58611556   -1.6603109   0.12957222    11368.995     1000 
 2624000   0.37316596   -2.2588045    0.5591892   -1.6996153   0.11738433    11486.427     1000 
 2626000   0.38871265   -2.2663586    0.5824859   -1.6838727   0.12302328    11434.342     1000 
 2628000   0.37932848   -2.2740325   0.56842372   -1.7056088    0.1373643    11283.665     1000 
 2630000   0.37221322   -2.2710744   0.55776152   -1.7133129   0.12706358    11343.908     1000 
 2632000   0.38776853   -2.2778809   0.58107114   -1.6968098   0.12018379    11442.522     1000 
 2634000   0.38968568   -2.2403416   0.58394399   -1.6563976   0.13782543      11315.9     1000 
 2636000   0.37522983   -2.2284639    0.5622819    -1.666182   0.12879019    11355.053     1000 
 2638000   0.37999292   -2.2568801    0.5694194   -1.6874607   0.12312631    11418.202     1000 
 2640000   0.39698231   -2.2760465   0.59487799   -1.6811685    0.1255326    11391.534     1000 
 2642000   0.36681833   -2.2393519   0.54967726   -1.6896746   0.12071811    11362.074     1000 
 2644000   0.38729465     -2.26321   0.58036103   -1.6828489   0.13268355    11312.885     1000 
 2646000   0.40053147   -2.3083986   0.60019641   -1.7082022   0.14356293    11353.356     1000 
 2648000   0.40428595   -2.2586277   0.60582249   -1.6528052   0.13059337    11354.406     1000 
 2650000   0.36275341   -2.2617109   0.54358599   -1.7181249   0.10807986    11481.645     1000 
 2652000   0.39519002   -2.1986346   0.59219225   -1.6064424   0.12386451    11363.765     1000 
 2654000   0.39322926   -2.2487225   0.58925404   -1.6594685   0.12933645    11360.918     1000 
 2656000    0.4212863   -2.2997805   0.63129752    -1.668483   0.12964953    11469.619     1000 
 2658000   0.38815217   -2.2174154   0.58164603   -1.6357693   0.14941269     11220.53     1000 
 2660000   0.38370263   -2.2722727    0.5749784   -1.6972943   0.12908066    11353.362     1000 
 2662000   0.37041867   -2.2591256   0.55507237   -1.7040532   0.13107446    11367.516     1000 
 2664000   0.40391788   -2.3241317   0.60527094   -1.7188607   0.12882595    11464.362     1000 
 2666000   0.38885476   -2.2703667   0.58269886   -1.6876679   0.12484411    11394.966     1000 
 2668000   0.38614255   -2.2773025   0.57863462   -1.6986679   0.13506554    11350.322     1000 
 2670000   0.36527059   -2.2928471   0.54735798   -1.7454891   0.11312839    11458.692     1000 
 2672000   0.38536676   -2.3204648   0.57747209   -1.7429927   0.11979108    11311.404     1000 
 2674000   0.43393756   -2.2838884   0.65025543    -1.633633    0.1421545    11423.919     1000 
 2676000   0.38146918   -2.2704994   0.57163157   -1.6988679   0.12467307    11442.724     1000 
 2678000   0.36361868   -2.2811667   0.54488259   -1.7362841   0.12977762    11352.856     1000 
 2680000     0.389154   -2.2760441   0.58314726   -1.6928968   0.12301489    11436.067     1000 
 2682000   0.39129124   -2.2735416   0.58634993   -1.6871917   0.11278939    11497.997     1000 
 2684000   0.38755407   -2.3006662   0.58074977   -1.7199164   0.12977363    11396.884     1000 
 2686000   0.38730674   -2.2931181   0.58037914    -1.712739   0.12865693    11446.232     1000 
 2688000   0.39208589   -2.3086728   0.58754071   -1.7211321   0.11881961    11485.738     1000 
 2690000   0.38428672   -2.3262645   0.57585365   -1.7504108   0.13254377    11368.924     1000 
 2692000   0.38243536   -2.2611738   0.57307939   -1.6880944   0.13641565    11360.406     1000 
 2694000   0.38563719   -2.2677136   0.57787733   -1.6898363   0.13496074    11343.818     1000 
 2696000   0.39090409   -2.2387901   0.58576977   -1.6530203   0.13067867    11366.848     1000 
 2698000   0.38814642   -2.2903125   0.58163741   -1.7086751   0.12734663    11481.409     1000 
 2700000   0.40377266   -2.2156302   0.60505333   -1.6105768   0.12506928    11366.504     1000 
 2702000   0.38795047   -2.2598603   0.58134377   -1.6785166    0.1309986     11354.27     1000 
 2704000    0.4054745   -2.2792606   0.60760354    -1.671657   0.12758517    11478.465     1000 
 2706000   0.38378545   -2.2674996    0.5751025   -1.6923971    0.1196779    11359.312     1000 
 2708000   0.38628581   -2.2345371   0.57884929   -1.6556878   0.12423219    11349.579     1000 
 2710000   0.40011272   -2.2760185   0.59956892   -1.6764496   0.12577063    11422.057     1000 
 2712000   0.39284427    -2.262043   0.58867713   -1.6733659    0.1269982    11403.312     1000 
 2714000   0.39591609   -2.2371379   0.59328027   -1.6438576   0.13034148    11401.057     1000 
 2716000   0.38261765   -2.2491318   0.57335255   -1.6757793   0.13138461    11276.817     1000 
 2718000   0.38426987   -2.2875949    0.5758284   -1.7117665   0.12816905    11401.326     1000 
 2720000     0.387008   -2.2667707   0.57993149   -1.6868392   0.12355585    11404.822     1000 
 2722000   0.39938505   -2.2511766    0.5984785   -1.6526981   0.13751672    11290.036     1000 
 2724000   0.39054007   -2.2498264   0.58522429   -1.6646021   0.12545976    11463.207     1000 
 2726000   0.37566466   -2.2615033   0.56293349   -1.6985698   0.12360936    11371.528     1000 
 2728000   0.37737731   -2.2847213    0.5654999   -1.7192214   0.14349915    11305.196     1000 
 2730000   0.37821026   -2.2509419   0.56674807   -1.6841938   0.13418369    11364.783     1000 
 2732000   0.37131959   -2.2429943   0.55642241   -1.6865719   0.13312563    11339.286     1000 
 2734000   0.39477218   -2.2538429   0.59156611   -1.6622768   0.14076992    11366.627     1000 
 2736000   0.38801785   -2.2539136   0.58144475   -1.6724689   0.13587945    11300.902     1000 
 2738000   0.40004448   -2.2752296   0.59946665   -1.6757629   0.13020393    11356.778     1000 
 2740000   0.40171967   -2.2547601   0.60197693   -1.6527832   0.12148755    11401.873     1000 
 2742000   0.40071231   -2.2667092   0.60046739   -1.6662418   0.12272495    11325.212     1000 
 2744000   0.40594183    -2.242833   0.60830383   -1.6345292    0.1419915     11246.93     1000 
 2746000   0.38277274   -2.2582034   0.57358496   -1.6846185   0.13834011    11262.379     1000 
 2748000   0.39347353    -2.256279   0.58962008    -1.666659   0.12472622    11399.598     1000 
 2750000    0.3995942   -2.2762521   0.59879191   -1.6774602   0.11801957    11426.982     1000 
 2752000   0.40407438   -2.2653262   0.60550545   -1.6598207   0.13577547    11301.915     1000 
 2754000      0.39682   -2.2572606   0.59463477   -1.6626259   0.13990943     11247.16     1000 
 2756000    0.3822664   -2.2957725    0.5728262   -1.7229463   0.14779207    11197.729     1000 
 2758000   0.39325858    -2.271354   0.58929798    -1.682056   0.11476643    11473.544     1000 
 2760000   0.38285092   -2.2564907   0.57370211   -1.6827886   0.12639184    11438.721     1000 
 2762000   0.40159193   -2.2044396   0.60178551   -1.6026541   0.13942283    11326.195     1000 
 2764000   0.38487476   -2.2235255   0.57673482   -1.6467907   0.11829083    11501.652     1000 
 2766000   0.39030613   -2.2647789   0.58487374   -1.6799051   0.13106291     11275.52     1000 
 2768000   0.39304537   -2.2641048   0.58897849   -1.6751263   0.13885478    11274.917     1000 
 2770000   0.37644521   -2.2690184   0.56410315   -1.7049153   0.10960614    11487.876     1000 
 2772000   0.39615197   -2.2799689   0.59363372   -1.6863352   0.12678572    11413.805     1000 
 2774000   0.38442033   -2.2403324   0.57605386   -1.6642785   0.13110294     11280.98     1000 
 2776000   0.39653314   -2.2723061   0.59420492   -1.6781012   0.13507678    11250.439     1000 
 2778000   0.38602006   -2.2522721   0.57845106    -1.673821   0.12798609    11306.296     1000 
 2780000   0.39389398   -2.2398759   0.59025012   -1.6496258    0.1356436    11329.623     1000 
 2782000   0.40128965   -2.2191362   0.60133254   -1.6178037   0.12510892    11370.275     1000 
 2784000   0.37155219   -2.2213755   0.55677095   -1.6646046   0.12763141    11391.377     1000 
 2786000   0.39200916   -2.2303978   0.58742573    -1.642972   0.13519288    11327.857     1000 
 2788000   0.38623618    -2.246014   0.57877492   -1.6672391   0.12080672    11438.808     1000 
 2790000   0.38117503   -2.2640725   0.57119079   -1.6928817   0.13690731    11277.249     1000 
 2792000   0.36076375   -2.2331484   0.54060448   -1.6925439    0.1259817    11328.424     1000 
 2794000   0.39329213   -2.2925738   0.58934825   -1.7032256   0.14193488    11356.381     1000 
 2796000   0.37878821   -2.2550653   0.56761414   -1.6874512   0.12719208     11367.34     1000 
 2798000   0.39380917   -2.3094804   0.59012305   -1.7193574   0.12700952    11319.958     1000 
 2800000   0.39009932   -2.2964261   0.58456383   -1.7118622   0.14063518    11327.174     1000 
 2802000   0.38794327   -2.2858746     0.581333   -1.7045416   0.10775101    11558.466     1000 
 2804000   0.37772176   -2.2408874   0.56601606   -1.6748713   0.12239977    11434.532     1000 
 2806000   0.39372217   -2.2874142   0.58999267   -1.6974215    0.1323892    11369.427     1000 
 2808000   0.38299922   -2.2082687   0.57392434   -1.6343444   0.13683001    11320.647     1000 
 2810000   0.38653352   -2.2850747   0.57922048   -1.7058542   0.12360758    11435.211     1000 
 2812000   0.41646907   -2.2804244    0.6240789   -1.6563455   0.14504608    11304.795     1000 
 2814000   0.40311537   -2.2718372   0.60406839   -1.6677688   0.13421598    11279.257     1000 
 2816000   0.39963345   -2.2781408   0.59885072   -1.6792901    0.1264236    11411.163     1000 
 2818000   0.40256599   -2.2783239   0.60324514   -1.6750788   0.12721018        11510     1000 
 2820000   0.37184596   -2.2539051   0.55721116   -1.6966939   0.11929933    11369.503     1000 
 2822000   0.41689824   -2.2335572   0.62472201   -1.6088352   0.14885592    11347.511     1000 
 2824000   0.39186571   -2.2779722   0.58721076   -1.6907614   0.12603962    11438.313     1000 
 2826000   0.39068482   -2.2579972    0.5854412    -1.672556   0.13353525    11300.441     1000 
 2828000   0.39882794   -2.2847537   0.59764367     -1.68711   0.12770064     11396.99     1000 
 2830000    0.4082408   -2.2366951   0.61174884   -1.6249463   0.13883594    11348.665     1000 
 2832000   0.37080132   -2.2925244   0.55564578   -1.7368787   0.12325617    11392.227     1000 
 2834000   0.40371886   -2.2606934    0.6049727   -1.6557207   0.12800559    11317.736     1000 
 2836000   0.39318114    -2.279553   0.58918194    -1.690371   0.12380801    11519.943     1000 
 2838000   0.38207475   -2.2433326   0.57253902   -1.6707936   0.11990269    11498.432     1000 
 2840000   0.39373662    -2.261857   0.59001433   -1.6718427   0.12832282    11412.096     1000 
 2842000   0.41329775   -2.2468526   0.61932667   -1.6275259    0.1351674    11351.422     1000 
 2844000   0.38673776   -2.3259331   0.57952653   -1.7464066    0.1233519    11562.911     1000 
 2846000   0.41300036   -2.2860256   0.61888104   -1.6671445   0.13689708    11422.891     1000 
 2848000   0.38099743   -2.2552647   0.57092465   -1.6843401   0.12909368    11377.553     1000 
 2850000   0.36261691   -2.2595858   0.54338144   -1.7162044   0.11697568     11447.44     1000 
 2852000   0.39419277   -2.2721355   0.59069786   -1.6814376   0.13503926    11442.291     1000 
 2854000   0.38715869   -2.2944019   0.58015729   -1.7142446   0.13137899    11348.309     1000 
 2856000   0.38185704   -2.2370365   0.57221277   -1.6648238   0.13209797    11291.737     1000 
 2858000   0.38668461   -2.2395677   0.57944688   -1.6601208   0.13017233    11240.132     1000 
 2860000   0.39041495   -2.2395551    0.5850368   -1.6545183   0.12952673    11484.193     1000 
 2862000   0.39293133   -2.2745483   0.58880759   -1.6857407   0.12635821    11430.677     1000 
 2864000   0.38655865   -2.2437398   0.57925813   -1.6644817   0.13378098    11307.296     1000 
 2866000   0.39368878   -2.2712758   0.58994263   -1.6813331    0.1334254    11394.816     1000 
 2868000   0.41478009   -2.2533898   0.62154796   -1.6318419   0.13099991    11408.098     1000 
 2870000   0.40872784   -2.2911176   0.61247867   -1.6786389    0.1416422    11320.463     1000 
 2872000   0.38527385   -2.2227748   0.57733287   -1.6454419   0.13233884    11313.314     1000 
 2874000   0.40040513   -2.2617427   0.60000709   -1.6617356    0.1122756    11492.544     1000 
 2876000   0.40050901   -2.2320609   0.60016276   -1.6318982   0.12134634    11366.706     1000 
 2878000   0.39480679   -2.2878735   0.59161798   -1.6962555   0.12676657    11360.252     1000 
 2880000   0.38201081   -2.3183504    0.5724432   -1.7459072   0.14063489    11394.167     1000 
 2882000    0.3809288   -2.2540795    0.5708218   -1.6832577   0.13138495    11282.363     1000 
 2884000   0.37621149   -2.2689307   0.56375292   -1.7051778   0.12045752    11348.831     1000 
 2886000    0.3910651   -2.2697375   0.58601104   -1.6837264   0.13177315    11438.525     1000 
 2888000   0.40013617   -2.2452302   0.59960405   -1.6456261   0.12316142    11440.821     1000 
 2890000   0.39702419   -2.2265651   0.59494074   -1.6316244    0.1277836    11274.435     1000 
 2892000   0.38786291   -2.2656317   0.58121257   -1.6844191   0.12497529    11357.657     1000 
 2894000   0.39522789    -2.241867   0.59224899    -1.649618   0.13291051    11237.122     1000 
 2896000   0.38300097   -2.2768551   0.57392695   -1.7029282   0.13329511    11304.868     1000 
 2898000    0.3871404   -2.2739045    0.5801299   -1.6937746   0.12384219     11409.74     1000 
 2900000   0.38185442    -2.294611   0.57220885   -1.7224022   0.13600483    11424.784     1000 
 2902000    0.3901409   -2.2468891   0.58462614    -1.662263    0.1305665    11431.224     1000 
 2904000   0.39571875   -2.2328113   0.59298454   -1.6398268   0.12787945    11366.746     1000 
 2906000   0.39545905   -2.2563159   0.59259539   -1.6637205   0.11981921    11480.677     1000 
 2908000    0.3955348   -2.2221777    0.5927089   -1.6294688   0.12686542    11402.123     1000 
 2910000   0.40208868   -2.2864474   0.60252988   -1.6839175   0.11931572    11420.204     1000 
 2912000   0.38479835   -2.2487097   0.57662033   -1.6720894   0.12751434    11352.419     1000 
 2914000   0.38946163   -2.2336674   0.58360825   -1.6500591    0.1357549    11278.611     1000 
 2916000    0.4092378   -2.2819286   0.61324284   -1.6686858   0.13707564    11318.841     1000 
 2918000   0.40246607   -2.2606322   0.60309541   -1.6575368   0.13413614    11334.001     1000 
 2920000   0.38215676    -2.263531    0.5726619   -1.6908691   0.11422926    11507.666     1000 
 2922000   0.40363693   -2.2642751   0.60484993   -1.6594252   0.13027751    11444.194     1000 
 2924000   0.40119995   -2.2200562   0.60119813    -1.618858   0.12528897    11376.797     1000 
 2926000   0.37744637   -2.2423153   0.56560339    -1.676712   0.12923748     11397.86     1000 
 2928000    0.3904582   -2.2173662   0.58510161   -1.6322646   0.13936778    11269.659     1000 
 2930000   0.39277663   -2.2790747   0.58857577    -1.690499   0.13266424    11384.277     1000 
 2932000   0.39176213   -2.2536271   0.58705554   -1.6665716   0.13053877    11317.596     1000 
 2934000   0.39076551   -2.2843578   0.58556211   -1.6987956   0.12850032    11454.226     1000 
 2936000     0.412774   -2.2784106   0.61854183   -1.6598688   0.12537266    11452.461     1000 
 2938000   0.38763211   -2.2268546   0.58086671   -1.6459879   0.12724949    11386.109     1000 
 2940000   0.38312096   -2.3335331   0.57410676   -1.7594264   0.14231532    11295.759     1000 
 2942000     0.381058   -2.2639017   0.57101541   -1.6928863   0.12141729    11432.491     1000 
 2944000   0.40282495   -2.2389926   0.60363318   -1.6353595   0.12342835    11412.045     1000 
 2946000   0.38100489   -2.2593283   0.57093583   -1.6883925   0.13503765     11293.28     1000 
 2948000   0.38604935   -2.2591817   0.57849495   -1.6806867   0.13857015    11357.641     1000 
 2950000   0.38183851   -2.2822975     0.572185   -1.7101125   0.12962276    11359.273     1000 
 2952000   0.38997034    -2.254886   0.58437055   -1.6705155   0.13849687     11349.38     1000 
 2954000   0.37457536   -2.2704066   0.56130118   -1.7091054   0.13775955     11298.69     1000 
 2956000   0.38952966   -2.2657056    0.5837102   -1.6819954   0.12644196    11367.909     1000 
 2958000    0.3912578   -2.2512575   0.58629981   -1.6649577   0.13629764    11295.252     1000 
 2960000   0.40209297   -2.2567839   0.60253632   -1.6542476   0.12969712    11348.306     1000 
 2962000   0.38668205   -2.2724102   0.57944306   -1.6929672   0.14316658    11285.646     1000 
 2964000   0.39572511   -2.2857826   0.59299407   -1.6927886   0.13042654    11376.618     1000 
 2966000   0.38941779   -2.2887095   0.58354255    -1.705167    0.1257816    11473.372     1000 
 2968000   0.39382529   -2.3034961   0.59014719   -1.7133489   0.12961284    11346.813     1000 
 2970000    0.3853223   -2.2646249   0.57740546   -1.6872194   0.13504873    11333.691     1000 
 2972000   0.40127634   -2.2814555    0.6013126   -1.6801429   0.13302451    11282.498     1000 
 2974000   0.38720329   -2.3047951   0.58022412    -1.724571   0.12980193    11421.793     1000 
 2976000    0.3827109   -2.2803974   0.57349228   -1.7069051   0.13389006    11370.102     1000 
 2978000    0.4000105   -2.2664287   0.59941573   -1.6670129   0.12172152    11451.984     1000 
 2980000   0.38509746   -2.2334305   0.57706855    -1.656362   0.13491784    11318.951     1000 
 2982000   0.37818275   -2.2906828   0.56670685    -1.723976   0.13297801    11447.351     1000 
 2984000    0.3981199   -2.2372785   0.59658268   -1.6406959   0.13063825    11270.816     1000 
 2986000   0.38366825   -2.2716492   0.57492688   -1.6967223   0.13268917    11318.702     1000 
 2988000   0.38787076   -2.2187326   0.58122433   -1.6375083   0.13756571    11317.727     1000 
 2990000   0.37621615   -2.2850945    0.5637599   -1.7213346   0.12080235    11470.683     1000 
 2992000   0.38706214    -2.280053   0.58001261   -1.7000404   0.13273862    11319.026     1000 
 2994000   0.38311441   -2.2889662   0.57409694   -1.7148693   0.12047047    11434.487     1000 
 2996000   0.38647149   -2.2602117   0.57912753   -1.6810842   0.13759095     11358.84     1000 
 2998000    0.3996653   -2.2568215   0.59889844    -1.657923   0.14123624    11354.143     1000 
 3000000   0.38990181   -2.2863417   0.58426787   -1.7020739   0.13082239    11400.252     1000 
Loop time of 1158.05 on 1 procs for 3000000 steps with 1000 atoms

Performance: 1119123.337 tau/day, 2590.563 timesteps/s
100.0% CPU use with 1 MPI tasks x 1 OpenMP threads

MPI task timing breakdown:
Section |  min time  |  avg time  |  max time  |%varavg| %total
---------------------------------------------------------------
Pair    | 912.72     | 912.72     | 912.72     |   0.0 | 78.82
Neigh   | 143.51     | 143.51     | 143.51     |   0.0 | 12.39
Comm    | 23.938     | 23.938     | 23.938     |   0.0 |  2.07
Output  | 0.01765    | 0.01765    | 0.01765    |   0.0 |  0.00
Modify  | 72.53      | 72.53      | 72.53      |   0.0 |  6.26
Other   |            | 5.331      |            |       |  0.46

Nlocal:        1000.00 ave        1000 max        1000 min
Histogram: 1 0 0 0 0 0 0 0 0 0
Nghost:        2191.00 ave        2191 max        2191 min
Histogram: 1 0 0 0 0 0 0 0 0 0
Neighs:        27580.0 ave       27580 max       27580 min
Histogram: 1 0 0 0 0 0 0 0 0 0

Total # of neighbors = 27580
Ave neighs/atom = 27.580000
Neighbor list builds = 150000
Dangerous builds not checked

Total wall time: 0:19:18
