LAMMPS (29 Sep 2021 - Update 2)
OMP_NUM_THREADS environment is not set. Defaulting to 1 thread. (src/comm.cpp:98)
  using 1 OpenMP thread(s) per MPI task
# ----------------------- Inicialização -----------------------

units			lj
atom_style 		atomic
dimension 		3
boundary 		p p p

# -------------------- Criação dos Átomos ---------------------

read_data 		topologia.txt
Reading data file ...
  orthogonal box = (0.0000000 0.0000000 0.0000000) to (21.540000 21.540000 21.540000)
  1 by 1 by 1 MPI processor grid
  reading atoms ...
  1000 atoms
  read_data CPU = 0.003 seconds

velocity 		all create ${temp} 87287 rot yes dist gaussian
velocity 		all create 0.52 87287 rot yes dist gaussian

# ------------------ Interação Interatômica -------------------

pair_style		table linear 1000
pair_coeff		1 1 force.table AA 5.0
WARNING: 2 of 1000 force values in table AA are inconsistent with -dE/dr.
WARNING:  Should only be flagged at inflection points (src/pair_table.cpp:465)
pair_coeff		1 2 force.table AB 5.0
WARNING: 1 of 1000 force values in table AB are inconsistent with -dE/dr.
WARNING:  Should only be flagged at inflection points (src/pair_table.cpp:465)
pair_coeff		2 2 force.table BB 5.0
pair_write		1 1 1000 r 0.008 5.0 table.check AA
Appending to table file table.check with DATE: 2023-06-15
Neighbor list info ...
  update every 1 steps, delay 10 steps, check yes
  max neighbors/atom: 2000, page size: 100000
  master list distance cutoff = 5.3
  ghost atom cutoff = 5.3
  binsize = 2.65, bins = 9 9 9
  1 neighbor lists, perpetual/occasional/extra = 1 0 0
  (1) pair table, perpetual
      attributes: half, newton on
      pair build: half/bin/atomonly/newton
      stencil: half/bin/3d
      bin: standard
pair_write		1 2 1000 r 0.008 5.0 table.check AB
Appending to table file table.check with DATE: 2023-06-15
pair_write		2 2 1000 r 0.008 5.0 table.check BB
Appending to table file table.check with DATE: 2023-06-15

neighbor 		0.3 bin
neigh_modify		every 20 delay 0 check no

# ------------------------- Ensemble --------------------------------------

fix 1			all npt temp ${temp} ${temp} 0.5 iso ${press} ${press} 5
fix 1			all npt temp 0.52 ${temp} 0.5 iso ${press} ${press} 5
fix 1			all npt temp 0.52 0.52 0.5 iso ${press} ${press} 5
fix 1			all npt temp 0.52 0.52 0.5 iso 0.13 ${press} 5
fix 1			all npt temp 0.52 0.52 0.5 iso 0.13 0.13 5

# ---------------------- Função de Distribuição Radial -----------------------

#compute RDF 		all rdf 2000 1 1 1 2 2 2
#fix 2 			all ave/time 1 2000 2000 c_RDF[*] file rdf.data mode vector

# ------------------------- Execução ---------------------------

timestep 		0.005
thermo_style		custom step temp pe ke etotal press vol atoms
thermo			2000
run			3000000
Per MPI rank memory allocation (min/avg/max) = 2.670 | 2.670 | 2.670 Mbytes
Step Temp PotEng KinEng TotEng Press Volume Atoms 
       0         0.52  -0.99052333      0.77922  -0.21130333   0.12107987    9993.9483     1000 
    2000   0.53005098   -1.8755941   0.79428139   -1.0813127   0.12618999    11537.508     1000 
    4000    0.5136617   -1.8685074   0.76972206   -1.0987854    0.1386624    11272.906     1000 
    6000   0.51876133   -1.8959076   0.77736386   -1.1185438   0.12959995    11448.369     1000 
    8000   0.53370961    -1.897332   0.79976385   -1.0975681    0.1237223    11588.034     1000 
   10000   0.52060516    -1.882122   0.78012684   -1.1019952   0.13130227    11442.914     1000 
   12000   0.52269333   -1.8891786   0.78325596   -1.1059226   0.15582007    11267.817     1000 
   14000   0.50627763   -1.7981109   0.75865703   -1.0394539   0.11741414    11399.275     1000 
   16000   0.52000922   -1.8974378   0.77923382    -1.118204   0.13231979    11418.197     1000 
   18000   0.52212134   -1.8561967   0.78239883   -1.0737978   0.12732373    11418.586     1000 
   20000   0.53451326   -1.8934945   0.80096813   -1.0925264   0.13049242    11481.244     1000 
   22000   0.47560759   -1.8922049   0.71269797    -1.179507   0.12944723     11468.69     1000 
   24000   0.51903478   -1.8391573   0.77777362   -1.0613837   0.13998028    11340.808     1000 
   26000   0.52057325   -1.8609439   0.78007901   -1.0808649   0.13701798    11250.074     1000 
   28000   0.54065461   -1.8466226   0.81017093   -1.0364517   0.12306322     11357.74     1000 
   30000    0.5067279   -1.8025202   0.75933175   -1.0431884   0.13044452    11509.307     1000 
   32000   0.51620898   -1.9143741   0.77353915   -1.1408349   0.11765789    11592.903     1000 
   34000    0.5215454   -1.8413197   0.78153578   -1.0597839   0.13314233     11487.91     1000 
   36000   0.53182331   -1.8254974   0.79693723   -1.0285602   0.13877004    11190.171     1000 
   38000   0.52137567   -1.8891418   0.78128144   -1.1078604    0.1427923    11307.754     1000 
   40000   0.52094081   -1.8269934   0.78062981   -1.0463636   0.13290219    11409.726     1000 
   42000   0.49907506   -1.8683494   0.74786398   -1.1204854      0.13141    11248.319     1000 
   44000   0.51441817   -1.8327009   0.77085562   -1.0618453   0.13674146    11465.478     1000 
   46000   0.52495895   -1.8357705   0.78665099   -1.0491195   0.13223773    11360.305     1000 
   48000    0.5263637   -1.8291263   0.78875601   -1.0403702   0.13087137    11511.103     1000 
   50000    0.4924189   -1.8720425   0.73788972   -1.1341528    0.1269571    11490.784     1000 
   52000   0.49354939   -1.8410621   0.73958377   -1.1014784   0.12390387    11387.911     1000 
   54000   0.52097499    -1.856339   0.78068103    -1.075658   0.12325049    11607.063     1000 
   56000   0.53002889   -1.8806865   0.79424829   -1.0864382   0.14292668     11282.13     1000 
   58000   0.49518655   -1.8064575   0.74203704   -1.0644205   0.13253935    11313.953     1000 
   60000   0.52696436   -1.8715993    0.7896561   -1.0819432   0.12572536    11478.087     1000 
   62000   0.52417111   -1.8859587   0.78547041   -1.1004883   0.12499579    11577.051     1000 
   64000   0.53733346   -1.8209565   0.80519419   -1.0157623   0.12941069     11334.43     1000 
   66000   0.50221418   -1.8116659   0.75256794    -1.059098   0.13617473    11263.694     1000 
   68000    0.5090592   -1.8234131   0.76282521   -1.0605879   0.13269068    11328.218     1000 
   70000   0.49260809   -1.8157846   0.73817323   -1.0776114   0.12145466    11294.128     1000 
   72000   0.52259976   -1.8409572   0.78311575   -1.0578415    0.1339181    11332.874     1000 
   74000   0.52558654   -1.8488866   0.78759143   -1.0612951   0.13973268    11325.227     1000 
   76000   0.52208994   -1.8047524   0.78235178   -1.0224006   0.12170054    11507.539     1000 
   78000   0.52592759   -1.8365017   0.78810249   -1.0483992   0.13445076    11301.733     1000 
   80000   0.50778138   -1.8647212   0.76091039   -1.1038108   0.13241713    11339.144     1000 
   82000   0.49860238   -1.8519475   0.74715566   -1.1047918    0.1278748     11443.64     1000 
   84000   0.53139167    -1.870988   0.79629042   -1.0746976   0.12685104    11437.549     1000 
   86000   0.50908116   -1.9220181   0.76285812     -1.15916   0.12890783    11545.381     1000 
   88000   0.49600331   -1.8510493   0.74326096   -1.1077883   0.13825612    11474.881     1000 
   90000   0.51035527   -1.8292787   0.76476737   -1.0645114   0.13647629    11431.404     1000 
   92000   0.52032557   -1.9101328   0.77970786   -1.1304249   0.12665459     11352.26     1000 
   94000   0.50126414   -1.8981486   0.75114431   -1.1470043   0.13614736    11314.868     1000 
   96000   0.52012404   -1.8783545   0.77940587   -1.0989487   0.12818875    11430.534     1000 
   98000   0.54635398   -1.8394696   0.81871144   -1.0207581   0.13449833    11388.368     1000 
  100000    0.5310357   -1.8874109   0.79575699   -1.0916539   0.12677628    11475.788     1000 
  102000   0.52224507    -1.830961   0.78258423   -1.0483768   0.13357455    11424.885     1000 
  104000   0.52107559   -1.8714489   0.78083177   -1.0906171   0.12251811    11562.075     1000 
  106000   0.51551891   -1.8851349   0.77250508   -1.1126298   0.12643091    11552.596     1000 
  108000   0.51468373   -1.8808611   0.77125357   -1.1096075   0.12532896    11420.668     1000 
  110000   0.51351717   -1.7902374   0.76950548    -1.020732   0.13262525     11265.13     1000 
  112000   0.52586993   -1.8512204   0.78801609   -1.0632043   0.13491412     11402.97     1000 
  114000   0.52582324   -1.9095832   0.78794613   -1.1216371   0.12382322    11580.711     1000 
  116000   0.55310556   -1.9022751   0.82882868   -1.0734464   0.13495501     11409.77     1000 
  118000   0.54513557   -1.8835749   0.81688565   -1.0666893   0.12984744    11500.621     1000 
  120000   0.52006519   -1.8704029   0.77931769   -1.0910852   0.12348994    11559.069     1000 
  122000   0.52721335   -1.8630985    0.7900292   -1.0730693    0.1381298    11439.801     1000 
  124000   0.51338207   -1.8767081   0.76930304   -1.1074051   0.12156945    11373.583     1000 
  126000   0.51325338   -1.8250537   0.76911019   -1.0559435   0.14304799     11219.92     1000 
  128000   0.50222934   -1.8837545   0.75259067   -1.1311639   0.13032126    11400.847     1000 
  130000   0.49361904   -1.9287994   0.73968813   -1.1891112   0.12819205    11413.454     1000 
  132000    0.5130599   -1.9061683   0.76882025    -1.137348   0.12826204    11440.647     1000 
  134000   0.53804878   -1.8969745   0.80626609   -1.0907084   0.13273859    11575.189     1000 
  136000   0.53767575   -1.8480418   0.80570711   -1.0423347   0.12942752    11514.129     1000 
  138000   0.50400831   -1.8337427   0.75525645   -1.0784863   0.13657582    11371.561     1000 
  140000   0.53290356   -1.9205252   0.79855598   -1.1219693   0.12432537    11445.917     1000 
  142000   0.53191078   -1.8576419   0.79706831   -1.0605736   0.12062227    11570.027     1000 
  144000   0.54743025   -1.8668264   0.82032423   -1.0465022   0.14109849    11310.068     1000 
  146000   0.53275127   -1.8141387   0.79832778   -1.0158109   0.13011523    11493.407     1000 
  148000   0.52993296   -1.8858429   0.79410453   -1.0917384    0.1216095    11573.838     1000 
  150000   0.52163456   -1.8641513   0.78166939   -1.0824819   0.15002766    11152.077     1000 
  152000   0.50466019   -1.8330805    0.7562333   -1.0768472   0.11898119    11524.303     1000 
  154000   0.51639837   -1.8527008   0.77382295   -1.0788778   0.12367094    11499.411     1000 
  156000   0.52760778   -1.8829762   0.79062026    -1.092356   0.13636529    11462.031     1000 
  158000    0.5069908   -1.8314824   0.75972572   -1.0717567    0.1450808    11166.935     1000 
  160000   0.52289332   -1.8804187   0.78355564   -1.0968631   0.12360446    11495.665     1000 
  162000   0.50681751   -1.8546933   0.75946604   -1.0952273   0.12310825    11492.744     1000 
  164000    0.5434559   -1.8687277   0.81436866   -1.0543591   0.13108306    11343.232     1000 
  166000   0.54463683   -1.8713066   0.81613829   -1.0551684   0.12014761    11580.715     1000 
  168000   0.50774626   -1.8367819   0.76085777   -1.0759241   0.12582855     11522.61     1000 
  170000   0.50383903   -1.8988913   0.75500279   -1.1438885   0.13985345    11327.672     1000 
  172000   0.50974056   -1.8449981   0.76384623   -1.0811518   0.12971823    11694.937     1000 
  174000   0.52912372   -1.8564577   0.79289189   -1.0635658   0.12054641    11500.388     1000 
  176000   0.51580545    -1.795978   0.77293446   -1.0230436   0.12350457    11356.135     1000 
  178000   0.52006762   -1.8570456   0.77932133   -1.0777243   0.12334322    11523.376     1000 
  180000   0.50853087    -1.846671   0.76203351   -1.0846375   0.12489515    11478.929     1000 
  182000   0.49510696   -1.7916222   0.74191777   -1.0497044   0.12984925    11383.842     1000 
  184000   0.51967534   -1.9019243    0.7787335   -1.1231908   0.12090479    11495.977     1000 
  186000    0.5395089   -1.8445153   0.80845408   -1.0360612   0.14219004     11338.58     1000 
  188000   0.52862109   -1.8943727    0.7921387    -1.102234   0.13126649    11268.693     1000 
  190000   0.52916128   -1.8767966   0.79294817   -1.0838484   0.13295513    11493.097     1000 
  192000   0.54197483   -1.8558435   0.81214928   -1.0436942   0.12976157    11353.747     1000 
  194000   0.54453663    -1.803372   0.81598814  -0.98738381   0.13291673    11427.378     1000 
  196000    0.5460764   -1.8513825   0.81829549    -1.033087   0.13982442    11390.018     1000 
  198000   0.51314136   -1.8394589   0.76894233   -1.0705166   0.12067392    11463.731     1000 
  200000   0.53501381   -1.8490537   0.80171819   -1.0473355   0.12662826     11357.76     1000 
  202000   0.50312042   -1.8363054   0.75392595   -1.0823795   0.13481202     11332.62     1000 
  204000    0.5321929    -1.848111   0.79749107     -1.05062   0.13269198    11365.018     1000 
  206000   0.50825842   -1.8177861   0.76162525   -1.0561609   0.13027981    11357.868     1000 
  208000   0.50526405   -1.9007924   0.75713818   -1.1436542   0.12144022    11613.147     1000 
  210000   0.50311132   -1.8951922   0.75391231   -1.1412799   0.13091196     11388.06     1000 
  212000   0.50665189   -1.8533158   0.75921785   -1.0940979    0.1304768    11332.718     1000 
  214000   0.52778005   -1.8456984   0.79087841     -1.05482   0.13386849    11481.594     1000 
  216000   0.53318919   -1.8876793     0.798984   -1.0886953   0.14043285     11414.01     1000 
  218000    0.5293593   -1.8727626   0.79324491   -1.0795177   0.11966646    11573.865     1000 
  220000   0.49645036   -1.8728981   0.74393087   -1.1289672   0.12956237    11438.168     1000 
  222000   0.52741642    -1.903172   0.79033351   -1.1128385    0.1224357    11557.043     1000 
  224000   0.49653907   -1.8549217    0.7440638   -1.1108579   0.13914351    11411.815     1000 
  226000   0.50608318   -1.8562821   0.75836564   -1.0979165   0.13271161    11313.546     1000 
  228000   0.51744623   -1.9416957   0.77539317   -1.1663026   0.13090318     11492.51     1000 
  230000   0.50930991   -1.8595592    0.7632009   -1.0963583    0.1324555    11429.951     1000 
  232000   0.50385735   -1.8754471   0.75503023   -1.1204168   0.13477038    11386.795     1000 
  234000    0.5116399   -1.8896995   0.76669238   -1.1230071   0.12532061    11437.863     1000 
  236000   0.51524976   -1.9109463   0.77210177   -1.1388445   0.12370249    11473.524     1000 
  238000   0.52196531   -1.8346466   0.78216501   -1.0524816    0.1235658    11513.758     1000 
  240000   0.54728347   -1.8014538   0.82010428   -0.9813495   0.13155006    11475.675     1000 
  242000   0.53358921   -1.8153401   0.79958343   -1.0157566   0.13536327    11366.142     1000 
  244000   0.50973184   -1.8413076   0.76383316   -1.0774744   0.13882306    11250.037     1000 
  246000   0.52215262   -1.8641966    0.7824457   -1.0817509   0.12198755    11592.439     1000 
  248000   0.53466566    -1.834897   0.80119649   -1.0337005    0.1348816    11406.384     1000 
  250000   0.52274583   -1.8724219   0.78333463   -1.0890872   0.12855255    11559.339     1000 
  252000   0.52499172   -1.8947365   0.78670009   -1.1080364   0.13921991    11321.512     1000 
  254000   0.52568767    -1.850494   0.78774298    -1.062751     0.124035    11429.692     1000 
  256000   0.54645459   -1.8557396    0.8188622   -1.0368774   0.13997775    11279.301     1000 
  258000    0.5175745   -1.8570427   0.77558539   -1.0814573   0.13951951    11271.895     1000 
  260000   0.54634144   -1.8975721   0.81869265   -1.0788794   0.12796861    11508.268     1000 
  262000   0.52306981   -1.8237488   0.78382011   -1.0399287   0.12617245    11450.385     1000 
  264000   0.52671958   -1.8746966   0.78928928   -1.0854074   0.13724632     11411.83     1000 
  266000   0.52434917   -1.8730396   0.78573724   -1.0873024   0.14058202    11309.733     1000 
  268000   0.51200835   -1.8785751   0.76724452   -1.1113306   0.12329619    11429.981     1000 
  270000   0.52796673   -1.8439266   0.79115815   -1.0527684   0.14676742    11233.167     1000 
  272000   0.52585435   -1.8733207   0.78799274    -1.085328    0.1232403    11493.909     1000 
  274000   0.49637247   -1.8757386   0.74381415   -1.1319244   0.12119794    11469.591     1000 
  276000   0.51980279   -1.8501862   0.77892449   -1.0712617   0.13163822    11347.153     1000 
  278000   0.51351557     -1.89673   0.76950308    -1.127227   0.13397629    11390.245     1000 
  280000   0.51886118    -1.927308   0.77751347   -1.1497946   0.13273232    11370.333     1000 
  282000   0.52466545   -1.8613897   0.78621118   -1.0751785   0.13540438    11473.746     1000 
  284000   0.53470063   -1.8860838   0.80124889   -1.0848349   0.14386778    11295.946     1000 
  286000   0.52497917    -1.893479   0.78668128   -1.1067978   0.12391648    11506.918     1000 
  288000   0.49664291   -1.8656368    0.7442194   -1.1214174    0.1344567    11350.054     1000 
  290000   0.52745768   -1.8661537   0.79039533   -1.0757584    0.1204988    11525.191     1000 
  292000   0.52311349   -1.8451361   0.78388557   -1.0612505   0.12248221     11395.77     1000 
  294000    0.5197267   -1.8686662   0.77881046   -1.0898558   0.13055829     11471.94     1000 
  296000   0.49260782   -1.8195714   0.73817282   -1.0813986   0.12706361    11442.491     1000 
  298000   0.51120871   -1.8834107   0.76604625   -1.1173645   0.13107116    11274.116     1000 
  300000   0.52216238   -1.8296858   0.78246033   -1.0472255   0.12982829    11381.997     1000 
  302000   0.53296601   -1.9194134   0.79864956   -1.1207639   0.12317485    11599.981     1000 
  304000   0.50981583   -1.8442018   0.76395902   -1.0802428    0.1339131    11355.563     1000 
  306000   0.53902836   -1.8056062     0.807734   -0.9978722   0.14378863     11224.94     1000 
  308000   0.50832994   -1.7933407   0.76173242   -1.0316083    0.1307853    11272.139     1000 
  310000   0.53159829   -1.8701463   0.79660004   -1.0735463   0.13074968    11371.141     1000 
  312000   0.51705961   -1.8850871   0.77481383   -1.1102733   0.13158845    11441.595     1000 
  314000   0.53766975   -1.8721279   0.80569812   -1.0664298   0.13936354    11387.911     1000 
  316000   0.50691679   -1.8311816    0.7596148   -1.0715668   0.13640047    11333.282     1000 
  318000   0.52466957   -1.8316507   0.78621735   -1.0454334   0.11854046    11514.634     1000 
  320000   0.52656218   -1.8669777   0.78905343   -1.0779243   0.12966015    11319.202     1000 
  322000   0.52763496   -1.7857497   0.79066099   -0.9950887    0.1273172     11490.04     1000 
  324000    0.5179274   -1.8565186   0.77611421   -1.0804044   0.11397114     11576.15     1000 
  326000   0.51519626   -1.9181799   0.77202159   -1.1461583   0.12766902     11612.25     1000 
  328000   0.50944459   -1.8498128   0.76340272     -1.08641   0.12217214    11419.834     1000 
  330000   0.52679232    -1.811289   0.78939829   -1.0218907    0.1339787    11284.777     1000 
  332000   0.52385162   -1.9148487   0.78499165    -1.129857   0.12825615     11520.21     1000 
  334000   0.49500395   -1.8133756   0.74176342   -1.0716122   0.14180955    11137.897     1000 
  336000   0.52705957   -1.8222451   0.78979876   -1.0324463   0.15162819    11340.387     1000 
  338000   0.51566395   -1.8778458   0.77272242   -1.1051234    0.1218502    11581.201     1000 
  340000   0.52706964   -1.8636003   0.78981386   -1.0737864   0.14320812    11193.856     1000 
  342000   0.54359696   -1.8563717   0.81458004   -1.0417916   0.14933179    11215.493     1000 
  344000   0.51845798   -1.8471801   0.77690928   -1.0702708    0.1239764    11516.151     1000 
  346000   0.53696011   -1.8352173   0.80463472   -1.0305826   0.12784408    11600.846     1000 
  348000   0.52016718   -1.8697515   0.77947052   -1.0902809   0.12062615    11524.509     1000 
  350000   0.51164657   -1.8831024   0.76670238      -1.1164   0.12522533    11485.175     1000 
  352000   0.52745509   -1.8779943   0.79039145   -1.0876028    0.1303418    11343.868     1000 
  354000   0.51749655    -1.804824   0.77546859   -1.0293554   0.13390654    11270.923     1000 
  356000   0.51624962   -1.8550267   0.77360006   -1.0814266   0.12771637      11322.6     1000 
  358000   0.52235285   -1.8542061   0.78274574   -1.0714604   0.12909049    11541.032     1000 
  360000   0.53619542   -1.8430064   0.80348884   -1.0395176   0.13540152    11454.703     1000 
  362000   0.52080139   -1.8766079   0.78042089    -1.096187   0.12468525    11492.253     1000 
  364000   0.52755691   -1.8355927   0.79054403   -1.0450487   0.13982589    11324.477     1000 
  366000    0.5162384   -1.8737939   0.77358325   -1.1002106   0.12019004    11468.109     1000 
  368000   0.54633016    -1.885265   0.81867575   -1.0665892   0.14550096    11375.436     1000 
  370000   0.52861029   -1.8894309   0.79212251   -1.0973084   0.13569177    11263.675     1000 
  372000   0.52085564   -1.8861418   0.78050217   -1.1056396    0.1170455    11411.361     1000 
  374000   0.51885803   -1.8097629   0.77750875   -1.0322541   0.12397261     11219.44     1000 
  376000    0.5412067   -1.8141627   0.81099824   -1.0031645   0.14450099    11329.146     1000 
  378000   0.52314145   -1.8479103   0.78392747   -1.0639829   0.13572614    11465.599     1000 
  380000   0.51815511   -1.8500329   0.77645543   -1.0735774   0.14748211    11362.111     1000 
  382000    0.5290965   -1.8495854    0.7928511   -1.0567343   0.13240763    11345.984     1000 
  384000   0.52671745   -1.8503304    0.7892861   -1.0610443   0.12088419    11506.331     1000 
  386000   0.53270599   -1.8617627   0.79825993   -1.0635028   0.12928117    11446.782     1000 
  388000   0.49423966   -1.8832259   0.74061813   -1.1426077   0.12535597    11548.764     1000 
  390000   0.51957521   -1.8351435   0.77858346     -1.05656   0.14014796    11308.181     1000 
  392000   0.50798936   -1.8148081   0.76122205   -1.0535861   0.13838143    11255.967     1000 
  394000   0.52425768   -1.8935771   0.78560013    -1.107977   0.14267598    11334.372     1000 
  396000    0.5206847   -1.8512791   0.78024602   -1.0710331    0.1217963    11567.542     1000 
  398000    0.5044183   -1.8282976   0.75587083   -1.0724268    0.1318318    11330.989     1000 
  400000   0.49420802   -1.8959263   0.74057072   -1.1553556     0.134436    11312.047     1000 
  402000   0.53552142   -1.8804204   0.80247885   -1.0779416   0.13118455    11364.952     1000 
  404000    0.5240153   -1.9096223   0.78523693   -1.1243853   0.12740115    11467.249     1000 
  406000   0.50233356   -1.9423769   0.75274684   -1.1896301    0.1242281    11648.852     1000 
  408000   0.51659498   -1.8728598   0.77411758   -1.0987422   0.14229636    11296.782     1000 
  410000   0.51261517   -1.8334128   0.76815384    -1.065259   0.13784504    11380.167     1000 
  412000   0.52684761   -1.8787081   0.78948114    -1.089227   0.12201526    11479.318     1000 
  414000   0.50386114   -1.8870641   0.75503592   -1.1320282    0.1163408    11532.792     1000 
  416000   0.51159304   -1.8903505   0.76662217   -1.1237284   0.14082539    11376.742     1000 
  418000   0.52488238   -1.8919382   0.78653625    -1.105402   0.12411748    11541.882     1000 
  420000   0.50671745   -1.8404692    0.7593161   -1.0811531   0.13030771    11304.048     1000 
  422000   0.50757284   -1.8265954    0.7605979   -1.0659975   0.13779767    11349.004     1000 
  424000   0.52415192    -1.850792   0.78544165   -1.0653504   0.11952297    11350.057     1000 
  426000   0.52295551   -1.8430663   0.78364883   -1.0594174   0.13989614    11349.262     1000 
  428000   0.51372228    -1.881728   0.76981284   -1.1119152   0.13055574    11347.827     1000 
  430000     0.509237    -1.857547   0.76309165   -1.0944554   0.13099135    11346.949     1000 
  432000   0.51060953    -1.861039   0.76514838   -1.0958906   0.12732918    11612.683     1000 
  434000   0.50666509   -1.8712137   0.75923764   -1.1119761   0.12871464    11508.415     1000 
  436000   0.55216145   -1.9041958   0.82741393   -1.0767819   0.13320658    11470.691     1000 
  438000   0.53676945   -1.8153918   0.80434902   -1.0110427   0.13503684    11213.156     1000 
  440000   0.52379189   -1.8999196   0.78490215   -1.1150175   0.11954771    11605.812     1000 
  442000   0.49522678   -1.9368871   0.74209733   -1.1947898   0.12113854    11493.244     1000 
  444000   0.53588332   -1.8637196   0.80302116   -1.0606985   0.12136367    11488.509     1000 
  446000   0.51199694   -1.8913745   0.76722741   -1.1241471    0.1289746    11522.956     1000 
  448000   0.52961212   -1.8645022   0.79362376   -1.0708784   0.11465003    11612.685     1000 
  450000   0.52205509   -1.8440381   0.78229955   -1.0617385   0.11886631    11487.762     1000 
  452000   0.53512083   -1.8411711   0.80187856   -1.0392926   0.12853993    11444.487     1000 
  454000   0.51445299    -1.851722    0.7709078   -1.0808142   0.12897026    11456.459     1000 
  456000   0.51138127   -1.8628228   0.76630483    -1.096518   0.12883214    11442.903     1000 
  458000   0.50794294   -1.8498202   0.76115249   -1.0886677   0.13119296    11469.965     1000 
  460000   0.51776365   -1.8837408   0.77586882   -1.1078719   0.12542332    11563.391     1000 
  462000    0.5095392   -1.8981837   0.76354449   -1.1346392   0.12330229     11424.59     1000 
  464000    0.5253506   -1.8602278   0.78723787   -1.0729899   0.12420382    11503.335     1000 
  466000   0.51109794   -1.8765648   0.76588027   -1.1106845   0.12453002    11474.453     1000 
  468000   0.52506345   -1.8145566   0.78680758    -1.027749   0.13177773    11311.736     1000 
  470000    0.5377957   -1.8584846   0.80588685   -1.0525978        0.138     11409.35     1000 
  472000   0.52235185   -1.8194465   0.78274425   -1.0367022   0.13420238     11301.58     1000 
  474000   0.52388535   -1.8592053    0.7850422   -1.0741631   0.11248578     11479.93     1000 
  476000   0.51802846   -1.8863539   0.77626564   -1.1100883   0.12165965    11467.864     1000 
  478000    0.5196376   -1.8421781   0.77867694   -1.0635011   0.13585929    11395.514     1000 
  480000   0.52846162   -1.8801891   0.79189973   -1.0882894   0.13063335     11447.72     1000 
  482000   0.52838009   -1.8468493   0.79177757   -1.0550717   0.13826931    11331.948     1000 
  484000   0.52483324   -1.8207093    0.7864626   -1.0342467   0.13706169    11255.603     1000 
  486000   0.51545975   -1.8409232   0.77241644   -1.0685068   0.12537338    11527.832     1000 
  488000   0.51048586   -1.9168173   0.76496305   -1.1518542   0.12471578    11471.866     1000 
  490000   0.51400215   -1.8209769   0.77023222   -1.0507447   0.13782642     11351.85     1000 
  492000   0.50783928    -1.851448   0.76099716   -1.0904508   0.12976191    11384.938     1000 
  494000   0.52909313   -1.8401837   0.79284605   -1.0473376   0.13394726    11348.709     1000 
  496000     0.508646    -1.892268   0.76220602    -1.130062   0.11548272    11403.698     1000 
  498000   0.52233502   -1.8668875   0.78271903   -1.0841684   0.13461426    11388.086     1000 
  500000   0.51625722   -1.7858115   0.77361145   -1.0122001   0.13158204    11405.473     1000 
  502000   0.54865788   -1.8546661   0.82216383   -1.0325022   0.13900651    11385.033     1000 
  504000   0.53708569   -1.8893875   0.80482291   -1.0845646   0.12960074    11465.259     1000 
  506000   0.52751106   -1.8267264   0.79047532   -1.0362511   0.13648913    11385.655     1000 
  508000   0.52693097   -1.8729481   0.78960605   -1.0833421   0.12506798    11530.412     1000 
  510000   0.52752413   -1.8152034   0.79049491   -1.0247085   0.12360402    11506.143     1000 
  512000   0.51775937   -1.8473709   0.77586242   -1.0715085   0.12613307    11498.767     1000 
  514000   0.53636985   -1.8457273   0.80375022    -1.041977   0.12553771    11477.831     1000 
  516000   0.52528659   -1.8410521   0.78714195   -1.0539101   0.13150804    11269.013     1000 
  518000   0.50480985   -1.9418662   0.75645755   -1.1854086   0.13692618    11360.289     1000 
  520000   0.53292622   -1.8426001   0.79858994   -1.0440101   0.14625916    11292.317     1000 
  522000   0.52811997   -1.8883489   0.79138778   -1.0969611   0.13341138    11298.982     1000 
  524000   0.50049672    -1.843925   0.74999434   -1.0939307   0.13715106    11320.903     1000 
  526000   0.53383477   -1.8443673   0.79995141   -1.0444158   0.12584473    11496.699     1000 
  528000   0.51469395   -1.8544575   0.77126889   -1.0831886   0.12588731    11342.096     1000 
  530000   0.52322821   -1.8238627   0.78405748   -1.0398052   0.14467842    11275.808     1000 
  532000   0.53125366   -1.8848296   0.79608362   -1.0887459   0.12539911    11465.939     1000 
  534000   0.51239656   -1.8628443   0.76782624    -1.095018    0.1223751    11493.582     1000 
  536000   0.52543217   -1.8089346   0.78736011   -1.0215745   0.12241287    11476.253     1000 
  538000   0.51968077   -1.8679754   0.77874163   -1.0892338   0.11913723    11709.479     1000 
  540000   0.52601475    -1.898089   0.78823311   -1.1098559   0.13252586    11475.292     1000 
  542000   0.52159514   -1.8671773   0.78161032    -1.085567   0.13148291    11467.556     1000 
  544000   0.51410804   -1.8250845    0.7703909   -1.0546936   0.13943794    11223.244     1000 
  546000   0.51770105    -1.790955   0.77577503     -1.01518   0.13616673    11157.046     1000 
  548000   0.52907262   -1.8562141   0.79281533   -1.0633987    0.1347701    11372.545     1000 
  550000   0.52469148   -1.8522641   0.78625018   -1.0660139   0.12943688    11489.562     1000 
  552000   0.50518423   -1.8520267   0.75701857   -1.0950082    0.1345996    11396.911     1000 
  554000   0.52973234   -1.8593518   0.79380391   -1.0655479     0.125984    11379.249     1000 
  556000   0.51167314   -1.9045979   0.76674219   -1.1378557   0.13808025    11295.272     1000 
  558000   0.53864552   -1.8646121   0.80716031   -1.0574517   0.13345196    11454.072     1000 
  560000    0.5358031   -1.8406124   0.80290095   -1.0377114   0.12297664    11538.269     1000 
  562000   0.50473049   -1.8223538   0.75633864   -1.0660152   0.14049435    11209.065     1000 
  564000   0.53817001   -1.8586322   0.80644776   -1.0521844   0.11936551    11472.344     1000 
  566000   0.54547716   -1.8357955   0.81739752    -1.018398   0.13254075    11308.531     1000 
  568000   0.50819785   -1.8550493   0.76153448   -1.0935148     0.132016    11339.014     1000 
  570000   0.52485528    -1.857399   0.78649563   -1.0709033   0.11297079    11466.591     1000 
  572000   0.51720753   -1.9080599   0.77503549   -1.1330244   0.12562783    11463.965     1000 
  574000   0.51059095   -1.8643306   0.76512053   -1.0992101   0.12320655    11497.204     1000 
  576000   0.51234585   -1.8993114   0.76775026   -1.1315612   0.11975118    11420.153     1000 
  578000   0.53205414   -1.8705478   0.79728312   -1.0732647   0.13637788    11391.434     1000 
  580000   0.51105132    -1.855866    0.7658104   -1.0900556   0.13073052    11406.103     1000 
  582000   0.52832754   -1.8245824   0.79169882   -1.0328836   0.13596213    11194.453     1000 
  584000   0.50113892   -1.8344452   0.75095667   -1.0834885   0.13636833    11295.489     1000 
  586000   0.50703016   -1.9015972   0.75978469   -1.1418125   0.12013683    11491.036     1000 
  588000   0.52293199   -1.8390941   0.78361358   -1.0554805   0.13322027    11376.119     1000 
  590000   0.52770197   -1.8544482    0.7907614   -1.0636868   0.13233458    11407.842     1000 
  592000   0.51672585   -1.8907594   0.77431369   -1.1164457   0.13001791    11410.707     1000 
  594000   0.51588755   -1.8355046   0.77305749   -1.0624471   0.13358081    11238.559     1000 
  596000   0.50352704   -1.8667961   0.75453528   -1.1122609   0.13243406    11408.819     1000 
  598000   0.51136061   -1.8675052   0.76627387   -1.1012313   0.12526194     11497.84     1000 
  600000   0.53313321   -1.8024608   0.79890012   -1.0035607   0.13441316    11458.246     1000 
  602000     0.521258   -1.8815717   0.78110512   -1.1004665   0.13241895    11364.133     1000 
  604000   0.52404532   -1.8901279   0.78528191    -1.104846    0.1244911     11450.16     1000 
  606000   0.52066798   -1.8794407   0.78022097   -1.0992197   0.12728378    11452.507     1000 
  608000   0.51864836   -1.8502364   0.77719457   -1.0730419   0.12735485    11486.634     1000 
  610000   0.53330562   -1.8793818   0.79915848   -1.0802234    0.1397229    11208.881     1000 
  612000   0.52341479   -1.8888944   0.78433707   -1.1045573   0.12930439    11454.491     1000 
  614000   0.52541036   -1.9074324   0.78732742    -1.120105   0.13584425    11429.307     1000 
  616000   0.50707833   -1.8160463   0.75985687   -1.0561894    0.1451001    11207.164     1000 
  618000   0.52058815   -1.8327539   0.78010134   -1.0526526   0.13068784    11458.881     1000 
  620000   0.53798748   -1.9049699   0.80617423   -1.0987957   0.12360915    11434.314     1000 
  622000   0.54265369   -1.8517618   0.81316655   -1.0385952   0.12898433    11454.267     1000 
  624000   0.51336134    -1.846086   0.76927197    -1.076814   0.12833212    11350.242     1000 
  626000   0.52913154   -1.9096884   0.79290361   -1.1167848   0.11248598    11715.475     1000 
  628000   0.54206529   -1.9015277   0.81228484   -1.0892429   0.12699049    11400.161     1000 
  630000   0.50673556   -1.8710031   0.75934324   -1.1116599   0.11275138    11499.258     1000 
  632000   0.52419291   -1.8833658   0.78550308   -1.0978628   0.12301528     11425.29     1000 
  634000   0.52187225   -1.8580032   0.78202557   -1.0759776   0.12450405    11514.983     1000 
  636000    0.5402419   -1.8610521   0.80955249   -1.0514996   0.13090975    11437.148     1000 
  638000   0.51599242   -1.8346337   0.77321464    -1.061419   0.12933051    11483.785     1000 
  640000   0.50883725   -1.8724655   0.76249262   -1.1099729   0.13808463    11267.239     1000 
  642000   0.53082672   -1.8326038   0.79544384     -1.03716   0.11780582    11405.893     1000 
  644000   0.50179881   -1.8282563   0.75194551   -1.0763108   0.11961889    11495.835     1000 
  646000   0.53044333   -1.8765963   0.79486933    -1.081727   0.12408426     11343.14     1000 
  648000   0.52512185   -1.8952773    0.7868951   -1.1083822    0.1227235    11465.523     1000 
  650000   0.52963079   -1.8511965   0.79365173   -1.0575448   0.12558036    11590.485     1000 
  652000   0.52707832   -1.8657351   0.78982686   -1.0759082   0.12644123    11526.876     1000 
  654000   0.51991051   -1.8712212   0.77908589   -1.0921353   0.11406722    11571.083     1000 
  656000    0.5224192   -1.8644159   0.78284517   -1.0815708   0.13198924    11395.898     1000 
  658000   0.52837966   -1.8685854   0.79177691   -1.0768085   0.12368438     11546.91     1000 
  660000   0.52498291   -1.8264664   0.78668689   -1.0397795   0.13032004    11360.831     1000 
  662000   0.51321359     -1.86565   0.76905056   -1.0965994   0.12347923      11584.6     1000 
  664000   0.49999187   -1.8671282   0.74923781   -1.1178904   0.14340043    11324.995     1000 
  666000   0.51740689   -1.8486548   0.77533422   -1.0733206   0.13122508    11460.193     1000 
  668000   0.52351608   -1.8708844   0.78448885   -1.0863955   0.13735068    11348.069     1000 
  670000   0.52535826   -1.8354933   0.78724935    -1.048244    0.1366858    11192.732     1000 
  672000   0.52083778    -1.830843   0.78047542   -1.0503676   0.13456296      11252.7     1000 
  674000   0.53189875   -1.8235445   0.79705027   -1.0264943   0.14118818    11300.587     1000 
  676000   0.54500903   -1.8721615   0.81669603   -1.0554654   0.12158007     11523.57     1000 
  678000   0.53222871   -1.8598149   0.79754472   -1.0622702   0.13957159    11342.176     1000 
  680000   0.52996118   -1.8363566   0.79414683   -1.0422098   0.13492544    11350.482     1000 
  682000    0.5114631   -1.8771496   0.76642745   -1.1107222   0.12635945    11496.722     1000 
  684000    0.5207784   -1.8816855   0.78038643   -1.1012991   0.12564833    11573.881     1000 
  686000   0.50887036   -1.8821019   0.76254223   -1.1195596   0.12845182        11491     1000 
  688000   0.51433643   -1.8492697   0.77073315   -1.0785366    0.1292014     11413.38     1000 
  690000   0.50987018   -1.8634477   0.76404046   -1.0994073    0.1359404      11280.1     1000 
  692000   0.53560122   -1.8362217   0.80259842   -1.0336233   0.13796027    11359.398     1000 
  694000   0.53082194   -1.8573907   0.79543667   -1.0619541   0.12974739    11457.241     1000 
  696000   0.52240337   -1.7964469   0.78282145   -1.0136255   0.13306449    11343.066     1000 
  698000    0.5038634   -1.8152974   0.75503931   -1.0602581   0.14090971    11207.902     1000 
  700000   0.52612388    -1.847395   0.78839664   -1.0589983   0.13760573    11343.718     1000 
  702000   0.50922631   -1.8672782   0.76307562   -1.1042025   0.12978381    11376.886     1000 
  704000   0.49621577   -1.8986243   0.74357933    -1.155045   0.11753638    11536.027     1000 
  706000   0.50689735   -1.8855556   0.75958568   -1.1259699   0.12124654    11535.383     1000 
  708000   0.54016999    -1.820581   0.80944472   -1.0111363   0.12284176    11453.982     1000 
  710000    0.5101545   -1.8926747   0.76446651   -1.1282082   0.12564264     11585.58     1000 
  712000   0.53507834   -1.8993348    0.8018149   -1.0975199   0.12435665    11472.527     1000 
  714000   0.53464324   -1.8464815   0.80116289   -1.0453186   0.13695579    11334.552     1000 
  716000   0.52392272   -1.8854658   0.78509819   -1.1003676   0.13064191    11467.244     1000 
  718000   0.51807815   -1.8286663    0.7763401   -1.0523262   0.13348557    11344.349     1000 
  720000   0.55027513   -1.8558624   0.82458729   -1.0312751    0.1239825     11437.02     1000 
  722000   0.52966872   -1.8618176   0.79370858    -1.068109   0.12868807    11307.017     1000 
  724000   0.49170647   -1.9244675   0.73682214   -1.1876454   0.12186278    11533.977     1000 
  726000   0.52135748   -1.8230239   0.78125419   -1.0417697   0.13516841     11426.19     1000 
  728000   0.51788707   -1.8743952   0.77605377   -1.0983414   0.13645982    11399.107     1000 
  730000   0.51062447   -1.8378793   0.76517076   -1.0727086   0.13321299     11441.64     1000 
  732000   0.50217672   -1.8621509   0.75251182    -1.109639   0.13283502    11326.079     1000 
  734000   0.51111582   -1.8458347   0.76590706   -1.0799276   0.13093905    11482.402     1000 
  736000   0.51248703   -1.8449811   0.76796182   -1.0770193   0.12258881    11341.959     1000 
  738000   0.51076867    -1.833312   0.76538685   -1.0679252   0.13237774    11427.253     1000 
  740000   0.53451568   -1.8493283   0.80097175   -1.0483565   0.13339522    11385.051     1000 
  742000   0.53082181   -1.8768292   0.79543648   -1.0813927   0.12131884    11470.837     1000 
  744000   0.50806605   -1.8257859   0.76133697   -1.0644489   0.12468849    11416.496     1000 
  746000   0.54403827   -1.8646561   0.81524135   -1.0494148   0.12751359    11496.948     1000 
  748000    0.5394346   -1.8399056   0.80834274   -1.0315628   0.12948809     11566.98     1000 
  750000   0.50021205   -1.8559129   0.74956775   -1.1063451    0.1352366    11346.398     1000 
  752000   0.52914301   -1.8234335    0.7929208   -1.0305127   0.13365363    11310.447     1000 
  754000   0.51835737   -1.8771508   0.77675852   -1.1003922   0.12964101    11461.751     1000 
  756000   0.54050861   -1.8644857   0.80995215   -1.0545336   0.12899819    11497.124     1000 
  758000    0.5284954   -1.8661098   0.79195036   -1.0741594   0.11620271    11582.132     1000 
  760000   0.50700207   -1.9228405    0.7597426   -1.1630979   0.12850749      11440.4     1000 
  762000   0.52387036   -1.8832433   0.78501973   -1.0982236   0.13022231    11525.809     1000 
  764000   0.52484702   -1.8642775   0.78648326   -1.0777942   0.13512795    11430.921     1000 
  766000   0.53556314    -1.886063   0.80254137   -1.0835216    0.1228999    11543.735     1000 
  768000   0.53312158   -1.8334445   0.79888268   -1.0345618   0.13242699    11320.118     1000 
  770000   0.52357436   -1.8346779   0.78457618   -1.0501017   0.11675775    11544.168     1000 
  772000   0.53170262   -1.8305885   0.79675637   -1.0338321    0.1310784    11341.178     1000 
  774000   0.50276469   -1.8358542   0.75339288   -1.0824613    0.1192063    11411.754     1000 
  776000   0.50567935   -1.8172639    0.7577605   -1.0595034   0.13855321    11342.607     1000 
  778000   0.50623291   -1.9107774   0.75859002   -1.1521873   0.14221886    11309.558     1000 
  780000   0.50725249   -1.8483083   0.76011785   -1.0881905   0.12670894    11449.769     1000 
  782000   0.52179707   -1.9006872    0.7819129   -1.1187743   0.13327903    11432.455     1000 
  784000   0.52308045   -1.8514114   0.78383605   -1.0675754   0.12532253    11462.424     1000 
  786000     0.530609   -1.8014621   0.79511759   -1.0063445   0.13259622    11413.812     1000 
  788000    0.5003611   -1.8329051   0.74979111   -1.0831139   0.12909746    11445.216     1000 
  790000   0.51841703   -1.8798375   0.77684792   -1.1029896   0.12575548    11542.981     1000 
  792000   0.52736944    -1.822981   0.79026311   -1.0327179   0.11478612    11498.138     1000 
  794000    0.5249436   -1.8487024   0.78662799   -1.0620745   0.13210928    11329.096     1000 
  796000   0.51503223    -1.864578   0.77177579   -1.0928022   0.12204233    11457.022     1000 
  798000   0.51799089   -1.8419776   0.77620935   -1.0657682   0.12972372    11333.858     1000 
  800000   0.53227514   -1.8780692    0.7976143   -1.0804549   0.13378117    11407.341     1000 
  802000   0.51432297   -1.8670079   0.77071297   -1.0962949   0.12505125     11359.01     1000 
  804000   0.50363177   -1.8457099   0.75469221   -1.0910177   0.11767314    11637.624     1000 
  806000   0.50530441   -1.8477767   0.75719866    -1.090578   0.13291216    11432.984     1000 
  808000   0.51731976   -1.8609199   0.77520365   -1.0857162   0.13392879    11340.635     1000 
  810000   0.51821767   -1.8173212   0.77654918    -1.040772   0.13488482    11246.217     1000 
  812000   0.52078262    -1.809401   0.78039276   -1.0290083   0.12088407    11483.997     1000 
  814000    0.5264654      -1.8801    0.7889084   -1.0911916   0.12820553    11430.395     1000 
  816000   0.50495676   -1.7794446    0.7566777   -1.0227669   0.12710788    11341.876     1000 
  818000   0.49868065   -1.8157663   0.74727295   -1.0684934   0.14567822    11323.707     1000 
  820000   0.52348556   -1.8400565   0.78444311   -1.0556134   0.13123251    11384.771     1000 
  822000   0.53412854   -1.8551547   0.80039161   -1.0547631   0.14210714    11211.116     1000 
  824000   0.51089369    -1.892569   0.76557419   -1.1269948   0.13662818     11346.44     1000 
  826000   0.53248929   -1.8693256    0.7979352   -1.0713904   0.14090273     11180.16     1000 
  828000   0.51629709   -1.8664011   0.77367119   -1.0927299   0.12222201    11418.155     1000 
  830000   0.53259393    -1.876728   0.79809201    -1.078636   0.13009527    11351.551     1000 
  832000   0.51028032   -1.8323809   0.76465507   -1.0677258   0.12420503    11447.463     1000 
  834000   0.51478054   -1.8412016   0.77139864   -1.0698029   0.12604978    11384.308     1000 
  836000   0.48686705   -1.8959764   0.72957028   -1.1664061   0.11541238    11454.903     1000 
  838000   0.50427747   -1.8291275    0.7556598   -1.0734677   0.13363884    11404.372     1000 
  840000   0.48035077   -1.8034081   0.71980563   -1.0836025   0.13407654    11349.259     1000 
  842000   0.51334455   -1.8478053   0.76924681   -1.0785585   0.13570078    11465.869     1000 
  844000    0.5162544   -1.8928851   0.77360722   -1.1192779   0.14222699    11213.127     1000 
  846000    0.5131056   -1.8770537   0.76888875   -1.1081649   0.13069391     11305.79     1000 
  848000   0.50668842   -1.8669253    0.7592726   -1.1076527   0.13094193    11271.683     1000 
  850000   0.52712657   -1.8933996   0.78989916   -1.1035004    0.1352675    11381.352     1000 
  852000   0.52941893   -1.8473268   0.79333427   -1.0539925   0.13368989    11351.488     1000 
  854000   0.54873514   -1.8712863   0.82227961   -1.0490067   0.12889801    11435.133     1000 
  856000   0.53436452   -1.8305895   0.80074523   -1.0298443   0.14211606    11316.027     1000 
  858000   0.50644062   -1.8764679   0.75890126   -1.1175666   0.12520317    11443.115     1000 
  860000   0.52565735   -1.8537182   0.78769755   -1.0660207   0.13565204    11342.151     1000 
  862000   0.52116605   -1.8411084   0.78096733   -1.0601411   0.13335826    11286.876     1000 
  864000   0.52468066   -1.8597075   0.78623396   -1.0734736   0.12493858     11520.67     1000 
  866000   0.56175922   -1.8730481   0.84179619   -1.0312519   0.12387435    11582.422     1000 
  868000    0.5344089   -1.8714739   0.80081173   -1.0706622   0.13742523    11375.472     1000 
  870000   0.50461953   -1.8550354   0.75617236    -1.098863    0.1255113    11461.608     1000 
  872000   0.51487668   -1.8534715   0.77154271   -1.0819288   0.12132752     11356.78     1000 
  874000   0.52583943    -1.872348   0.78797039   -1.0843776   0.13676184    11450.786     1000 
  876000    0.5219384   -1.8733594   0.78212469   -1.0912347   0.11860729    11485.638     1000 
  878000   0.53384248   -1.8936721   0.79996296   -1.0937091   0.12522927    11445.553     1000 
  880000   0.54631545   -1.8586877    0.8186537    -1.040034    0.1434868    11199.798     1000 
  882000   0.53828864    -1.875473   0.80662552   -1.0688475   0.13459241    11373.139     1000 
  884000   0.51939416   -1.8903606   0.77831215   -1.1120485   0.14037632    11424.853     1000 
  886000   0.53214968   -1.8055278    0.7974263   -1.0081015   0.13087873    11452.467     1000 
  888000   0.50859268   -1.9271773   0.76212614   -1.1650511   0.12195337    11475.179     1000 
  890000   0.50820595    -1.869367   0.76154662   -1.1078204   0.12731186    11397.753     1000 
  892000   0.51857396   -1.8687554   0.77708308   -1.0916724   0.13005957    11493.626     1000 
  894000   0.52147943   -1.8290873   0.78143692   -1.0476503    0.1336044    11382.062     1000 
  896000   0.53012317   -1.8461383   0.79438958   -1.0517487   0.14005755    11228.813     1000 
  898000   0.52733287   -1.8402031    0.7902083   -1.0499948   0.14161086    11351.989     1000 
  900000   0.50596952   -1.8781867   0.75819533   -1.1199914    0.1242578    11412.979     1000 
  902000   0.55586036   -1.8709358   0.83295675    -1.037979   0.12209024    11592.377     1000 
  904000   0.52070723    -1.844467   0.78027978   -1.0641873   0.12976016    11458.465     1000 
  906000   0.51966829   -1.8094483   0.77872294   -1.0307254   0.11612745    11482.376     1000 
  908000    0.5418549   -1.8641766   0.81196957    -1.052207   0.13636244    11426.778     1000 
  910000   0.52157988   -1.8309851   0.78158745   -1.0493976   0.13330906    11397.612     1000 
  912000   0.53379489   -1.8818461   0.79989164   -1.0819545   0.12502297    11468.552     1000 
  914000    0.5177265   -1.8370473   0.77581315   -1.0612342   0.15631897    11250.297     1000 
  916000   0.53199902   -1.8705176   0.79720053   -1.0733171   0.13474164    11349.345     1000 
  918000   0.53140509   -1.8929276   0.79631053   -1.0966171   0.12441163    11416.783     1000 
  920000   0.51724452   -1.8746297   0.77509091   -1.0995388   0.13533389    11440.082     1000 
  922000   0.50852836   -1.8251686   0.76202975   -1.0631389   0.14261863    11243.101     1000 
  924000   0.51304711   -1.8559747    0.7688011   -1.0871736   0.12048781    11541.448     1000 
  926000   0.51478901   -1.8450218   0.77141133   -1.0736105   0.12884732    11357.271     1000 
  928000   0.52217431   -1.8454558    0.7824782   -1.0629776   0.12775296    11412.534     1000 
  930000   0.53770246    -1.862617   0.80574714   -1.0568698   0.12167502    11604.521     1000 
  932000   0.50535455   -1.8499587    0.7572738   -1.0926849   0.13992835    11269.218     1000 
  934000   0.53163245   -1.8444194   0.79665123   -1.0477681   0.12746396    11324.448     1000 
  936000    0.5283471   -1.8859763   0.79172812   -1.0942481   0.13206634    11459.747     1000 
  938000     0.523754   -1.8287328   0.78484537   -1.0438874   0.11718061    11588.764     1000 
  940000    0.5111439   -1.8566893   0.76594913   -1.0907402   0.13510674    11377.759     1000 
  942000   0.51244941   -1.8088089   0.76790544   -1.0409034   0.13339407    11367.193     1000 
  944000   0.51565776   -1.8654749   0.77271316   -1.0927617   0.13805829      11349.7     1000 
  946000   0.50299722   -1.8616932   0.75374134   -1.1079519   0.14422924    11255.418     1000 
  948000    0.4939045   -1.9136411    0.7401159   -1.1735252   0.13270679    11305.164     1000 
  950000   0.51719351   -1.8771222   0.77501448   -1.1021078   0.12440611    11412.215     1000 
  952000   0.52298041   -1.8302788   0.78368615   -1.0465927    0.1328828    11356.064     1000 
  954000    0.5159163   -1.8819158   0.77310058   -1.1088153   0.12593593    11414.264     1000 
  956000   0.50288945   -1.8338299   0.75357983     -1.08025   0.13799279    11312.216     1000 
  958000   0.52717689   -1.8710958   0.78997457   -1.0811213   0.13880543    11333.791     1000 
  960000   0.53472012   -1.8889982   0.80127809   -1.0877201   0.12630444    11567.415     1000 
  962000   0.51296967   -1.8438662   0.76868505   -1.0751812   0.13736679    11269.919     1000 
  964000   0.51680164   -1.9519537   0.77442726   -1.1775264   0.12426685    11554.164     1000 
  966000   0.51581848   -1.8547343   0.77295399   -1.0817803   0.12609822    11468.733     1000 
  968000    0.5183422    -1.872694   0.77673578   -1.0959582   0.13506332    11468.569     1000 
  970000   0.50719286   -1.8633357    0.7600285   -1.1033072   0.12292582    11581.899     1000 
  972000   0.53296108   -1.8723531   0.79864218    -1.073711   0.12237749    11470.155     1000 
  974000   0.52783282   -1.8122754   0.79095748   -1.0213179   0.13243963    11338.104     1000 
  976000   0.51268916   -1.7825451    0.7682647   -1.0142804   0.12581925    11365.651     1000 
  978000   0.51277717   -1.8511275    0.7683966   -1.0827309    0.1268936    11413.957     1000 
  980000   0.49462138   -1.8303839   0.74119014   -1.0891938   0.13116893    11368.884     1000 
  982000   0.52822164   -1.8850363   0.79154013   -1.0934962   0.12328763    11557.929     1000 
  984000   0.53410914   -1.8379577   0.80036255   -1.0375951   0.12694692    11381.444     1000 
  986000   0.55109563    -1.829639   0.82581681   -1.0038222   0.13563084    11354.063     1000 
  988000   0.52173177   -1.8695784   0.78181506   -1.0877634    0.1320773    11392.068     1000 
  990000   0.54819019   -1.8736926     0.821463   -1.0522296   0.14916485    11265.998     1000 
  992000   0.52853088   -1.8490022   0.79200353   -1.0569987   0.12959267    11387.798     1000 
  994000   0.51194975   -1.8292864    0.7671567   -1.0621297   0.15305169    11160.497     1000 
  996000   0.49482934   -1.8734213   0.74150176   -1.1319195   0.13517564    11412.601     1000 
  998000   0.51485442   -1.8964823   0.77150934   -1.1249729   0.14043409    11241.145     1000 
 1000000   0.51879651   -1.8619336   0.77741657    -1.084517   0.12531498    11539.449     1000 
 1002000   0.49567445    -1.831316   0.74276816   -1.0885478   0.12453102    11259.021     1000 
 1004000    0.4913732    -1.839444   0.73632275   -1.1031213   0.12570524    11443.455     1000 
 1006000   0.52603369   -1.8941227   0.78826148   -1.1058612    0.1257582    11517.078     1000 
 1008000   0.51983909   -1.8759605   0.77897887   -1.0969816   0.11998334     11567.24     1000 
 1010000   0.52892274   -1.8370688   0.79259073   -1.0444781   0.13651949    11299.091     1000 
 1012000   0.51585693    -1.824306   0.77301161   -1.0512944   0.12290195    11466.294     1000 
 1014000   0.52624095    -1.828205   0.78857207   -1.0396329   0.12345916    11529.562     1000 
 1016000    0.5033607   -1.8861759   0.75428602   -1.1318899    0.1267451    11581.272     1000 
 1018000    0.5475275   -1.8750631   0.82046996   -1.0545931   0.12589382    11497.789     1000 
 1020000    0.5276043   -1.8533592   0.79061504   -1.0627442   0.12233768    11525.959     1000 
 1022000   0.51710901    -1.896629   0.77488786   -1.1217411   0.13725663     11348.29     1000 
 1024000    0.5265589   -1.8173934   0.78904851   -1.0283449   0.13252368     11332.43     1000 
 1026000   0.53857402   -1.8720489   0.80705317   -1.0649957   0.13381682    11363.871     1000 
 1028000   0.51999099   -1.8059415   0.77920649    -1.026735   0.13755429    11239.491     1000 
 1030000   0.53757885   -1.8669188    0.8055619   -1.0613569   0.12169166    11516.616     1000 
 1032000   0.53278427   -1.8900842   0.79837722   -1.0917069   0.12456164    11431.365     1000 
 1034000   0.53660386   -1.8750412   0.80410088   -1.0709404   0.12678575     11518.12     1000 
 1036000   0.53331191   -1.8362477    0.7991679   -1.0370798   0.13953055    11372.617     1000 
 1038000   0.52618539   -1.8568171   0.78848881   -1.0683283   0.12422248    11513.221     1000 
 1040000   0.51175626   -1.8650384   0.76686675   -1.0981716   0.12290666    11464.392     1000 
 1042000   0.55265147   -1.8801234   0.82814823   -1.0519752    0.1258495    11488.563     1000 
 1044000   0.52944644   -1.9003863   0.79337548   -1.1070108   0.12076186    11691.454     1000 
 1046000   0.51938325   -1.8653326    0.7782958   -1.0870368   0.11621658     11551.14     1000 
 1048000   0.51867828    -1.879885    0.7772394   -1.1026456   0.13085121    11496.448     1000 
 1050000   0.52691045   -1.8581956   0.78957531   -1.0686203   0.12321782    11464.438     1000 
 1052000   0.55230497   -1.8312324     0.827629   -1.0036034   0.14384879    11400.624     1000 
 1054000   0.51449882   -1.8532775   0.77097648    -1.082301   0.12968869    11384.467     1000 
 1056000    0.5009289   -1.8652008   0.75064196   -1.1145589   0.12765382    11357.739     1000 
 1058000    0.4876041   -1.8313009   0.73067475   -1.1006262   0.12918346    11339.565     1000 
 1060000   0.52117611   -1.8553737    0.7809824   -1.0743913   0.12568192     11441.74     1000 
 1062000   0.50730214   -1.8678602   0.76019226   -1.1076679   0.13441376    11389.676     1000 
 1064000   0.52328633   -1.8175077   0.78414456   -1.0333631     0.138654    11248.782     1000 
 1066000   0.51832008   -1.8502571   0.77670264   -1.0735545   0.13355559    11374.065     1000 
 1068000   0.53007288   -1.8357173   0.79431422   -1.0414031   0.12850115    11401.868     1000 
 1070000   0.52375873   -1.8258403   0.78485246   -1.0409878   0.13577009    11256.381     1000 
 1072000   0.52324028   -1.9415539   0.78407556   -1.1574784   0.11823484    11552.266     1000 
 1074000   0.51582918   -1.8413043   0.77297002   -1.0683343    0.1278488    11389.697     1000 
 1076000   0.49256072   -1.8033184   0.73810224   -1.0652162   0.10993063    11356.418     1000 
 1078000   0.51466115   -1.8660555   0.77121973   -1.0948358   0.12750298    11517.837     1000 
 1080000   0.51873466   -1.8454109   0.77732389    -1.068087   0.14105202    11375.523     1000 
 1082000   0.51041135   -1.8747006    0.7648514   -1.1098491    0.1225974     11425.83     1000 
 1084000   0.51792734   -1.8998541   0.77611411     -1.12374   0.12033659    11562.467     1000 
 1086000   0.51279531   -1.8463548   0.76842377    -1.077931   0.12964361    11454.972     1000 
 1088000   0.53634896   -1.8342525   0.80371892   -1.0305336   0.13367468    11409.669     1000 
 1090000   0.52714252   -1.8556406   0.78992307   -1.0657175   0.14361161    11157.957     1000 
 1092000   0.52653922   -1.9228383   0.78901902   -1.1338193   0.13118845    11429.033     1000 
 1094000   0.47776889   -1.8334956   0.71593668    -1.117559   0.12664386    11468.424     1000 
 1096000   0.49997806   -1.8892782   0.74921713   -1.1400611   0.11600391    11509.345     1000 
 1098000   0.52587751   -1.8916809   0.78802745   -1.1036534   0.12662112    11541.764     1000 
 1100000   0.52942018   -1.8451658   0.79333613   -1.0518297   0.12567627    11458.913     1000 
 1102000   0.51331314   -1.8678886   0.76919974   -1.0986889    0.1310953    11376.879     1000 
 1104000   0.51371872   -1.8760292    0.7698075   -1.1062217    0.1258739    11344.202     1000 
 1106000   0.53611891   -1.8610302   0.80337419    -1.057656   0.11897759    11453.091     1000 
 1108000   0.50523552   -1.9277335   0.75709542    -1.170638   0.11996087    11560.844     1000 
 1110000   0.51419707   -1.9043873   0.77052432    -1.133863   0.11497002    11513.756     1000 
 1112000   0.52391113    -1.881032   0.78508083   -1.0959512   0.12657935    11450.604     1000 
 1114000   0.52231791    -1.868399   0.78269339   -1.0857056   0.11637381    11456.067     1000 
 1116000   0.52182044   -1.8266822   0.78194793   -1.0447343   0.13456689    11341.802     1000 
 1118000   0.52186038   -1.8313853   0.78200777   -1.0493775   0.12880965    11429.581     1000 
 1120000   0.53368778   -1.8516403   0.79973113   -1.0519091   0.11919737    11496.152     1000 
 1122000   0.53118183   -1.8636353   0.79597598   -1.0676593   0.14000352    11283.645     1000 
 1124000   0.51449406   -1.8309222   0.77096935   -1.0599528   0.11762922    11333.979     1000 
 1126000   0.51459245   -1.8137565   0.77111678   -1.0426397   0.12995971    11479.141     1000 
 1128000   0.51252455   -1.8502346   0.76801804   -1.0822165   0.12531652    11605.557     1000 
 1130000   0.54474198   -1.8578526   0.81629585   -1.0415567    0.1469927    11302.784     1000 
 1132000   0.52157921   -1.8656894   0.78158645    -1.084103   0.13326236    11328.318     1000 
 1134000   0.52380192   -1.9264831   0.78491717   -1.1415659    0.1212788     11479.02     1000 
 1136000   0.51357486   -1.8438167   0.76959193   -1.0742248   0.12280423    11379.114     1000 
 1138000    0.5174098   -1.8813514   0.77533858   -1.1060129   0.12165412    11528.837     1000 
 1140000   0.52172374   -1.8698836   0.78180303   -1.0880805   0.12709012    11408.887     1000 
 1142000   0.54236823   -1.9243766   0.81273879   -1.1116378   0.12474668    11571.851     1000 
 1144000   0.51590244   -1.8592528    0.7730798    -1.086173   0.13184603    11377.295     1000 
 1146000   0.52606495   -1.8559823   0.78830832    -1.067674   0.12045389    11450.335     1000 
 1148000   0.50926323   -1.8526537   0.76313095   -1.0895227   0.13639963    11302.358     1000 
 1150000   0.52962024    -1.868824   0.79363592    -1.075188   0.11712349    11650.013     1000 
 1152000   0.51182502   -1.8676015   0.76696979   -1.1006317   0.11873104    11404.036     1000 
 1154000   0.53512365   -1.8694781    0.8018828   -1.0675953   0.13259922    11424.582     1000 
 1156000   0.52124387   -1.8676015   0.78108394   -1.0865176   0.13341771     11523.53     1000 
 1158000   0.53224739    -1.857735   0.79757271   -1.0601623   0.13156949    11369.551     1000 
 1160000   0.53654932   -1.9009467   0.80401916   -1.0969276   0.12987695    11507.523     1000 
 1162000   0.48349058   -1.8703094   0.72451064   -1.1457988   0.12655766    11509.289     1000 
 1164000   0.52698432   -1.8305913     0.789686   -1.0409053   0.12459429    11416.912     1000 
 1166000   0.53907994   -1.8730207    0.8078113   -1.0652095   0.12748538    11437.052     1000 
 1168000   0.52145123   -1.8168962   0.78139466   -1.0355016   0.13864376    11234.131     1000 
 1170000   0.52618722   -1.8482377   0.78849154   -1.0597462   0.13116757    11355.931     1000 
 1172000   0.52372983   -1.8637274   0.78480915   -1.0789183    0.1277619    11452.324     1000 
 1174000   0.54111475   -1.9299303   0.81086045   -1.1190698   0.13086774    11472.318     1000 
 1176000   0.50979612   -1.8848302   0.76392949   -1.1209007   0.12745257    11424.235     1000 
 1178000   0.52585725   -1.9221748    0.7879971   -1.1341777   0.12291305    11520.229     1000 
 1180000   0.51425359   -1.9347386     0.770609   -1.1641296   0.13005505     11414.06     1000 
 1182000   0.50448665   -1.8666771   0.75597324   -1.1107039   0.13384853     11465.02     1000 
 1184000   0.54181838   -1.9091735   0.81191484   -1.0972587   0.11774158     11582.98     1000 
 1186000   0.49876135   -1.8677147   0.74739389   -1.1203208   0.11669362    11552.337     1000 
 1188000   0.48640117   -1.8624099   0.72887215   -1.1335377   0.13848657    11242.019     1000 
 1190000   0.52667374   -1.9081851   0.78922061   -1.1189645   0.11781354    11518.393     1000 
 1192000   0.53280474   -1.8178926    0.7984079   -1.0194847   0.12805691    11437.928     1000 
 1194000   0.49338985   -1.9088488   0.73934469   -1.1695042   0.13643138    11408.406     1000 
 1196000   0.51944462   -1.8349043   0.77838776   -1.0565166   0.13890443    11312.531     1000 
 1198000    0.5086282   -1.8675407   0.76217935   -1.1053613   0.12958861    11426.663     1000 
 1200000   0.54525253   -1.8535524   0.81706091   -1.0364915    0.1314578    11363.202     1000 
 1202000    0.5196075   -1.8504622   0.77863185   -1.0718304   0.13123773    11379.858     1000 
 1204000   0.53788707   -1.8551622   0.80602378   -1.0491384   0.12910967    11485.644     1000 
 1206000   0.50941508   -1.8861198   0.76335849   -1.1227613   0.13336992    11358.669     1000 
 1208000    0.5046389   -1.8462606   0.75620139   -1.0900592   0.13868047    11263.082     1000 
 1210000   0.52895956   -1.8754587    0.7926459   -1.0828128   0.12551602    11449.713     1000 
 1212000   0.52787127   -1.8669472    0.7910151   -1.0759321   0.13141725    11529.009     1000 
 1214000   0.51018239   -1.8619584   0.76450832   -1.0974501   0.12832663     11477.87     1000 
 1216000   0.52863173   -1.8674452   0.79215465   -1.0752906   0.12883579    11414.666     1000 
 1218000    0.4973729   -1.8173153    0.7453133    -1.072002   0.12606823    11401.755     1000 
 1220000   0.55005487   -1.8360356   0.82425722   -1.0117784   0.13132472    11467.732     1000 
 1222000   0.51618167    -1.843994   0.77349824   -1.0704958   0.12631133    11468.897     1000 
 1224000   0.50771932   -1.8438888    0.7608174   -1.0830714   0.12757386    11461.174     1000 
 1226000   0.53726406   -1.8794411    0.8050902   -1.0743509    0.1398552    11425.186     1000 
 1228000   0.53172914   -1.8295783   0.79679612   -1.0327821   0.14264921    11208.314     1000 
 1230000   0.53952763   -1.8540783   0.80848216   -1.0455961   0.13230048    11517.655     1000 
 1232000   0.50518432   -1.8476157    0.7570187    -1.090597   0.11815667    11489.171     1000 
 1234000   0.53027269   -1.8095664   0.79461362   -1.0149528   0.14033277    11266.995     1000 
 1236000   0.51934925   -1.8875892   0.77824485   -1.1093443   0.13790619    11272.198     1000 
 1238000   0.53654953   -1.8457026   0.80401947   -1.0416831   0.13045401    11459.207     1000 
 1240000   0.51106195   -1.8846291   0.76582634   -1.1188027    0.1270071    11419.782     1000 
 1242000   0.52520062    -1.882026   0.78701313   -1.0950129   0.13128585    11343.089     1000 
 1244000   0.57521905    -1.856476   0.86196575  -0.99451028   0.11229387    11634.916     1000 
 1246000   0.50100835   -1.8678074   0.75076101   -1.1170464    0.1253088    11478.531     1000 
 1248000   0.51617031   -1.8562015   0.77348121   -1.0827203   0.12480643    11449.971     1000 
 1250000   0.52042433   -1.8308994   0.77985587   -1.0510435   0.12405564    11405.416     1000 
 1252000   0.50654006   -1.8797185   0.75905028   -1.1206682   0.12090877    11397.154     1000 
 1254000   0.53016487   -1.8995002   0.79445206   -1.1050482   0.12393847    11522.621     1000 
 1256000    0.5021659   -1.8493894   0.75249561   -1.0968938   0.12643236     11486.22     1000 
 1258000   0.50094406   -1.8606368   0.75066467   -1.1099721   0.12544996    11461.479     1000 
 1260000   0.50393214   -1.9136825   0.75514232   -1.1585402   0.13192114    11509.795     1000 
 1262000   0.53114051   -1.8952468   0.79591405   -1.0993327    0.1223521    11431.387     1000 
 1264000     0.526418   -1.8587935   0.78883737   -1.0699561   0.13147848    11517.858     1000 
 1266000   0.52366976     -1.87355   0.78471914   -1.0888309   0.12550388    11432.572     1000 
 1268000   0.50336607   -1.8081711   0.75429406    -1.053877   0.13644544    11388.423     1000 
 1270000   0.52743523   -1.8533254   0.79036169   -1.0629637   0.13748326    11417.793     1000 
 1272000   0.54637238   -1.8497773   0.81873901   -1.0310383   0.13752244    11352.446     1000 
 1274000   0.51507642    -1.845246   0.77184202    -1.073404   0.13262065    11441.686     1000 
 1276000   0.51922836   -1.8351832    0.7780637   -1.0571195    0.1229266    11471.261     1000 
 1278000   0.54318007   -1.8981724   0.81395534   -1.0842171    0.1317892    11367.545     1000 
 1280000   0.52229822    -1.817975   0.78266388   -1.0353111   0.13818928    11376.506     1000 
 1282000   0.51958901   -1.8305976   0.77860413   -1.0519935   0.12912331    11374.822     1000 
 1284000   0.54170862   -1.8595088   0.81175036   -1.0477584   0.13972072    11466.367     1000 
 1286000   0.52505313   -1.8544379   0.78679212   -1.0676458   0.12870063    11460.156     1000 
 1288000   0.54148714   -1.8570213   0.81141847   -1.0456028   0.13047407    11388.382     1000 
 1290000   0.51970928   -1.8658097   0.77878436   -1.0870254   0.13714392    11502.901     1000 
 1292000   0.53442826    -1.858381   0.80084074   -1.0575402   0.11829035     11312.85     1000 
 1294000   0.53455705    -1.822544   0.80103374   -1.0215103   0.12155962    11581.022     1000 
 1296000    0.5256974   -1.8803068   0.78775755   -1.0925493   0.14165702    11192.991     1000 
 1298000   0.53981392   -1.8503587   0.80891117   -1.0414475   0.14284198    11243.822     1000 
 1300000    0.5321294   -1.8444372    0.7973959   -1.0470413   0.13867398    11370.597     1000 
 1302000   0.49982068   -1.8413643   0.74898129    -1.092383   0.13201348    11403.693     1000 
 1304000   0.49247841   -1.8235812   0.73797889   -1.0856023   0.12533738    11626.146     1000 
 1306000   0.53538284   -1.8796576   0.80227118   -1.0773865   0.11835063    11563.061     1000 
 1308000   0.51494309   -1.8388552   0.77164222    -1.067213   0.12719193    11380.842     1000 
 1310000   0.52723618   -1.8885203   0.79006342   -1.0984569   0.12276627    11557.632     1000 
 1312000   0.52901323   -1.8889844   0.79272632   -1.0962581   0.12350844    11614.412     1000 
 1314000   0.53242116   -1.8495758   0.79783311   -1.0517427   0.13978379    11306.664     1000 
 1316000   0.52881731    -1.838903   0.79243273   -1.0464703   0.14345363     11315.95     1000 
 1318000   0.51893359   -1.8142785   0.77762198   -1.0366565   0.13647902     11303.19     1000 
 1320000    0.5188186   -1.8232207   0.77744968   -1.0457711    0.1385772    11277.441     1000 
 1322000    0.5264099   -1.8150354   0.78882523   -1.0262102   0.13407587    11348.883     1000 
 1324000   0.52636404   -1.9060203   0.78875652   -1.1172638   0.12553578    11445.408     1000 
 1326000   0.50674604   -1.8049659   0.75935894   -1.0456069   0.12247543    11482.927     1000 
 1328000   0.51645748   -1.8575571   0.77391153   -1.0836456   0.12961733      11458.4     1000 
 1330000   0.52688416   -1.8715912   0.78953592   -1.0820553   0.13979957    11279.778     1000 
 1332000   0.51868004   -1.8810385   0.77724204   -1.1037965   0.12790411    11407.901     1000 
 1334000    0.5239338   -1.8517411   0.78511481   -1.0666263   0.12212872    11554.621     1000 
 1336000    0.4951561   -1.8838725   0.74199142   -1.1418811   0.13765857      11303.1     1000 
 1338000   0.52347607   -1.8641235    0.7844289   -1.0796946     0.138038    11284.362     1000 
 1340000   0.52095403   -1.8506821   0.78064962   -1.0700324   0.11494977    11697.442     1000 
 1342000   0.51098746   -1.8743171   0.76571471   -1.1086024   0.11409601    11575.041     1000 
 1344000   0.50772956    -1.872434   0.76083275   -1.1116013   0.13056508     11368.91     1000 
 1346000   0.50763677   -1.8131557    0.7606937    -1.052462   0.12762247    11496.588     1000 
 1348000   0.51114676   -1.8453196   0.76595342   -1.0793662   0.12786055    11345.816     1000 
 1350000   0.50821261   -1.8216831    0.7615566   -1.0601266   0.12507244    11451.116     1000 
 1352000   0.51768568   -1.9049455   0.77575199   -1.1291935   0.12369812    11467.703     1000 
 1354000   0.50256955   -1.8783129   0.75310047   -1.1252124    0.1316048    11304.077     1000 
 1356000   0.51259676   -1.8970153   0.76812625   -1.1288891   0.13528567    11336.484     1000 
 1358000   0.52298184   -1.8832341   0.78368829   -1.0995458    0.1335732    11392.162     1000 
 1360000    0.4830929   -1.8264034   0.72391472   -1.1024887   0.13216182     11421.94     1000 
 1362000   0.51016368   -1.8964004   0.76448027   -1.1319201   0.12593143     11475.04     1000 
 1364000   0.52235605   -1.8650335   0.78275054    -1.082283   0.13000062    11357.591     1000 
 1366000   0.52675184   -1.8720901   0.78933763   -1.0827525   0.14026414    11435.324     1000 
 1368000   0.51310202   -1.8439378   0.76888338   -1.0750544   0.11996806    11495.814     1000 
 1370000   0.53253719   -1.7933353   0.79800698  -0.99532831   0.13900832    11320.517     1000 
 1372000   0.51081339   -1.8904702   0.76545387   -1.1250164   0.12359434    11337.192     1000 
 1374000   0.51885511   -1.8731464   0.77750438    -1.095642   0.13368698    11401.279     1000 
 1376000   0.50774519    -1.938827   0.76085617   -1.1779708   0.11504939    11671.917     1000 
 1378000   0.54091639   -1.9136622   0.81056321    -1.103099   0.13245338    11406.892     1000 
 1380000   0.50632128   -1.8186899   0.75872244   -1.0599675   0.12462833    11508.543     1000 
 1382000   0.49940396   -1.9171942   0.74835683   -1.1688374   0.11695952    11469.522     1000 
 1384000   0.52242641   -1.8882512   0.78285598   -1.1053953   0.11516238    11527.125     1000 
 1386000   0.52504823   -1.9408819   0.78678477   -1.1540971   0.12331374    11523.398     1000 
 1388000   0.53085095   -1.8520315   0.79548014   -1.0565514   0.13738742     11359.89     1000 
 1390000   0.50897827   -1.8744136   0.76270393   -1.1117096   0.12791556    11502.023     1000 
 1392000   0.51294642    -1.891013   0.76865022   -1.1223628   0.12114208    11368.721     1000 
 1394000   0.53787344   -1.8835085   0.80600335   -1.0775051      0.12997    11535.328     1000 
 1396000   0.51828588   -1.8529835    0.7766514   -1.0763321   0.13780158    11332.616     1000 
 1398000   0.51517849   -1.8762067   0.77199497   -1.1042117   0.11943845    11570.897     1000 
 1400000   0.52969447   -1.8229136   0.79374716   -1.0291664    0.1307857    11322.801     1000 
 1402000   0.50160077   -1.8858299   0.75164876   -1.1341811   0.13819053    11320.909     1000 
 1404000   0.50615143   -1.9064832   0.75846792   -1.1480153   0.12774641    11437.251     1000 
 1406000   0.52968969   -1.7958918      0.79374   -1.0021518   0.14729124    11282.566     1000 
 1408000   0.52668735   -1.8480304   0.78924099   -1.0587894   0.14266851    11293.717     1000 
 1410000   0.53013866   -1.8634442   0.79441279   -1.0690315   0.12764894     11421.96     1000 
 1412000   0.49899116   -1.8643679   0.74773825   -1.1166296     0.125294    11487.192     1000 
 1414000    0.5137582   -1.8400939   0.76986666   -1.0702272   0.13034521     11301.74     1000 
 1416000   0.53119429   -1.9596671   0.79599464   -1.1636725   0.12741816    11530.343     1000 
 1418000   0.54221074   -1.8779896   0.81250279   -1.0654868   0.12819517    11341.864     1000 
 1420000   0.52845561   -1.8819481   0.79189073   -1.0900574   0.12058876    11582.087     1000 
 1422000   0.51517989   -1.8874532   0.77199706   -1.1154562   0.11163254     11591.85     1000 
 1424000   0.50490252   -1.8466738   0.75659642   -1.0900774    0.1430747    11289.737     1000 
 1426000   0.51795509   -1.8535559    0.7761557   -1.0774002   0.13739022    11281.374     1000 
 1428000   0.53202439   -1.8727874   0.79723854   -1.0755489   0.12802327     11422.91     1000 
 1430000   0.53515599   -1.8667645   0.80193125   -1.0648333   0.11628039    11474.075     1000 
 1432000   0.50416656   -1.8591176   0.75549359    -1.103624   0.13677436     11395.67     1000 
 1434000   0.51197382   -1.9071167   0.76719277   -1.1399239   0.12960255    11489.478     1000 
 1436000   0.52969824   -1.8943517   0.79375281   -1.1005989    0.1288729    11566.111     1000 
 1438000   0.52341954   -1.8662056   0.78434418   -1.0818614   0.13542406    11471.524     1000 
 1440000   0.50267855   -1.8394266    0.7532638   -1.0861628   0.13135418    11403.282     1000 
 1442000   0.51771755   -1.8813569   0.77579975   -1.1055571   0.13592065    11335.304     1000 
 1444000   0.53261069   -1.8730413   0.79811712   -1.0749242   0.13667867    11337.523     1000 
 1446000    0.5149399   -1.8902591   0.77163744   -1.1186217   0.12716945    11415.111     1000 
 1448000   0.52347098   -1.8791572   0.78442126    -1.094736   0.12585914    11545.847     1000 
 1450000   0.51172082   -1.8713241   0.76681365   -1.1045105   0.12126668    11572.035     1000 
 1452000   0.51727699   -1.8512621   0.77513956   -1.0761225   0.12613499    11544.043     1000 
 1454000   0.49670003   -1.8221728     0.744305   -1.0778678   0.14348803     11372.14     1000 
 1456000   0.52439508   -1.8671876   0.78580602   -1.0813815   0.13032653     11347.55     1000 
 1458000   0.52398974   -1.8608633   0.78519862   -1.0756646   0.11907999     11501.61     1000 
 1460000    0.5204317   -1.8680816    0.7798669   -1.0882147   0.12251292    11508.541     1000 
 1462000   0.52756418   -1.8735742   0.79055492   -1.0830193   0.12671933    11534.197     1000 
 1464000   0.54374933    -1.902775   0.81480837   -1.0879667   0.14543091     11289.42     1000 
 1466000   0.51349573    -1.884386   0.76947334   -1.1149127   0.12527752    11438.405     1000 
 1468000   0.50789484   -1.8242194   0.76108042    -1.063139   0.12718299    11384.535     1000 
 1470000   0.52657858   -1.8396357   0.78907801   -1.0505577   0.13940869     11449.16     1000 
 1472000   0.53254796   -1.8556762   0.79802312    -1.057653   0.12477039    11515.682     1000 
 1474000   0.54543268   -1.8358657   0.81733087   -1.0185348   0.12967239    11502.966     1000 
 1476000   0.48548805   -1.8918658   0.72750384    -1.164362   0.12442738     11367.01     1000 
 1478000   0.52696001   -1.8018828   0.78964958   -1.0122332   0.13378547    11445.525     1000 
 1480000   0.51672119   -1.8293601    0.7743067   -1.0550534   0.12483262    11465.989     1000 
 1482000    0.5328043   -1.8611429   0.79840724   -1.0627357    0.1380674    11231.875     1000 
 1484000   0.51862444   -1.8661015   0.77715872   -1.0889428   0.12577623    11436.337     1000 
 1486000   0.52004741   -1.8617963   0.77929104   -1.0825053   0.13489392    11409.656     1000 
 1488000   0.48450671    -1.851607    0.7260333   -1.1255737   0.12622277    11378.382     1000 
 1490000   0.51388071   -1.8620145   0.77005025   -1.0919643   0.13527623    11367.948     1000 
 1492000   0.52415577   -1.8562919   0.78544743   -1.0708444   0.13960299    11267.868     1000 
 1494000   0.52161606   -1.8518104   0.78164166   -1.0701688   0.11427442    11572.993     1000 
 1496000   0.49515692   -1.9067691   0.74199265   -1.1647765   0.11662472    11605.048     1000 
 1498000   0.52234414   -1.8881588    0.7827327   -1.1054261    0.1317267    11352.629     1000 
 1500000   0.51233671   -1.8301885   0.76773656    -1.062452   0.12397579    11480.351     1000 
 1502000   0.50926297   -1.8563598   0.76313055   -1.0932292   0.12113694    11597.046     1000 
 1504000   0.50017331   -1.8348791   0.74950971   -1.0853694   0.11486755    11536.803     1000 
 1506000   0.51792596   -1.9018211   0.77611205    -1.125709   0.11947342     11560.76     1000 
 1508000   0.52396334   -1.8886914   0.78515906   -1.1035324   0.13768466    11435.167     1000 
 1510000   0.52743993   -1.8636018   0.79036874   -1.0732331   0.12511193    11511.991     1000 
 1512000    0.5400754   -1.8510248   0.80930298   -1.0417218   0.13255354    11421.703     1000 
 1514000   0.51941099   -1.8495321   0.77833737   -1.0711947   0.14574102    11354.205     1000 
 1516000   0.52246018   -1.8878691   0.78290658   -1.1049625   0.11908678    11504.602     1000 
 1518000   0.51683586   -1.8983883   0.77447853   -1.1239098   0.13225654    11481.335     1000 
 1520000   0.52649782    -1.851046   0.78895698    -1.062089   0.12984248    11306.337     1000 
 1522000   0.51042414    -1.837584   0.76487058   -1.0727134   0.13561923    11220.288     1000 
 1524000   0.53024976   -1.8799235   0.79457927   -1.0853443   0.13083454    11413.641     1000 
 1526000   0.51306723   -1.8152585   0.76883125   -1.0464273   0.14069877    11143.863     1000 
 1528000   0.52256506   -1.8101346   0.78306375   -1.0270709   0.11552175    11487.866     1000 
 1530000   0.52710201   -1.7808592   0.78986237  -0.99099685   0.13295657    11336.056     1000 
 1532000   0.49742452   -1.8666236   0.74539064   -1.1212329   0.12906162    11450.777     1000 
 1534000   0.51235554   -1.8692967   0.76776478    -1.101532   0.12412942    11427.522     1000 
 1536000   0.52154738    -1.889572   0.78153875   -1.1080333   0.12384158    11391.095     1000 
 1538000   0.51273295   -1.8751186   0.76833033   -1.1067883   0.12904645    11421.603     1000 
 1540000   0.51115983   -1.9128287     0.765973   -1.1468557   0.13819238    11431.912     1000 
 1542000   0.52478591   -1.8591439   0.78639169   -1.0727522   0.13035614    11451.616     1000 
 1544000   0.52257427   -1.8286488   0.78307755   -1.0455713   0.13979185    11260.191     1000 
 1546000   0.51581769   -1.8315694   0.77295281   -1.0586166   0.12371061    11527.803     1000 
 1548000    0.5243682   -1.8612162   0.78576575   -1.0754505   0.13452517    11319.699     1000 
 1550000   0.51012611   -1.8909072   0.76442398   -1.1264832   0.13864885    11345.149     1000 
 1552000   0.52299524   -1.8839415   0.78370836   -1.1002331    0.1131262    11659.488     1000 
 1554000    0.5372978   -1.8725099   0.80514075   -1.0673692   0.13991034    11316.684     1000 
 1556000   0.52446758   -1.8995615   0.78591467   -1.1136469   0.13699272    11414.576     1000 
 1558000   0.49808142   -1.8848588   0.74637501   -1.1384838   0.13136821    11476.323     1000 
 1560000   0.51775591   -1.8401718   0.77585723   -1.0643146   0.13796292    11199.129     1000 
 1562000   0.52173492   -1.8923292   0.78181978   -1.1105094   0.11913582    11398.976     1000 
 1564000   0.52885365   -1.9162642   0.79248719    -1.123777   0.13209863    11533.277     1000 
 1566000   0.48765114   -1.9338918   0.73074523   -1.2031466   0.12957853    11485.292     1000 
 1568000   0.54403018   -1.8874132   0.81522922    -1.072184   0.12702377    11505.942     1000 
 1570000   0.51475572   -1.8347153   0.77136144   -1.0633539   0.12593054    11335.658     1000 
 1572000   0.52706206   -1.8486818    0.7898025   -1.0588793   0.11994179    11505.733     1000 
 1574000   0.49927479   -1.8571859   0.74816327   -1.1090226   0.13333478    11302.116     1000 
 1576000   0.50465732   -1.8841362   0.75622899   -1.1279073    0.1283507     11451.98     1000 
 1578000   0.51847279   -1.8601911   0.77693148   -1.0832596   0.12476413    11391.624     1000 
 1580000   0.50382357   -1.8748806   0.75497962    -1.119901   0.12497443    11469.964     1000 
 1582000   0.52436317   -1.8758109   0.78575821   -1.0900527    0.1336178    11442.412     1000 
 1584000   0.52041846   -1.8912343   0.77984706   -1.1113873   0.12261942    11608.718     1000 
 1586000   0.53300662   -1.8531284   0.79871042   -1.0544179    0.1314862    11322.021     1000 
 1588000   0.53031685    -1.833737    0.7946798   -1.0390572   0.12591622    11535.838     1000 
[...]
 2614000   0.52833578   -1.8647699   0.79171116   -1.0730587   0.13177053    11580.836     1000 
 2616000   0.54641688    -1.863029   0.81880569   -1.0442233   0.13992153    11342.213     1000 
 2618000   0.51721381   -1.9144506   0.77504489   -1.1394057    0.1150778    11586.308     1000 
 2620000   0.51673233   -1.8129145    0.7743234   -1.0385911   0.13145061    11428.614     1000 
 2622000   0.52396102   -1.8845167   0.78515559   -1.0993611   0.12532478    11462.129     1000 
 2624000   0.50552806   -1.9046255    0.7575338   -1.1470917   0.12407659    11357.678     1000 
 2626000   0.52837943   -1.8347078   0.79177657   -1.0429312   0.12925216    11555.521     1000 
 2628000   0.51301745   -1.8716066   0.76875664   -1.1028499   0.13194166    11397.599     1000 
 2630000   0.53503693   -1.8798582   0.80175284   -1.0781053   0.12506526    11422.483     1000 
 2632000   0.48876797   -1.8455865   0.73241881   -1.1131677   0.12258585    11424.262     1000 
 2634000   0.52576758   -1.8438777   0.78786273    -1.056015   0.12795249    11461.426     1000 
 2636000   0.52145559   -1.8571818    0.7814012   -1.0757806   0.13996968    11367.196     1000 
 2638000   0.49798474   -1.8393088   0.74623014   -1.0930787   0.12281131    11507.233     1000 
 2640000    0.5112596   -1.9013216   0.76612251   -1.1351991    0.1223779    11450.895     1000 
 2642000   0.52873498   -1.8497781   0.79230936   -1.0574687    0.1309354    11401.953     1000 
 2644000   0.52371339   -1.8657837   0.78478451   -1.0809992   0.12045533    11567.919     1000 
 2646000    0.5317247   -1.8999634   0.79678946   -1.1031739   0.13319863    11481.805     1000 
 2648000    0.5147911   -1.8600978   0.77141447   -1.0886833   0.14300196    11251.993     1000 
 2650000   0.53361097   -1.8201059   0.79961604   -1.0204898    0.1321493    11287.225     1000 
 2652000   0.52786955   -1.8805594   0.79101252   -1.0895468   0.13291599    11494.611     1000 
 2654000   0.52568905   -1.8429578   0.78774504   -1.0552127   0.12239992    11456.883     1000 
 2656000   0.50679569   -1.9156401   0.75943334   -1.1562067   0.12778737    11401.848     1000 
 2658000   0.48914782   -1.8883798   0.73298801   -1.1553918   0.12130655    11476.222     1000 
 2660000   0.50619377   -1.8706984   0.75853137    -1.112167   0.12177793    11344.254     1000 
 2662000   0.51770136   -1.8340988    0.7757755   -1.0583233   0.14323528    11221.855     1000 
 2664000   0.51401087   -1.9066751   0.77024528   -1.1364298   0.13104804    11616.817     1000 
 2666000   0.52071493   -1.8486196   0.78029132   -1.0683283   0.12282476    11432.274     1000 
 2668000   0.53070377   -1.8747866    0.7952596    -1.079527   0.12339355    11641.399     1000 
 2670000   0.51023454   -1.8537986   0.76458646   -1.0892122   0.13042087     11343.07     1000 
 2672000    0.5362386    -1.854547   0.80355354   -1.0509935   0.12014588    11510.317     1000 
 2674000   0.51976785   -1.8820001   0.77887212    -1.103128   0.11722388    11474.084     1000 
 2676000   0.52791783   -1.8696504   0.79108487   -1.0785655   0.12855227    11426.883     1000 
 2678000   0.50155152    -1.813088   0.75157495    -1.061513   0.11510594    11527.428     1000 
 2680000   0.52591422   -1.8511737   0.78808246   -1.0630912   0.13949999    11323.646     1000 
 2682000   0.53171009   -1.8823022   0.79676757   -1.0855346   0.12460878    11533.689     1000 
 2684000   0.50708612   -1.8345804   0.75986855   -1.0747119   0.12090813    11360.363     1000 
 2686000   0.50769991   -1.8876243   0.76078832    -1.126836   0.11486386    11520.701     1000 
 2688000   0.51896114   -1.8236277   0.77766327   -1.0459644   0.13503753     11374.75     1000 
 2690000   0.51781684   -1.8320867   0.77594854   -1.0561382   0.12819469    11542.166     1000 
 2692000   0.52352244   -1.8028155   0.78449837   -1.0183172   0.12863082    11343.537     1000 
 2694000   0.53273981   -1.8899091    0.7983106   -1.0915985   0.12389655    11480.571     1000 
 2696000   0.51556435   -1.9305581   0.77257317   -1.1579849   0.11711461    11585.594     1000 
 2698000   0.53874622   -1.9498685   0.80731121   -1.1425573   0.12169458    11642.296     1000 
 2700000   0.53651565   -1.9107041   0.80396869   -1.1067354    0.1324083    11474.033     1000 
 2702000   0.52021097   -1.9006858   0.77953613   -1.1211497   0.13062525    11550.291     1000 
 2704000   0.53010104   -1.8252847   0.79435641   -1.0309283   0.13812018    11309.308     1000 
 2706000    0.5235751   -1.9020447   0.78457729   -1.1174674   0.12037108    11499.881     1000 
 2708000   0.51976726   -1.8633837   0.77887125   -1.0845125   0.13303434    11432.919     1000 
 2710000   0.51296203   -1.9288532    0.7686736   -1.1601796   0.12199085    11497.297     1000 
 2712000    0.5165061   -1.8829219   0.77398439   -1.1089375   0.13874438    11255.954     1000 
 2714000   0.50366729   -1.8710899   0.75474543   -1.1163445   0.12124248    11392.403     1000 
 2716000   0.52664853   -1.8547514   0.78918282   -1.0655686   0.13598227    11461.277     1000 
 2718000   0.51505541   -1.8453431   0.77181053   -1.0735326   0.12610692    11510.863     1000 
 2720000   0.51341202    -1.812884   0.76934791   -1.0435361   0.13770672    11295.426     1000 
 2722000   0.54449123    -1.851895   0.81592011   -1.0359749   0.12262237    11463.449     1000 
 2724000   0.50861431   -1.8887452   0.76215854   -1.1265866   0.12661903    11515.344     1000 
 2726000   0.50681752   -1.8837683   0.75946606   -1.1243023   0.12588526    11420.292     1000 
 2728000   0.53402695   -1.8857201   0.80023938   -1.0854807   0.14737877    11378.136     1000 
 2730000   0.53665856   -1.8563968   0.80418285   -1.0522139   0.13216726    11360.478     1000 
 2732000   0.52431799   -1.8671895   0.78569051   -1.0814989   0.14078295    11261.516     1000 
 2734000   0.52740038   -1.8426825   0.79030947   -1.0523731   0.14168026    11256.909     1000 
 2736000   0.52775106    -1.834799   0.79083496    -1.043964   0.13525274    11346.377     1000 
 2738000   0.53621221   -1.8524783     0.803514   -1.0489643   0.14393343     11233.22     1000 
 2740000   0.51588085   -1.8794104   0.77304746    -1.106363   0.11786896    11649.952     1000 
 2742000   0.50407551   -1.8622441   0.75535715    -1.106887   0.13316704     11355.07     1000 
 2744000    0.5291064   -1.8477721   0.79286594   -1.0549062    0.1397957    11363.299     1000 
 2746000   0.52851786   -1.8999142   0.79198402   -1.1079302   0.12951376    11546.035     1000 
 2748000   0.52044103   -1.9036864   0.77988088   -1.1238055   0.13670211    11369.571     1000 
 2750000   0.52332006   -1.8386214   0.78419511   -1.0544263   0.12669013    11524.455     1000 
 2752000   0.53083992   -1.8373035   0.79546363   -1.0418399   0.12445516    11484.829     1000 
 2754000   0.51564216    -1.906373   0.77268978   -1.1336832   0.12211157    11607.625     1000 
 2756000    0.5247419   -1.8944807   0.78632574   -1.1081549   0.12661846    11506.033     1000 
 2758000   0.50995531   -1.8644357   0.76416803   -1.1002677   0.12018161    11514.312     1000 
 2760000   0.51603733   -1.8962357   0.77328194   -1.1229537   0.12669908    11557.798     1000 
 2762000   0.52779005   -1.8483379   0.79089339   -1.0574445   0.13970719    11275.105     1000 
 2764000   0.51882448   -1.8874723   0.77745848   -1.1100138   0.12335533    11417.047     1000 
 2766000   0.50818249   -1.8811001   0.76151146   -1.1195886   0.12616383    11424.411     1000 
 2768000   0.52755471   -1.8120157   0.79054073    -1.021475   0.12956991    11348.686     1000 
 2770000   0.51236333   -1.8710819   0.76777646   -1.1033055   0.13536584    11446.918     1000 
 2772000   0.53848481    -1.848282   0.80691949   -1.0413625   0.11692778    11442.947     1000 
 2774000   0.51536624   -1.8845385   0.77227632   -1.1122621   0.11778314    11504.627     1000 
 2776000   0.52730766   -1.8612108   0.79017053   -1.0710403   0.12549272    11584.238     1000 
 2778000   0.51903995   -1.8522881   0.77778136   -1.0745068   0.13234708    11339.311     1000 
 2780000   0.52952309   -1.8184115   0.79349035   -1.0249212   0.13586562    11394.885     1000 
 2782000    0.5284614   -1.8877944   0.79189941    -1.095895   0.14000294    11255.386     1000 
 2784000    0.5242615   -1.9288243   0.78560585   -1.1432184   0.12070553    11645.139     1000 
 2786000   0.51372425   -1.8662841   0.76981579   -1.0964683   0.14169658    11393.421     1000 
 2788000   0.52774542   -1.9021174   0.79082651   -1.1112909   0.12899039    11454.654     1000 
 2790000   0.49986956   -1.8675131   0.74905453   -1.1184586   0.11711207    11591.992     1000 
 2792000   0.51896254     -1.85058   0.77766536   -1.0729147   0.12560788    11481.231     1000 
 2794000   0.53088436   -1.8585578   0.79553021   -1.0630276   0.13465452    11233.023     1000 
 2796000    0.5492238   -1.8973455   0.82301186   -1.0743336   0.11223714    11703.892     1000 
 2798000    0.5074301   -1.8724385     0.760384   -1.1120545   0.11967415    11442.063     1000 
 2800000     0.510904    -1.869435   0.76558964   -1.1038454   0.12962738    11346.394     1000 
 2802000   0.50230397   -1.8590277   0.75270249   -1.1063252   0.14166079    11274.644     1000 
 2804000   0.51493372   -1.8677649   0.77162817   -1.0961367   0.13111606     11448.73     1000 
 2806000   0.53651666    -1.898529   0.80397021   -1.0945588   0.12186006    11517.525     1000 
 2808000   0.52373723   -1.9491469   0.78482024   -1.1643266   0.11354876    11513.736     1000 
 2810000   0.51651173   -1.8872657   0.77399283   -1.1132728   0.13365063    11350.586     1000 
 2812000   0.52490535   -1.8906928   0.78657066   -1.1041222   0.12994373    11497.752     1000 
 2814000   0.50259174   -1.9059977   0.75313372    -1.152864   0.12582632     11465.59     1000 
 2816000   0.51373774   -1.8561737   0.76983601   -1.0863377   0.12785144     11476.71     1000 
 2818000   0.52394696   -1.8926618   0.78513451   -1.1075273   0.12903551    11434.047     1000 
 2820000   0.52615594   -1.8607511   0.78844468   -1.0723064    0.1323486    11315.807     1000 
 2822000   0.51685294   -1.8645005   0.77450413   -1.0899964   0.12025611    11387.533     1000 
 2824000   0.52047418   -1.8697163   0.77993056   -1.0897858   0.12056124    11489.873     1000 
 2826000   0.50523867   -1.8882793   0.75710015   -1.1311792   0.13432004    11366.943     1000 
 2828000   0.51826834   -1.8817951   0.77662511     -1.10517   0.13930992    11407.611     1000 
 2830000   0.52723222   -1.9325924   0.79005748   -1.1425349   0.12496999    11506.007     1000 
 2832000   0.50911483   -1.8914851   0.76290857   -1.1285765   0.12363812    11490.998     1000 
 2834000   0.53106272   -1.8833378   0.79579748   -1.0875403   0.15130364    11256.903     1000 
 2836000   0.51885684   -1.9002088   0.77750698   -1.1227018   0.11988343    11554.204     1000 
 2838000   0.51282976   -1.8698449   0.76847539   -1.1013695   0.12982331    11523.502     1000 
 2840000   0.52736415   -1.8481077   0.79025518   -1.0578525   0.13584504    11293.696     1000 
 2842000   0.51626109    -1.867025   0.77361725   -1.0934078   0.13206956    11475.494     1000 
 2844000   0.50877069   -1.8504214   0.76239289   -1.0880285   0.13817362     11334.36     1000 
 2846000   0.51702209   -1.8263821    0.7747576   -1.0516245    0.1316605    11427.063     1000 
 2848000   0.51589108   -1.7982511   0.77306278   -1.0251884   0.13528426    11396.828     1000 
 2850000   0.51684966   -1.9009444   0.77449922   -1.1264452   0.12544287    11618.265     1000 
 2852000   0.51031105   -1.8237154   0.76470111   -1.0590143   0.12334897    11440.659     1000 
 2854000   0.50907153   -1.8727006   0.76284368   -1.1098569   0.13037406    11323.872     1000 
 2856000    0.4996206   -1.8573816   0.74868146   -1.1087001   0.12531604    11492.686     1000 
 2858000    0.5194415   -1.8464328   0.77838309   -1.0680497    0.1296014    11333.215     1000 
 2860000    0.5180153   -1.8271309   0.77624593    -1.050885   0.14020888    11172.077     1000 
 2862000   0.51890794   -1.8829609   0.77758355   -1.1053774   0.13220079    11506.628     1000 
 2864000   0.52170307   -1.8727932   0.78177205   -1.0910212   0.12864143    11425.662     1000 
 2866000   0.52811231   -1.8599277    0.7913763   -1.0685514   0.14707269    11334.944     1000 
 2868000   0.51785049   -1.8530738   0.77599895   -1.0770748   0.12687523    11446.456     1000 
 2870000     0.512536   -1.8611249    0.7680352   -1.0930897   0.12345074    11569.258     1000 
 2872000   0.51338966   -1.8531266   0.76931441   -1.0838122   0.14003123     11284.56     1000 
 2874000   0.53710045   -1.8420158   0.80484502   -1.0371707   0.13377154    11358.583     1000 
 2876000   0.53080994   -1.8794399   0.79541869   -1.0840212    0.1246521    11583.463     1000 
 2878000   0.50962288   -1.8561043   0.76366989   -1.0924344   0.12539804    11415.022     1000 
 2880000   0.53877414   -1.8954351   0.80735305    -1.088082   0.13216361    11361.061     1000 
 2882000   0.51922862   -1.8495176   0.77806409   -1.0714535   0.11896737    11345.386     1000 
 2884000   0.52868734   -1.8823463   0.79223797   -1.0901083   0.12361899    11635.772     1000 
 2886000     0.543526   -1.8537767   0.81447371    -1.039303   0.14497719      11306.5     1000 
 2888000   0.52845922   -1.8856428   0.79189614   -1.0937466   0.12909725    11425.597     1000 
 2890000    0.5118903   -1.8727255   0.76706761   -1.1056579   0.12893644    11338.293     1000 
 2892000   0.50428484   -1.8515982   0.75567083   -1.0959273   0.12371808    11497.374     1000 
 2894000   0.55165814   -1.8667509   0.82665973   -1.0400912   0.12875612    11341.074     1000 
 2896000   0.52564201   -1.8754068   0.78767455   -1.0877322   0.11670195    11463.569     1000 
 2898000   0.50729606   -1.8755106   0.76018315   -1.1153274   0.13584607    11418.545     1000 
 2900000   0.53823274   -1.8397203   0.80654176   -1.0331786   0.13984948    11137.135     1000 
 2902000   0.51092833   -1.8706248    0.7656261   -1.1049987   0.12745855    11416.256     1000 
 2904000   0.53055274   -1.8747409   0.79503329   -1.0797076   0.12836528    11428.039     1000 
 2906000   0.52271007   -1.9092526   0.78328104   -1.1259715   0.12385493    11570.095     1000 
 2908000   0.51446965   -1.8199122   0.77093277   -1.0489795   0.13930417    11220.564     1000 
 2910000   0.52157658   -1.8776324    0.7815825   -1.0960499   0.13757704    11448.874     1000 
 2912000   0.52366144   -1.8773987   0.78470666    -1.092692    0.1279269    11291.924     1000 
 2914000   0.52674432   -1.8794131   0.78932636   -1.0900868   0.13143086    11437.559     1000 
 2916000   0.52560493   -1.8466614   0.78761899   -1.0590424   0.12850705    11445.671     1000 
 2918000   0.50316661   -1.8024334   0.75399516   -1.0484382   0.12242472    11490.109     1000 
 2920000   0.52425757   -1.8874677   0.78559997   -1.1018677   0.13225136    11388.678     1000 
 2922000   0.50215763   -1.8745333   0.75248321   -1.1220501   0.14539274    11290.738     1000 
 2924000   0.51286692   -1.9457099   0.76853107   -1.1771789   0.13349093    11528.294     1000 
 2926000   0.50112155   -1.8563257   0.75093064   -1.1053951   0.13799388    11295.815     1000 
 2928000   0.51013354   -1.9002405   0.76443511   -1.1358054    0.1297481    11455.608     1000 
 2930000   0.50025258   -1.8569242   0.74962849   -1.1072957   0.12185202    11432.714     1000 
 2932000   0.51689515   -1.8598322   0.77456738   -1.0852648   0.13401567    11399.839     1000 
 2934000   0.51336664   -1.8673337   0.76927991   -1.0980538   0.13197789    11327.914     1000 
 2936000   0.50480969   -1.8091761   0.75645731   -1.0527188   0.12904694    11385.626     1000 
 2938000   0.50686008   -1.8600816   0.75952982   -1.1005518   0.11515536    11691.714     1000 
 2940000   0.51171326   -1.8171309   0.76680232   -1.0503286   0.13534814    11230.246     1000 
 2942000   0.51859886   -1.8220528   0.77712039   -1.0449324   0.14770503     11218.59     1000 
 2944000   0.52169673   -1.8754302   0.78176255   -1.0936677   0.12269845     11603.89     1000 
 2946000   0.51683915   -1.8234062   0.77448346   -1.0489227   0.13671001    11352.634     1000 
 2948000   0.53427245   -1.8423914   0.80060727   -1.0417842   0.14155104    11396.516     1000 
 2950000   0.49929694   -1.9115096   0.74819647   -1.1633131   0.12068327    11546.145     1000 
 2952000   0.50615874   -1.8885484   0.75847887   -1.1300695   0.12086521    11519.347     1000 
 2954000   0.51325959   -1.8453836    0.7691195   -1.0762641   0.11955092    11496.095     1000 
 2956000   0.53221506   -1.8460006   0.79752427   -1.0484763   0.14398896    11387.983     1000 
 2958000   0.51063773   -1.8616712   0.76519064   -1.0964805   0.11684063    11562.419     1000 
 2960000   0.50932607   -1.8764647   0.76322511   -1.1132396   0.12656461    11394.699     1000 
 2962000   0.53057053   -1.8782821   0.79505995   -1.0832221   0.13797736    11424.842     1000 
 2964000   0.51861309   -1.8003727   0.77714171    -1.023231   0.12348748    11413.784     1000 
 2966000   0.51152939   -1.8903584   0.76652679   -1.1238316   0.13423478    11431.238     1000 
 2968000   0.52271752   -1.8699044   0.78329221   -1.0866121   0.12519487    11388.369     1000 
 2970000   0.48338958   -1.7865948   0.72435929   -1.0622355   0.13517836     11381.93     1000 
 2972000   0.51735549   -1.9392486   0.77525721   -1.1639913   0.14010356    11457.294     1000 
 2974000   0.51467719   -1.8550926   0.77124377   -1.0838488   0.12261696    11434.003     1000 
 2976000    0.5480807    -1.823771   0.82129893   -1.0024721   0.13932276    11258.119     1000 
 2978000   0.49894966   -1.8801679   0.74767606   -1.1324918   0.12687114     11455.54     1000 
 2980000   0.51951016   -1.8843668   0.77848597   -1.1058808   0.13874442    11432.196     1000 
 2982000    0.5201863   -1.8547711   0.77949917   -1.0752719   0.13716536    11398.523     1000 
 2984000   0.48834889   -1.8704347   0.73179081   -1.1386439   0.13201514    11502.766     1000 
 2986000   0.50573725   -1.7915684   0.75784727   -1.0337211   0.13568353    11275.988     1000 
 2988000    0.5233621   -1.8590295    0.7842581   -1.0747714   0.12463913    11330.798     1000 
 2990000   0.53497698   -1.7929917   0.80166301  -0.99132868   0.13491171    11294.098     1000 
 2992000   0.50493625   -1.8054884   0.75664697   -1.0488414   0.13894477    11258.272     1000 
 2994000   0.53998867   -1.8852388   0.80917301   -1.0760658   0.12784367    11539.632     1000 
 2996000   0.51871779   -1.8740942    0.7772986   -1.0967956   0.12691777    11331.997     1000 
 2998000   0.51034705   -1.7752206   0.76475505   -1.0104655   0.14092387    11284.324     1000 
 3000000    0.5203342   -1.8479836   0.77972081   -1.0682628   0.12995133    11479.669     1000 
Loop time of 1161.69 on 1 procs for 3000000 steps with 1000 atoms

Performance: 1115615.097 tau/day, 2582.442 timesteps/s
100.0% CPU use with 1 MPI tasks x 1 OpenMP threads

MPI task timing breakdown:
Section |  min time  |  avg time  |  max time  |%varavg| %total
---------------------------------------------------------------
Pair    | 915.21     | 915.21     | 915.21     |   0.0 | 78.78
Neigh   | 144.17     | 144.17     | 144.17     |   0.0 | 12.41
Comm    | 24.569     | 24.569     | 24.569     |   0.0 |  2.11
Output  | 0.01748    | 0.01748    | 0.01748    |   0.0 |  0.00
Modify  | 72.442     | 72.442     | 72.442     |   0.0 |  6.24
Other   |            | 5.286      |            |       |  0.46

Nlocal:        1000.00 ave        1000 max        1000 min
Histogram: 1 0 0 0 0 0 0 0 0 0
Nghost:        2182.00 ave        2182 max        2182 min
Histogram: 1 0 0 0 0 0 0 0 0 0
Neighs:        27249.0 ave       27249 max       27249 min
Histogram: 1 0 0 0 0 0 0 0 0 0

Total # of neighbors = 27249
Ave neighs/atom = 27.249000
Neighbor list builds = 150000
Dangerous builds not checked

Total wall time: 0:19:21
