LAMMPS (29 Sep 2021 - Update 2)
OMP_NUM_THREADS environment is not set. Defaulting to 1 thread. (src/comm.cpp:98)
  using 1 OpenMP thread(s) per MPI task
# ----------------------- Inicialização -----------------------

units			lj
atom_style 		atomic
dimension 		3
boundary 		p p p

# -------------------- Criação dos Átomos ---------------------

read_data 		topologia.txt
Reading data file ...
  orthogonal box = (0.0000000 0.0000000 0.0000000) to (21.540000 21.540000 21.540000)
  1 by 1 by 1 MPI processor grid
  reading atoms ...
  1000 atoms
  read_data CPU = 0.005 seconds

velocity 		all create ${temp} 87287 rot yes dist gaussian
velocity 		all create 0.37 87287 rot yes dist gaussian

# ------------------ Interação Interatômica -------------------

pair_style		table linear 1000
pair_coeff		1 1 force.table AA 5.0
WARNING: 2 of 1000 force values in table AA are inconsistent with -dE/dr.
WARNING:  Should only be flagged at inflection points (src/pair_table.cpp:465)
pair_coeff		1 2 force.table AB 5.0
WARNING: 1 of 1000 force values in table AB are inconsistent with -dE/dr.
WARNING:  Should only be flagged at inflection points (src/pair_table.cpp:465)
pair_coeff		2 2 force.table BB 5.0
pair_write		1 1 1000 r 0.008 5.0 table.check AA
Appending to table file table.check with DATE: 2023-06-15
Neighbor list info ...
  update every 1 steps, delay 10 steps, check yes
  max neighbors/atom: 2000, page size: 100000
  master list distance cutoff = 5.3
  ghost atom cutoff = 5.3
  binsize = 2.65, bins = 9 9 9
  1 neighbor lists, perpetual/occasional/extra = 1 0 0
  (1) pair table, perpetual
      attributes: half, newton on
      pair build: half/bin/atomonly/newton
      stencil: half/bin/3d
      bin: standard
pair_write		1 2 1000 r 0.008 5.0 table.check AB
Appending to table file table.check with DATE: 2023-06-15
pair_write		2 2 1000 r 0.008 5.0 table.check BB
Appending to table file table.check with DATE: 2023-06-15

neighbor 		0.3 bin
neigh_modify		every 20 delay 0 check no

# ------------------------- Ensemble --------------------------------------

fix 1			all npt temp ${temp} ${temp} 0.5 iso ${press} ${press} 5
fix 1			all npt temp 0.37 ${temp} 0.5 iso ${press} ${press} 5
fix 1			all npt temp 0.37 0.37 0.5 iso ${press} ${press} 5
fix 1			all npt temp 0.37 0.37 0.5 iso 0.13 ${press} 5
fix 1			all npt temp 0.37 0.37 0.5 iso 0.13 0.13 5

# ---------------------- Função de Distribuição Radial -----------------------

#compute RDF 		all rdf 2000 1 1 1 2 2 2
#fix 2 			all ave/time 1 2000 2000 c_RDF[*] file rdf.data mode vector

# ------------------------- Execução ---------------------------

timestep 		0.005
thermo_style		custom step temp pe ke etotal press vol atoms
thermo			2000
run			3000000
Per MPI rank memory allocation (min/avg/max) = 2.670 | 2.670 | 2.670 Mbytes
Step Temp PotEng KinEng TotEng Press Volume Atoms 
       0         0.37  -0.99052333     0.554445  -0.43607833   0.10608579    9993.9483     1000 
    2000   0.37526683   -2.3059095   0.56233734   -1.7435722   0.13184816      11392.6     1000 
    4000   0.36968016   -2.3190654   0.55396572   -1.7650997   0.13477134    11350.143     1000 
    6000   0.36834043   -2.3655844   0.55195813   -1.8136262    0.1354961     11393.36     1000 
    8000   0.36824776   -2.3474259   0.55181927   -1.7956066   0.12213433    11432.266     1000 
   10000   0.36905384    -2.344842   0.55302718   -1.7918148   0.12836549    11368.168     1000 
   12000   0.38163783   -2.3532259   0.57188429   -1.7813416   0.13646222     11303.37     1000 
   14000    0.3641991   -2.3086007   0.54575235   -1.7628484   0.12738829    11313.466     1000 
   16000   0.38749277   -2.3505382   0.58065792   -1.7698803   0.12330296    11456.651     1000 
   18000   0.37427977   -2.3577697   0.56085824   -1.7969114   0.12945205    11360.651     1000 
   20000   0.37939827   -2.3468791   0.56852831   -1.7783508   0.13532245    11342.407     1000 
   22000   0.37552126   -2.3398518   0.56271861   -1.7771331   0.12713726    11353.863     1000 
   24000   0.36504791   -2.3142471    0.5470243   -1.7672228   0.14004648    11264.208     1000 
   26000   0.39200791   -2.3146474   0.58742385   -1.7272236   0.13225126    11362.744     1000 
   28000   0.36439084   -2.3158041   0.54603967   -1.7697645   0.11898872    11454.097     1000 
   30000   0.36834896    -2.340149   0.55197092   -1.7881781   0.12579549    11371.677     1000 
   32000   0.36748235   -2.3047532    0.5506723   -1.7540809   0.13126864    11331.839     1000 
   34000   0.36982276    -2.307009    0.5541794   -1.7528296   0.14222305    11223.709     1000 
   36000    0.3836099   -2.3259663   0.57483943   -1.7511269   0.12863333     11374.93     1000 
   38000   0.36546931   -2.3490717   0.54765576    -1.801416   0.12639263    11444.102     1000 
   40000   0.37157682   -2.3357704   0.55680786   -1.7789626   0.12952889    11340.083     1000 
   42000   0.37150393    -2.313908   0.55669864   -1.7572094   0.15538394    11226.507     1000 
   44000   0.36551032   -2.3267616   0.54771722   -1.7790444     0.121254    11419.191     1000 
   46000    0.3707921     -2.31649   0.55563196    -1.760858   0.12888058    11352.739     1000 
   48000   0.36918729   -2.2740227   0.55322716   -1.7207956   0.13988859    11349.704     1000 
   50000   0.37291797   -2.3508397   0.55881758   -1.7920221   0.13101076     11362.92     1000 
   52000   0.37492003   -2.3440052   0.56181766   -1.7821875   0.15201008    11218.091     1000 
   54000   0.38213999   -2.3323668   0.57263678     -1.75973   0.14827216    11339.965     1000 
   56000   0.37080263   -2.3132049   0.55564775   -1.7575572   0.13037049    11375.806     1000 
   58000   0.37380271    -2.296704   0.56014337   -1.7365607   0.13187335    11322.129     1000 
   60000   0.36553907   -2.3375127    0.5477603   -1.7897524     0.128163    11381.376     1000 
   62000   0.38731173   -2.3115806   0.58038663    -1.731194   0.11938499    11410.072     1000 
   64000   0.38184219   -2.3179188   0.57219052   -1.7457283   0.13613993    11330.886     1000 
   66000   0.37826524   -2.3211237   0.56683046   -1.7542932   0.12776579     11426.62     1000 
   68000   0.36296422   -2.3357168   0.54390188   -1.7918149   0.12506917    11452.773     1000 
   70000   0.35365361   -2.3488368   0.52994994   -1.8188869   0.12727767     11334.19     1000 
   72000   0.38104289   -2.4121988   0.57099277   -1.8412061   0.11383231    11525.429     1000 
   74000   0.37195733   -2.3467689   0.55737807   -1.7893908   0.13583453    11432.582     1000 
   76000   0.36478258   -2.2806201    0.5466267   -1.7339933   0.13805722    11332.939     1000 
   78000   0.38841905   -2.3284318   0.58204595   -1.7463859   0.13686322    11338.744     1000 
   80000   0.36888702   -2.3837281    0.5527772   -1.8309509   0.14252146     11290.39     1000 
   82000   0.38984372   -2.3307323   0.58418081   -1.7465515   0.13204238    11396.459     1000 
   84000    0.3608702    -2.361578     0.540764    -1.820814   0.13262191    11316.234     1000 
   86000   0.36873193   -2.3149179    0.5525448   -1.7623731   0.13349546    11234.122     1000 
   88000   0.34587669   -2.3349778   0.51829622   -1.8166816    0.1350302    11346.984     1000 
   90000   0.37286127   -2.3377075   0.55873262   -1.7789749   0.12658788    11446.864     1000 
   92000   0.37562175   -2.3089564    0.5628692   -1.7460872   0.14055686      11342.6     1000 
   94000   0.37280621   -2.2519045    0.5586501   -1.6932544   0.13049047    11308.559     1000 
   96000    0.3708192   -2.3490768   0.55567257   -1.7934043   0.13238974    11336.181     1000 
   98000   0.36156353   -2.2951579   0.54180294   -1.7533549   0.13317351    11325.552     1000 
  100000   0.37032779   -2.3269967    0.5549362   -1.7720605     0.128841    11361.263     1000 
  102000   0.37430771   -2.2969572    0.5609001   -1.7360571   0.13282815    11410.765     1000 
  104000   0.35567544   -2.3525765   0.53297964   -1.8195969   0.12234529    11464.781     1000 
  106000    0.3675054   -2.3390277   0.55070684   -1.7883209   0.12421653    11335.728     1000 
  108000   0.37616102   -2.3300469   0.56367728   -1.7663696   0.11704975    11450.513     1000 
  110000   0.37302697   -2.3445451   0.55898092   -1.7855642   0.12232058    11407.188     1000 
  112000   0.35663509    -2.327695   0.53441768   -1.7932773   0.13011244    11391.849     1000 
  114000   0.36844613   -2.3654204   0.55211653   -1.8133038   0.13131054    11412.105     1000 
  116000   0.37207242   -2.3220711   0.55755052   -1.7645206   0.13303362    11381.443     1000 
  118000   0.37920669   -2.3749198   0.56824122   -1.8066786   0.13592166    11362.841     1000 
  120000    0.3773077   -2.3056341   0.56539559   -1.7402385    0.1287159    11350.159     1000 
  122000   0.37029362   -2.3229309   0.55488499   -1.7680459   0.14098586    11292.259     1000 
  124000   0.36287943   -2.3245562   0.54377483   -1.7807814   0.12566485    11334.046     1000 
  126000   0.36317838   -2.3596744    0.5442228   -1.8154516   0.12010606    11399.024     1000 
  128000   0.37852013   -2.3046721   0.56721241   -1.7374597   0.12993231    11399.177     1000 
  130000    0.3756598    -2.303723    0.5629262   -1.7407968   0.13092611    11384.475     1000 
  132000   0.36224055    -2.355595   0.54281746   -1.8127776   0.13361082     11374.95     1000 
  134000   0.36090804   -2.3268602   0.54082069   -1.7860395   0.13459262     11311.47     1000 
  136000    0.3612466   -2.3416548   0.54132803   -1.8003268   0.13675424    11340.531     1000 
  138000   0.36304178   -2.3379315   0.54401811   -1.7939134   0.14469834    11259.038     1000 
  140000   0.37623702     -2.33148   0.56379118   -1.7676888   0.12926372    11385.686     1000 
  142000   0.38288234   -2.3344116   0.57374919   -1.7606624   0.13617901    11439.482     1000 
  144000     0.362323   -2.3432525   0.54294102   -1.8003115   0.13261882    11311.828     1000 
  146000   0.36947871    -2.319997   0.55366385   -1.7663331   0.12441833    11374.151     1000 
  148000   0.36671436   -2.3346939   0.54952147   -1.7851724   0.13142732    11404.458     1000 
  150000   0.39433272   -2.3493591   0.59090757   -1.7584515   0.12111797    11487.383     1000 
  152000   0.37758402   -2.3541238   0.56580966   -1.7883142   0.13617181    11382.736     1000 
  154000   0.35671121   -2.3373856   0.53453175   -1.8028538    0.1276589    11387.321     1000 
  156000   0.37461459    -2.334304   0.56135997    -1.772944    0.1280046    11311.975     1000 
  158000   0.36392502   -2.3045885   0.54534164   -1.7592469   0.12402165    11392.676     1000 
  160000   0.38054321   -2.3547652   0.57024401   -1.7845212   0.12891934    11381.795     1000 
  162000   0.38005977   -2.3336334   0.56951956   -1.7641139   0.12838718    11457.252     1000 
  164000    0.3753043   -2.3303144    0.5623935   -1.7679209   0.13084821    11396.001     1000 
  166000      0.36707   -2.3593141    0.5500544   -1.8092597   0.12538528    11503.284     1000 
  168000   0.37569678   -2.3501175   0.56298162   -1.7871358   0.14198719    11278.647     1000 
  170000   0.35162275   -2.3406039    0.5269067   -1.8136972   0.13139855    11334.009     1000 
  172000    0.3848399   -2.3915429   0.57668259   -1.8148603   0.12932293    11445.897     1000 
  174000   0.35888487   -2.3509293   0.53778898   -1.8131403   0.12425154    11419.263     1000 
  176000   0.37001332   -2.3660667   0.55446496   -1.8116017   0.12670807    11395.757     1000 
  178000   0.37582242   -2.3211788   0.56316989   -1.7580089   0.13766458    11304.979     1000 
  180000    0.3765467   -2.3572447   0.56425522   -1.7929895   0.12979461    11396.312     1000 
  182000   0.35980181   -2.3086948   0.53916301   -1.7695318   0.11969171    11379.613     1000 
  184000   0.36950932   -2.3269075   0.55370971   -1.7731978   0.12769203    11405.417     1000 
  186000   0.36387791   -2.3439457   0.54527105   -1.7986746   0.12463736    11471.396     1000 
  188000   0.35633152    -2.342179   0.53396279   -1.8082162   0.13296364    11365.351     1000 
  190000   0.37391913   -2.3445543   0.56031782   -1.7842365   0.13074881    11346.328     1000 
  192000   0.37843938   -2.3014368   0.56709141   -1.7343454   0.14425988    11213.033     1000 
  194000   0.37158231   -2.3570813   0.55681609   -1.8002652   0.11898748    11464.689     1000 
  196000   0.37744146   -2.3247611   0.56559603   -1.7591651    0.1365486    11254.553     1000 
  198000   0.39588996   -2.3899458    0.5932411   -1.7967047   0.12894295    11407.868     1000 
  200000   0.37010206   -2.3184951   0.55459794   -1.7638971   0.12903815     11335.73     1000 
  202000   0.38144007    -2.313424   0.57158795   -1.7418361   0.13513266    11320.254     1000 
  204000   0.37711494   -2.3397095   0.56510674   -1.7746027    0.1416174    11337.418     1000 
  206000   0.37259139   -2.3580861    0.5583282   -1.7997579   0.12924122    11370.921     1000 
  208000   0.35598681   -2.3106225   0.53344624   -1.7771762   0.13446984    11325.722     1000 
  210000   0.39569026   -2.3611393   0.59294185   -1.7681975   0.11111285    11553.713     1000 
  212000   0.36690669   -2.2935632   0.54980967   -1.7437535   0.13529596    11309.178     1000 
  214000    0.3512833   -2.3476218   0.52639803   -1.8212238   0.13046103    11377.711     1000 
  216000   0.37075973   -2.3198474   0.55558345   -1.7642639    0.1372589    11290.171     1000 
  218000    0.3706088   -2.3490218   0.55535729   -1.7936645   0.12517872    11333.167     1000 
  220000   0.37833718   -2.3165939   0.56693827   -1.7496557   0.13071922    11363.529     1000 
  222000   0.38653837   -2.3713869   0.57922775   -1.7921591   0.14393311    11229.834     1000 
  224000   0.38207449   -2.3477448   0.57253863   -1.7752062   0.11649127    11480.388     1000 
  226000   0.37389114   -2.3432882   0.56027587   -1.7830124   0.13072912    11346.664     1000 
  228000   0.37407324     -2.37871   0.56054876   -1.8181613   0.11782815    11476.905     1000 
  230000   0.36316577   -2.3327525   0.54420391   -1.7885486   0.13188267    11331.158     1000 
  232000   0.37394225   -2.3375564   0.56035246    -1.777204   0.13924141    11373.454     1000 
  234000   0.36464458   -2.3355693    0.5464199   -1.7891494   0.12757725    11405.399     1000 
  236000   0.37141923   -2.3671622   0.55657171   -1.8105905   0.13489965     11389.68     1000 
  238000   0.39497242   -2.3744019   0.59186617   -1.7825357   0.13572063    11303.535     1000 
  240000   0.38265543   -2.3416515   0.57340917   -1.7682423   0.12765382     11496.07     1000 
  242000   0.36586941   -2.3638383   0.54825531   -1.8155829   0.11667684     11541.35     1000 
  244000   0.37735807   -2.3370678   0.56547107   -1.7715968   0.11843505    11477.934     1000 
  246000    0.3555798   -2.3408037   0.53283633   -1.8079674   0.13875959    11274.474     1000 
  248000       0.3509   -2.3639564   0.52582366   -1.8381327    0.1379578    11266.995     1000 
  250000   0.37436605   -2.3318123   0.56098752   -1.7708248    0.1330141    11410.318     1000 
  252000   0.37578746   -2.3094737   0.56311751   -1.7463561   0.14044898    11339.662     1000 
  254000    0.3645596   -2.3372086   0.54629256    -1.790916   0.12390264    11432.959     1000 
  256000   0.38760527   -2.3161746    0.5808265   -1.7353481   0.14237655    11389.542     1000 
  258000   0.36350656   -2.3259576   0.54471458    -1.781243   0.13221445    11341.974     1000 
  260000   0.37704081   -2.3387821   0.56499565   -1.7737864   0.12867769    11424.998     1000 
  262000   0.37907365   -2.3555721   0.56804187   -1.7875302   0.14158859    11299.113     1000 
  264000   0.36073974   -2.3546478   0.54056851   -1.8140793   0.13459353    11322.774     1000 
  266000   0.37070586   -2.3428986   0.55550274   -1.7873959   0.12055174    11420.594     1000 
  268000   0.38176019    -2.368577   0.57206765   -1.7965094   0.12445639    11447.273     1000 
  270000   0.36870022   -2.3310371   0.55249729   -1.7785398   0.12562236     11446.45     1000 
  272000   0.36654593   -2.3473707   0.54926908   -1.7981017    0.1256825    11448.114     1000 
  274000   0.38070396   -2.3483683   0.57048489   -1.7778834   0.12430862     11391.25     1000 
  276000   0.36866993    -2.310895   0.55245189   -1.7584432   0.12381276    11401.366     1000 
  278000   0.36092167   -2.3768017   0.54084112   -1.8359606   0.13821729    11341.591     1000 
  280000   0.37597683   -2.3134108   0.56340127   -1.7500096   0.13249964    11358.046     1000 
  282000   0.38032093   -2.3338192   0.56991092   -1.7639083   0.12435713    11416.562     1000 
  284000   0.36014044   -2.3723285   0.53967045   -1.8326581   0.12900491     11441.74     1000 
  286000   0.36731472   -2.3484455   0.55042111   -1.7980244   0.12415522      11412.9     1000 
  288000   0.37310441   -2.3249327   0.55909695   -1.7658357   0.13247052    11365.601     1000 
  290000   0.36290872   -2.3750856   0.54381872   -1.8312669    0.1189128    11451.963     1000 
  292000   0.37861784   -2.3684196   0.56735884   -1.8010608   0.12571599    11454.636     1000 
  294000   0.35779229   -2.3716709   0.53615175   -1.8355192   0.14324552    11271.227     1000 
  296000   0.38078984   -2.4061012   0.57061358   -1.8354876   0.12248264    11560.168     1000 
  298000   0.37276296   -2.3532044   0.55858529   -1.7946191   0.13396594    11344.472     1000 
  300000   0.36656553   -2.3219838   0.54929844   -1.7726854   0.13449986     11323.18     1000 
  302000   0.38980108   -2.3230566   0.58411692   -1.7389397   0.13733389    11427.687     1000 
  304000   0.36341667   -2.3870964   0.54457988   -1.8425165   0.12333366    11419.971     1000 
  306000   0.38000918   -2.3438006   0.56944376   -1.7743569   0.12680029    11399.126     1000 
  308000   0.35812088   -2.3333903   0.53664414   -1.7967461   0.12913187     11351.61     1000 
  310000   0.36328443   -2.3579588   0.54438172   -1.8135771    0.1389122    11269.601     1000 
  312000   0.37269463   -2.3866766   0.55848291   -1.8281937   0.12751692    11445.787     1000 
  314000   0.38386663   -2.3195767   0.57522414   -1.7443526   0.13191294    11349.853     1000 
  316000    0.3663526   -2.3341819   0.54897937   -1.7852026   0.14191233    11260.034     1000 
  318000    0.3766022   -2.3148061    0.5643384   -1.7504677   0.12522845    11391.647     1000 
  320000    0.3750281   -2.3318233   0.56197961   -1.7698437   0.14350141    11257.461     1000 
  322000   0.37777765   -2.3304138   0.56609981   -1.7643139   0.12294123    11417.978     1000 
  324000   0.38609246   -2.3114864   0.57855955   -1.7329269    0.1298197    11334.214     1000 
  326000   0.36615562   -2.3058117    0.5486842   -1.7571275   0.13655118    11370.733     1000 
  328000   0.37714207   -2.3349412   0.56514739   -1.7697938   0.12469874    11501.133     1000 
  330000   0.36697494   -2.3489555   0.54991195   -1.7990435   0.12482828      11452.2     1000 
  332000   0.37197826   -2.3318534   0.55740942    -1.774444   0.13577109    11284.202     1000 
  334000   0.38406652   -2.3339411   0.57552368   -1.7584174   0.12446243     11359.62     1000 
  336000   0.37444775   -2.3824235   0.56110996   -1.8213135   0.11703626    11479.415     1000 
  338000   0.35657259   -2.3220757   0.53432403   -1.7877517   0.13227924    11365.572     1000 
  340000   0.36574314   -2.2795971    0.5480661    -1.731531   0.13214028    11299.596     1000 
  342000   0.37845407   -2.3286203   0.56711343   -1.7615068   0.14337051    11262.738     1000 
  344000   0.36086281   -2.3707642   0.54075292   -1.8300112   0.12926372    11334.394     1000 
  346000    0.3721312   -2.3252076   0.55763861    -1.767569   0.12431508    11357.179     1000 
  348000   0.36878408   -2.3298854   0.55262294   -1.7772625   0.12485378    11343.105     1000 
  350000   0.37895807   -2.3326488   0.56786867   -1.7647801   0.13120412    11377.873     1000 
  352000   0.36325523   -2.3165781   0.54433796   -1.7722402   0.13363505    11365.316     1000 
  354000   0.36472784   -2.3770319   0.54654467   -1.8304872   0.12307347    11441.528     1000 
  356000   0.37711719   -2.3713285    0.5651101   -1.8062184   0.12857744    11403.525     1000 
  358000    0.3521525   -2.3476597   0.52770053   -1.8199592    0.1162165    11408.343     1000 
  360000   0.38159508   -2.2981197   0.57182022   -1.7262995   0.13099801    11265.567     1000 
  362000   0.38228247   -2.3086966   0.57285029   -1.7358463   0.13101069    11354.372     1000 
  364000   0.35656997   -2.3302845   0.53432009   -1.7959644   0.11575591    11496.977     1000 
  366000   0.38135593   -2.3340414   0.57146187   -1.7625796   0.13179967    11319.735     1000 
  368000    0.3761089   -2.3469468   0.56359918   -1.7833476   0.13765164    11349.278     1000 
  370000   0.37604337   -2.3298405   0.56350098   -1.7663395   0.13058745    11372.692     1000 
  372000   0.38571298   -2.3355353    0.5779909   -1.7575444   0.12281675    11364.693     1000 
  374000   0.37394663   -2.3523153   0.56035903   -1.7919563   0.14890315    11259.866     1000 
  376000   0.36956815    -2.333629   0.55379788   -1.7798311   0.13807238    11297.095     1000 
  378000   0.37498855   -2.3288026   0.56192035   -1.7668822   0.13565426    11431.878     1000 
  380000   0.37261952   -2.3441189   0.55837035   -1.7857485   0.12900766    11420.731     1000 
  382000   0.38261991   -2.3425636   0.57335593   -1.7692077   0.12817721    11418.844     1000 
  384000   0.35785487    -2.331471   0.53624552   -1.7952255   0.13692393    11274.473     1000 
  386000   0.37341088   -2.3260864    0.5595562   -1.7665302   0.13170468    11262.547     1000 
  388000   0.36421958   -2.3058297   0.54578303   -1.7600467   0.13868056    11217.255     1000 
  390000   0.35270261   -2.3403468   0.52852486    -1.811822   0.13058082    11262.239     1000 
  392000   0.36915152   -2.2895898   0.55317356   -1.7364162   0.12424599    11440.807     1000 
  394000   0.35859026   -2.3601887   0.53734751   -1.8228412   0.13309989    11330.227     1000 
  396000   0.36695702    -2.326386    0.5498851   -1.7765009    0.1124569     11580.53     1000 
  398000   0.36493392   -2.3185402   0.54685348   -1.7716867   0.13497336    11373.818     1000 
  400000   0.38374644   -2.3733983   0.57504404   -1.7983543   0.13030057    11436.839     1000 
  402000    0.3787171   -2.3822407   0.56750757   -1.8147331   0.11904241    11433.307     1000 
  404000   0.36549895   -2.3882455   0.54770018   -1.8405453   0.13575572    11396.354     1000 
  406000   0.38714485   -2.3580661   0.58013656   -1.7779296   0.13741809    11390.739     1000 
  408000   0.37763659   -2.3387623   0.56588843   -1.7728739   0.13400961    11311.391     1000 
  410000   0.38466735   -2.3440152   0.57642402   -1.7675912   0.12723396    11430.836     1000 
  412000   0.37702091   -2.3385844   0.56496584   -1.7736185   0.13142091    11424.691     1000 
  414000   0.37051771   -2.3190419   0.55522078   -1.7638211   0.13667092    11441.037     1000 
  416000   0.36697399   -2.3408531   0.54991053   -1.7909425   0.12816477    11470.064     1000 
  418000   0.36187054   -2.3586386     0.542263   -1.8163756   0.12928651    11396.806     1000 
  420000    0.3510516   -2.3174623   0.52605082   -1.7914115   0.12348711    11424.654     1000 
  422000   0.37610006   -2.3502199   0.56358594   -1.7866339   0.12780579    11466.991     1000 
  424000   0.36982845   -2.3674453   0.55418794   -1.8132574   0.12738232    11367.566     1000 
  426000   0.35893632   -2.3282127   0.53786608   -1.7903467    0.1308556    11380.286     1000 
  428000   0.35994658   -2.3539044   0.53937995   -1.8145244   0.13597457    11331.553     1000 
  430000     0.360926   -2.2994203   0.54084761   -1.7585727   0.12598991    11389.851     1000 
  432000   0.36227633   -2.3473193   0.54287108   -1.8044483   0.12480695    11386.398     1000 
  434000   0.35901731   -2.3513254   0.53798744    -1.813338   0.13361061    11288.171     1000 
  436000   0.36363374   -2.3382594   0.54490516   -1.7933542   0.12955135      11405.1     1000 
  438000   0.37902021   -2.3190821   0.56796178   -1.7511203   0.12870987     11357.59     1000 
  440000   0.37283125   -2.3542773   0.55868763   -1.7955897   0.13619806     11346.19     1000 
  442000   0.37642849   -2.3843404   0.56407809   -1.8202623   0.12385344    11402.516     1000 
  444000   0.36093125   -2.3264641   0.54085547   -1.7856087    0.1185553    11456.726     1000 
  446000   0.37786386   -2.3416449     0.566229   -1.7754159    0.1250964    11426.222     1000 
  448000   0.38383689   -2.3564989   0.57517958   -1.7813193   0.12589236     11495.84     1000 
  450000   0.36941894   -2.3537948   0.55357428   -1.8002206   0.12115751    11508.632     1000 
  452000   0.38083955   -2.3317515   0.57068807   -1.7610635   0.13121642    11332.269     1000 
  454000   0.36957184   -2.3271315    0.5538034   -1.7733281   0.11815927     11470.27     1000 
  456000   0.35415307   -2.3269815   0.53069837   -1.7962832   0.13201397    11301.018     1000 
  458000   0.35865791   -2.3182967   0.53744887   -1.7808478   0.14003626    11335.277     1000 
  460000   0.37733199   -2.3651014   0.56543199   -1.7996694   0.11753825    11527.503     1000 
  462000   0.36664163   -2.3331557   0.54941248   -1.7837432   0.13532825    11314.505     1000 
  464000   0.36430702   -2.3261874   0.54591407   -1.7802734   0.12172556    11390.148     1000 
  466000   0.38636949   -2.3217814   0.57897468   -1.7428067   0.11548894    11500.686     1000 
  468000   0.37638518   -2.3321298   0.56401319   -1.7681166   0.13519019    11424.687     1000 
  470000    0.3776627   -2.3541665   0.56592756   -1.7882389    0.1283465    11426.952     1000 
  472000   0.37625245   -2.3314716    0.5638143   -1.7676573   0.12957213    11384.477     1000 
  474000   0.35991044   -2.3586844    0.5393258   -1.8193586   0.12403507    11517.708     1000 
  476000   0.38537967   -2.3564684   0.57749143    -1.778977   0.13511879    11320.941     1000 
  478000   0.37169701   -2.3152656   0.55698797   -1.7582776   0.13918019    11322.042     1000 
  480000   0.37418832   -2.3609352   0.56072119    -1.800214   0.12036174    11407.492     1000 
  482000   0.37649526   -2.3137324   0.56417815   -1.7495542   0.11131393     11463.48     1000 
  484000   0.38745514   -2.3336163   0.58060153   -1.7530148   0.14174204    11269.836     1000 
  486000   0.36429577   -2.3428757   0.54589721   -1.7969785   0.12725079    11383.183     1000 
  488000   0.38210711   -2.3234125    0.5725875    -1.750825     0.131713    11296.716     1000 
  490000   0.36388476   -2.3737394   0.54528131   -1.8284581   0.11760085    11580.625     1000 
  492000   0.35992017   -2.2806302   0.53934038   -1.7412898   0.14191403    11233.423     1000 
  494000   0.36311473   -2.3339698   0.54412742   -1.7898423   0.13447915    11321.005     1000 
  496000   0.36763738   -2.3190898   0.55090462   -1.7681852   0.13465141    11369.491     1000 
  498000   0.36024198   -2.3420019    0.5398226   -1.8021793   0.13059363    11352.885     1000 
  500000   0.35908951   -2.3210335   0.53809562   -1.7829379   0.12971577     11424.22     1000 
  502000    0.3688413    -2.315623   0.55270869   -1.7629143    0.1431617    11302.601     1000 
  504000   0.37735691   -2.3691441   0.56546934   -1.8036748   0.13012491    11397.307     1000 
  506000   0.36590771   -2.3261052    0.5483127   -1.7777925   0.12037658    11441.902     1000 
  508000   0.37498933   -2.3303887   0.56192151   -1.7684672   0.14126595    11289.516     1000 
  510000   0.38029649   -2.3234211   0.56987429   -1.7535468   0.12888392    11396.797     1000 
  512000    0.3756836   -2.3592063   0.56296188   -1.7962444   0.12750492    11466.625     1000 
  514000   0.38341733   -2.3319348   0.57455087   -1.7573839   0.14240568    11300.609     1000 
  516000   0.37493479   -2.3116382   0.56183978   -1.7497984   0.11666461     11451.95     1000 
  518000   0.36528717   -2.3224295   0.54738283   -1.7750467   0.13605186     11257.32     1000 
  520000   0.36705416    -2.347311   0.55003066   -1.7972803   0.12647875    11417.621     1000 
  522000   0.35661126   -2.3293289   0.53438197   -1.7949469   0.13151888    11363.618     1000 
  524000   0.37781524   -2.3186143   0.56615614   -1.7524582   0.12981611    11401.506     1000 
  526000   0.36341335    -2.368866   0.54457491   -1.8242911   0.13816441    11351.129     1000 
  528000   0.35565166   -2.3929184   0.53294402   -1.8599744   0.12338602    11396.497     1000 
  530000   0.38385704   -2.3986778   0.57520977   -1.8234681    0.1224214    11506.706     1000 
  532000   0.35701812   -2.3257983   0.53499165   -1.7908067   0.12841962    11409.181     1000 
  534000   0.35750262   -2.3289405   0.53571767   -1.7932228   0.12607649    11341.952     1000 
  536000   0.37506795   -2.2929609   0.56203932   -1.7309215    0.1343225    11342.624     1000 
  538000   0.36926164   -2.3355273   0.55333856   -1.7821888   0.13612541    11312.881     1000 
  540000   0.38461889   -2.3321986   0.57635141   -1.7558472   0.13080265    11380.535     1000 
  542000   0.37888059   -2.2823966   0.56775256   -1.7146441   0.14092862    11212.147     1000 
  544000   0.37973062   -2.3316313   0.56902634    -1.762605   0.13389232    11318.542     1000 
  546000   0.37506076      -2.3596   0.56202855   -1.7975714   0.13049187    11287.179     1000 
  548000   0.37963059   -2.3812885   0.56887644    -1.812412   0.12655165    11421.728     1000 
  550000   0.36988731   -2.3640555   0.55427614   -1.8097794   0.12230582    11464.133     1000 
  552000   0.36768267   -2.3024873   0.55097248   -1.7515148   0.14995574    11208.276     1000 
  554000   0.37264469   -2.3323755   0.55840806   -1.7739674   0.12612707    11488.352     1000 
  556000   0.37251873   -2.3473919   0.55821932   -1.7891725   0.12943555    11403.173     1000 
  558000   0.35488756   -2.3530988   0.53179901   -1.8212998   0.12827866    11442.334     1000 
  560000   0.38739136   -2.3533889   0.58050596    -1.772883   0.13077757    11389.531     1000 
  562000    0.3658223   -2.3221199   0.54818472   -1.7739352   0.12215228    11398.715     1000 
  564000   0.36509624   -2.3716348   0.54709672   -1.8245381   0.12630711    11415.077     1000 
  566000   0.35918973   -2.3636105   0.53824581   -1.8253647   0.12678685    11440.389     1000 
  568000    0.3666371   -2.3272718   0.54940569   -1.7778661   0.12138661    11379.568     1000 
  570000   0.36270836   -2.3666551   0.54351848   -1.8231366   0.12626822    11421.845     1000 
  572000   0.36077122   -2.3515803   0.54061567   -1.8109646   0.12160567    11459.968     1000 
  574000   0.38812119   -2.3271752    0.5815996   -1.7455756   0.12837601    11287.745     1000 
  576000   0.36597421   -2.3401331   0.54841235   -1.7917208    0.1233837    11475.631     1000 
  578000   0.37230452   -2.3205306   0.55789832   -1.7626323   0.12396421    11459.045     1000 
  580000   0.37475411   -2.3498749   0.56156903   -1.7883058    0.1200494    11450.761     1000 
  582000   0.37048677   -2.3477826   0.55517443   -1.7926082    0.1228198    11434.468     1000 
  584000   0.38596154   -2.3178317   0.57836336   -1.7394684   0.13213276    11388.623     1000 
  586000   0.38064713   -2.3589701   0.57039972   -1.7885703   0.13946999    11357.598     1000 
  588000   0.36514401   -2.3193376   0.54716829   -1.7721693   0.13849995    11285.231     1000 
  590000    0.3623198   -2.3571657   0.54293623   -1.8142295   0.13474666    11311.066     1000 
  592000   0.35540847   -2.3181533    0.5325796   -1.7855738   0.12298446    11382.987     1000 
  594000   0.36350001   -2.3283075   0.54470477   -1.7836028   0.13736274    11314.022     1000 
  596000   0.37000394   -2.3472598   0.55445091   -1.7928089   0.13852348    11220.963     1000 
  598000   0.36296949   -2.3257961   0.54390978   -1.7818863   0.11864651    11430.431     1000 
  600000   0.37669873   -2.3047825   0.56448305   -1.7402994   0.12978376    11378.952     1000 
  602000   0.35554321   -2.3457368   0.53278151   -1.8129553   0.12789213    11365.362     1000 
  604000   0.38537317   -2.3582738   0.57748169   -1.7807921   0.12312486    11485.427     1000 
  606000    0.3667637   -2.3527089    0.5495954   -1.8031135   0.12126193    11426.223     1000 
  608000   0.35961202   -2.3462411   0.53887862   -1.8073625   0.13031554    11303.315     1000 
  610000   0.37938052   -2.3406857   0.56850171   -1.7721839   0.13310575    11314.134     1000 
  612000   0.36856942   -2.3407898   0.55230128   -1.7884885   0.13277331    11304.776     1000 
  614000   0.38944765   -2.3051869   0.58358731   -1.7215996   0.12185642    11415.851     1000 
  616000   0.38037552   -2.3157986   0.56999272   -1.7458059   0.12282768    11510.779     1000 
  618000    0.3676472   -2.3324964   0.55091933    -1.781577   0.13126469    11461.818     1000 
  620000   0.37611602   -2.3253866   0.56360985   -1.7617768   0.12434951    11469.634     1000 
  622000   0.36866441   -2.3275463   0.55244362   -1.7751026   0.12681014    11444.044     1000 
  624000    0.3662723   -2.3313319   0.54885905   -1.7824729   0.14123715    11344.524     1000 
  626000   0.36521634   -2.3576216   0.54727669   -1.8103449    0.1261225    11472.219     1000 
  628000   0.36866018   -2.3610969   0.55243728   -1.8086596   0.12738434    11396.563     1000 
  630000   0.36608314   -2.3664022   0.54857559   -1.8178266   0.12272934    11390.102     1000 
  632000   0.37688532   -2.3190327   0.56476266     -1.75427   0.13046682    11434.729     1000 
  634000   0.36069354   -2.3917632   0.54049928   -1.8512639   0.12949818    11322.364     1000 
  636000   0.36445814   -2.2806069   0.54614052   -1.7344664   0.13374706    11338.612     1000 
  638000   0.36383106   -2.3277834   0.54520084   -1.7825825   0.12785513    11347.426     1000 
  640000   0.37095938    -2.324485   0.55588263   -1.7686024   0.13607431    11368.533     1000 
  642000    0.3664447   -2.3409136   0.54911738   -1.7917962   0.12975142    11394.949     1000 
  644000   0.35797558   -2.3310982    0.5364264   -1.7946718   0.13161033    11411.263     1000 
  646000   0.36740314   -2.3324838   0.55055361   -1.7819302   0.12006348    11394.442     1000 
  648000   0.37258736   -2.3878007   0.55832216   -1.8294785   0.12000115    11509.915     1000 
  650000   0.36589516   -2.3155036   0.54829389   -1.7672097   0.11752303    11513.257     1000 
  652000   0.36732908   -2.3554169   0.55044263   -1.8049743   0.11635244    11475.439     1000 
  654000   0.37784566   -2.3161187   0.56620172    -1.749917   0.12928526    11448.154     1000 
  656000   0.37193166    -2.287054   0.55733959   -1.7297144   0.13139198     11339.75     1000 
  658000   0.35386283   -2.3161474   0.53026345   -1.7858839   0.13153689    11350.241     1000 
  660000    0.3836061   -2.3766717   0.57483373    -1.801838   0.12840906    11336.516     1000 
  662000    0.3714826   -2.3228473   0.55666668   -1.7661807   0.13192196    11321.978     1000 
  664000   0.37656982    -2.302758   0.56428988   -1.7384681   0.13095758    11328.307     1000 
  666000   0.37485914   -2.3187882   0.56172642   -1.7570618   0.14607628    11312.771     1000 
  668000   0.39156844   -2.3803045    0.5867653   -1.7935392   0.12750099     11475.03     1000 
  670000   0.37584083   -2.2810216   0.56319748   -1.7178241    0.1234438     11387.64     1000 
  672000   0.37664366   -2.3295533   0.56440053   -1.7651528   0.12134085     11427.28     1000 
  674000   0.35586194    -2.353806   0.53325911   -1.8205469   0.12149709    11449.977     1000 
  676000   0.36535657   -2.3518651   0.54748682   -1.8043782   0.12067683    11513.286     1000 
  678000    0.3758163   -2.3660565   0.56316073   -1.8028958   0.12815733    11399.947     1000 
  680000   0.35522635   -2.3511653   0.53230668   -1.8188586   0.13046901    11361.518     1000 
  682000   0.35857782   -2.3779846   0.53732886   -1.8406557   0.12539791    11462.547     1000 
  684000   0.35679649   -2.3575118   0.53465955   -1.8228522   0.11529914    11455.482     1000 
  686000   0.37419453   -2.3231048   0.56073051   -1.7623743   0.12458266    11328.189     1000 
  688000   0.36326662   -2.3626135   0.54435503   -1.8182585   0.11963513    11507.045     1000 
  690000   0.37959234   -2.3419124   0.56881911   -1.7730933   0.12691955    11412.568     1000 
  692000   0.38272022   -2.3946031   0.57350624   -1.8210969    0.1321507    11418.024     1000 
  694000   0.37518543   -2.2954256   0.56221537   -1.7332102   0.13774826    11368.535     1000 
  696000   0.37846022   -2.3455297   0.56712264   -1.7784071   0.13433091     11394.18     1000 
  698000   0.39306183   -2.3639869   0.58900315   -1.7749838   0.12926096    11387.043     1000 
  700000   0.37699084   -2.3395432   0.56492077   -1.7746224   0.13081347    11380.334     1000 
  702000   0.36811293   -2.3270458   0.55161723   -1.7754285   0.13713192    11342.802     1000 
  704000   0.38689149   -2.3473085    0.5797569   -1.7675516   0.12985745    11376.851     1000 
  706000   0.37466063   -2.3326333   0.56142896   -1.7712044    0.1342375    11317.264     1000 
  708000   0.36671803   -2.3258683   0.54952696   -1.7763414    0.1279522    11424.385     1000 
  710000   0.37536385   -2.3271924   0.56248273   -1.7647097   0.12458642    11403.423     1000 
  712000   0.37666487   -2.3672352    0.5644323   -1.8028029   0.11395123    11498.239     1000 
  714000   0.38474795   -2.3773174   0.57654481   -1.8007726    0.1223739    11467.862     1000 
  716000   0.35795039   -2.3279646   0.53638866    -1.791576   0.12124144    11335.958     1000 
  718000   0.36960843   -2.2859844   0.55385823   -1.7321261   0.13104102    11338.838     1000 
  720000   0.36138871   -2.3561737   0.54154099   -1.8146328   0.12977887    11354.029     1000 
  722000   0.36120336   -2.3452881   0.54126323   -1.8040249   0.12309557     11416.61     1000 
  724000   0.36162828   -2.3314412   0.54189998   -1.7895412    0.1371823    11343.342     1000 
  726000   0.36673648   -2.2869833   0.54955462   -1.7374287   0.12779678    11348.174     1000 
  728000   0.35068636   -2.3250889   0.52550352   -1.7995854   0.11579814    11465.213     1000 
  730000   0.36788538   -2.3452444   0.55127624   -1.7939682   0.12992648    11376.792     1000 
  732000   0.36503609   -2.3258933   0.54700658   -1.7788867   0.13783469    11312.138     1000 
  734000   0.37611588   -2.3771717   0.56360964   -1.8135621   0.12353567    11380.519     1000 
  736000   0.35924563   -2.3302098   0.53832958   -1.7918802   0.11922539    11378.957     1000 
  738000   0.36310192   -2.3689268   0.54410823   -1.8248186   0.12407341      11421.3     1000 
  740000   0.36460645   -2.3442009   0.54636277   -1.7978381   0.12793103    11358.111     1000 
  742000   0.37610152   -2.3323453   0.56358812   -1.7687572   0.13172152    11347.705     1000 
  744000   0.35890272   -2.3262474   0.53781573   -1.7884317   0.11737124    11482.216     1000 
  746000   0.37056807   -2.3124252   0.55529626    -1.757129   0.14188629    11191.662     1000 
  748000   0.37006874   -2.3354691     0.554548   -1.7809211   0.12913196    11497.987     1000 
  750000   0.36969118   -2.3188423   0.55398223     -1.76486   0.13282159    11341.519     1000 
  752000   0.37379509   -2.3171945   0.56013194   -1.7570626   0.12196949    11391.807     1000 
  754000   0.35660529   -2.3328886   0.53437303   -1.7985156   0.12852676    11347.215     1000 
  756000   0.38307216   -2.3757228   0.57403363   -1.8016891   0.12714577    11410.735     1000 
  758000   0.36466729   -2.2933078   0.54645393   -1.7468539   0.13325539    11310.185     1000 
  760000   0.36813179   -2.3825346   0.55164549   -1.8308891   0.11327617    11536.285     1000 
  762000    0.3803008   -2.2941229   0.56988074   -1.7242421   0.13892415    11257.077     1000 
  764000   0.37273783   -2.3306374   0.55854764   -1.7720898   0.13584112     11278.41     1000 
  766000    0.3770469   -2.3817008   0.56500478    -1.816696   0.12478778    11423.296     1000 
  768000   0.36887483   -2.3133569   0.55275893    -1.760598   0.13774403    11295.634     1000 
  770000   0.37332069   -2.3447871   0.55942106    -1.785366   0.13126632    11385.058     1000 
  772000   0.35413933   -2.3479908   0.53067779    -1.817313   0.12328678    11377.529     1000 
  774000   0.37503796   -2.3243262   0.56199438   -1.7623318   0.13120054    11357.196     1000 
  776000   0.37603775   -2.3211703   0.56349256   -1.7576778   0.12956953    11376.421     1000 
  778000   0.38333544   -2.3137982   0.57442816     -1.73937   0.13570926    11374.977     1000 
  780000   0.36504512   -2.3706031   0.54702012    -1.823583    0.1349156    11344.172     1000 
  782000   0.37071827   -2.3479291   0.55552132   -1.7924078   0.11827087    11495.921     1000 
  784000   0.38539611   -2.3271143   0.57751608   -1.7495982   0.14468674    11290.888     1000 
  786000   0.36822006   -2.3730583   0.55177777   -1.8212805   0.13164862    11410.181     1000 
  788000   0.35675373   -2.3207394   0.53459547    -1.786144   0.13031324    11335.033     1000 
  790000   0.36091623   -2.3571606   0.54083297   -1.8163276   0.12531642    11392.075     1000 
  792000   0.35132416   -2.3411134   0.52645926   -1.8146542   0.12783309    11305.278     1000 
  794000   0.37097041   -2.3470758   0.55589916   -1.7911766   0.12718427    11530.298     1000 
  796000   0.37390553   -2.3222977   0.56029743   -1.7620003    0.1406435    11342.913     1000 
  798000   0.37063362   -2.3480201   0.55539447   -1.7926256   0.13097402    11340.722     1000 
  800000   0.36463135   -2.3285382   0.54640008   -1.7821381   0.12706352    11371.491     1000 
  802000   0.37879711   -2.3127383   0.56762746   -1.7451109   0.13390277    11336.041     1000 
  804000   0.37026719   -2.3757359   0.55484538   -1.8208906   0.12629767    11454.143     1000 
  806000   0.36527505   -2.3491585   0.54736467   -1.8017939   0.13700876    11389.266     1000 
  808000   0.36516317   -2.3216756     0.547197   -1.7744786    0.1261149    11424.927     1000 
  810000   0.36737016   -2.3269951   0.55050418   -1.7764909   0.13904992     11330.57     1000 
  812000    0.3625714    -2.346075   0.54331325   -1.8027618   0.13685658    11302.869     1000 
  814000   0.37530877   -2.3641821   0.56240019   -1.8017819   0.12042595    11487.628     1000 
  816000   0.36189969   -2.3622691   0.54230669   -1.8199624   0.12067496    11370.011     1000 
  818000   0.37092891   -2.3519762   0.55583698   -1.7961393   0.12588195    11452.396     1000 
  820000   0.36339439   -2.3634412   0.54454649   -1.8188947   0.13105757    11369.154     1000 
  822000   0.36122834   -2.3732976   0.54130067    -1.831997   0.13455934    11374.746     1000 
  824000    0.3842121    -2.334074   0.57574184   -1.7583322     0.128708    11409.179     1000 
  826000   0.37566654   -2.2932702   0.56293632   -1.7303339   0.13348224    11353.281     1000 
  828000   0.37458852   -2.3463547    0.5613209   -1.7850338   0.11927695    11379.179     1000 
  830000   0.38833684    -2.325635   0.58192275   -1.7437123   0.12637835    11405.093     1000 
  832000   0.36066069   -2.3647741   0.54045004   -1.8243241   0.12810468    11410.154     1000 
  834000   0.36493051   -2.3116334   0.54684837    -1.764785   0.13238054    11335.359     1000 
  836000   0.36884761   -2.2881966   0.55271814   -1.7354785   0.12607618    11252.296     1000 
  838000   0.37677802   -2.3346837   0.56460186   -1.7700819   0.12839305    11350.495     1000 
  840000   0.36831487   -2.3328759   0.55191984   -1.7809561   0.12848647    11413.008     1000 
  842000   0.35798335    -2.322111   0.53643804    -1.785673   0.12943904    11428.157     1000 
  844000   0.37765727   -2.3011186   0.56591943   -1.7351992   0.12250977    11431.631     1000 
  846000   0.37011238   -2.3368654   0.55461341    -1.782252   0.13662001    11381.131     1000 
  848000   0.35740893   -2.3855735   0.53557728   -1.8499962    0.1215604    11411.903     1000 
  850000   0.38278478   -2.3281351     0.573603   -1.7545321   0.12143992    11459.993     1000 
  852000   0.36741909   -2.2854899   0.55057751   -1.7349124   0.13394846    11352.321     1000 
  854000   0.35770218   -2.3589356   0.53601671   -1.8229189   0.11281576    11517.687     1000 
  856000   0.37550942   -2.3388003   0.56270086   -1.7760994   0.13078184    11353.467     1000 
  858000   0.36916664   -2.3355602   0.55319621    -1.782364   0.12528152    11448.142     1000 
  860000     0.363303   -2.3771588   0.54440954   -1.8327493   0.13585678    11302.933     1000 
  862000   0.36415301   -2.3777337   0.54568328   -1.8320504   0.13378799    11377.436     1000 
  864000   0.37927142   -2.3080762   0.56833823    -1.739738   0.13635646    11365.572     1000 
  866000   0.37773102   -2.3561855   0.56602993   -1.7901556   0.13790054    11380.492     1000 
  868000   0.38381897   -2.3644212   0.57515273   -1.7892685   0.14038522    11401.374     1000 
  870000   0.36797694   -2.3326986   0.55141345   -1.7812851   0.12241841    11431.935     1000 
  872000    0.3775048   -2.3120775   0.56569095   -1.7463865   0.11959615    11481.633     1000 
  874000   0.35381657   -2.3189818   0.53019413   -1.7887876   0.13920212    11235.741     1000 
  876000   0.37917715   -2.3286848   0.56819696   -1.7604879   0.12293425    11418.683     1000 
  878000   0.36344304   -2.3783077    0.5446194   -1.8336883   0.13140317    11380.036     1000 
  880000   0.36130765   -2.3028334   0.54141951   -1.7614139   0.13248682    11342.188     1000 
  882000   0.36355426   -2.3569736   0.54478607   -1.8121876   0.12658519    11448.289     1000 
  884000   0.36500921   -2.3406279    0.5469663   -1.7936616   0.13290193    11383.644     1000 
  886000   0.35636949   -2.3475972   0.53401968   -1.8135775   0.12872067    11440.544     1000 
  888000   0.36950722   -2.3638301   0.55370657   -1.8101236   0.12792209     11398.49     1000 
  890000   0.37012996    -2.313759   0.55463974   -1.7591193   0.13413553    11311.982     1000 
  892000   0.38078261   -2.3750784   0.57060274   -1.8044757    0.1266066    11382.874     1000 
  894000   0.36632914   -2.3312219   0.54894421   -1.7822777   0.12690886    11341.031     1000 
  896000   0.36685794   -2.3266642   0.54973663   -1.7769276   0.12543636    11380.936     1000 
  898000   0.36273612   -2.3696935   0.54356008   -1.8261334   0.12434465    11458.556     1000 
  900000   0.38293211   -2.3336594   0.57382376   -1.7598357   0.13406586    11361.638     1000 
  902000   0.36573977   -2.3289041   0.54806105    -1.780843    0.1137269    11417.824     1000 
  904000   0.36035121   -2.3777218   0.53998628   -1.8377355   0.12701127    11328.381     1000 
  906000   0.37422737   -2.3311199   0.56077972   -1.7703402   0.13168009    11436.669     1000 
  908000   0.37604792   -2.3263094   0.56350781   -1.7628016   0.11935686     11429.55     1000 
  910000   0.38206057   -2.3242799   0.57251776   -1.7517621   0.12963277    11356.493     1000 
  912000   0.35276799   -2.3471222   0.52862284   -1.8184993   0.12470647     11416.21     1000 
  914000   0.37433499   -2.3248073   0.56094098   -1.7638664   0.13001762    11359.647     1000 
  916000   0.37322836   -2.3631657   0.55928269    -1.803883   0.13439116    11324.081     1000 
  918000   0.37466982   -2.3600638   0.56144272   -1.7986211   0.12444291    11406.798     1000 
  920000   0.36823593   -2.3052751   0.55180154   -1.7534735     0.120224    11405.166     1000 
  922000   0.35729311   -2.3283121   0.53540373   -1.7929084   0.13664513    11346.033     1000 
  924000   0.37902328   -2.3400238   0.56796639   -1.7720574   0.12587896    11351.838     1000 
  926000   0.37650115   -2.3188476   0.56418697   -1.7546607   0.12378423    11415.613     1000 
  928000   0.37219911   -2.3208155   0.55774037   -1.7630751   0.13613174    11286.809     1000 
  930000   0.38418252   -2.2747334   0.57569751   -1.6990359   0.13540875    11260.402     1000 
  932000   0.37128986   -2.3435048   0.55637786   -1.7871269   0.12945211    11396.002     1000 
  934000   0.37061202   -2.3296378   0.55536211   -1.7742757   0.12846939     11387.23     1000 
  936000     0.372911   -2.3600161   0.55880714    -1.801209    0.1201699     11484.92     1000 
  938000   0.35692834   -2.3550097   0.53485712   -1.8201526   0.12261174    11469.488     1000 
  940000   0.36979432   -2.3148886   0.55413678   -1.7607518   0.14181514    11247.881     1000 
  942000   0.36831107   -2.3441747   0.55191414   -1.7922606   0.11751684    11463.672     1000 
  944000   0.35817558   -2.3269638   0.53672611   -1.7902377   0.13337531    11365.363     1000 
  946000    0.3530669   -2.3440576   0.52907075   -1.8149869   0.12011133    11478.122     1000 
  948000   0.36494264   -2.3287508   0.54686655   -1.7818843   0.12285469    11389.628     1000 
  950000   0.36929219   -2.2876139   0.55338435   -1.7342295   0.13203359    11293.893     1000 
  952000   0.36499625   -2.3448119   0.54694688   -1.7978651    0.1363773    11409.322     1000 
  954000   0.37699128   -2.2983047   0.56492144   -1.7333833    0.1258521     11385.75     1000 
  956000   0.37189776   -2.3483538   0.55728879    -1.791065   0.12841409    11367.781     1000 
  958000   0.37061406   -2.3362298   0.55536517   -1.7808646   0.12204168    11420.284     1000 
  960000    0.3667289    -2.354045   0.54954325   -1.8045018   0.13415841    11393.133     1000 
  962000   0.36864275   -2.3580084   0.55241116   -1.8055973    0.1403103     11278.66     1000 
  964000   0.36270444   -2.2719129    0.5435126   -1.7284003   0.12833825    11277.808     1000 
  966000   0.37632214   -2.2973003   0.56391873   -1.7333816   0.13703627    11339.983     1000 
  968000   0.36538395   -2.3165543   0.54752786   -1.7690264   0.12565657    11390.482     1000 
  970000   0.36461223   -2.3601498   0.54637143   -1.8137783   0.13112348    11378.905     1000 
  972000   0.38281763   -2.3293856   0.57365222   -1.7557334   0.12595505    11415.909     1000 
  974000   0.36843269    -2.342862   0.55209639   -1.7907656   0.11974467    11413.035     1000 
  976000    0.3792401   -2.3579071   0.56829129   -1.7896158     0.131437    11392.187     1000 
  978000   0.39766531   -2.3245594   0.59590146   -1.7286579   0.12939382    11421.292     1000 
  980000    0.3721654   -2.3465791   0.55768985   -1.7888892   0.14836948     11318.87     1000 
  982000   0.37457197   -2.3388809    0.5612961   -1.7775848   0.12435124     11428.88     1000 
  984000   0.36031063   -2.3369263   0.53992547   -1.7970009   0.12775186    11343.507     1000 
  986000   0.38805504   -2.3325129   0.58150048   -1.7510125   0.13206277    11392.035     1000 
  988000   0.35905539   -2.3279402    0.5380445   -1.7898957   0.12052539    11527.674     1000 
  990000   0.37956135   -2.3358865   0.56877268   -1.7671138   0.13571612    11364.251     1000 
  992000   0.37609877   -2.3156667     0.563584   -1.7520827   0.13418149    11419.392     1000 
  994000   0.37251964   -2.3571252   0.55822068   -1.7989045   0.12262492    11442.238     1000 
  996000   0.36826982   -2.3645948   0.55185232   -1.8127425   0.13063479    11422.442     1000 
  998000   0.36764217   -2.3622786   0.55091179   -1.8113669   0.12485824    11443.947     1000 
 1000000   0.37766049   -2.3786192   0.56592424    -1.812695   0.12109691    11386.287     1000 
 1002000   0.36555975    -2.432102   0.54779129   -1.8843107   0.12196322    11470.682     1000 
 1004000   0.39483484   -2.3385518   0.59166001   -1.7468918   0.12966893     11387.26     1000 
 1006000   0.38326584   -2.3255356   0.57432386   -1.7512117   0.13429589    11372.431     1000 
 1008000    0.3618184   -2.3605093   0.54218488   -1.8183244   0.13216709     11246.77     1000 
 1010000   0.36927528   -2.3355911   0.55335901   -1.7822321   0.13597293    11308.525     1000 
 1012000   0.37449211   -2.3610236   0.56117643   -1.7998472   0.12829079     11467.88     1000 
 1014000    0.3811829   -2.3623603   0.57120258   -1.7911577   0.12848775    11429.637     1000 
 1016000   0.36685721   -2.3483019   0.54973553   -1.7985664   0.13128759    11419.456     1000 
 1018000   0.37157592   -2.2922558   0.55680652   -1.7354493   0.14586838    11178.779     1000 
 1020000   0.36726166   -2.3034185   0.55034159   -1.7530769   0.13859582    11263.923     1000 
 1022000   0.36236822   -2.3404871   0.54300878   -1.7974783   0.12365622    11413.895     1000 
 1024000   0.36257049   -2.3531334   0.54331189   -1.8098215   0.12167689    11470.957     1000 
 1026000    0.3636134   -2.3542159   0.54487468   -1.8093412   0.13446091    11348.723     1000 
 1028000   0.37595711   -2.3260998   0.56337172   -1.7627281   0.12357356    11406.898     1000 
 1030000   0.37540043   -2.3805959   0.56253755   -1.8180584   0.13109355      11361.2     1000 
 1032000   0.37400826   -2.3861493   0.56045138   -1.8256979   0.12357544    11400.495     1000 
 1034000   0.37063788   -2.3057054   0.55540087   -1.7503045   0.13648698    11318.394     1000 
 1036000   0.37911856   -2.3350855   0.56810917   -1.7669764   0.11761412    11487.321     1000 
 1038000   0.36083557    -2.312655   0.54071211   -1.7719429   0.13437815    11372.091     1000 
 1040000   0.37463641   -2.3377066   0.56139267   -1.7763139   0.12376106    11432.077     1000 
 1042000   0.36375707   -2.3122106   0.54508997   -1.7671206   0.12581234    11504.978     1000 
 1044000   0.36628721   -2.3331962   0.54888139   -1.7843149   0.15211931    11281.507     1000 
 1046000   0.37580008   -2.3482605   0.56313642   -1.7851241   0.12331783    11401.547     1000 
 1048000   0.37282174   -2.3431398   0.55867338   -1.7844664   0.13982929    11327.779     1000 
 1050000   0.35961404   -2.3465335   0.53888164   -1.8076519   0.13134717      11383.6     1000 
 1052000   0.35600427   -2.3518596    0.5334724   -1.8183872   0.13112613     11395.63     1000 
 1054000   0.37743107   -2.3407191   0.56558046   -1.7751387   0.14262718    11281.441     1000 
 1056000   0.36782446   -2.3631781   0.55118496   -1.8119931   0.12720987    11429.145     1000 
 1058000   0.37076076   -2.3464241   0.55558499   -1.7908391    0.1426897    11204.648     1000 
 1060000   0.38241401   -2.3241768    0.5730474   -1.7511294   0.12951379    11376.059     1000 
 1062000   0.37683544   -2.3059565   0.56468791   -1.7412686   0.11835445    11431.487     1000 
 1064000   0.36552765   -2.3044858   0.54774319   -1.7567426    0.1316477    11386.732     1000 
 1066000   0.36666427   -2.2879258   0.54944641   -1.7384794   0.14688919    11279.588     1000 
 1068000   0.37421026   -2.3210299   0.56075408   -1.7602758   0.12794826    11357.729     1000 
 1070000   0.36743834   -2.3823919   0.55060635   -1.8317855   0.13421041    11306.695     1000 
 1072000   0.37583435   -2.3588586   0.56318777   -1.7956708   0.11970756    11514.401     1000 
 1074000   0.38134982   -2.3508513   0.57145271   -1.7793986    0.1346006    11362.076     1000 
 1076000   0.37357361   -2.3168619   0.55980006   -1.7570619   0.12034524    11441.849     1000 
 1078000   0.36977321   -2.3588363   0.55410516   -1.8047311   0.13311021    11368.782     1000 
 1080000   0.36872432   -2.3575721    0.5525334   -1.8050387   0.13076811    11359.791     1000 
 1082000   0.37166544   -2.3399588   0.55694067   -1.7830181   0.13173525    11362.794     1000 
 1084000   0.36300158   -2.3251028   0.54395787   -1.7811449   0.13030684    11356.621     1000 
 1086000   0.37620039   -2.2877209   0.56373629   -1.7239847    0.1371255    11326.326     1000 
 1088000   0.36659158   -2.3421101   0.54933748   -1.7927726   0.11659881    11464.466     1000 
 1090000   0.35521797   -2.3696261   0.53229412    -1.837332   0.12893185    11408.389     1000 
 1092000   0.35828304   -2.3533806   0.53688713   -1.8164935   0.13700695     11370.62     1000 
 1094000   0.35803402   -2.3343348   0.53651398   -1.7978208   0.12882674    11376.789     1000 
 1096000   0.36932397   -2.3450606   0.55343196   -1.7916286   0.11615676    11522.068     1000 
 1098000   0.35579459   -2.3243065    0.5331582   -1.7911483   0.12654725    11455.889     1000 
 1100000   0.36552678   -2.3588698   0.54774188   -1.8111279   0.13456015    11359.297     1000 
 1102000   0.37039988   -2.3263792   0.55504421    -1.771335   0.12703154    11348.715     1000 
 1104000   0.36350791   -2.3679471   0.54471661   -1.8232305   0.13937645    11327.385     1000 
 1106000   0.37237506   -2.3501831   0.55800403   -1.7921791     0.127648    11449.516     1000 
 1108000   0.36569935   -2.3476833   0.54800047   -1.7996828    0.1412705    11408.663     1000 
 1110000   0.35826791   -2.3495256   0.53686447   -1.8126612   0.13334407    11328.708     1000 
 1112000   0.37354427   -2.3384502    0.5597561   -1.7786941   0.14387599    11309.783     1000 
 1114000   0.37654709   -2.3237349   0.56425582   -1.7594791   0.13248208    11360.901     1000 
 1116000   0.36469753   -2.3358635   0.54649925   -1.7893642   0.15481272    11175.021     1000 
 1118000   0.36432866   -2.3730255   0.54594649    -1.827079   0.13344245    11422.495     1000 
 1120000   0.36728761   -2.3383956   0.55038048   -1.7880152   0.12222325    11451.936     1000 
 1122000    0.3591207   -2.3019028   0.53814237   -1.7637604   0.13091465    11371.485     1000 
 1124000   0.36683214   -2.3155965   0.54969796   -1.7658985   0.13207316    11336.594     1000 
 1126000   0.36772467     -2.30155   0.55103542   -1.7505146   0.12448986    11422.892     1000 
 1128000   0.36996396   -2.3473309   0.55439099   -1.7929399    0.1364627    11291.675     1000 
 1130000   0.36634627   -2.3760924   0.54896989   -1.8271225   0.12321502     11473.18     1000 
 1132000   0.36528244   -2.3367832   0.54737574   -1.7894075   0.13015769    11490.119     1000 
 1134000   0.37002048   -2.3596247   0.55447569    -1.805149   0.13096881    11424.666     1000 
 1136000    0.3583153   -2.3406673   0.53693547   -1.8037318   0.13519035    11238.804     1000 
 1138000   0.36712713   -2.3383489   0.55014001   -1.7882089   0.12574726    11509.722     1000 
 1140000   0.36923518   -2.3141564   0.55329892   -1.7608575    0.1280384    11453.414     1000 
 1142000   0.36321316   -2.3141811   0.54427493   -1.7699062   0.12770618    11384.564     1000 
 1144000   0.37873609    -2.329295   0.56753603   -1.7617589   0.13274003    11313.283     1000 
 1146000   0.35735627   -2.3281989   0.53549838   -1.7927005   0.13649804     11363.19     1000 
 1148000   0.37450126   -2.2956323   0.56119014   -1.7344422   0.14207226    11298.812     1000 
 1150000   0.37881526   -2.2866693   0.56765467   -1.7190146   0.14002144    11309.862     1000 
 1152000   0.36945429   -2.3713432   0.55362725   -1.8177159   0.12958483     11337.42     1000 
 1154000   0.38190413   -2.3627239   0.57228335   -1.7904406   0.13054258     11404.73     1000 
 1156000   0.39697564   -2.3604294     0.594868   -1.7655614   0.13184857    11446.928     1000 
 1158000   0.36795964   -2.3271901   0.55138753   -1.7758026   0.12987905    11351.057     1000 
 1160000   0.37106404   -2.3618734   0.55603946   -1.8058339   0.12796868    11403.677     1000 
 1162000   0.36127768   -2.3671888   0.54137461   -1.8258142   0.13011935    11352.239     1000 
 1164000    0.3626348   -2.3372529   0.54340825   -1.7938447  0.099071576    11614.209     1000 
 1166000   0.35444248   -2.3123203   0.53113205   -1.7811882   0.12576345    11333.915     1000 
 1168000   0.36428833    -2.326556   0.54588606   -1.7806699    0.1259213     11422.54     1000 
 1170000   0.37689577   -2.3178762   0.56477831   -1.7530979   0.13334269    11328.104     1000 
 1172000   0.39179512   -2.3894151   0.58710499   -1.8023101   0.13446022    11360.288     1000 
 1174000   0.36397611    -2.311532    0.5454182   -1.7661138   0.14058685    11201.099     1000 
 1176000   0.35854651   -2.3344497   0.53728195   -1.7971678   0.13004029    11317.653     1000 
 1178000   0.35755586   -2.3291075   0.53579746     -1.79331   0.13768351    11287.928     1000 
 1180000   0.36004167   -2.3433974   0.53952244   -1.8038749   0.13653121    11393.176     1000 
 1182000   0.37223889   -2.3207969   0.55779998   -1.7629969   0.11838571     11502.04     1000 
 1184000   0.36757457   -2.3524656   0.55081049   -1.8016551   0.12814775    11361.985     1000 
 1186000   0.36227347   -2.3175663   0.54286679   -1.7746995   0.13289365    11383.171     1000 
 1188000   0.35823377   -2.3146934   0.53681331   -1.7778801   0.13222176    11351.827     1000 
 1190000   0.37021937   -2.3509513   0.55477373   -1.7961776   0.13870522    11350.693     1000 
 1192000   0.37141547   -2.3350875   0.55656609   -1.7785214   0.11995088    11464.043     1000 
 1194000   0.37213801   -2.3520871   0.55764881   -1.7944383   0.13279631    11334.433     1000 
 1196000   0.36999861   -2.3343018   0.55444291   -1.7798588   0.12246529    11411.462     1000 
 1198000   0.35467886   -2.3365205   0.53148628   -1.8050343   0.12056921    11443.774     1000 
 1200000   0.37277014   -2.3451782   0.55859605   -1.7865822   0.14219853    11238.488     1000 
 1202000   0.34590667   -2.2641519   0.51834114   -1.7458107   0.11878915    11383.124     1000 
 1204000   0.35445439   -2.3218043    0.5311499   -1.7906544   0.12342865    11466.341     1000 
 1206000   0.36749416   -2.3625381      0.55069   -1.8118481   0.11974459    11518.223     1000 
 1208000   0.36752752   -2.3574431   0.55073999   -1.8067031   0.12854353    11403.541     1000 
 1210000   0.37264152   -2.3379501   0.55840332   -1.7795468   0.14716061    11295.647     1000 
 1212000   0.37540208   -2.3262275   0.56254002   -1.7636875   0.13120571    11325.198     1000 
 1214000   0.36578915   -2.3397335   0.54813505   -1.7915985    0.1335783    11355.072     1000 
 1216000   0.35358924   -2.3428073   0.52985347   -1.8129538   0.12425259    11452.035     1000 
 1218000   0.35908497   -2.3638247   0.53808883   -1.8257358   0.13662646    11342.524     1000 
 1220000   0.36360633   -2.3393551   0.54486408    -1.794491   0.11447268     11488.85     1000 
 1222000   0.35515973   -2.3104102   0.53220686   -1.7782033   0.13297568    11254.358     1000 
 1224000   0.37372612   -2.3292377   0.56002859   -1.7692091   0.13646023     11322.31     1000 
 1226000   0.38261641   -2.3150729   0.57335069   -1.7417222   0.14060881    11337.504     1000 
 1228000   0.36156507   -2.3432708   0.54180526   -1.8014655   0.13056599    11458.119     1000 
 1230000    0.3746027   -2.3321089   0.56134215   -1.7707667   0.13492284      11329.1     1000 
 1232000   0.36700944   -2.3420667   0.54996365    -1.792103   0.13850195    11313.071     1000 
 1234000   0.36094216   -2.3075717   0.54087183   -1.7666998   0.13425901    11358.489     1000 
 1236000   0.37205682   -2.3107141   0.55752715   -1.7531869   0.12838907    11341.161     1000 
 1238000   0.36757809   -2.3417272   0.55081576   -1.7909114   0.13569348    11328.221     1000 
 1240000    0.3677143   -2.3579178   0.55101988    -1.806898   0.13093209    11365.616     1000 
 1242000   0.35987808    -2.356971    0.5392773   -1.8176937    0.1296364    11399.639     1000 
 1244000   0.36644546   -2.3510345   0.54911853   -1.8019159   0.11965219    11402.348     1000 
 1246000   0.36891919   -2.3676331   0.55282541   -1.8148077    0.1255471    11494.806     1000 
 1248000   0.35164247   -2.3424235   0.52693624   -1.8154873   0.12030692    11464.044     1000 
 1250000   0.38181165   -2.3347716   0.57214475   -1.7626269   0.11940926    11437.696     1000 
 1252000   0.38776574   -2.3094171   0.58106697   -1.7283502   0.11955342    11448.309     1000 
 1254000   0.34521769   -2.3580101    0.5173087   -1.8407014   0.12191627    11419.419     1000 
 1256000   0.37126857   -2.3324559   0.55634595   -1.7761099   0.13157998    11293.955     1000 
 1258000    0.3599679   -2.3630304    0.5394119   -1.8236185    0.1377833    11395.032     1000 
 1260000   0.36111637   -2.3620211   0.54113288   -1.8208882   0.13402734    11335.271     1000 
 1262000   0.35117951   -2.3354377    0.5262425   -1.8091952   0.12917195    11289.158     1000 
 1264000   0.35666454   -2.3098886   0.53446181   -1.7754268   0.13161209    11371.099     1000 
 1266000   0.35247124   -2.3345874   0.52817815   -1.8064092   0.12331921    11450.514     1000 
 1268000   0.37651107   -2.3056634   0.56420185   -1.7414615    0.1254286    11474.142     1000 
 1270000   0.36620302   -2.2975334   0.54875522   -1.7487782   0.13222719    11368.902     1000 
 1272000   0.37402149   -2.2912373   0.56047121   -1.7307661   0.14311273    11233.203     1000 
 1274000   0.36767955   -2.3498924   0.55096781   -1.7989246   0.13084057    11314.409     1000 
 1276000   0.37064907   -2.3362759   0.55541763   -1.7808583    0.1306538    11428.078     1000 
 1278000   0.36435174   -2.3491467   0.54598108   -1.8031656   0.12623421    11410.002     1000 
 1280000   0.35343666   -2.2927971   0.52962483   -1.7631722   0.13180803    11330.399     1000 
 1282000   0.37022881   -2.3370429   0.55478788    -1.782255    0.1285658    11307.771     1000 
 1284000   0.36172645   -2.3144279   0.54204709   -1.7723808   0.11979554    11461.509     1000 
 1286000   0.37381598   -2.3233358   0.56016325   -1.7631725   0.12950552     11370.31     1000 
 1288000   0.35464532   -2.3308082   0.53143601   -1.7993721    0.1234063    11414.438     1000 
 1290000   0.38688113   -2.3531794   0.57974137   -1.7734381   0.12795991    11509.693     1000 
 1292000   0.37452347   -2.3651994   0.56122342   -1.8039759   0.13191204    11370.017     1000 
 1294000   0.37794044   -2.3068589   0.56634374   -1.7405152    0.1245893    11314.782     1000 
 1296000   0.37290056   -2.3524635   0.55879149    -1.793672   0.12650295    11357.535     1000 
 1298000   0.38463485   -2.3707773   0.57637533   -1.7944019   0.12888837    11445.374     1000 
 1300000   0.35772769   -2.3475161   0.53605494   -1.8114612   0.12585036      11335.1     1000 
 1302000   0.38146834   -2.3661135   0.57163031   -1.7944832   0.12816854     11422.73     1000 
 1304000    0.3680782   -2.3349058   0.55156518   -1.7833406   0.13169012    11381.299     1000 
 1306000    0.3831594   -2.3572117   0.57416436   -1.7830473   0.14409587    11336.193     1000 
 1308000   0.35906062   -2.2993048   0.53805234   -1.7612525   0.13056845    11372.718     1000 
 1310000   0.38156648   -2.3424636   0.57177737   -1.7706862   0.12431022    11389.794     1000 
 1312000    0.3593808   -2.3251082   0.53853214    -1.786576   0.12367335    11436.008     1000 
 1314000   0.37971674   -2.3275673   0.56900554   -1.7585617   0.13641686    11303.881     1000 
 1316000   0.37307764   -2.3493415   0.55905684   -1.7902846   0.13335542    11346.301     1000 
 1318000   0.37407796   -2.3226884   0.56055582   -1.7621326   0.12623057    11446.249     1000 
 1320000   0.39293165    -2.337684   0.58880807   -1.7488759   0.12852787    11438.028     1000 
 1322000   0.37883381   -2.3472638   0.56768246   -1.7795813   0.13677926    11355.299     1000 
 1324000   0.38255174   -2.3572287   0.57325378   -1.7839749    0.1258392     11436.84     1000 
 1326000   0.38363438   -2.3042816   0.57487612   -1.7294055    0.1260124    11399.738     1000 
 1328000   0.38225035   -2.3615445   0.57280216   -1.7887424   0.12686227    11496.649     1000 
 1330000   0.38833515   -2.3329027   0.58192022   -1.7509825   0.12095552    11439.231     1000 
 1332000   0.36696559   -2.3327054   0.54989794   -1.7828075   0.13935185    11354.662     1000 
 1334000   0.36688219   -2.3307204   0.54977296   -1.7809475   0.11634142     11467.15     1000 
 1336000   0.36957027   -2.3643627   0.55380104   -1.8105616   0.10829231     11514.44     1000 
 1338000   0.36945963    -2.319966   0.55363526   -1.7663307    0.1279678     11362.39     1000 
 1340000   0.36043432   -2.3085065   0.54011084   -1.7683957   0.11697889    11387.423     1000 
 1342000   0.36393413   -2.3033914    0.5453553   -1.7580361   0.13013369    11323.593     1000 
 1344000   0.36253003   -2.3375119   0.54325124   -1.7942606   0.12521445    11449.803     1000 
 1346000   0.36095783   -2.3335937   0.54089531   -1.7926984   0.13741226    11295.645     1000 
 1348000   0.36490958   -2.3565848     0.546817   -1.8097678   0.12943097    11410.983     1000 
 1350000   0.37174989   -2.3221436   0.55706721   -1.7650764   0.13199218    11283.997     1000 
 1352000   0.38830701   -2.3646563   0.58187806   -1.7827782   0.12124442    11499.841     1000 
 1354000   0.39085308   -2.3413941   0.58569334   -1.7557007   0.12610346    11513.005     1000 
 1356000   0.37362343   -2.3303674   0.55987471   -1.7704927   0.13512841    11332.186     1000 
 1358000   0.37049314   -2.3353867   0.55518398   -1.7802027   0.12806239    11348.065     1000 
 1360000    0.3647299   -2.3675205   0.54654775   -1.8209727   0.11515785    11542.056     1000 
 1362000   0.36587426   -2.3134307   0.54826258   -1.7651681    0.1373389    11328.204     1000 
 1364000   0.39039628   -2.3583335   0.58500883   -1.7733247   0.13190634    11441.798     1000 
 1366000    0.3750691   -2.3341383   0.56204105   -1.7720972   0.12563835    11392.858     1000 
 1368000   0.38282597   -2.3618644   0.57366471   -1.7881997   0.13562806    11463.381     1000 
 1370000   0.35285273   -2.3150474   0.52874982   -1.7862976   0.12034429    11430.606     1000 
 1372000   0.35394909   -2.3133455   0.53039272   -1.7829527    0.1405709    11289.894     1000 
 1374000   0.36802379   -2.3354646   0.55148364   -1.7839809   0.12626647    11429.985     1000 
 1376000   0.38108597   -2.3375621   0.57105733   -1.7665048   0.13044798    11396.632     1000 
 1378000   0.36134779   -2.3684851   0.54147966   -1.8270054   0.12400286     11421.81     1000 
 1380000   0.38133545    -2.353249   0.57143117   -1.7818178   0.14364803    11350.584     1000 
 1382000   0.36817673   -2.3415648   0.55171282    -1.789852   0.13025564    11325.545     1000 
 1384000   0.36705078   -2.3245922   0.55002559   -1.7745666   0.12183068    11433.364     1000 
 1386000   0.38501497   -2.3250534   0.57694493   -1.7481085   0.12562524    11353.806     1000 
 1388000   0.36282752    -2.306725   0.54369704    -1.763028   0.13907474    11226.407     1000 
 1390000   0.37376431   -2.3676291   0.56008582   -1.8075432   0.13112005    11322.728     1000 
 1392000   0.38142714   -2.3931541   0.57156856   -1.8215855   0.13146713    11394.955     1000 
 1394000   0.37008469    -2.333863   0.55457191   -1.7792911   0.13165035    11492.972     1000 
 1396000   0.37294298   -2.3206696   0.55885505   -1.7618146   0.12625083     11464.15     1000 
 1398000   0.38046711     -2.41329   0.57012996   -1.8431601    0.1354118    11386.839     1000 
 1400000   0.38129358   -2.4042105   0.57136844   -1.8328421   0.11483675    11510.134     1000 
 1402000   0.36375977   -2.3429709   0.54509401   -1.7978769   0.13442292     11364.38     1000 
 1404000   0.38171796    -2.348103   0.57200437   -1.7760986   0.14019503     11301.04     1000 
 1406000   0.37778825   -2.3350239    0.5661157   -1.7689082   0.13309173    11252.506     1000 
 1408000   0.36065578    -2.312268   0.54044269   -1.7718253    0.1386745    11280.192     1000 
 1410000    0.3551677   -2.3272072   0.53221881   -1.7949884   0.12781937    11330.068     1000 
 1412000   0.36579098   -2.3314574   0.54813778   -1.7833196   0.13418015    11324.156     1000 
 1414000   0.36763784   -2.3308344   0.55090531    -1.779929   0.13968429    11319.406     1000 
 1416000   0.37495141   -2.3254956   0.56186469   -1.7636309   0.12781117    11343.244     1000 
 1418000   0.37251077   -2.3111393    0.5582074   -1.7529319   0.12734046    11364.514     1000 
 1420000   0.36368844   -2.3546444   0.54498712   -1.8096573   0.13133648    11340.213     1000 
 1422000   0.37908585   -2.3416842   0.56806015    -1.773624   0.12704035    11390.049     1000 
 1424000    0.3682846   -2.3752363   0.55187447   -1.8233618   0.12508236    11462.148     1000 
 1426000   0.37306285   -2.3192833   0.55903468   -1.7602486   0.13693977    11312.594     1000 
 1428000   0.38261661   -2.3415845   0.57335098   -1.7682335   0.13213641    11372.914     1000 
 1430000   0.38542771    -2.310084   0.57756342   -1.7325205   0.13079358    11357.484     1000 
 1432000   0.36937023   -2.3405975   0.55350129   -1.7870962   0.13462714     11365.22     1000 
 1434000   0.37038139   -2.3485944   0.55501651   -1.7935779   0.12795528    11412.524     1000 
 1436000   0.36652075   -2.3192796   0.54923135   -1.7700483   0.12937809    11367.227     1000 
 1438000   0.38156496   -2.3410237   0.57177509   -1.7692486   0.12531005    11388.458     1000 
 1440000   0.37753433     -2.32153    0.5657352   -1.7557948   0.12944282    11477.042     1000 
 1442000    0.3601431   -2.3228924   0.53967443    -1.783218   0.13463227    11385.412     1000 
 1444000   0.39647099   -2.3540841   0.59411178   -1.7599723   0.12888342    11352.699     1000 
 1446000   0.37055256   -2.3592883   0.55527301   -1.8040153   0.12672455     11419.46     1000 
 1448000   0.37579035   -2.3679455   0.56312183   -1.8048237    0.1273694    11406.239     1000 
 1450000   0.37955308   -2.3104183    0.5687603    -1.741658    0.1374125     11369.76     1000 
 1452000   0.36762974   -2.3470153   0.55089316   -1.7961221    0.1281956    11447.842     1000 
 1454000   0.37635927   -2.2893825   0.56397436   -1.7254082   0.13355298    11396.654     1000 
 1456000   0.37885764   -2.3202276   0.56771818   -1.7525094   0.13386366    11377.228     1000 
 1458000   0.36939142   -2.3109192   0.55353305   -1.7573862   0.12448298    11406.446     1000 
 1460000   0.35488749   -2.3289076    0.5317989   -1.7971087   0.13342279    11376.182     1000 
 1462000   0.36597066   -2.3567187   0.54840703   -1.8083117   0.13302667    11345.899     1000 
 1464000    0.3739511   -2.3171389   0.56036572   -1.7567732   0.12718884    11309.303     1000 
 1466000   0.37381058   -2.3598501   0.56015515    -1.799695   0.12790994    11499.211     1000 
 1468000   0.38072138   -2.3217878   0.57051099   -1.7512768   0.12682497    11417.898     1000 
 1470000   0.37896932   -2.3102687   0.56788553   -1.7423832   0.13560619    11324.635     1000 
 1472000   0.39545801   -2.3410344   0.59259382   -1.7484406   0.12416102    11456.261     1000 
 1474000    0.3550756   -2.3355028   0.53208079   -1.8034221   0.12122137    11478.569     1000 
 1476000   0.36870592   -2.3129188   0.55250582    -1.760413   0.13422644    11276.213     1000 
 1478000   0.35694395   -2.3340089   0.53488052   -1.7991284   0.12907971    11293.916     1000 
 1480000   0.36873304   -2.3226958   0.55254646   -1.7701493   0.12409773    11351.286     1000 
 1482000   0.38711625   -2.3459609    0.5800937   -1.7658672   0.13223119    11332.379     1000 
 1484000   0.37117293   -2.3242488   0.55620263   -1.7680461   0.12346829     11390.32     1000 
 1486000   0.36469494   -2.3117017   0.54649537   -1.7652063   0.12373346    11387.517     1000 
 1488000   0.36341982   -2.3399586    0.5445846    -1.795374   0.13746516    11342.456     1000 
 1490000   0.39599435   -2.3371312   0.59339753   -1.7437336   0.13445516     11304.48     1000 
 1492000   0.36174827   -2.3852214   0.54207978   -1.8431416   0.13404242    11344.387     1000 
 1494000   0.36664173   -2.3496712   0.54941263   -1.8002586   0.13780503    11331.857     1000 
 1496000   0.35834929   -2.3714702   0.53698641   -1.8344838   0.12291822    11444.429     1000 
 1498000   0.34947581   -2.3349774    0.5236895   -1.8112879   0.12784266    11354.272     1000 
 1500000   0.36198716   -2.3514273   0.54243776   -1.8089895    0.1212488      11461.4     1000 
 1502000   0.35681691   -2.3610866   0.53469013   -1.8263965    0.1175393    11426.252     1000 
 1504000   0.38392737   -2.3245422   0.57531517    -1.749227     0.135589     11324.21     1000 
 1506000   0.35392115    -2.339122   0.53035085   -1.8087712   0.12287534    11428.425     1000 
 1508000   0.37121327   -2.3535512   0.55626308   -1.7972882   0.13711302     11279.11     1000 
 1510000   0.37035266   -2.3221218   0.55497345   -1.7671483   0.14092138    11210.626     1000 
 1512000    0.3652051   -2.3247146   0.54725985   -1.7774547   0.13354669    11371.256     1000 
 1514000   0.35545499   -2.3553401    0.5326493   -1.8226908   0.12628128    11388.083     1000 
 1516000   0.37404956   -2.3413614   0.56051326   -1.7808482   0.13942431    11335.151     1000 
 1518000   0.37018365   -2.3153067   0.55472021   -1.7605865   0.13754483    11329.814     1000 
 1520000   0.37656925   -2.3482775   0.56428902   -1.7839885   0.14048724     11311.45     1000 
 1522000    0.3714737   -2.3198408   0.55665334   -1.7631874   0.12624437    11406.042     1000 
 1524000   0.37582304   -2.3277251   0.56317083   -1.7645543    0.1275673     11414.21     1000 
 1526000   0.37095793   -2.3482168   0.55588046   -1.7923363    0.1182052    11398.447     1000 
 1528000   0.38417596   -2.3439433   0.57568767   -1.7682556   0.13792761    11366.242     1000 
 1530000   0.36899891   -2.2958992   0.55294486   -1.7429543   0.12294096    11357.101     1000 
 1532000   0.36851367   -2.3634884   0.55221774   -1.8112706   0.13595824    11341.628     1000 
 1534000   0.35058151    -2.348079   0.52534639   -1.8227327   0.12623095     11351.31     1000 
 1536000    0.3862859    -2.361728   0.57884943   -1.7828786   0.13368321    11350.281     1000 
 1538000   0.36115979   -2.3745049   0.54119795    -1.833307    0.1217758    11455.716     1000 
 1540000   0.38162147   -2.3447054   0.57185977   -1.7728456   0.13969995    11279.383     1000 
 1542000   0.38267924    -2.366315   0.57344485   -1.7928701   0.13054653    11334.286     1000 
 1544000   0.35697339   -2.3331843   0.53492462   -1.7982597   0.12401419    11427.835     1000 
 1546000   0.37407043   -2.3170931   0.56054454   -1.7565485   0.12853256    11355.277     1000 
 1548000   0.37072152   -2.2903654    0.5555262   -1.7348392   0.13022631    11241.095     1000 
 1550000   0.39425119   -2.3233027    0.5907854   -1.7325173      0.13301     11317.05     1000 
 1552000   0.37288253   -2.3477166   0.55876448   -1.7889521   0.11787685    11504.303     1000 
 1554000    0.3624867   -2.3623239   0.54318632   -1.8191376   0.12383955    11339.169     1000 
 1556000   0.37552361   -2.3109777   0.56272213   -1.7482556   0.13223312    11326.145     1000 
 1558000   0.35791223   -2.3026442   0.53633147   -1.7663127   0.14322771    11255.077     1000 
 1560000   0.36341545   -2.3207956   0.54457805   -1.7762175   0.12909031    11333.325     1000 
 1562000    0.3708254   -2.3465308   0.55568186    -1.790849   0.12694452    11457.249     1000 
 1564000   0.37255383   -2.3801917   0.55827192   -1.8219197   0.12579779    11411.511     1000 
 1566000   0.35787756   -2.3115276   0.53627952   -1.7752481   0.13292773    11306.441     1000 
 1568000   0.38035604   -2.3255468   0.56996352   -1.7555833   0.13323432    11406.654     1000 
 1570000   0.36956672   -2.3386633   0.55379572   -1.7848675   0.12335583    11417.464     1000 
 1572000   0.36368827   -2.3035483   0.54498688   -1.7585614   0.12424843    11445.777     1000 
 1574000   0.36316225   -2.3229939   0.54419864   -1.7787952   0.12954337     11390.34     1000 
 1576000   0.38007183   -2.3666265   0.56953763   -1.7970889   0.13156613    11379.058     1000 
 1578000   0.38368226   -2.3274714   0.57494786   -1.7525235   0.12657513    11440.337     1000 
 1580000   0.35431091   -2.3385563   0.53093489   -1.8076214   0.13208536    11355.432     1000 
 1582000   0.35690508   -2.3222305   0.53482227   -1.7874083   0.13674818     11371.28     1000 
 1584000    0.3677179   -2.4000098   0.55102528   -1.8489845    0.1249962    11436.141     1000 
 1586000   0.37238121   -2.3306065   0.55801324   -1.7725932   0.11598655    11450.285     1000 
 1588000   0.36893973   -2.3241165   0.55285619   -1.7712603     0.132748    11388.322     1000 
[...]
 2614000    0.3761335   -2.3077035   0.56363605   -1.7440674   0.12835084    11438.843     1000 
 2616000   0.36494105     -2.32413   0.54686417   -1.7772658   0.12718553    11409.866     1000 
 2618000   0.38335504   -2.3377323   0.57445752   -1.7632748   0.13823798    11310.692     1000 
 2620000   0.38038314   -2.3431519   0.57000414   -1.7731478   0.12535255    11356.457     1000 
 2622000   0.36913372   -2.3294888   0.55314688   -1.7763419   0.12066686    11438.998     1000 
 2624000   0.35663104   -2.3124355   0.53441161   -1.7780239   0.13180948    11388.063     1000 
 2626000   0.36383183   -2.3471956     0.545202   -1.8019936   0.12760311    11275.978     1000 
 2628000   0.38556094   -2.2940694   0.57776307   -1.7163063   0.13446959    11341.523     1000 
 2630000   0.37049147   -2.3368514   0.55518146     -1.78167   0.12309664    11462.362     1000 
 2632000   0.36573546   -2.3270738   0.54805459   -1.7790192   0.13449171    11350.027     1000 
 2634000   0.36334925   -2.3650057   0.54447885   -1.8205268   0.12679018    11413.905     1000 
 2636000   0.37767772   -2.3498075   0.56595006   -1.7838574   0.12925791    11445.791     1000 
 2638000   0.36746696   -2.3582502   0.55064924   -1.8076009   0.13084028    11407.332     1000 
 2640000   0.37728939   -2.3328001   0.56536815    -1.767432   0.13026566    11389.463     1000 
 2642000   0.37355888   -2.3257831   0.55977798   -1.7660051   0.13172467    11290.478     1000 
 2644000    0.3775632    -2.337481   0.56577846   -1.7717025   0.12950485    11450.267     1000 
 2646000   0.36572029   -2.3282612   0.54803185   -1.7802293    0.1323449    11308.244     1000 
 2648000   0.37297858   -2.3349512    0.5589084   -1.7760428   0.13319927    11358.272     1000 
 2650000   0.37059224   -2.3173714   0.55533247    -1.762039   0.11932059    11353.689     1000 
 2652000   0.36435501   -2.3566003   0.54598598   -1.8106143   0.12460427    11424.364     1000 
 2654000   0.36734978   -2.3646506   0.55047364    -1.814177   0.12831499    11405.548     1000 
 2656000   0.37971032   -2.3425019   0.56899592    -1.773506   0.12686285    11401.529     1000 
 2658000   0.35483794   -2.3562361   0.53172465   -1.8245115   0.12042685    11349.145     1000 
 2660000   0.38838481   -2.3314952   0.58199464   -1.7495005   0.13348272    11358.438     1000 
 2662000   0.37663829   -2.3196437   0.56439248   -1.7552513   0.12908246    11399.927     1000 
 2664000   0.35898941   -2.3727229   0.53794562   -1.8347773   0.13173679    11372.756     1000 
 2666000   0.38213575   -2.3328834   0.57263043    -1.760253   0.15279254    11169.905     1000 
 2668000   0.35633837    -2.291111   0.53397305   -1.7571379   0.12993819    11481.186     1000 
 2670000   0.37334892   -2.3447209   0.55946335   -1.7852575   0.13401421     11387.57     1000 
 2672000   0.35912288     -2.34932   0.53814564   -1.8111743    0.1297447    11297.134     1000 
 2674000    0.3714511   -2.3432182   0.55661947   -1.7865987   0.12883502    11405.158     1000 
 2676000   0.36419488   -2.3907429   0.54574602   -1.8449969   0.11798941    11436.965     1000 
 2678000   0.37727352   -2.3124881   0.56534436   -1.7471437   0.13147868    11363.437     1000 
 2680000   0.37005497   -2.3361522   0.55452737   -1.7816249   0.13965696    11293.325     1000 
 2682000   0.36873693   -2.3232382    0.5525523   -1.7706859   0.14673765     11315.25     1000 
 2684000   0.36375117   -2.3245456   0.54508112   -1.7794645   0.12516764    11373.856     1000 
 2686000   0.36753221   -2.2996481   0.55074702   -1.7489011   0.13148881    11349.871     1000 
 2688000   0.36362581   -2.2857407   0.54489328   -1.7408474   0.12480326    11414.156     1000 
 2690000   0.37362335   -2.2955679    0.5598746   -1.7356933   0.12725292    11387.625     1000 
 2692000   0.36286767   -2.3183836   0.54375721   -1.7746264   0.13114219    11329.207     1000 
 2694000   0.37582389   -2.3343185   0.56317209   -1.7711464   0.12959021    11386.268     1000 
 2696000   0.36985339   -2.3306367   0.55422531   -1.7764114   0.13399629    11401.748     1000 
 2698000   0.38674904   -2.3359937   0.57954343   -1.7564502   0.12953148    11440.945     1000 
 2700000   0.37452211   -2.3243459   0.56122138   -1.7631245   0.13397853    11402.875     1000 
 2702000   0.37721303    -2.337926   0.56525372   -1.7726723    0.1221437    11475.276     1000 
 2704000   0.36658999   -2.3069172    0.5493351   -1.7575821   0.12844031    11321.572     1000 
 2706000   0.37965925   -2.3231597   0.56891938   -1.7542403    0.1402055    11329.405     1000 
 2708000   0.37652683    -2.307168   0.56422545   -1.7429425   0.12634822    11330.665     1000 
 2710000   0.38009156   -2.2921865    0.5695672   -1.7226193   0.13289932    11293.445     1000 
 2712000   0.36506293    -2.329473    0.5470468   -1.7824262   0.12660782    11363.138     1000 
 2714000   0.38989044   -2.3341922   0.58425082   -1.7499414   0.13267178    11363.997     1000 
 2716000    0.3676871   -2.3413954   0.55097912   -1.7904163   0.13331443    11357.233     1000 
 2718000   0.35963859   -2.3474979   0.53891843   -1.8085794   0.12650304    11363.089     1000 
 2720000   0.37624056   -2.3606732   0.56379648   -1.7968767   0.13034088    11410.213     1000 
 2722000   0.35354937   -2.3366102   0.52979373   -1.8068164   0.12854391    11346.135     1000 
 2724000   0.35888824   -2.3364821   0.53779402   -1.7986881   0.13807591    11329.982     1000 
 2726000   0.36084517   -2.3675161   0.54072649   -1.8267896   0.11266505     11472.84     1000 
 2728000   0.36712746   -2.3296214    0.5501405   -1.7794809   0.12466577    11430.092     1000 
 2730000   0.36835821   -2.3479089   0.55198478   -1.7959241   0.12342089    11414.889     1000 
 2732000   0.38904566   -2.3301015   0.58298492   -1.7471165   0.12251928    11392.728     1000 
 2734000   0.36657872   -2.2965816   0.54931821   -1.7472634   0.12946854    11368.974     1000 
 2736000   0.36896154    -2.362795   0.55288887   -1.8099062   0.11736146    11433.751     1000 
 2738000   0.37353956   -2.2766717   0.55974904   -1.7169226   0.13773831    11322.856     1000 
 2740000   0.38501079   -2.3300149   0.57693866   -1.7530762   0.13722255    11373.611     1000 
 2742000   0.36111243   -2.3345716   0.54112698   -1.7934446   0.11417542    11442.506     1000 
 2744000   0.38218135   -2.3367621   0.57269876   -1.7640633   0.13506013    11331.418     1000 
 2746000   0.36294327   -2.3763072   0.54387049   -1.8324367   0.13007482    11340.815     1000 
 2748000   0.36875203    -2.327462   0.55257492   -1.7748871   0.13957341    11259.886     1000 
 2750000   0.37714945    -2.316941   0.56515845   -1.7517826   0.13180072    11280.661     1000 
 2752000   0.37701488   -2.3291362   0.56495679   -1.7641794   0.15049754    11144.395     1000 
 2754000   0.37988186   -2.3470325   0.56925296   -1.7777795   0.11808027    11454.707     1000 
 2756000      0.38837   -2.3392807   0.58197244   -1.7573083   0.13679496    11385.151     1000 
 2758000   0.36783915   -2.3262391   0.55120697   -1.7750321    0.1424235    11280.755     1000 
 2760000   0.37690259   -2.2834546   0.56478853   -1.7186661   0.12910861    11361.799     1000 
 2762000   0.37951799   -2.3561541   0.56870771   -1.7874464   0.13130633    11299.817     1000 
 2764000   0.37618469   -2.3249377   0.56371276   -1.7612249   0.12408299    11398.276     1000 
 2766000   0.36480335   -2.3499177   0.54665783   -1.8032599   0.12774396    11395.903     1000 
 2768000   0.37316323   -2.3696326    0.5591851   -1.8104475   0.11862763    11488.871     1000 
 2770000   0.38323996   -2.3576789   0.57428508   -1.7833938   0.13065754    11415.001     1000 
 2772000   0.38135363   -2.3591258   0.57145842   -1.7876673   0.12177288    11442.069     1000 
 2774000   0.36674652   -2.3132797   0.54956967     -1.76371   0.13062682    11300.612     1000 
 2776000   0.35669457   -2.3381533   0.53450682   -1.8036465   0.13014433    11373.967     1000 
 2778000   0.37832247   -2.3500748   0.56691622   -1.7831586   0.13545673    11386.627     1000 
 2780000   0.36177838    -2.356611    0.5421249   -1.8144861   0.13280316    11391.329     1000 
 2782000   0.36786844   -2.3274563   0.55125086   -1.7762054   0.13051269    11337.571     1000 
 2784000   0.36697074   -2.3070665   0.54990565   -1.7571609   0.11979898    11383.704     1000 
 2786000   0.38118082   -2.3465389   0.57119946   -1.7753394   0.14044231    11367.126     1000 
 2788000   0.36380521   -2.3374725    0.5451621   -1.7923104   0.12207468    11379.995     1000 
 2790000   0.36943116    -2.407621   0.55359259   -1.8540284   0.12253274     11397.24     1000 
 2792000   0.37192786   -2.3319189    0.5573339    -1.774585   0.11633123    11462.806     1000 
 2794000   0.37589279   -2.3634598   0.56327534   -1.8001845   0.12727312    11376.905     1000 
 2796000   0.36063804     -2.31609   0.54041611   -1.7756739   0.13152027    11247.373     1000 
 2798000   0.35982404   -2.3372012   0.53919632   -1.7980049   0.13169292    11340.013     1000 
 2800000   0.37604134   -2.3647206   0.56349795   -1.8012226   0.12671876    11410.715     1000 
 2802000   0.36336702   -2.3396988   0.54450549   -1.7951933   0.12734538    11408.586     1000 
 2804000   0.36849621   -2.3570282   0.55219157   -1.8048366   0.13846685     11470.15     1000 
 2806000   0.39084462   -2.3679459   0.58568066   -1.7822652   0.13713191    11359.218     1000 
 2808000   0.35767799   -2.3308624   0.53598047   -1.7948819   0.12853005    11363.709     1000 
 2810000   0.36796848     -2.34464   0.55140076   -1.7932392   0.13569045    11336.235     1000 
 2812000   0.36982831   -2.2647572   0.55418772   -1.7105695   0.14341142    11206.948     1000 
 2814000   0.37925227   -2.3444739   0.56830953   -1.7761644   0.12781479    11368.093     1000 
 2816000    0.3767096   -2.3684682   0.56449934   -1.8039688   0.12379175    11451.691     1000 
 2818000   0.39173488    -2.355477   0.58701472   -1.7684622   0.12942164    11431.524     1000 
 2820000     0.360641   -2.3715885   0.54042055   -1.8311679   0.11944226    11514.646     1000 
 2822000   0.36963692   -2.2834058   0.55390092   -1.7295049   0.12799067      11286.6     1000 
 2824000   0.33318168   -2.3282419   0.49927274   -1.8289692   0.11856467      11459.1     1000 
 2826000   0.35655728   -2.3353048   0.53430109   -1.8010037   0.14803512    11211.563     1000 
 2828000   0.37995602   -2.3761134    0.5693641   -1.8067493   0.12256672    11372.841     1000 
 2830000   0.37220712   -2.3433166   0.55775237   -1.7855642   0.12832803    11413.513     1000 
 2832000   0.37495587   -2.3638546   0.56187137   -1.8019833   0.13758151    11233.729     1000 
 2834000   0.38026054   -2.3495448   0.56982042   -1.7797244    0.1327822    11392.686     1000 
 2836000   0.37631995   -2.3478261   0.56391545   -1.7839106   0.12462612    11393.316     1000 
 2838000   0.37256319   -2.3459335   0.55828594   -1.7876476   0.12651472    11455.739     1000 
 2840000   0.38194075    -2.351717   0.57233821   -1.7793788   0.12969738    11423.564     1000 
 2842000   0.36646429   -2.3191504   0.54914674   -1.7700037   0.12678276    11337.081     1000 
 2844000   0.36413049   -2.3282039   0.54564953   -1.7825544   0.11331849    11494.847     1000 
 2846000   0.37230352   -2.3630796   0.55789683   -1.8051827   0.12929021     11346.55     1000 
 2848000   0.36889067   -2.3395678   0.55278267   -1.7867852   0.12228202    11416.083     1000 
 2850000   0.39915276   -2.3479437    0.5981304   -1.7498133   0.12988363     11383.85     1000 
 2852000   0.36168032   -2.3446001   0.54197796   -1.8026221   0.12537069    11414.863     1000 
 2854000   0.37741696   -2.3109124   0.56555931    -1.745353    0.1381693    11243.606     1000 
 2856000   0.37946837   -2.3446449   0.56863335   -1.7760115   0.12155021    11473.285     1000 
 2858000    0.3700878   -2.3546122   0.55457656   -1.8000356   0.12921903    11325.442     1000 
 2860000   0.35973264   -2.3745995   0.53905936   -1.8355401   0.11267088    11498.596     1000 
 2862000   0.36205545   -2.3758548   0.54254009   -1.8333147   0.13132082    11360.243     1000 
 2864000   0.37031596   -2.3446127   0.55491847   -1.7896942   0.13843378    11318.681     1000 
 2866000   0.36637803   -2.3613312   0.54901748   -1.8123138   0.12187693    11409.804     1000 
 2868000   0.37853396   -2.3262113   0.56723314   -1.7589782    0.1365319    11287.525     1000 
 2870000   0.36256643   -2.3253628   0.54330579    -1.782057   0.12870555    11324.427     1000 
 2872000   0.36184931   -2.3568463    0.5422312   -1.8146151   0.11767283    11449.703     1000 
 2874000   0.38626506   -2.3056281   0.57881819   -1.7268099   0.13196071    11390.261     1000 
 2876000   0.37939304   -2.3309376   0.56852048   -1.7624171   0.13705837    11347.302     1000 
 2878000   0.37599235   -2.2995936   0.56342454    -1.736169   0.13080742    11338.407     1000 
 2880000   0.36657135   -2.3477828   0.54930716   -1.7984757   0.12359839    11392.566     1000 
 2882000   0.37286516   -2.3094258   0.55873843   -1.7506874   0.14044321    11327.106     1000 
 2884000   0.39026064    -2.338557   0.58480557   -1.7537515   0.12018548    11439.767     1000 
 2886000   0.38548735   -2.3474759    0.5776528   -1.7698231   0.13472627      11411.5     1000 
 2888000   0.38924684   -2.3393763   0.58328639   -1.7560899   0.13185493     11315.99     1000 
 2890000   0.34953539   -2.2963793   0.52377878   -1.7726006   0.12648515    11363.513     1000 
 2892000   0.36776236   -2.3389536   0.55109189   -1.7878617    0.1268504     11350.17     1000 
 2894000   0.37781062   -2.3409515   0.56614921   -1.7748023   0.14365749    11300.076     1000 
 2896000   0.37758592    -2.350618    0.5658125   -1.7848055     0.125913    11396.056     1000 
 2898000   0.37570957   -2.3234967   0.56300079   -1.7604959   0.13242775    11433.781     1000 
 2900000   0.36201532   -2.3395486   0.54247996   -1.7970687     0.130725    11412.181     1000 
 2902000   0.36300768   -2.3080401   0.54396701   -1.7640731   0.14522719      11218.6     1000 
 2904000   0.36792684   -2.3306653   0.55133836    -1.779327   0.13853797    11260.257     1000 
 2906000   0.37101436    -2.388565   0.55596502      -1.8326   0.11618454    11418.271     1000 
 2908000   0.36543728   -2.3667847   0.54760776    -1.819177   0.11475039     11555.35     1000 
 2910000     0.360336   -2.3559548    0.5399635   -1.8159913   0.13074586     11365.98     1000 
 2912000   0.36106085   -2.3321537   0.54104969   -1.7911041   0.12572392    11408.029     1000 
 2914000   0.36764162   -2.3083526   0.55091097   -1.7574416    0.1344151     11397.08     1000 
 2916000   0.35606184   -2.3627523   0.53355867   -1.8291936   0.11835394    11521.634     1000 
 2918000   0.37168801   -2.3332181   0.55697448   -1.7762436   0.13326301    11339.228     1000 
 2920000   0.36974886     -2.28059   0.55406867   -1.7265213   0.13788858    11305.771     1000 
 2922000   0.37779057   -2.3064762   0.56611917    -1.740357   0.13921418    11353.639     1000 
 2924000   0.37909324   -2.3151773   0.56807123   -1.7471061   0.13375714    11334.055     1000 
 2926000   0.36564714   -2.3272785   0.54792224   -1.7793563   0.13193164    11338.147     1000 
 2928000   0.37003906   -2.3207203   0.55450353   -1.7662167   0.12891587    11484.654     1000 
 2930000   0.36629043   -2.3532872   0.54888621    -1.804401   0.11821079    11330.171     1000 
 2932000   0.37098523   -2.3471271   0.55592136   -1.7912057   0.12711816    11380.918     1000 
 2934000    0.3726426   -2.3808597   0.55840494   -1.8224547   0.12279154    11428.998     1000 
 2936000   0.36952415   -2.3394483   0.55373194   -1.7857163     0.129305    11327.758     1000 
 2938000   0.36467256   -2.3309305   0.54646184   -1.7844687   0.12525746    11449.672     1000 
 2940000   0.38149711   -2.3230088   0.57167342   -1.7513353   0.13920422    11316.998     1000 
 2942000   0.36074629   -2.3325724   0.54057832   -1.7919941   0.12562276    11337.043     1000 
 2944000   0.36353288   -2.3462169   0.54475402   -1.8014629   0.13499756    11347.698     1000 
 2946000   0.36168384   -2.3166702   0.54198323    -1.774687   0.13516297    11335.779     1000 
 2948000   0.36836115   -2.3443225   0.55198919   -1.7923333   0.11698509    11416.884     1000 
 2950000   0.36319374   -2.3249179   0.54424581    -1.780672   0.11778637    11487.909     1000 
 2952000   0.37375678   -2.3121956   0.56007454    -1.752121   0.13402642    11304.559     1000 
 2954000   0.40496405   -2.3321635   0.60683863   -1.7253249   0.13685161    11384.131     1000 
 2956000   0.37091809   -2.3347292   0.55582076   -1.7789084   0.15400886    11189.006     1000 
 2958000   0.36375062   -2.3375808    0.5450803   -1.7925005   0.13030206    11376.258     1000 
 2960000   0.37306238   -2.3411562   0.55903398   -1.7821222   0.11881657    11512.738     1000 
 2962000   0.37252575   -2.3019301   0.55822983   -1.7437003    0.1272101    11382.601     1000 
 2964000   0.38481176   -2.3356409   0.57664043   -1.7590005   0.13354223    11380.227     1000 
 2966000   0.36228497   -2.2635482   0.54288403   -1.7206642   0.13672832    11269.484     1000 
 2968000   0.37343775   -2.3032586   0.55959647   -1.7436622   0.13900045    11300.441     1000 
 2970000   0.37483241   -2.3294777   0.56168637   -1.7677914   0.13177455    11336.523     1000 
 2972000   0.37502902   -2.3274004   0.56198098   -1.7654194   0.13603918    11311.949     1000 
 2974000   0.36242379   -2.3278014   0.54309206   -1.7847093   0.12857399    11356.762     1000 
 2976000   0.36393956   -2.3680162   0.54536342   -1.8226527   0.12675367     11363.55     1000 
 2978000   0.37532528   -2.3382302   0.56242494   -1.7758052    0.1133642    11482.077     1000 
 2980000   0.37823516   -2.3269676   0.56678539   -1.7601822   0.13277259    11308.648     1000 
 2982000   0.36830419   -2.3272992   0.55190383   -1.7753954   0.13683337    11286.598     1000 
 2984000   0.35914452   -2.3034347   0.53817806   -1.7652566   0.13178493    11338.172     1000 
 2986000    0.3557765   -2.3275043   0.53313109   -1.7943732   0.13196724    11399.133     1000 
 2988000    0.3587017    -2.326224    0.5375145   -1.7887095   0.10912979    11477.604     1000 
 2990000   0.37497228     -2.31981   0.56189596    -1.757914    0.1203394    11370.805     1000 
 2992000   0.38234794   -2.3476261   0.57294839   -1.7746777   0.13384466    11328.534     1000 
 2994000   0.36952721   -2.3092938   0.55373652   -1.7555573     0.136688    11332.027     1000 
 2996000   0.36803197   -2.3318951    0.5514959   -1.7803992   0.12549527     11331.37     1000 
 2998000   0.37738154   -2.3464952   0.56550624    -1.780989    0.1291395    11354.739     1000 
 3000000   0.37508852   -2.3271078   0.56207015   -1.7650376   0.12652587    11384.272     1000 
Loop time of 1148.98 on 1 procs for 3000000 steps with 1000 atoms

Performance: 1127953.348 tau/day, 2611.003 timesteps/s
100.0% CPU use with 1 MPI tasks x 1 OpenMP threads

MPI task timing breakdown:
Section |  min time  |  avg time  |  max time  |%varavg| %total
---------------------------------------------------------------
Pair    | 903.29     | 903.29     | 903.29     |   0.0 | 78.62
Neigh   | 143.23     | 143.23     | 143.23     |   0.0 | 12.47
Comm    | 24.361     | 24.361     | 24.361     |   0.0 |  2.12
Output  | 0.016749   | 0.016749   | 0.016749   |   0.0 |  0.00
Modify  | 72.661     | 72.661     | 72.661     |   0.0 |  6.32
Other   |            | 5.422      |            |       |  0.47

Nlocal:        1000.00 ave        1000 max        1000 min
Histogram: 1 0 0 0 0 0 0 0 0 0
Nghost:        2182.00 ave        2182 max        2182 min
Histogram: 1 0 0 0 0 0 0 0 0 0
Neighs:        27760.0 ave       27760 max       27760 min
Histogram: 1 0 0 0 0 0 0 0 0 0

Total # of neighbors = 27760
Ave neighs/atom = 27.760000
Neighbor list builds = 150000
Dangerous builds not checked

Total wall time: 0:19:09
