LAMMPS (29 Sep 2021 - Update 2)
OMP_NUM_THREADS environment is not set. Defaulting to 1 thread. (src/comm.cpp:98)
  using 1 OpenMP thread(s) per MPI task
# ----------------------- Inicialização -----------------------

units			lj
atom_style 		atomic
dimension 		3
boundary 		p p p

# -------------------- Criação dos Átomos ---------------------

read_data 		topologia.txt
Reading data file ...
  orthogonal box = (0.0000000 0.0000000 0.0000000) to (21.540000 21.540000 21.540000)
  1 by 1 by 1 MPI processor grid
  reading atoms ...
  1000 atoms
  read_data CPU = 0.005 seconds

velocity 		all create ${temp} 87287 rot yes dist gaussian
velocity 		all create 0.56 87287 rot yes dist gaussian

# ------------------ Interação Interatômica -------------------

pair_style		table linear 1000
pair_coeff		1 1 force.table AA 5.0
WARNING: 2 of 1000 force values in table AA are inconsistent with -dE/dr.
WARNING:  Should only be flagged at inflection points (src/pair_table.cpp:465)
pair_coeff		1 2 force.table AB 5.0
WARNING: 1 of 1000 force values in table AB are inconsistent with -dE/dr.
WARNING:  Should only be flagged at inflection points (src/pair_table.cpp:465)
pair_coeff		2 2 force.table BB 5.0
pair_write		1 1 1000 r 0.008 5.0 table.check AA
Appending to table file table.check with DATE: 2023-06-15
Neighbor list info ...
  update every 1 steps, delay 10 steps, check yes
  max neighbors/atom: 2000, page size: 100000
  master list distance cutoff = 5.3
  ghost atom cutoff = 5.3
  binsize = 2.65, bins = 9 9 9
  1 neighbor lists, perpetual/occasional/extra = 1 0 0
  (1) pair table, perpetual
      attributes: half, newton on
      pair build: half/bin/atomonly/newton
      stencil: half/bin/3d
      bin: standard
pair_write		1 2 1000 r 0.008 5.0 table.check AB
Appending to table file table.check with DATE: 2023-06-15
pair_write		2 2 1000 r 0.008 5.0 table.check BB
Appending to table file table.check with DATE: 2023-06-15

neighbor 		0.3 bin
neigh_modify		every 20 delay 0 check no

# ------------------------- Ensemble --------------------------------------

fix 1			all npt temp ${temp} ${temp} 0.5 iso ${press} ${press} 5
fix 1			all npt temp 0.56 ${temp} 0.5 iso ${press} ${press} 5
fix 1			all npt temp 0.56 0.56 0.5 iso ${press} ${press} 5
fix 1			all npt temp 0.56 0.56 0.5 iso 0.13 ${press} 5
fix 1			all npt temp 0.56 0.56 0.5 iso 0.13 0.13 5

# ---------------------- Função de Distribuição Radial -----------------------

#compute RDF 		all rdf 2000 1 1 1 2 2 2
#fix 2 			all ave/time 1 2000 2000 c_RDF[*] file rdf.data mode vector

# ------------------------- Execução ---------------------------

timestep 		0.005
thermo_style		custom step temp pe ke etotal press vol atoms
thermo			2000
run			3000000
Per MPI rank memory allocation (min/avg/max) = 2.670 | 2.670 | 2.670 Mbytes
Step Temp PotEng KinEng TotEng Press Volume Atoms 
       0         0.56  -0.99052333      0.83916  -0.15136333   0.12507829    9993.9483     1000 
    2000   0.53968176   -1.7417563   0.80871312  -0.93304321   0.11894569    11535.845     1000 
    4000   0.55983536   -1.7100033   0.83891329  -0.87108997   0.12695979    11443.558     1000 
    6000   0.56118326   -1.7606569   0.84093312  -0.91972374   0.12324447    11547.466     1000 
    8000   0.55715911   -1.7750331   0.83490292  -0.94013019   0.12431197    11595.792     1000 
   10000   0.54566457   -1.7705148   0.81767835   -0.9528365   0.12215578    11480.902     1000 
   12000   0.55900676   -1.8004623   0.83767163  -0.96279064   0.13089185    11519.981     1000 
   14000   0.57657304   -1.7953051    0.8639947  -0.93131041   0.12224708    11668.883     1000 
   16000   0.53894889   -1.6866369   0.80761492  -0.87902197   0.14682135    11089.706     1000 
   18000   0.56276637   -1.7733466    0.8433054  -0.93004124   0.13881746    11303.684     1000 
   20000    0.5617578   -1.7534302   0.84179407   -0.9116361   0.12924847    11484.373     1000 
   22000   0.55746135     -1.80696   0.83535583  -0.97160413   0.12755504    11604.058     1000 
   24000   0.55533893   -1.7288244   0.83217538  -0.89664906   0.13374778    11493.973     1000 
   26000   0.54778747   -1.7557433   0.82085952  -0.93488377   0.12709321    11516.257     1000 
   28000   0.57283315   -1.7213037   0.85839047  -0.86291322   0.13699802    11462.011     1000 
   30000   0.56118563   -1.7497602   0.84093667  -0.90882349   0.12679461    11426.541     1000 
   32000   0.57751794   -1.7555709   0.86541064  -0.89016029    0.1414671    11429.661     1000 
   34000   0.59940913   -1.7341819   0.89821458  -0.83596736    0.1324379    11425.311     1000 
   36000   0.58150361   -1.7523422   0.87138315  -0.88095906   0.13757049     11439.51     1000 
   38000   0.54205637   -1.7288064   0.81227148   -0.9165349   0.13396367    11411.349     1000 
   40000   0.53901353   -1.7346507   0.80771178  -0.92693888   0.13325518    11496.301     1000 
   42000   0.56384292   -1.7255301   0.84491862   -0.8806115    0.1278428    11387.633     1000 
   44000   0.55881221   -1.7541705    0.8373801  -0.91679039   0.13005284     11499.68     1000 
   46000    0.5482623   -1.7031432   0.82157105  -0.88157218   0.12813996    11413.591     1000 
   48000   0.55423319   -1.7488637   0.83051844  -0.91834525   0.12440425    11641.422     1000 
   50000   0.54491269   -1.7583949   0.81655166  -0.94184324   0.10277394    11815.768     1000 
   52000   0.54851067   -1.6760676   0.82194324  -0.85412434   0.14231196    11304.188     1000 
   54000   0.56205794   -1.6900937   0.84224382  -0.84784992   0.14566736    11315.975     1000 
   56000   0.56519721   -1.7477987   0.84694801  -0.90085066    0.1276749    11461.607     1000 
   58000   0.55262387   -1.8063156   0.82810686  -0.97820876     0.131316    11542.615     1000 
   60000   0.54412916    -1.740521   0.81537755  -0.92514348   0.12541606    11442.839     1000 
   62000   0.59336562   -1.8034106   0.88915839  -0.91425224   0.13645287    11431.209     1000 
   64000   0.57338686    -1.756926   0.85922021  -0.89770576   0.13468283    11461.111     1000 
   66000   0.54507842   -1.7845861   0.81680002  -0.96778607   0.12445678    11430.563     1000 
   68000   0.56114268   -1.7919591    0.8408723  -0.95108682   0.11971294    11636.725     1000 
   70000   0.53499499   -1.7650585   0.80168999  -0.96336851   0.11834421    11586.809     1000 
   72000   0.53539072   -1.7400561   0.80228299  -0.93777313    0.1354327    11390.679     1000 
   74000   0.54850477   -1.7635541   0.82193439  -0.94161971   0.13788072    11448.507     1000 
   76000   0.57044079   -1.7771597   0.85480553  -0.92235416   0.13417333    11496.685     1000 
   78000   0.55052682   -1.7610364   0.82496444  -0.93607197   0.12384884    11561.458     1000 
   80000   0.55875446    -1.793033   0.83729355  -0.95573946   0.13057916    11335.934     1000 
   82000   0.55234229   -1.7548723   0.82768492  -0.92718733   0.11576876     11531.94     1000 
   84000   0.57374997   -1.7718734   0.85976433  -0.91210909   0.12274489    11520.007     1000 
   86000   0.56854998   -1.7352034   0.85197215  -0.88323122   0.12967056    11546.603     1000 
   88000   0.59198669    -1.795501   0.88709206  -0.90840898   0.13215044    11619.054     1000 
   90000   0.58724561   -1.7956576   0.87998755  -0.91567002   0.12011285    11543.587     1000 
   92000   0.57544186   -1.8175054   0.86229963  -0.95520576   0.13205745    11470.051     1000 
   94000   0.56476373   -1.7681517   0.84629844  -0.92185321   0.13629825    11317.479     1000 
   96000   0.56419865   -1.7364752   0.84545167  -0.89102353   0.13286407    11419.078     1000 
   98000   0.55766267   -1.7532495   0.83565751  -0.91759195   0.13297565    11401.021     1000 
  100000   0.57866021   -1.7640905   0.86712233  -0.89696819   0.13252513    11441.244     1000 
  102000   0.57063881   -1.7714101   0.85510226  -0.91630788   0.12817648    11554.134     1000 
  104000   0.56335136   -1.7798013   0.84418201  -0.93561933   0.12393526    11448.265     1000 
  106000   0.57914471    -1.736783   0.86784835  -0.86893468   0.12232134    11457.914     1000 
  108000   0.56724264   -1.8296369    0.8500131  -0.97962376   0.13340861    11460.725     1000 
  110000   0.53530521   -1.7142062   0.80215485  -0.91205136   0.12803839     11215.48     1000 
  112000   0.56298833   -1.7290672   0.84363801  -0.88542924   0.14505423    11320.846     1000 
  114000    0.5763254   -1.7126684    0.8636236  -0.84904481   0.13955308    11234.542     1000 
  116000   0.58440668   -1.8004877   0.87573342  -0.92475431   0.13584299    11380.622     1000 
  118000   0.54614552   -1.7810953   0.81839906  -0.96269625   0.11891775     11634.85     1000 
  120000   0.55895855   -1.7948928   0.83759939  -0.95729339   0.12718605    11421.512     1000 
  122000    0.5693902   -1.8146225   0.85323121   -0.9613913   0.12228092    11574.208     1000 
  124000   0.56126461    -1.739351   0.84105501  -0.89829603   0.11707891    11432.424     1000 
  126000   0.55254631   -1.7462631   0.82799064  -0.91827241   0.13128882    11348.175     1000 
  128000   0.53840194   -1.7472133   0.80679531  -0.94041796   0.12697602    11449.173     1000 
  130000   0.57653747   -1.7715833    0.8639414  -0.90764192   0.11986593    11597.409     1000 
  132000   0.55533925   -1.7765422   0.83217587  -0.94436637   0.13795332    11429.199     1000 
  134000   0.56095963   -1.7449665     0.840598  -0.90436845   0.13933658     11300.24     1000 
  136000   0.56246824   -1.7745779   0.84285865  -0.93171924   0.12747961    11473.809     1000 
  138000   0.54888981   -1.7286586   0.82251138  -0.90614726   0.12758958    11307.319     1000 
  140000   0.57727865   -1.7881135   0.86505206  -0.92306142   0.13876969    11449.031     1000 
  142000   0.55939616   -1.7891059   0.83825515  -0.95085071   0.11819751     11560.35     1000 
  144000   0.55860508   -1.7506842   0.83706971  -0.91361452   0.12094426    11673.749     1000 
  146000   0.55512003   -1.7578784   0.83184737  -0.92603099   0.12681023    11422.947     1000 
  148000   0.55934956   -1.7403203   0.83818532  -0.90213498   0.13855632    11475.258     1000 
  150000   0.56027311   -1.8052866   0.83956926  -0.96571739    0.1298205     11499.31     1000 
  152000   0.56049306   -1.7513096   0.83989885  -0.91141073   0.13001984    11378.122     1000 
  154000   0.58975432   -1.7205994   0.88374686  -0.83685258   0.13032821    11458.323     1000 
  156000   0.55560094   -1.7204418     0.832568  -0.88787381   0.13638953    11335.221     1000 
  158000   0.54792648    -1.800094   0.82106784  -0.97902612   0.12284898    11561.861     1000 
  160000   0.56811721   -1.8066374   0.85132364  -0.95531375   0.12121703    11572.625     1000 
  162000   0.58623128   -1.7414434   0.87846757  -0.86297585   0.13033799    11329.668     1000 
  164000   0.57724752   -1.7353998   0.86500541  -0.87039443   0.13253758    11460.587     1000 
  166000   0.59828673   -1.7751103   0.89653267   -0.8785776   0.13200714    11361.108     1000 
  168000   0.55426937   -1.7632909   0.83057265  -0.93271822   0.12567331    11610.257     1000 
  170000   0.54581097   -1.7925848   0.81789773  -0.97468707   0.11375961    11586.701     1000 
  172000   0.54157333   -1.7872003   0.81154764  -0.97565265   0.11890737    11597.108     1000 
  174000   0.53677863   -1.7821472   0.80436277  -0.97778443   0.14354911    11223.263     1000 
  176000   0.54285877   -1.7713273   0.81347386  -0.95785342   0.12599592    11468.892     1000 
  178000   0.55398014   -1.8458919   0.83013925   -1.0157527    0.1193813    11602.643     1000 
  180000    0.5762731   -1.7570529   0.86354523  -0.89350766   0.12148429    11516.594     1000 
  182000   0.52447195    -1.685422   0.78592122  -0.89950075   0.14027103    11145.515     1000 
  184000   0.55524177   -1.7675748   0.83202979  -0.93554504   0.12825258    11528.227     1000 
  186000   0.55320386   -1.7613103   0.82897599  -0.93233434   0.12801969    11365.098     1000 
  188000   0.55869986   -1.7362213   0.83721173  -0.89900959   0.12012686    11591.036     1000 
  190000    0.5772933   -1.7123077   0.86507401  -0.84723369   0.14126642     11442.08     1000 
  192000   0.57476527   -1.8119041   0.86128576  -0.95061833   0.12204088    11620.036     1000 
  194000    0.6010036   -1.7298327   0.90060389  -0.82922883   0.13900998    11356.154     1000 
  196000   0.55456876   -1.8023352   0.83102128   -0.9713139   0.12724126    11291.628     1000 
  198000   0.54586061   -1.7861943   0.81797212  -0.96822215   0.12159365    11464.553     1000 
  200000   0.53912203   -1.7540649   0.80787436  -0.94619057   0.12366031    11431.669     1000 
  202000   0.56372859   -1.7212471   0.84474729  -0.87649981   0.12719292    11332.109     1000 
  204000   0.55764934   -1.7398707   0.83563753  -0.90423314   0.12992571    11417.269     1000 
  206000   0.58529143   -1.7892912   0.87705921  -0.91223203    0.1402539    11415.535     1000 
  208000   0.57124956   -1.7792169   0.85601746  -0.92319944    0.1301484    11582.444     1000 
  210000   0.58665308   -1.7785191   0.87909964  -0.89941944   0.13068748    11436.791     1000 
  212000   0.56950868   -1.7449483   0.85340876  -0.89153952   0.12444951    11463.607     1000 
  214000   0.56244997   -1.7068672   0.84283129  -0.86403596   0.12841487    11376.309     1000 
  216000   0.56433052   -1.7428638   0.84564929  -0.89721455   0.12348543    11606.234     1000 
  218000   0.55302607   -1.7933671   0.82870957  -0.96465754   0.11962576    11668.398     1000 
  220000   0.56414863   -1.7686844   0.84537672  -0.92330769   0.12762681    11584.143     1000 
  222000   0.56106683   -1.8269474   0.84075864  -0.98618881   0.13395946    11502.554     1000 
  224000   0.54347769   -1.8044979   0.81440132  -0.99009661   0.12860544    11627.441     1000 
  226000   0.56418375   -1.7717051   0.84542934  -0.92627574   0.11794322    11609.628     1000 
  228000   0.55385841   -1.7193939   0.82995683  -0.88943706   0.12224968    11471.757     1000 
  230000   0.58385282     -1.77938   0.87490345  -0.90447654   0.13024334    11537.686     1000 
  232000   0.56306513   -1.7814011    0.8437531  -0.93764803   0.11676693     11794.49     1000 
  234000   0.53553811   -1.7415369   0.80250386  -0.93903301   0.13751091    11446.102     1000 
  236000   0.56589121   -1.7326912   0.84798797  -0.88470325   0.13637295    11333.401     1000 
  238000   0.55923855   -1.7982411   0.83801897  -0.96022216   0.12602117    11509.557     1000 
  240000   0.53001517   -1.7651076   0.79422773  -0.97087989   0.13400456    11351.314     1000 
  242000   0.56418004   -1.7397337    0.8454238   -0.8943099   0.12498655    11413.657     1000 
  244000   0.55872727   -1.7701501   0.83725282  -0.93289726   0.13242453    11509.777     1000 
  246000   0.56687659   -1.7531307   0.84946457  -0.90366609   0.11840128    11601.457     1000 
  248000   0.54249569   -1.8380033   0.81292979   -1.0250735   0.12916174    11619.574     1000 
  250000    0.5626085   -1.7612698   0.84306884  -0.91820099     0.133304    11377.352     1000 
  252000   0.55574274   -1.7528371   0.83278049   -0.9200566   0.13064849    11497.097     1000 
  254000   0.55471446    -1.722651   0.83123961  -0.89141143   0.14024168    11419.348     1000 
  256000   0.57807046   -1.7773484   0.86623858  -0.91110977   0.14665598    11210.236     1000 
  258000   0.52837421   -1.7874325   0.79176875  -0.99566379   0.13808784    11403.383     1000 
  260000   0.56966489   -1.7427395   0.85364284   -0.8890967   0.12956394    11544.083     1000 
  262000   0.54944896   -1.7387339   0.82334927  -0.91538467   0.13327956    11367.445     1000 
  264000   0.54858506   -1.7233459   0.82205471  -0.90129123   0.12688954     11316.26     1000 
  266000   0.57932536   -1.7326954   0.86811905  -0.86457633    0.1338143    11481.163     1000 
  268000   0.53700751   -1.7418398   0.80470575    -0.937134   0.14373492    11314.848     1000 
  270000   0.55708452   -1.7788945   0.83479116  -0.94410339   0.12118204    11621.694     1000 
  272000   0.54822042   -1.7453488    0.8215083  -0.92384048   0.12944204    11346.771     1000 
  274000   0.56801484   -1.7691518   0.85117024  -0.91798158   0.10988274    11729.614     1000 
  276000   0.58091685   -1.7504836   0.87050391  -0.87997966   0.13834904    11466.605     1000 
  278000   0.54944913   -1.7263771   0.82334953  -0.90302755   0.11847703    11661.132     1000 
  280000   0.56733373   -1.7410638    0.8501496  -0.89091421    0.1216849    11463.662     1000 
  282000   0.54563339   -1.7603197   0.81763164  -0.94268807   0.12031792    11546.895     1000 
  284000   0.53787922   -1.7400307   0.80601201  -0.93401866   0.11200068    11603.084     1000 
  286000   0.57834597   -1.7718161   0.86665143  -0.90516469   0.13140851    11443.305     1000 
  288000   0.54574572   -1.7658718   0.81779995  -0.94807186    0.1392059    11424.725     1000 
  290000   0.54066291   -1.8161977   0.81018338   -1.0060144   0.11570835    11620.678     1000 
  292000   0.58375967   -1.7075976   0.87476386  -0.83283378    0.1202521    11554.289     1000 
  294000   0.55811365   -1.7519429   0.83633331  -0.91560962    0.1343021    11439.527     1000 
  296000   0.55954961   -1.7676559   0.83848509  -0.92917077   0.13308028    11492.293     1000 
  298000   0.57583449   -1.8103844   0.86288798   -0.9474964   0.12246904    11580.848     1000 
  300000   0.55618355   -1.7560963   0.83344105  -0.92265522   0.11635512    11464.487     1000 
  302000   0.56533042   -1.8010983   0.84714763  -0.95395064   0.14047255    11428.532     1000 
  304000   0.55431142   -1.7430634   0.83063566  -0.91242779   0.13771221     11396.48     1000 
  306000   0.58275732   -1.7931067   0.87326184  -0.91984481   0.12980599    11514.738     1000 
  308000   0.57332646   -1.7210022    0.8591297  -0.86187247   0.13935138    11329.111     1000 
  310000   0.52700042    -1.781165   0.78971013   -0.9914549   0.12734255    11546.872     1000 
  312000   0.55558208   -1.8347887   0.83253975   -1.0022489   0.13643425    11506.536     1000 
  314000   0.55708419   -1.7610283   0.83479066  -0.92623763   0.11215549     11595.44     1000 
  316000   0.57591294   -1.7795496   0.86300553  -0.91654404   0.13020192     11432.08     1000 
  318000   0.56439441   -1.7418405   0.84574502  -0.89609548   0.13038745     11476.02     1000 
  320000   0.52420095   -1.7147819   0.78551512  -0.92926678   0.12913885    11476.045     1000 
  322000   0.57097825   -1.7384823    0.8556109  -0.88287143   0.13119353    11485.935     1000 
  324000   0.56513396      -1.7184   0.84685324  -0.87154671   0.13038024    11324.497     1000 
  326000   0.54305868    -1.779829   0.81377343  -0.96605553   0.13827053     11376.32     1000 
  328000   0.56150325   -1.7366252   0.84141262  -0.89521261   0.12893099    11489.041     1000 
  330000   0.56008195   -1.7251766    0.8392828  -0.88589377   0.12227436    11489.467     1000 
  332000   0.55709135   -1.7683517   0.83480138  -0.93355036   0.13210965     11344.74     1000 
  334000   0.54889459    -1.768193   0.82251854  -0.94567445   0.14126535    11460.304     1000 
  336000   0.55096621   -1.7888506   0.82562287  -0.96322776   0.13344867    11504.873     1000 
  338000   0.56705709   -1.6806811   0.84973504  -0.83094602   0.13098657    11404.772     1000 
  340000   0.56692752   -1.7499286   0.84954089  -0.90038773   0.14105004    11369.029     1000 
  342000   0.57836257   -1.7604623   0.86667631  -0.89378601   0.13886816    11489.031     1000 
  344000   0.56508518   -1.7708123   0.84678015  -0.92403215   0.12464666    11418.982     1000 
  346000   0.54755892   -1.7596215   0.82051704  -0.93910451   0.12278887    11581.691     1000 
  348000   0.56504389   -1.7574117   0.84671826  -0.91069345   0.13254809    11444.919     1000 
  350000   0.56227304   -1.7870207   0.84256615  -0.94445453   0.12311325    11548.414     1000 
  352000    0.5561018     -1.66653   0.83331855  -0.83321142   0.13834556    11371.541     1000 
  354000   0.56485717   -1.7516447   0.84643847  -0.90520622   0.12968789    11521.736     1000 
  356000   0.55870173   -1.7710049   0.83721454  -0.93379034    0.1201835    11712.769     1000 
  358000   0.54027992   -1.7529726   0.80960946  -0.94336312   0.12468843    11601.885     1000 
  360000   0.54299667   -1.7835756   0.81368051  -0.96989505   0.12646873    11521.226     1000 
  362000   0.55720658     -1.76461   0.83497406  -0.92963595   0.12177722    11529.254     1000 
  364000   0.55710712   -1.7288705   0.83482501  -0.89404544   0.14086053    11408.502     1000 
  366000   0.53375835   -1.7287175   0.79983689  -0.92888057   0.13434725    11214.914     1000 
  368000   0.56311253   -1.7252305   0.84382412  -0.88140637   0.14356919    11361.418     1000 
  370000   0.54759621   -1.7335027   0.82057291  -0.91292974    0.1352736    11348.524     1000 
  372000   0.58437228   -1.7805014   0.87568186  -0.90481958   0.14057039    11242.429     1000 
  374000   0.57374646   -1.7350482   0.85975907  -0.87528912   0.12760006    11497.929     1000 
  376000   0.56970153   -1.7728384   0.85369774  -0.91914071   0.12199173    11699.727     1000 
  378000   0.59325543   -1.8199294   0.88899327  -0.93093616   0.12721883    11404.515     1000 
  380000   0.56911462    -1.716144   0.85281825  -0.86332576   0.11549727     11685.31     1000 
  382000   0.56212774   -1.7347604   0.84234841  -0.89241197   0.12869175    11451.491     1000 
  384000   0.54865282   -1.7415459   0.82215625  -0.91938963   0.12139097    11507.686     1000 
  386000   0.53992958   -1.7787017   0.80908448  -0.96961725   0.13265678    11321.372     1000 
  388000   0.60356857   -1.7780981    0.9044475  -0.87365055    0.1303043    11531.384     1000 
  390000   0.56307052   -1.6893488   0.84376117  -0.84558759   0.13052299    11402.002     1000 
  392000   0.58019398   -1.8100458   0.86942067  -0.94062513   0.12029614    11531.046     1000 
  394000   0.55787367   -1.7212187   0.83597369    -0.885245   0.12139362     11454.21     1000 
  396000   0.54549249   -1.7982391   0.81742049  -0.98081857   0.12718082    11579.002     1000 
  398000   0.55139982   -1.7897768   0.82627264  -0.96350413   0.13128769      11395.6     1000 
  400000   0.58097822   -1.7755041   0.87059586  -0.90490824   0.11871134    11533.235     1000 
  402000   0.54660959   -1.7668182   0.81909447  -0.94772369   0.12248251    11476.644     1000 
  404000   0.56869018    -1.719722   0.85218223  -0.86753978   0.13038147    11522.473     1000 
  406000   0.54779245   -1.7563304   0.82086698  -0.93546345   0.11803801     11562.89     1000 
  408000   0.56161563   -1.7163089   0.84158102  -0.87472785   0.13491599    11320.792     1000 
  410000   0.57320694   -1.8033246    0.8589506  -0.94437399   0.12621901    11593.686     1000 
  412000   0.56013484   -1.7804158   0.83936206  -0.94105375   0.12752948    11395.465     1000 
  414000   0.56807527   -1.7627922   0.85126079  -0.91153145   0.11408007     11388.58     1000 
  416000   0.54962847   -1.7355088   0.82361826  -0.91189056   0.14574777    11229.986     1000 
  418000   0.57815017   -1.8003001   0.86635802  -0.93394212   0.12713666    11399.502     1000 
  420000    0.5426783   -1.7704606   0.81320343  -0.95725722   0.12950293    11607.268     1000 
  422000   0.55321314   -1.7613469   0.82898989  -0.93235698   0.11529408    11776.604     1000 
  424000    0.5530234   -1.7880321   0.82870557  -0.95932649    0.1264812    11751.489     1000 
  426000   0.58473925   -1.7695801   0.87623176  -0.89334839   0.12585181    11732.145     1000 
  428000   0.55906978   -1.7967694   0.83776607   -0.9590033   0.12111219     11555.25     1000 
  430000   0.56611023   -1.7596454   0.84831618  -0.91132922   0.12958038    11466.981     1000 
  432000   0.56385005   -1.7441939   0.84492931  -0.89926462   0.13985143    11432.601     1000 
  434000   0.54863898   -1.7125105   0.82213552    -0.890375   0.13178323    11351.071     1000 
  436000    0.5502891    -1.692696   0.82460822   -0.8680878   0.13745607    11250.189     1000 
  438000   0.57924974   -1.7188407   0.86800573  -0.85083496   0.14696482    11352.656     1000 
  440000   0.56041052   -1.7955641   0.83977516  -0.95578898   0.12897306    11403.826     1000 
  442000    0.5522479   -1.7007955   0.82754348  -0.87325205   0.13329448    11420.037     1000 
  444000   0.55759272   -1.7398292   0.83555269   -0.9042765   0.12507783    11436.128     1000 
  446000   0.58405367   -1.7755981   0.87520442  -0.90039372   0.13259087    11496.757     1000 
  448000   0.57252207   -1.7372325   0.85792432  -0.87930813    0.1423709    11271.203     1000 
  450000   0.55930305   -1.7574686   0.83811562  -0.91935298   0.12128532    11462.179     1000 
  452000   0.54619873   -1.7775712    0.8184788  -0.95909239   0.12147611    11481.108     1000 
  454000   0.57955576   -1.7708951   0.86846431  -0.90243083    0.1322367    11495.245     1000 
  456000   0.56661952   -1.7552676   0.84907935  -0.90618823   0.13781341    11408.299     1000 
  458000   0.54896174    -1.768627   0.82261917   -0.9460078   0.13443865    11373.011     1000 
  460000   0.55041833   -1.7309771   0.82480187  -0.90617525   0.12637004     11453.55     1000 
  462000   0.55201947   -1.7992843   0.82720117  -0.97208315   0.12622177    11636.225     1000 
  464000   0.57431745   -1.7559351   0.86061471  -0.89532039    0.1411579    11397.395     1000 
  466000   0.56452551   -1.7906342   0.84594147  -0.94469271   0.11712126     11617.35     1000 
  468000    0.5545631   -1.7698247    0.8310128  -0.93881186    0.1292348    11397.931     1000 
  470000   0.56958708   -1.7716335   0.85352624  -0.91810728   0.13724938    11493.975     1000 
  472000   0.58403879   -1.7325251   0.87518212  -0.85734302    0.1352639     11426.41     1000 
  474000   0.54551417   -1.7286363   0.81745299  -0.91118327      0.13671    11460.678     1000 
  476000   0.56502022   -1.7570026   0.84668281   -0.9103198   0.12203362    11405.527     1000 
  478000   0.54055502   -1.7774387    0.8100217  -0.96741704   0.14005267    11380.274     1000 
  480000   0.57177006   -1.7540321   0.85679744  -0.89723467   0.12476238    11416.309     1000 
  482000   0.53569417   -1.7531573   0.80273772  -0.95041962   0.11937031     11611.72     1000 
  484000   0.55382013   -1.8060459   0.82989946  -0.97614644   0.12014685    11634.359     1000 
  486000   0.53147018   -1.7725193   0.79640806  -0.97611122   0.13070219    11419.134     1000 
  488000   0.56351131   -1.8081202    0.8444217  -0.96369847   0.12218473    11525.508     1000 
  490000   0.57135619   -1.7214785   0.85617726  -0.86530126   0.14048987    11264.784     1000 
  492000   0.55483762   -1.7481235   0.83142417  -0.91669934   0.12923319     11449.46     1000 
  494000   0.52829233   -1.7278779   0.79164606  -0.93623185   0.13833842    11205.876     1000 
  496000   0.57279634   -1.8039483   0.85833531  -0.94561301   0.12393106    11374.193     1000 
  498000   0.55782049   -1.8075193     0.835894  -0.97162533   0.13817039    11517.317     1000 
  500000   0.53659527   -1.7732498   0.80408801  -0.96916176   0.11654462    11494.301     1000 
  502000   0.56290156   -1.8350516   0.84350799  -0.99154365   0.12537663    11669.489     1000 
  504000   0.56342957   -1.7423988   0.84429921  -0.89809963   0.12368505    11501.562     1000 
  506000    0.5615263    -1.736286   0.84144717  -0.89483879     0.143702    11350.542     1000 
  508000   0.53850743   -1.7028288   0.80695339  -0.89587542   0.14276546    11360.083     1000 
  510000   0.53924875   -1.7534801   0.80806426  -0.94541583   0.12782193    11499.402     1000 
  512000    0.5751785   -1.7967575   0.86190498  -0.93485251   0.12790941    11590.096     1000 
  514000    0.5492743   -1.7806339   0.82308754  -0.95754634   0.13604662     11310.59     1000 
  516000   0.58326644   -1.7640995   0.87402476  -0.89007479   0.12552858    11558.438     1000 
  518000   0.54563177   -1.7291599   0.81762921  -0.91153072   0.13232862     11504.79     1000 
  520000    0.5355972   -1.7380636    0.8025924  -0.93547118   0.12372992    11292.213     1000 
  522000   0.54225833   -1.7027653    0.8125741  -0.89019116   0.12083813    11441.213     1000 
  524000   0.57693666   -1.7831951   0.86453958  -0.91865549   0.12704345    11555.515     1000 
  526000   0.54346772   -1.7739193   0.81438638  -0.95953294   0.12817401    11479.411     1000 
  528000   0.54725682   -1.7543252   0.82006435  -0.93426081   0.15015355    11212.393     1000 
  530000   0.55439761    -1.763089   0.83076481  -0.93232417   0.12674465    11487.369     1000 
  532000   0.59029759   -1.7786228   0.88456094  -0.89406182   0.12167012    11505.432     1000 
  534000   0.56501907   -1.7666677   0.84668107  -0.91998658   0.13811641    11528.941     1000 
  536000   0.55397204   -1.7650332   0.83012711  -0.93490608   0.14702157    11253.362     1000 
  538000   0.54033394   -1.7562867    0.8096904  -0.94659633   0.13892088    11431.574     1000 
  540000   0.56160557   -1.7691572   0.84156595  -0.92759129   0.13383795    11368.655     1000 
  542000   0.57706395   -1.7941464   0.86473034  -0.92941611   0.12719513    11604.782     1000 
  544000   0.56485318   -1.7693139   0.84643249  -0.92288145   0.11930762    11613.728     1000 
  546000   0.57117237   -1.7796966    0.8559018  -0.92379483   0.12429793    11601.446     1000 
  548000   0.54642835   -1.7754473   0.81882289  -0.95662442   0.13349594      11436.9     1000 
  550000    0.5742751   -1.7388606   0.86055124  -0.87830936   0.14499856    11368.701     1000 
  552000   0.54295872   -1.7521838   0.81362364  -0.93856019   0.13390421    11328.699     1000 
  554000   0.56930615   -1.7545741   0.85310526  -0.90146879   0.13769794    11370.782     1000 
  556000   0.55910593   -1.7493074   0.83782024  -0.91148713   0.14421845    11168.893     1000 
  558000   0.54946318   -1.7020567   0.82337058  -0.87868616    0.1264307    11406.285     1000 
  560000   0.55050459   -1.8452594   0.82493112   -1.0203283   0.11605642    11715.862     1000 
  562000   0.57140803   -1.7860998   0.85625493  -0.92984482   0.13767478    11389.451     1000 
  564000   0.57665011   -1.8030719   0.86411018  -0.93896176   0.13409807    11445.435     1000 
  566000   0.53419683   -1.7505672   0.80049394  -0.95007325   0.11564418    11606.814     1000 
  568000   0.53662369   -1.7793569    0.8041306  -0.97522626   0.12032963    11570.558     1000 
  570000   0.56524554   -1.7829728   0.84702044  -0.93595231   0.13629061    11450.314     1000 
  572000   0.57687409   -1.7577508   0.86444582    -0.893305   0.12433558    11458.429     1000 
  574000   0.54588932   -1.6981265   0.81801515  -0.88011135   0.12432087     11471.09     1000 
  576000   0.55820319   -1.7229687   0.83646748  -0.88650123   0.12119661    11583.678     1000 
  578000   0.56910505   -1.7458917   0.85280391  -0.89308775   0.12378677    11434.003     1000 
  580000   0.56532804   -1.8114519   0.84714407  -0.96430782   0.13123678     11477.99     1000 
  582000   0.54154468   -1.7816213   0.81150471  -0.97011659   0.11999589    11677.209     1000 
  584000   0.55331105   -1.7700676    0.8291366  -0.94093099   0.13289758    11536.926     1000 
  586000   0.54327853   -1.7390406   0.81410287  -0.92493769   0.12958575    11517.096     1000 
  588000   0.58308265   -1.7792447   0.87374936  -0.90549533   0.12740618    11512.138     1000 
  590000   0.57173018    -1.722614   0.85673767  -0.86587636   0.13911911    11400.166     1000 
  592000   0.55962677   -1.7499153   0.83860071  -0.91131458   0.12791159     11478.88     1000 
  594000   0.53309631   -1.7550409   0.79884482  -0.95619608   0.13607913    11319.762     1000 
  596000   0.56632068   -1.7305373   0.84863154  -0.88190572   0.12563936    11583.188     1000 
  598000   0.54283751   -1.7968352   0.81344201   -0.9833932   0.12412651    11580.545     1000 
  600000   0.55784901   -1.7102467   0.83593675  -0.87430992   0.13354173    11284.098     1000 
  602000   0.55490123   -1.8003664   0.83151949  -0.96884689   0.11995189    11473.262     1000 
  604000   0.56503668   -1.7500821   0.84670747  -0.90337461   0.13115283    11350.299     1000 
  606000   0.56903925   -1.7651758   0.85270531  -0.91247052   0.11461587    11502.154     1000 
  608000   0.57643344   -1.7762402    0.8637855  -0.91245467   0.11576074    11557.285     1000 
  610000   0.58443653   -1.7841152   0.87577814  -0.90833703    0.1242725    11708.636     1000 
  612000   0.56081415   -1.7846723      0.84038  -0.94429232   0.11794125    11674.868     1000 
  614000   0.55692083   -1.7818835   0.83454586  -0.94733761   0.12448499    11522.054     1000 
  616000   0.54730136   -1.7622004   0.82013109  -0.94206935   0.12064305     11498.42     1000 
  618000     0.566195   -1.8256048   0.84844321  -0.97716159   0.13450489     11420.18     1000 
  620000   0.53482971   -1.7369096   0.80144233  -0.93546726   0.11984791     11379.16     1000 
  622000   0.55893993   -1.7127617   0.83757148  -0.87519018   0.13690851    11237.651     1000 
  624000   0.60676366   -1.7934927   0.90923534  -0.88425737   0.14564796    11423.424     1000 
  626000   0.55475966   -1.7406901   0.83130734  -0.90938275   0.14571957    11322.253     1000 
  628000   0.58650861   -1.7562321   0.87888315  -0.87734897   0.14111737    11195.963     1000 
  630000   0.54297959   -1.7787277   0.81365492   -0.9650728   0.13100926    11348.821     1000 
  632000   0.58106254    -1.772519   0.87072222  -0.90179678   0.13145299    11658.186     1000 
  634000   0.59569261   -1.7311329   0.89264537  -0.83848754    0.1197827    11705.449     1000 
  636000    0.5571565   -1.7751887   0.83489901  -0.94028965   0.12950779    11534.764     1000 
  638000   0.54448188   -1.7737338    0.8159061  -0.95782771   0.12681508    11550.519     1000 
  640000   0.57696286   -1.7661154   0.86457884  -0.90153658   0.13119706    11643.252     1000 
  642000   0.55405704    -1.734693   0.83025447  -0.90443855   0.13986288    11347.255     1000 
  644000   0.56356989   -1.7669539   0.84450948   -0.9224444   0.13204151    11493.074     1000 
  646000    0.5669007   -1.7501117    0.8495007  -0.90061095   0.13012226    11524.209     1000 
  648000   0.56836146     -1.70545   0.85168965  -0.85376035   0.12236406     11498.36     1000 
  650000   0.55655098   -1.7797509   0.83399165  -0.94575924   0.12609887    11624.429     1000 
  652000    0.5774215   -1.7677491   0.86526612  -0.90248294   0.12660391    11492.453     1000 
  654000   0.56341333   -1.7189199   0.84427488  -0.87464504   0.12377932    11439.244     1000 
  656000   0.55837704   -1.8207852   0.83672799  -0.98405716   0.12577425     11635.77     1000 
  658000   0.53913504   -1.7256477   0.80789386  -0.91775387   0.13431908    11332.525     1000 
  660000   0.57100233   -1.7518366   0.85564699  -0.89618965   0.13282771    11348.915     1000 
  662000   0.53655349    -1.766117    0.8040254  -0.96209161   0.13298128    11463.515     1000 
  664000   0.57549061   -1.8368769   0.86237268  -0.97450422   0.12946804    11683.138     1000 
  666000    0.5534043   -1.7643134   0.82927635  -0.93503706   0.12769335    11533.372     1000 
  668000   0.56395541   -1.7639941   0.84508718  -0.91890693   0.14682568    11292.956     1000 
  670000   0.57614299    -1.748543   0.86335027  -0.88519277   0.13254224    11500.874     1000 
  672000   0.53440032   -1.7574171   0.80079888  -0.95661818    0.1325843    11460.258     1000 
  674000   0.56513797   -1.7034899   0.84685924  -0.85663064   0.13826135    11372.376     1000 
  676000   0.57434917   -1.7836452   0.86066224  -0.92298301   0.13385241    11449.386     1000 
  678000   0.56707069   -1.7440454   0.84975543  -0.89428999   0.13926707    11301.836     1000 
  680000   0.55667279   -1.7984519   0.83417418  -0.96427777   0.12994638    11402.009     1000 
  682000   0.56279415   -1.7295672   0.84334704  -0.88622016   0.13868936    11366.373     1000 
  684000   0.57093086   -1.7089412    0.8555399  -0.85340131   0.14575124    11415.168     1000 
  686000   0.54461603   -1.7737078   0.81610713  -0.95760072   0.12962672    11465.761     1000 
  688000   0.55650405   -1.7705893   0.83392132  -0.93666803   0.12899912    11506.331     1000 
  690000    0.5810115   -1.7798038   0.87064573  -0.90915805   0.11605429    11554.767     1000 
  692000    0.5775148   -1.7780871   0.86540593  -0.91268119   0.13452641     11426.29     1000 
  694000    0.5586425   -1.7509463   0.83712579  -0.91382049   0.13540646    11401.761     1000 
  696000   0.55607902   -1.7390029   0.83328441  -0.90571845   0.11620214    11452.605     1000 
  698000   0.57001496   -1.7395229   0.85416742  -0.88535545   0.13163618    11403.622     1000 
  700000   0.57126137   -1.7484987   0.85603516  -0.89246359   0.12150299    11621.115     1000 
  702000   0.55889726   -1.7752459   0.83750755  -0.93773839   0.13415311    11465.911     1000 
  704000   0.55951419   -1.7777741   0.83843201   -0.9393421   0.11855618    11601.842     1000 
  706000   0.56946535   -1.7411055   0.85334382  -0.88776167    0.1441549    11293.522     1000 
  708000   0.56861265   -1.7637378   0.85206606  -0.91167174    0.1221024    11639.538     1000 
  710000   0.54912655   -1.7863201   0.82286613  -0.96345396   0.12122461    11631.052     1000 
  712000   0.59427246   -1.7678875   0.89051728  -0.87737025   0.13203503    11450.476     1000 
  714000    0.5549013   -1.7702147   0.83151959  -0.93869513   0.13324469    11552.301     1000 
  716000   0.53486884   -1.7518468   0.80150095  -0.95034584   0.13313986    11382.651     1000 
  718000   0.56466263   -1.7737517   0.84614696  -0.92760471   0.12544714    11443.946     1000 
  720000   0.54981457   -1.7176497   0.82389714  -0.89375261   0.13528528    11426.555     1000 
  722000   0.55396178   -1.7477045   0.83011173   -0.9175928   0.14378875    11269.666     1000 
  724000   0.56618023    -1.769136   0.84842108  -0.92071497   0.12985402    11536.211     1000 
  726000   0.54457782   -1.7066673   0.81604987  -0.89061739   0.12955855    11376.391     1000 
  728000   0.56545538    -1.794168   0.84733489   -0.9468331   0.13377198    11539.778     1000 
  730000   0.56809347   -1.7182522   0.85128807  -0.86696416   0.13320886    11298.001     1000 
  732000   0.54926056   -1.7575468   0.82306695  -0.93447983   0.13915083    11367.281     1000 
  734000   0.57632606   -1.7098089   0.86362459  -0.84618427   0.13625367     11320.27     1000 
  736000   0.53945493   -1.7726773   0.80837322  -0.96430406    0.1395046    11342.998     1000 
  738000   0.55431636   -1.7813045   0.83064307  -0.95066145   0.13244849     11531.08     1000 
  740000   0.55432632   -1.8415933   0.83065799   -1.0109353   0.12430304    11562.715     1000 
  742000   0.54446729   -1.7839118   0.81588424  -0.96802757   0.11919239    11603.324     1000 
  744000   0.54764377   -1.7747047   0.82064418   -0.9540605   0.11956411    11543.959     1000 
  746000   0.56162892   -1.7162901   0.84160094  -0.87468913   0.12742083    11461.198     1000 
  748000   0.55956813   -1.7464759   0.83851284  -0.90796302   0.13231111    11490.552     1000 
  750000   0.54677203   -1.7358873   0.81933789  -0.91654944   0.12657658    11567.616     1000 
  752000   0.55429628   -1.7608146   0.83061297  -0.93020159    0.1222152    11498.618     1000 
  754000   0.54289197   -1.7551633   0.81352361  -0.94163964   0.13529547    11439.158     1000 
  756000   0.56281025   -1.7173164   0.84337116   -0.8739452   0.13547001    11464.623     1000 
  758000    0.5653128   -1.8164792   0.84712123  -0.96935794   0.13821506    11403.303     1000 
  760000   0.55027268    -1.797923   0.82458362  -0.97333935   0.12390399    11452.315     1000 
  762000   0.59052505   -1.8022467   0.88490179  -0.91734494   0.12856219    11640.778     1000 
  764000   0.54743274   -1.7436521   0.82032796  -0.92332415   0.13875964    11397.393     1000 
  766000   0.56262496   -1.7742424    0.8430935  -0.93114891   0.12657197    11462.256     1000 
  768000   0.55315633   -1.7536585   0.82890476  -0.92475377   0.11957562    11550.323     1000 
  770000   0.59025115   -1.7467645   0.88449135  -0.86227318    0.1354606    11290.415     1000 
  772000   0.54864016   -1.7668671   0.82213728  -0.94472984   0.12869554    11512.343     1000 
  774000   0.57294834   -1.8159218   0.85856309   -0.9573587   0.14403974    11257.808     1000 
  776000   0.53201656   -1.8150314   0.79722682   -1.0178046   0.12735201    11512.118     1000 
  778000   0.59495163   -1.7402137   0.89153502  -0.84867872   0.13208898    11503.035     1000 
  780000   0.56031044   -1.6982045    0.8396252  -0.85857932   0.14017812    11289.277     1000 
  782000   0.56062422   -1.7412122    0.8400954  -0.90111681   0.12154914    11407.361     1000 
  784000   0.55269063   -1.7593195   0.82820691  -0.93111256   0.13510694    11367.019     1000 
  786000   0.54543158   -1.7797061   0.81732923  -0.96237688   0.12131436    11641.856     1000 
  788000   0.56750151   -1.7545657   0.85040101  -0.90416466   0.12666693    11492.498     1000 
  790000   0.57623643   -1.7272094   0.86349029  -0.86371914    0.1381827    11280.358     1000 
  792000   0.54484511   -1.7675959    0.8164504   -0.9511455   0.13008724    11399.878     1000 
  794000   0.56346204   -1.7977955   0.84434786  -0.95344768   0.11630451      11835.9     1000 
  796000    0.5575402   -1.7879182   0.83547399  -0.95244416   0.13516757    11423.771     1000 
  798000   0.58816365   -1.8016767   0.88136323  -0.92031346   0.13139286     11444.77     1000 
  800000    0.5508044   -1.7594868   0.82538039  -0.93410641   0.11238129    11675.356     1000 
  802000   0.54586055   -1.7968334   0.81797203  -0.97886136   0.12097431    11405.945     1000 
  804000   0.55609852    -1.775771   0.83331364  -0.94245736     0.128301    11510.213     1000 
  806000   0.55848928   -1.6917062   0.83689619  -0.85481005   0.13694124    11278.267     1000 
  808000   0.55348242   -1.7352429   0.82939341  -0.90584949   0.13127239     11312.19     1000 
  810000   0.57871327   -1.7608823   0.86720184  -0.89368047   0.11939367    11661.952     1000 
  812000    0.5255965    -1.740666   0.78760635   -0.9530596   0.12901412    11334.595     1000 
  814000   0.54846798   -1.7244406   0.82187926  -0.90256129   0.14572321    11251.536     1000 
  816000   0.54629631    -1.760457   0.81862502  -0.94183194   0.12733056    11515.827     1000 
  818000   0.56555585     -1.74793   0.84748544  -0.90044457   0.13736937    11588.452     1000 
  820000   0.54154273   -1.7700124   0.81150178  -0.95851063    0.1305464    11427.244     1000 
  822000   0.52642378   -1.7659074   0.78884603  -0.97706142   0.12479056    11446.845     1000 
  824000   0.55415707   -1.7747559   0.83040437  -0.94435151   0.12664522    11549.404     1000 
  826000   0.55251522   -1.7369083   0.82794406  -0.90896427   0.13864133    11344.137     1000 
  828000   0.57521392   -1.7269286   0.86195806  -0.86497051   0.14442894    11159.801     1000 
  830000   0.55387795   -1.7903102   0.82998611  -0.96032408   0.12946516    11600.998     1000 
  832000   0.55141947   -1.7505534   0.82630208  -0.92425132   0.12935637    11494.661     1000 
  834000   0.56310885   -1.7680142   0.84381861  -0.92419561   0.13130077    11482.831     1000 
  836000   0.56495556   -1.7653738   0.84658591  -0.91878786   0.12178547     11570.02     1000 
  838000   0.54914588   -1.7537291   0.82289509  -0.93083401   0.13405237    11332.905     1000 
  840000    0.5877851   -1.7651767   0.88079597  -0.88438078   0.13567028    11519.366     1000 
  842000   0.55197955   -1.7252896   0.82714136  -0.89814828   0.13475799    11342.774     1000 
  844000   0.57482503   -1.7686429   0.86137531  -0.90726757   0.14227763     11352.36     1000 
  846000   0.55821629   -1.7374415   0.83648711   -0.9009544   0.14509349    11295.009     1000 
  848000   0.55340233   -1.7259276   0.82927339   -0.8966542   0.13648711    11252.954     1000 
  850000   0.53507261   -1.7697227   0.80180631  -0.96791637   0.13953506    11388.506     1000 
  852000   0.55522534   -1.7359416   0.83200517  -0.90393645   0.13344863    11315.066     1000 
  854000   0.53569659   -1.7581983   0.80274134  -0.95545698   0.12903046    11559.967     1000 
  856000   0.56054125   -1.7717065   0.83997106  -0.93173543   0.12455861    11514.613     1000 
  858000   0.55181825   -1.8341296   0.82689965   -1.0072299   0.11731407    11659.103     1000 
  860000   0.55830375   -1.7546024   0.83661817   -0.9179842   0.12988409    11544.497     1000 
  862000   0.53920526   -1.7580122   0.80799908  -0.95001314   0.13170977    11332.733     1000 
  864000   0.52983428   -1.7457136   0.79395668  -0.95175696   0.13076835    11434.895     1000 
  866000   0.54943217   -1.8123787   0.82332411  -0.98905459    0.1347117    11517.629     1000 
  868000   0.56958648   -1.7721168   0.85352535  -0.91859147   0.13646582    11344.889     1000 
  870000   0.56322283    -1.725597   0.84398941  -0.88160761   0.14589046    11452.299     1000 
  872000   0.55735015   -1.7461346    0.8351892  -0.91094535   0.12572855    11550.801     1000 
  874000   0.55517268   -1.7562927   0.83192626  -0.92436649   0.13046758    11448.564     1000 
  876000   0.55401873   -1.7494817   0.83019707   -0.9192846   0.13077253    11466.842     1000 
  878000   0.53764244    -1.766176    0.8056572  -0.96051884   0.11398537    11541.846     1000 
  880000   0.54021475   -1.7330154    0.8095118  -0.92350358   0.13826026    11343.597     1000 
  882000   0.53325168   -1.7666764   0.79907764  -0.96759875   0.11718405    11541.094     1000 
  884000   0.56594601    -1.770721    0.8480701  -0.92265092   0.13725835    11551.439     1000 
  886000   0.55445035   -1.7317225   0.83084385  -0.90087863    0.1456292    11383.212     1000 
  888000   0.57297377   -1.7754993   0.85860119  -0.91689812   0.14413761    11351.041     1000 
  890000    0.5772995   -1.7203387    0.8650833  -0.85525542   0.13129774    11419.286     1000 
  892000   0.58441511   -1.7552585   0.87574605  -0.87951247   0.13601638    11533.333     1000 
  894000   0.57407777   -1.7641294   0.86025553  -0.90387383   0.13702689    11339.575     1000 
  896000   0.57830193   -1.7912058   0.86658544  -0.92462036   0.13279829     11529.13     1000 
  898000   0.54993827    -1.736984    0.8240825  -0.91290147   0.13612903    11389.872     1000 
  900000    0.5810977   -1.7328612    0.8707749  -0.86208634   0.14170726    11425.281     1000 
  902000   0.54672577   -1.7743261   0.81926856  -0.95505758   0.13829136    11348.673     1000 
  904000   0.55858437   -1.7922038   0.83703868  -0.95516511   0.12660933    11373.133     1000 
  906000   0.53827684    -1.772245   0.80660785  -0.96563711   0.12537967    11480.388     1000 
  908000   0.55237127   -1.8168661   0.82772835  -0.98913778   0.12424913    11438.031     1000 
  910000   0.55651319   -1.7341063   0.83393502  -0.90017129   0.13438095    11393.559     1000 
  912000   0.57404044   -1.7415145    0.8601996   -0.8813149    0.1301922    11499.642     1000 
  914000   0.55900165    -1.754443   0.83766397  -0.91677908    0.1173143    11698.658     1000 
  916000   0.55073676   -1.8066192   0.82527904  -0.98134017   0.13215953    11504.564     1000 
  918000   0.56573246   -1.7735893   0.84775009  -0.92583925   0.12314728    11543.475     1000 
  920000   0.58210976   -1.7656405   0.87229147  -0.89334907   0.14034181    11412.405     1000 
  922000   0.53563046   -1.7981469   0.80264224  -0.99550464   0.14230254     11361.35     1000 
  924000   0.60746778   -1.7572393   0.91029046  -0.84694886   0.14835614    11328.422     1000 
  926000   0.58318489   -1.7470097   0.87390256  -0.87310716   0.12580228    11385.464     1000 
  928000   0.56017712   -1.8141002   0.83942542  -0.97467477   0.13356554    11493.032     1000 
  930000    0.5492894   -1.7469404   0.82311016  -0.92383025   0.12602635    11400.742     1000 
  932000    0.5669413   -1.7806505   0.84956153  -0.93108895   0.13553398    11388.098     1000 
  934000      0.56655   -1.6955514   0.84897517  -0.84657619   0.13704618    11357.519     1000 
  936000   0.53663589   -1.7661765   0.80414887  -0.96202767   0.13147882    11462.149     1000 
  938000    0.5372878   -1.7742654   0.80512576  -0.96913968   0.12048071    11479.795     1000 
  940000    0.5743529   -1.7652903   0.86066782  -0.90462252   0.10860707    11628.125     1000 
  942000   0.56986986   -1.7655643   0.85394999  -0.91161436   0.12925753    11602.683     1000 
  944000    0.5677266   -1.7504848   0.85073831  -0.89974645   0.11799183    11544.291     1000 
  946000   0.55206567   -1.7947169   0.82727041  -0.96744648   0.12111163      11621.2     1000 
  948000   0.56640314   -1.6906048    0.8487551  -0.84184968   0.13945538    11332.796     1000 
  950000   0.54522391   -1.7670248   0.81701804  -0.95000675   0.11634976    11533.769     1000 
  952000   0.55198924   -1.7624871   0.82715588   -0.9353312   0.12267107    11664.097     1000 
  954000   0.55748999   -1.7889399   0.83539874  -0.95354111   0.12415693    11578.468     1000 
  956000     0.569454   -1.7575206   0.85332682  -0.90419381   0.12614973    11451.799     1000 
  958000   0.57204409   -1.7469739   0.85720807  -0.88976587   0.13545976    11456.512     1000 
  960000   0.56591157   -1.7555893   0.84801849  -0.90757082   0.12763399    11607.037     1000 
  962000   0.55764474   -1.7878764   0.83563065  -0.95224577   0.13621807    11456.417     1000 
  964000   0.54052716   -1.7569645   0.80997995  -0.94698456   0.12078719    11469.609     1000 
  966000   0.55901239   -1.7703347   0.83768007  -0.93265461    0.1430207    11317.677     1000 
  968000   0.55945788   -1.8446863   0.83834764   -1.0063387   0.11698924    11704.845     1000 
  970000   0.57399691   -1.7249352   0.86013437  -0.86480087   0.14005986     11395.57     1000 
  972000   0.54341074   -1.7639988     0.814301  -0.94969784   0.12399082    11531.709     1000 
  974000   0.58702887   -1.7542747   0.87966276  -0.87461198    0.1360847    11381.513     1000 
  976000   0.55859913   -1.7449383   0.83706079  -0.90787749   0.13703504    11382.416     1000 
  978000   0.56464416   -1.7717091   0.84611928  -0.92558982   0.13736703    11399.817     1000 
  980000   0.56211783   -1.7669213   0.84233356   -0.9245877   0.12992661    11510.634     1000 
  982000   0.53723644   -1.7882614   0.80504881  -0.98321256   0.13451701    11281.666     1000 
  984000   0.57436467   -1.7566403   0.86068546  -0.89595482   0.12479394    11563.086     1000 
  986000   0.57132602   -1.7625501   0.85613204  -0.90641805   0.12241804    11566.846     1000 
  988000    0.5597299   -1.7508159   0.83875526  -0.91206064   0.12181818    11434.783     1000 
  990000   0.55455761   -1.7710537   0.83100457  -0.94004909     0.117809    11503.229     1000 
  992000    0.5558867   -1.7711561   0.83299622  -0.93815991   0.13225334    11436.737     1000 
  994000   0.56333965   -1.7633095   0.84416446  -0.91914499   0.14037521    11322.996     1000 
  996000   0.57652391   -1.7690686   0.86392108  -0.90514748   0.12903346     11401.55     1000 
  998000   0.54932843   -1.7514735   0.82316865  -0.92830488   0.13100784    11364.969     1000 
 1000000   0.57217192   -1.7519372   0.85739962  -0.89453755   0.13404401    11394.876     1000 
 1002000   0.56019737   -1.7305126   0.83945575  -0.89105689   0.12829862    11520.381     1000 
 1004000   0.54960362    -1.755945   0.82358103  -0.93236396   0.11744328    11523.551     1000 
 1006000   0.53732134    -1.754777   0.80517602  -0.94960094   0.13199975     11441.57     1000 
 1008000   0.57680389   -1.7589757   0.86434063  -0.89463504   0.13355273    11440.218     1000 
 1010000   0.54837626   -1.7871526   0.82174182  -0.96541074   0.13404877    11410.743     1000 
 1012000   0.56229281   -1.7304763   0.84259578  -0.88788054   0.14693624    11202.606     1000 
 1014000   0.56433974    -1.775371   0.84566309   -0.9297079   0.13538599    11461.315     1000 
 1016000   0.53808142   -1.7807314   0.80631501  -0.97441638   0.12206958    11555.828     1000 
 1018000   0.55119029   -1.7133773   0.82595865  -0.88741863   0.15200349    11085.191     1000 
 1020000   0.58313891    -1.730455   0.87383366  -0.85662137   0.13499796    11377.536     1000 
 1022000   0.56347413    -1.749347   0.84436599  -0.90498099   0.12806794    11510.081     1000 
 1024000   0.56304779   -1.7562297   0.84372711   -0.9125026   0.12819687    11543.659     1000 
 1026000   0.56750484   -1.7632538     0.850406  -0.91284778   0.12876973    11466.612     1000 
 1028000   0.54683454   -1.7615122   0.81943156  -0.94208063   0.12083895     11581.17     1000 
 1030000    0.5696647   -1.7898105   0.85364256  -0.93616797   0.12777893    11609.886     1000 
 1032000   0.56751632   -1.7480404    0.8504232  -0.89761723   0.13582375    11391.023     1000 
 1034000   0.55135095   -1.7698992   0.82619939  -0.94369983   0.12292134    11602.471     1000 
 1036000   0.56745663   -1.7700172   0.85033376  -0.91968346   0.13428412    11436.975     1000 
 1038000   0.55513964   -1.7545811   0.83187675  -0.92270437   0.13645752    11381.157     1000 
 1040000   0.55574656   -1.7057656   0.83278622  -0.87297942   0.13713398    11344.193     1000 
 1042000    0.5888122   -1.7835027   0.88233509  -0.90116759   0.12516029    11623.325     1000 
 1044000   0.60713094   -1.7363588   0.90978571  -0.82657313   0.13073286    11483.946     1000 
 1046000   0.54770357   -1.7644075    0.8207338  -0.94367367   0.12752975    11442.244     1000 
 1048000   0.53420466   -1.7766869   0.80050569  -0.97618126   0.11111569    11528.941     1000 
 1050000    0.5480447   -1.7537242   0.82124498  -0.93247923   0.12800587    11451.438     1000 
 1052000   0.54175862   -1.8067269    0.8118253   -0.9949016   0.12236862    11505.222     1000 
 1054000   0.57077725   -1.7300877   0.85530972  -0.87477794   0.13779654    11388.797     1000 
 1056000   0.55623977   -1.7477844   0.83352529  -0.91425909   0.12071394     11472.55     1000 
 1058000   0.56407277   -1.7257253   0.84526304  -0.88046224   0.11823569    11512.238     1000 
 1060000   0.55009447   -1.7939249   0.82431657  -0.96960828   0.13311598    11435.166     1000 
 1062000   0.57562867   -1.7701261   0.86257956  -0.90754652   0.13440333    11374.521     1000 
 1064000   0.58965696   -1.7268541   0.88360095  -0.84325315   0.13310621    11465.615     1000 
 1066000   0.56176189   -1.7327294    0.8418002  -0.89092918   0.13484272    11354.527     1000 
 1068000   0.57003713   -1.7697034   0.85420064  -0.91550276     0.128885    11430.964     1000 
 1070000   0.53903342   -1.7377846   0.80774158    -0.930043   0.12145066      11596.4     1000 
 1072000   0.54533477   -1.7687903   0.81718416  -0.95160616   0.12379525    11658.755     1000 
 1074000   0.54730002   -1.7880467   0.82012909  -0.96791765   0.13202695    11534.303     1000 
 1076000   0.56328962   -1.7640711   0.84408949   -0.9199816   0.12183261    11464.232     1000 
 1078000   0.54118103    -1.753503   0.81095978  -0.94254325   0.12663942    11514.339     1000 
 1080000   0.57254781   -1.7459578    0.8579629   -0.8879949   0.13987841    11238.256     1000 
 1082000   0.54727079   -1.7697325   0.82008528  -0.94964722   0.12729055     11485.41     1000 
 1084000   0.57077645   -1.7923873   0.85530852   -0.9370788   0.12480789    11457.817     1000 
 1086000   0.54906484   -1.7886971   0.82277366  -0.96592344   0.12337679    11472.394     1000 
 1088000   0.55093485   -1.7300433   0.82557587  -0.90446741   0.12289712    11496.482     1000 
 1090000   0.54701182   -1.7641779   0.81969722  -0.94448073   0.13068069     11431.04     1000 
 1092000   0.55833691   -1.7691887   0.83666786  -0.93252082   0.12491444    11515.392     1000 
 1094000   0.58893787    -1.754837   0.88252339  -0.87231357   0.11806725     11757.49     1000 
 1096000   0.57110409   -1.7639684   0.85579948   -0.9081689   0.12642023    11478.951     1000 
 1098000   0.55421959   -1.7006093   0.83049806  -0.87011127   0.12847434    11457.073     1000 
 1100000   0.54500714   -1.8003473   0.81669319  -0.98365406   0.13104776    11442.857     1000 
 1102000   0.58056819    -1.764249   0.86998143  -0.89426753   0.14387574    11442.294     1000 
 1104000   0.53872655   -1.6632444   0.80728174  -0.85596261   0.12545303    11286.979     1000 
 1106000   0.55475119   -1.7078915   0.83129465  -0.87659689    0.1390949     11217.23     1000 
 1108000   0.57051853   -1.7490178   0.85492202  -0.89409575   0.13070834    11458.523     1000 
 1110000   0.57765752   -1.7513193   0.86561979   -0.8856995   0.13252371    11397.817     1000 
 1112000   0.54743083   -1.7328288    0.8203251  -0.91250369     0.140981    11346.595     1000 
 1114000   0.57048972   -1.7124314   0.85487884  -0.85755253   0.13666674    11604.754     1000 
 1116000   0.57416096   -1.7288134    0.8603802  -0.86843325   0.14043143    11302.054     1000 
 1118000   0.56115244   -1.7215842   0.84088693  -0.88069731   0.12283672    11423.152     1000 
 1120000   0.54530701   -1.7417313   0.81714255  -0.92458877   0.13646782    11508.994     1000 
 1122000   0.57590429   -1.7426454   0.86299258  -0.87965281   0.11987691    11618.238     1000 
 1124000   0.56567652   -1.7277425   0.84766626  -0.88007621   0.13601518    11296.139     1000 
 1126000   0.56260944   -1.7535712   0.84307025  -0.91050093   0.12579855    11511.388     1000 
 1128000   0.54698062   -1.6704819   0.81965046  -0.85083144   0.12453451    11450.575     1000 
 1130000   0.55422292   -1.7640556   0.83050305  -0.93355253       0.1218    11516.996     1000 
 1132000   0.55523256   -1.7847981   0.83201599  -0.95278208   0.12657788    11603.517     1000 
 1134000   0.56193536   -1.7285623   0.84206014   -0.8865022   0.13922005    11298.081     1000 
 1136000   0.54784558   -1.7535489    0.8209466  -0.93260233   0.13027453    11436.824     1000 
 1138000   0.55274853   -1.7249343   0.82829367  -0.89664064   0.13461583    11390.544     1000 
 1140000   0.57854345   -1.7854163   0.86694735  -0.91846895   0.12783271    11522.103     1000 
 1142000   0.54313865   -1.7569439   0.81389327  -0.94305068   0.12929911    11407.947     1000 
 1144000   0.58917734   -1.8092433   0.88288225  -0.92636101   0.13697259    11459.423     1000 
 1146000   0.54358849   -1.7849711   0.81456736  -0.97040379   0.13658136    11614.853     1000 
 1148000   0.52487205   -1.7610336   0.78652076  -0.97451283   0.13284837    11327.364     1000 
 1150000   0.55361626   -1.7287945   0.82959396  -0.89920052   0.13893091     11272.31     1000 
 1152000   0.55141183   -1.7839646   0.82629063  -0.95767393   0.12857097    11444.491     1000 
 1154000   0.55797475   -1.7226484   0.83612517  -0.88652321   0.12769942     11634.91     1000 
 1156000   0.54818088   -1.7404384   0.82144905  -0.91898933   0.13666643    11465.925     1000 
 1158000   0.58407227    -1.726027   0.87523229  -0.85079474   0.12300525    11408.553     1000 
 1160000   0.58133896   -1.7182892   0.87113643  -0.84715278   0.13816662    11361.211     1000 
 1162000    0.5472787   -1.8345362   0.82009714   -1.0144391   0.10731942    11647.129     1000 
 1164000   0.56239298   -1.7834978   0.84274588  -0.94075191   0.12895741    11564.671     1000 
 1166000   0.53685926   -1.7533243   0.80448361  -0.94884072   0.14143635    11329.448     1000 
 1168000   0.57520596   -1.7432263   0.86194613   -0.8812802   0.13278083     11440.17     1000 
 1170000   0.56648611    -1.746382   0.84887943  -0.89750255   0.13973258    11218.005     1000 
 1172000   0.56630084   -1.7354725   0.84860181  -0.88687072   0.12877167    11358.859     1000 
 1174000   0.55573975   -1.7692294   0.83277601  -0.93645341   0.12919502    11507.278     1000 
 1176000   0.56435419   -1.7869961   0.84568475  -0.94131136   0.11884745    11512.553     1000 
 1178000    0.5619272   -1.7269279   0.84204792  -0.88487997   0.14460126     11334.02     1000 
 1180000   0.58645131   -1.8071856    0.8787973  -0.92838834   0.13894647    11480.448     1000 
 1182000   0.55149263   -1.8115702    0.8264117  -0.98515849   0.13627466    11445.827     1000 
 1184000   0.54909051   -1.7911177   0.82281213  -0.96830562   0.12857822    11403.612     1000 
 1186000   0.55742725   -1.7537659   0.83530473  -0.91846115   0.12373981    11602.485     1000 
 1188000   0.54257115    -1.739839   0.81304287  -0.92679617   0.12432204    11632.822     1000 
 1190000    0.5479555   -1.7128847   0.82111131  -0.89177337    0.1447677    11339.905     1000 
 1192000    0.5574813   -1.7171549   0.83538573  -0.88176915   0.12297626    11423.026     1000 
 1194000   0.57163774   -1.7557979   0.85659915  -0.89919875   0.11928674    11599.963     1000 
 1196000   0.56655267   -1.7738517   0.84897918  -0.92487257   0.13486261    11410.666     1000 
 1198000   0.57262357   -1.7287554   0.85807642  -0.87067897    0.1305966    11379.875     1000 
 1200000   0.59647999   -1.7622592   0.89382527  -0.86843392   0.13765969    11417.644     1000 
 1202000   0.55837331   -1.7321578    0.8367224  -0.89543544   0.13259386    11365.842     1000 
 1204000   0.54692743   -1.6957799   0.81957075  -0.87620914   0.12411985    11515.207     1000 
 1206000   0.56998437   -1.8284545   0.85412158  -0.97433295   0.12492891    11571.764     1000 
 1208000   0.54882419   -1.8606084   0.82241304   -1.0381954   0.11960174    11586.646     1000 
 1210000   0.53719855   -1.7222541   0.80499202  -0.91726209   0.12701382     11486.91     1000 
 1212000   0.56049738   -1.7653752   0.83990532  -0.92546988   0.13298471    11404.666     1000 
 1214000   0.56260559   -1.7092913   0.84306447  -0.86622685   0.13546552    11351.581     1000 
 1216000   0.55843655   -1.7951774   0.83681716  -0.95836019   0.12376299    11514.915     1000 
 1218000   0.56996309   -1.7599868   0.85408968  -0.90589715   0.12366829    11482.296     1000 
 1220000   0.54377952   -1.7631237   0.81485362  -0.94827011    0.1328382     11473.35     1000 
 1222000   0.54349545   -1.7602608   0.81442793  -0.94583288    0.1319447    11324.539     1000 
 1224000   0.56607661   -1.7329015    0.8482658  -0.88463569   0.13331177    11366.963     1000 
 1226000   0.59602364    -1.740029   0.89314143  -0.84688755   0.12972427    11546.349     1000 
 1228000   0.54705916   -1.7524475   0.81976815  -0.93267931   0.14222404    11279.767     1000 
 1230000    0.5655579   -1.7461288   0.84748852  -0.89864027   0.12178533    11459.754     1000 
 1232000   0.57102639   -1.7596593   0.85568304  -0.90397623   0.13065184    11509.409     1000 
 1234000   0.54804514   -1.7870357   0.82124565  -0.96579005   0.12594016    11541.454     1000 
 1236000   0.51893242   -1.7682257   0.77762024  -0.99060546   0.11606339    11656.962     1000 
 1238000   0.52866779   -1.7654061   0.79220868  -0.97319746   0.14385625    11149.029     1000 
 1240000   0.56134827    -1.723723   0.84118038  -0.88254262   0.13529808    11505.547     1000 
 1242000   0.59823974   -1.6962524   0.89646225   -0.7997902   0.13871723    11318.916     1000 
 1244000   0.55936738   -1.7774753   0.83821201  -0.93926326   0.14317435    11312.222     1000 
 1246000   0.56268476   -1.7520737   0.84318311  -0.90889056   0.13411467    11386.376     1000 
 1248000   0.55520081   -1.7719554   0.83196842  -0.93998699   0.12121163     11473.18     1000 
 1250000   0.57300892   -1.7545814   0.85865387  -0.89592752   0.12670207    11587.732     1000 
 1252000   0.56334543   -1.7178092   0.84417313  -0.87363611   0.12787785    11562.374     1000 
 1254000   0.57736048   -1.7886672   0.86517468  -0.92349254   0.11563716    11540.213     1000 
 1256000   0.54385918   -1.7839935   0.81497299   -0.9690205    0.1286775    11603.639     1000 
 1258000    0.5544755   -1.7477624   0.83088153  -0.91688091   0.13981889    11324.636     1000 
 1260000   0.54603016   -1.7917384    0.8182262  -0.97351217   0.12705477    11465.965     1000 
 1262000   0.54975838   -1.7117646   0.82381294   -0.8879517   0.12831514    11437.394     1000 
 1264000   0.56675943   -1.7741808   0.84928901  -0.92489177   0.13850688    11444.056     1000 
 1266000   0.56505698   -1.7755972   0.84673788  -0.92885927   0.13007822    11461.523     1000 
 1268000   0.55527579   -1.7408676   0.83208078  -0.90878686   0.13592252    11339.214     1000 
 1270000   0.54935116   -1.7643651   0.82320272  -0.94116241   0.12836506    11436.489     1000 
 1272000    0.5433788   -1.7653686   0.81425314  -0.95111542   0.13872757    11364.672     1000 
 1274000   0.57848765    -1.749347   0.86686374  -0.88248321   0.13463856    11286.137     1000 
 1276000   0.56552517   -1.7510479   0.84743947  -0.90360839   0.13783919    11509.992     1000 
 1278000    0.5902778   -1.7472934   0.88453129  -0.86276209   0.13052483    11476.533     1000 
 1280000   0.54972298   -1.7516499   0.82375988  -0.92788997   0.13391391     11418.91     1000 
 1282000   0.54410269   -1.6873696   0.81533788  -0.87203173   0.12605983    11433.901     1000 
 1284000      0.56306     -1.80949   0.84374541  -0.96574459   0.14219903    11302.856     1000 
 1286000      0.54477   -1.7664973   0.81633784   -0.9501595   0.13717844    11408.626     1000 
 1288000   0.57156185   -1.7673607   0.85648544  -0.91087526   0.12411264    11516.467     1000 
 1290000   0.57765615    -1.755469   0.86561774  -0.88985128   0.12757358    11492.178     1000 
 1292000   0.54854186    -1.800962   0.82198998  -0.97897202   0.13620649     11419.34     1000 
 1294000   0.57266705   -1.7700331   0.85814157  -0.91189157   0.12513542    11526.201     1000 
 1296000   0.55238168   -1.8425525   0.82774395   -1.0148086   0.13204737    11540.644     1000 
 1298000   0.56781465   -1.8176048   0.85087025  -0.96673459   0.12021681    11578.066     1000 
 1300000   0.55244522   -1.7799144   0.82783917  -0.95207519   0.13199507    11500.551     1000 
 1302000   0.55099097   -1.7370573   0.82565997  -0.91139734   0.14346833    11181.873     1000 
 1304000    0.5555763   -1.7734386   0.83253109  -0.94090755   0.13366544    11299.827     1000 
 1306000   0.56987088   -1.7663672   0.85395152  -0.91241566   0.13104314    11439.195     1000 
 1308000   0.59036229   -1.7270289    0.8846579  -0.84237104   0.13991358    11378.573     1000 
 1310000   0.57205245   -1.7794906   0.85722059     -0.92227   0.13347906    11363.432     1000 
 1312000   0.55943852   -1.7762992   0.83831862   -0.9379806   0.13101234    11335.719     1000 
 1314000   0.56188517   -1.7349596   0.84198492  -0.89297472    0.1351806     11377.87     1000 
 1316000   0.52973751   -1.7704893   0.79381166  -0.97667764   0.11768386    11518.128     1000 
 1318000   0.55780993   -1.8024197   0.83587817  -0.96654157   0.13425946    11377.733     1000 
 1320000   0.57496643   -1.7184568   0.86158719  -0.85686957   0.14056751    11425.011     1000 
 1322000   0.55625176   -1.7578535   0.83354326   -0.9243102   0.11049762    11569.823     1000 
 1324000   0.56785028   -1.7261813   0.85092364  -0.87525769   0.13385198    11497.183     1000 
 1326000   0.56397541   -1.7778848   0.84511715  -0.93276765   0.12300443    11437.889     1000 
 1328000   0.57363042    -1.730508   0.85958519  -0.87092281   0.14119495    11449.428     1000 
 1330000   0.55937166   -1.7776767   0.83821843  -0.93945823   0.14302431    11390.201     1000 
 1332000   0.55039503   -1.7094666   0.82476696  -0.88469966   0.14427791    11265.922     1000 
 1334000   0.56409659   -1.7356549   0.84529874  -0.89035616    0.1200548    11485.667     1000 
 1336000   0.58284797   -1.7386277   0.87339768  -0.86523005   0.13567651    11354.656     1000 
 1338000   0.57176268    -1.755258   0.85678638   -0.8984716   0.13548101     11493.56     1000 
 1340000    0.5590911   -1.7727642   0.83779802  -0.93496622   0.13031641    11487.469     1000 
 1342000   0.55097358    -1.770819   0.82563392  -0.94518513    0.1353232    11283.409     1000 
 1344000   0.55285737   -1.7388578   0.82845677    -0.910401   0.13911091    11478.261     1000 
 1346000   0.53717452   -1.7222285   0.80495602  -0.91727251   0.12251009     11579.43     1000 
 1348000   0.56855673   -1.8287683   0.85198225  -0.97678604   0.12241069    11593.641     1000 
 1350000   0.55155442   -1.7806126   0.82650429  -0.95410827   0.14352148    11383.836     1000 
 1352000   0.55754728   -1.7611566    0.8354846  -0.92567199   0.14301367     11361.75     1000 
 1354000   0.53968686   -1.8098791   0.80872076   -1.0011583   0.13300284    11426.863     1000 
 1356000   0.56467837   -1.7633832   0.84617054  -0.91721265   0.13251179    11417.122     1000 
 1358000   0.55214881   -1.7313522   0.82739499  -0.90395717    0.1296284    11469.847     1000 
 1360000    0.5685786   -1.8196965   0.85201503  -0.96768151   0.12150237    11618.384     1000 
 1362000   0.57249243   -1.7664317    0.8578799  -0.90855178   0.12592924     11455.63     1000 
 1364000   0.55154397   -1.7114177   0.82648864  -0.88492904   0.13534275     11295.63     1000 
 1366000   0.55727933   -1.7187309   0.83508308  -0.88364783   0.13293262    11469.604     1000 
 1368000   0.55800819    -1.743804   0.83617527  -0.90762872   0.13710877    11379.384     1000 
 1370000   0.55614356   -1.7337654   0.83338112  -0.90038424   0.12168611    11434.535     1000 
 1372000   0.55990137   -1.7372278    0.8390122  -0.89821562   0.13764564    11211.393     1000 
 1374000   0.54079974   -1.7256583   0.81038842  -0.91526989   0.13179412    11356.727     1000 
 1376000   0.57664318    -1.699529   0.86409981  -0.83542922   0.12001077    11625.045     1000 
 1378000   0.56676884   -1.7612501   0.84930311  -0.91194701   0.12625895    11514.447     1000 
 1380000    0.5585541    -1.763217   0.83699332  -0.92622364   0.13263202    11575.758     1000 
 1382000   0.56090133   -1.7193026   0.84051065  -0.87879198   0.13883522    11409.802     1000 
 1384000   0.56431976   -1.7534982   0.84563317  -0.90786504   0.13551462    11330.595     1000 
 1386000    0.5275324   -1.7813955    0.7905073  -0.99088822   0.13841641     11256.66     1000 
 1388000   0.57964297   -1.7389829     0.868595  -0.87038792   0.13039663    11471.158     1000 
 1390000   0.54143231    -1.746912   0.81133631  -0.93557569   0.12424898     11554.24     1000 
 1392000   0.56897368   -1.7888299   0.85260706  -0.93622287   0.12555417    11530.691     1000 
 1394000   0.57010064   -1.7517763    0.8542958  -0.89748047   0.12594784     11522.63     1000 
 1396000   0.56604253   -1.7220171   0.84821473  -0.87380238   0.15338636    11338.342     1000 
 1398000   0.57485476   -1.7201277   0.86141986  -0.85870785   0.13594107    11251.498     1000 
 1400000   0.54892551   -1.7357229   0.82256487  -0.91315802   0.13788398    11348.344     1000 
 1402000   0.56794327   -1.7325372   0.85106299  -0.88147416   0.12927278    11433.122     1000 
 1404000   0.54048103     -1.74117   0.80991082  -0.93125917   0.12869059    11345.115     1000 
 1406000   0.56270997   -1.7413379    0.8432209  -0.89811696   0.14256813    11264.279     1000 
 1408000   0.56134851   -1.7647784   0.84118074  -0.92359765   0.12973406    11451.901     1000 
 1410000   0.58901899   -1.7303213   0.88264495  -0.84767632   0.12790632    11357.409     1000 
 1412000   0.58490714   -1.7996723   0.87648336  -0.92318894   0.13229936    11386.536     1000 
 1414000   0.56455936   -1.7442735    0.8459922  -0.89828126   0.11929366    11630.202     1000 
 1416000    0.5502455   -1.7662123   0.82454289  -0.94166944   0.13100472    11430.499     1000 
 1418000   0.55210945   -1.7335437   0.82733602  -0.90620767   0.12604306    11339.315     1000 
 1420000   0.54665579   -1.7519893    0.8191637  -0.93282556   0.11085266     11603.79     1000 
 1422000   0.57023677   -1.7632996    0.8544998  -0.90879979   0.12130649    11541.465     1000 
 1424000   0.55390122   -1.7758304   0.83002098  -0.94580939   0.13550045    11460.335     1000 
 1426000   0.53101782   -1.7539861   0.79573021  -0.95825592    0.1207815    11434.275     1000 
 1428000    0.5713796   -1.7518973   0.85621233  -0.89568496   0.13721515    11302.562     1000 
 1430000   0.56523471   -1.7633874   0.84700421  -0.91638322   0.13309464    11554.938     1000 
 1432000   0.55349708   -1.8035764   0.82941538  -0.97416102   0.13606748     11581.13     1000 
 1434000   0.55293904   -1.7392791   0.82857915  -0.91069995   0.12978256    11393.409     1000 
 1436000   0.55562947   -1.8206744   0.83261077   -0.9880636   0.12028818    11621.264     1000 
 1438000   0.54325829   -1.7708925   0.81407255  -0.95681998   0.12689802     11439.67     1000 
 1440000   0.57307619   -1.7875135   0.85875467  -0.92875881    0.1300908    11441.155     1000 
 1442000   0.56255757   -1.7630163   0.84299252  -0.92002377   0.12416468    11531.559     1000 
 1444000   0.55813995   -1.7529582   0.83637271  -0.91658553   0.13722426    11397.024     1000 
 1446000     0.548897   -1.7395715   0.82252216  -0.91704931   0.12490235      11508.6     1000 
 1448000   0.55017671   -1.7678324    0.8244398  -0.94339264   0.12490048    11517.025     1000 
 1450000   0.57979067   -1.7995417   0.86881632  -0.93072538   0.11763856    11627.302     1000 
 1452000   0.56306181   -1.7697356   0.84374812  -0.92598748   0.12965029    11426.083     1000 
 1454000   0.56314255   -1.7680533   0.84386912  -0.92418416   0.13674558    11443.897     1000 
 1456000   0.54660953   -1.7595712   0.81909438  -0.94047687   0.15147132    11230.092     1000 
 1458000    0.5702045   -1.7634382   0.85445144  -0.90898678   0.13779794    11426.362     1000 
 1460000   0.54260849   -1.7476251   0.81309882  -0.93452629   0.12559002    11479.718     1000 
 1462000   0.54424806   -1.7860668   0.81555571  -0.97051108   0.13159688    11451.605     1000 
 1464000   0.53826059   -1.7220558    0.8065835  -0.91547228   0.13123626    11334.575     1000 
 1466000   0.56476259    -1.735468   0.84629674  -0.88917128   0.12829069     11455.49     1000 
 1468000   0.55598631   -1.7066825   0.83314549  -0.87353701   0.13152919    11387.049     1000 
 1470000   0.57433951    -1.780489   0.86064776  -0.91984129   0.11837916    11609.045     1000 
 1472000   0.55018722   -1.7206308   0.82445555  -0.89617523   0.11908652    11621.522     1000 
 1474000   0.55420029   -1.7676294   0.83046913  -0.93716031    0.1126067    11621.869     1000 
 1476000   0.57946847    -1.713088    0.8683335   -0.8447545   0.12710655    11449.454     1000 
 1478000   0.55390631   -1.7100175   0.83002861  -0.87998887   0.13972217    11291.989     1000 
 1480000   0.54951864   -1.8041243   0.82345368  -0.98067063   0.12848742    11580.859     1000 
 1482000   0.54568701   -1.8171753   0.81771198  -0.99946334   0.12456495    11588.307     1000 
 1484000   0.57021144   -1.7505145   0.85446185  -0.89605266   0.11545049    11612.146     1000 
 1486000    0.5632108   -1.7918213   0.84397138  -0.94784991   0.12889212    11496.626     1000 
 1488000   0.55108511   -1.7436205   0.82580103   -0.9178195   0.13370516    11469.916     1000 
 1490000   0.56417818   -1.7655423   0.84542101  -0.92012132   0.13104993    11389.353     1000 
 1492000   0.55414482   -1.7644892   0.83038601  -0.93410314    0.1312942     11407.91     1000 
 1494000   0.56057657   -1.7665627   0.84002399  -0.92653876   0.12683151    11567.292     1000 
 1496000   0.57163345     -1.70764   0.85659272  -0.85104729   0.12155217    11479.922     1000 
 1498000   0.57238055   -1.7364297   0.85771226  -0.87871744   0.13582446    11365.507     1000 
 1500000   0.53218899   -1.8107347    0.7974852   -1.0132495   0.12446997    11684.354     1000 
 1502000   0.57331229   -1.7673917   0.85910846  -0.90828324   0.12998587    11500.551     1000 
 1504000   0.54913589   -1.7412898   0.82288013  -0.91840964   0.13940381    11466.583     1000 
 1506000   0.53968107   -1.7830109   0.80871208  -0.97429883   0.11875905    11574.941     1000 
 1508000    0.5508814   -1.7576449   0.82549577  -0.93214916   0.12903401     11538.27     1000 
 1510000   0.56138986   -1.7719998   0.84124271  -0.93075713   0.13731743    11436.036     1000 
 1512000   0.58767832   -1.7620285   0.88063596  -0.88139258   0.13903073    11394.126     1000 
 1514000   0.57372132    -1.732282   0.85972139  -0.87256062   0.12645035    11366.319     1000 
 1516000   0.58104134   -1.7093897   0.87069046  -0.83869921   0.13535774    11460.049     1000 
 1518000   0.54394666    -1.757628   0.81510407  -0.94252394   0.11836803    11548.674     1000 
 1520000   0.55470278   -1.7373178   0.83122212  -0.90609566   0.14536434    11398.595     1000 
 1522000   0.56465663   -1.7652199   0.84613796  -0.91908195   0.13866971    11389.154     1000 
 1524000   0.54788263   -1.6888509   0.82100212  -0.86784881   0.12044126    11290.536     1000 
 1526000   0.58886926   -1.7505922   0.88242059  -0.86817158   0.14599769    11365.076     1000 
 1528000   0.57947389   -1.7643655   0.86834163  -0.89602389   0.13508211    11461.507     1000 
 1530000   0.57581793    -1.734691   0.86286317  -0.87182787   0.12414049    11515.457     1000 
 1532000   0.55351689   -1.7984159   0.82944505  -0.96897085   0.11989105    11603.578     1000 
 1534000    0.5768235   -1.7604129   0.86437002  -0.89604289   0.14079448    11304.341     1000 
 1536000   0.54590968   -1.7580398   0.81804565   -0.9399941   0.13752798    11272.045     1000 
 1538000   0.55577048   -1.7421879   0.83282207  -0.90936581   0.13628438    11364.464     1000 
 1540000   0.54285986   -1.7366527   0.81347549  -0.92317718   0.12361684    11390.538     1000 
 1542000   0.55846985   -1.6919383   0.83686707  -0.85507121   0.13600692    11423.146     1000 
 1544000   0.54788548   -1.7511435   0.82100639  -0.93013708   0.12410357    11376.474     1000 
 1546000    0.5612139   -1.7950687   0.84097903  -0.95408965   0.13235355    11454.366     1000 
 1548000   0.57309341   -1.7892835   0.85878047  -0.93050301   0.12455005      11476.5     1000 
 1550000   0.55829532     -1.75614   0.83660554   -0.9195345   0.12297851    11420.939     1000 
 1552000   0.54629666   -1.7753927   0.81862555  -0.95676714   0.13009149    11458.928     1000 
 1554000   0.56230292   -1.7373878   0.84261092  -0.89477692   0.13233908    11352.907     1000 
 1556000   0.53800163   -1.7329071   0.80619545  -0.92671165    0.1293695    11381.327     1000 
 1558000   0.55107825   -1.7484101   0.82579076  -0.92261933   0.13352605    11282.019     1000 
 1560000   0.59989812   -1.7180627   0.89894734  -0.81911538   0.13270262    11458.266     1000 
 1562000   0.55536891    -1.787171   0.83222031   -0.9549507   0.12731589    11420.961     1000 
 1564000   0.54312761   -1.7491472   0.81387672  -0.93527045   0.13778261    11335.272     1000 
 1566000   0.55551348   -1.7727053   0.83243695  -0.94026839   0.12547461    11497.843     1000 
 1568000   0.55269932   -1.7371246   0.82821993  -0.90890464   0.13676555    11202.583     1000 
 1570000   0.56778888   -1.7689571   0.85083163  -0.91812551   0.12578795    11464.869     1000 
 1572000   0.53742741   -1.7914348   0.80533497  -0.98609979   0.13448706    11459.314     1000 
 1574000   0.55261104   -1.7805619   0.82808765  -0.95247421   0.12763151    11480.827     1000 
 1576000   0.57225669   -1.7623598   0.85752665  -0.90483312   0.13612296    11321.599     1000 
 1578000   0.55398236   -1.7868936   0.83014256  -0.95675104   0.12093633    11524.019     1000 
 1580000   0.57880127   -1.6944949    0.8673337  -0.82716124   0.14780762    11190.908     1000 
 1582000   0.57871226   -1.7740979   0.86720033  -0.90689757   0.13870922    11481.657     1000 
 1584000   0.57478387   -1.8096702   0.86131363  -0.94835661   0.12854558     11604.04     1000 
 1586000    0.5650654   -1.7539354    0.8467505   -0.9071849   0.14727087    11263.588     1000 
 1588000   0.58316457   -1.7462484   0.87387211  -0.87237624   0.12560738    11523.707     1000 
[...]
 2614000   0.55432281   -1.7188219   0.83065274  -0.88816913   0.13865071    11497.465     1000 
 2616000   0.56776264   -1.7297781   0.85079231  -0.87898582   0.13216226    11337.021     1000 
 2618000   0.55585934    -1.723924   0.83295521  -0.89096877   0.13214869    11399.889     1000 
 2620000   0.56768757   -1.7291224   0.85067982  -0.87844259   0.14158702    11346.318     1000 
 2622000   0.55346959   -1.7648943   0.82937418  -0.93552013   0.12986663    11383.771     1000 
 2624000   0.55281226   -1.6988921   0.82838917  -0.87050292   0.13382578    11291.983     1000 
 2626000   0.56185728   -1.7573892   0.84194313  -0.91544608   0.12925068    11537.538     1000 
 2628000   0.52004945    -1.786002    0.7792941   -1.0067079   0.12275312    11439.241     1000 
 2630000   0.56510032   -1.7300818   0.84680284  -0.88327898   0.12009194    11569.154     1000 
 2632000   0.56925573   -1.7942004   0.85302971   -0.9411707   0.12210645    11573.188     1000 
 2634000   0.54050914   -1.7504754   0.80995295  -0.94052241   0.14447732    11271.919     1000 
 2636000   0.53268866   -1.7887537   0.79823396  -0.99051973   0.13049261     11555.25     1000 
 2638000   0.53999341   -1.7770349   0.80918012  -0.96785478    0.1307428    11515.324     1000 
 2640000   0.57052671    -1.760295   0.85493427  -0.90536074   0.14470614    11320.515     1000 
 2642000   0.53303456   -1.7726774   0.79875229  -0.97392508   0.12060644    11563.951     1000 
 2644000   0.56545339   -1.6967303    0.8473319  -0.84939839     0.133905    11391.917     1000 
 2646000   0.55911702   -1.7702118   0.83783686  -0.93237499   0.13365519    11476.625     1000 
 2648000    0.5657678   -1.7355319   0.84780304  -0.88772882   0.13826166    11240.918     1000 
 2650000   0.56895145   -1.7655408   0.85257375  -0.91296709   0.11814962    11566.751     1000 
 2652000   0.55245802   -1.6988937   0.82785835  -0.87103533   0.12545368    11568.061     1000 
 2654000   0.57844425   -1.7514985    0.8667987   -0.8846998   0.11751123     11691.63     1000 
 2656000   0.54008338   -1.7843899   0.80931495  -0.97507493   0.12503066    11675.849     1000 
 2658000   0.55642777   -1.7625229   0.83380702  -0.92871592   0.12043385    11503.745     1000 
 2660000    0.5528044   -1.7644929   0.82837739  -0.93611549   0.12685851     11522.65     1000 
 2662000   0.56314971   -1.7318497   0.84387984  -0.88796982    0.1337989    11332.051     1000 
 2664000   0.57460363   -1.7977409   0.86104354  -0.93669737   0.12064419    11562.981     1000 
 2666000   0.57246946   -1.7493202   0.85784548  -0.89147472   0.13719848    11386.725     1000 
 2668000    0.5691194   -1.7651045   0.85282542  -0.91227905   0.13566905    11340.459     1000 
 2670000   0.56137881   -1.7449159   0.84122614  -0.90368972   0.11755942    11582.413     1000 
 2672000   0.58350647   -1.7556845   0.87438444  -0.88130008   0.14195553    11388.101     1000 
 2674000   0.55626662   -1.7614711   0.83356553  -0.92790555   0.12967518    11340.082     1000 
 2676000   0.55806292   -1.6870081   0.83625728   -0.8507508   0.14197241    11292.458     1000 
 2678000   0.56375631   -1.6906403   0.84478883  -0.84585145   0.13872405    11362.197     1000 
 2680000   0.54515935   -1.7001813   0.81692128  -0.88326003   0.13302069    11396.166     1000 
 2682000    0.5651658   -1.7986264   0.84690096  -0.95172548    0.1311931    11622.991     1000 
 2684000   0.56533688   -1.7417608   0.84715732  -0.89460343   0.13453012    11345.018     1000 
 2686000   0.55880425   -1.8110728   0.83736817   -0.9737046    0.1178602    11779.055     1000 
 2688000   0.53962624    -1.779561   0.80862992  -0.97093106   0.12990312    11540.127     1000 
 2690000   0.56214401   -1.7202636    0.8423728  -0.87789084   0.13402626    11438.809     1000 
 2692000   0.56770214   -1.7639948   0.85070166  -0.91329311   0.12534509    11506.282     1000 
 2694000   0.57789528    -1.743889   0.86597607  -0.87791295   0.13789587    11447.068     1000 
 2696000   0.55117269   -1.7776136   0.82593227  -0.95168137     0.129336    11559.776     1000 
 2698000   0.56086364   -1.7515972   0.84045416  -0.91114303   0.12539789    11547.593     1000 
 2700000   0.54249688   -1.7311276   0.81293157  -0.91819599   0.14062508    11320.175     1000 
 2702000   0.57437304   -1.7048912     0.860698   -0.8441932   0.13681574    11364.533     1000 
 2704000   0.54804638   -1.7588579    0.8212475  -0.93761045   0.13081571    11461.493     1000 
 2706000   0.56856327   -1.7652087   0.85199206  -0.91321659   0.11647113    11591.788     1000 
 2708000   0.56967338   -1.7683504   0.85365556  -0.91469487   0.13165701    11531.955     1000 
 2710000   0.55285219    -1.774213     0.828449  -0.94576397   0.12825636    11560.887     1000 
 2712000   0.54631223   -1.7661426   0.81864888  -0.94749369   0.12171375    11458.839     1000 
 2714000   0.52541427   -1.7869799   0.78733329  -0.99964659   0.12203299    11452.695     1000 
 2716000    0.5470394   -1.7892335   0.81973854  -0.96949493   0.12267749    11509.908     1000 
 2718000   0.58006514    -1.740139   0.86922761  -0.87091139   0.12681375     11553.64     1000 
 2720000    0.5496202   -1.7035043   0.82360587  -0.87989844   0.12959716    11486.564     1000 
 2722000   0.57502386   -1.8072638   0.86167326   -0.9455905   0.14163162     11478.45     1000 
 2724000   0.53905739   -1.7357785    0.8077775  -0.92800103   0.12595476    11495.287     1000 
 2726000   0.56608621   -1.7898167   0.84828018  -0.94153652   0.12551616    11518.895     1000 
 2728000   0.59618009   -1.7378652   0.89337586  -0.84448935   0.13754133    11344.177     1000 
 2730000   0.56421548   -1.7233438   0.84547689  -0.87786689   0.12949561     11481.24     1000 
 2732000   0.56210404    -1.717206    0.8423129   -0.8748931   0.13830305    11391.746     1000 
 2734000   0.57185733   -1.7308983   0.85692822  -0.87397006   0.13612071    11290.805     1000 
 2736000   0.55389361   -1.7655572   0.83000957  -0.93554761   0.12316783    11435.646     1000 
 2738000   0.54785385    -1.736298   0.82095899  -0.91533905   0.13973339    11328.057     1000 
 2740000   0.56672765   -1.7068837   0.84924138  -0.85764233   0.13434671    11255.693     1000 
 2742000   0.56419311   -1.7364343   0.84544337  -0.89099088    0.1243584    11469.134     1000 
 2744000   0.54088402   -1.7714772    0.8105147  -0.96096247   0.12559605     11369.09     1000 
 2746000   0.57103879   -1.7693604   0.85570163  -0.91365882    0.1239016    11481.087     1000 
 2748000   0.52877635   -1.7663446   0.79237136  -0.97397327    0.1155804    11460.305     1000 
 2750000   0.56501562   -1.7858828   0.84667591  -0.93920688   0.12828786    11623.886     1000 
 2752000   0.56640944   -1.7264801   0.84876455  -0.87771558   0.14500185    11296.477     1000 
 2754000   0.56451092   -1.7774451   0.84591961  -0.93152549   0.13144038    11466.642     1000 
 2756000   0.53723456   -1.7901267   0.80504599  -0.98508076   0.12908524    11709.143     1000 
 2758000    0.5671683   -1.7405512   0.84990169  -0.89064953   0.13683154    11326.609     1000 
 2760000   0.54197648   -1.7736191   0.81215176  -0.96146737   0.11656701    11544.349     1000 
 2762000   0.56844414   -1.7941895   0.85181355  -0.94237599   0.12333808    11568.492     1000 
 2764000   0.57437665   -1.7865276    0.8607034  -0.92582421   0.12678611    11453.935     1000 
 2766000   0.57900854   -1.7542012    0.8676443  -0.88655689   0.12356357    11490.319     1000 
 2768000   0.57286805    -1.775176   0.85844277   -0.9167332   0.12260043    11579.982     1000 
 2770000   0.52187409   -1.7492888   0.78202832   -0.9672605   0.11782319    11626.809     1000 
 2772000    0.5809035   -1.7828921    0.8704839  -0.91240817   0.14147725    11327.258     1000 
 2774000   0.54641036   -1.7344339   0.81879593    -0.915638   0.12158364    11460.327     1000 
 2776000    0.5713793   -1.8013067   0.85621188  -0.94509486   0.14311061    11399.855     1000 
 2778000   0.56985122   -1.7768053   0.85392206  -0.92288323   0.13309216    11432.491     1000 
 2780000   0.54795726    -1.782029   0.82111396  -0.96091502   0.12739752     11431.13     1000 
 2782000   0.58316813   -1.7672676   0.87387745  -0.89339018   0.13232374    11458.023     1000 
 2784000   0.56303978   -1.7754929   0.84371512  -0.93177778   0.12987093      11444.8     1000 
 2786000   0.56104474   -1.7493204   0.84072554  -0.90859485   0.12873316    11429.765     1000 
 2788000   0.56161323   -1.7909512   0.84157742  -0.94937382   0.12229152    11450.461     1000 
 2790000   0.54401246   -1.7656742   0.81520267  -0.95047152   0.12001713    11515.117     1000 
 2792000   0.54949214   -1.7680996   0.82341397  -0.94468562   0.12916928    11388.955     1000 
 2794000   0.56337342   -1.7408575   0.84421507  -0.89664239   0.11213113    11638.914     1000 
 2796000   0.57896859   -1.7697819   0.86758444  -0.90219744   0.14415225    11369.194     1000 
 2798000   0.56235985   -1.7850883   0.84269624  -0.94239208   0.13159512    11284.477     1000 
 2800000   0.56898621   -1.7195728   0.85262584    -0.866947   0.12724836    11310.967     1000 
 2802000   0.56568091   -1.7393139   0.84767284  -0.89164108   0.12049866    11484.389     1000 
 2804000   0.54901977   -1.7467192   0.82270613  -0.92401307   0.11477632    11523.695     1000 
 2806000   0.58027886   -1.7289244   0.86954787  -0.85937649   0.12194356    11434.602     1000 
 2808000     0.543849   -1.7737529   0.81495772  -0.95879513   0.12607534    11497.275     1000 
 2810000   0.52814691   -1.7596667   0.79142814  -0.96823859    0.1327785    11263.901     1000 
 2812000   0.56212321   -1.7632112   0.84234163  -0.92086953   0.13279777    11267.425     1000 
 2814000    0.5760865   -1.7529908   0.86326563  -0.88972514   0.13009399    11487.822     1000 
 2816000   0.56193138    -1.791286   0.84205417   -0.9492318   0.11374682    11705.812     1000 
 2818000   0.56245256   -1.7549938   0.84283517  -0.91215862    0.1253336    11544.889     1000 
 2820000   0.55414192   -1.7566946   0.83038166  -0.92631296   0.12991421    11561.567     1000 
 2822000   0.52758388    -1.790222   0.79058444  -0.99963758   0.12929779    11444.897     1000 
 2824000   0.55069461   -1.8000109   0.82521588  -0.97479507   0.12131368    11681.543     1000 
 2826000   0.55792703   -1.7777174   0.83605366  -0.94166375   0.11617285    11666.163     1000 
 2828000   0.55542328   -1.7535715   0.83230178  -0.92126975   0.13690158    11358.014     1000 
 2830000   0.55145631   -1.7499797   0.82635728  -0.92362238   0.12641394     11455.47     1000 
 2832000   0.55653387    -1.800459     0.833966  -0.96649297   0.13029192    11417.969     1000 
 2834000   0.55354684    -1.754586   0.82948994  -0.92509603   0.13972938    11372.942     1000 
 2836000   0.54056393   -1.7024591   0.81003505  -0.89242401   0.13085302    11303.271     1000 
 2838000   0.56311584   -1.7535069   0.84382909  -0.90967783   0.13580914    11397.508     1000 
 2840000   0.57080292   -1.7522388   0.85534817  -0.89689061    0.1394478    11354.308     1000 
 2842000   0.56474866   -1.7427124   0.84627587  -0.89643658   0.13042961      11310.7     1000 
 2844000   0.57551053   -1.7520882   0.86240252  -0.88968563   0.14355788    11443.682     1000 
 2846000   0.57137766   -1.7745212   0.85620943  -0.91831179   0.12899677    11369.307     1000 
 2848000    0.5512865   -1.7621922   0.82610282  -0.93608942   0.13669743    11315.744     1000 
 2850000   0.57712768   -1.8006046   0.86482582   -0.9357788   0.12947975    11543.687     1000 
 2852000   0.56139018   -1.8031226   0.84124319   -0.9618794   0.11527561    11561.368     1000 
 2854000   0.55230518   -1.7543803   0.82762932  -0.92675095   0.11767413    11535.919     1000 
 2856000    0.5820179   -1.7605514   0.87215382  -0.88839757   0.14119303    11415.955     1000 
 2858000   0.53781676   -1.7646008   0.80591841  -0.95868244   0.12738154    11478.759     1000 
 2860000   0.54922395    -1.728335   0.82301209  -0.90532295   0.13841255    11412.224     1000 
 2862000   0.54673264   -1.8167914   0.81927886  -0.99751257   0.13545261     11457.73     1000 
 2864000   0.55773527   -1.7457133    0.8357663  -0.90994697   0.12809509    11396.315     1000 
 2866000   0.57337294   -1.7728254   0.85919935  -0.91362609   0.12703958    11411.483     1000 
 2868000   0.56438366   -1.7563488   0.84572891  -0.91061988   0.13279978    11437.559     1000 
 2870000   0.57607811   -1.7164423   0.86325304  -0.85318924   0.13614479    11298.513     1000 
 2872000   0.53601942   -1.7629561   0.80322509  -0.95973101   0.12842605    11496.366     1000 
 2874000   0.54396284   -1.7676016   0.81512831  -0.95247328   0.13648631    11351.456     1000 
 2876000    0.5617762   -1.7623554   0.84182164  -0.92053378   0.12327161    11537.016     1000 
 2878000   0.56390505   -1.7309548   0.84501171  -0.88594308   0.12572922    11479.666     1000 
 2880000   0.54830385    -1.718102   0.82163331  -0.89646869   0.13769523    11294.012     1000 
 2882000    0.5515222   -1.7349189   0.82645602  -0.90846291    0.1373564    11345.034     1000 
 2884000   0.55601558   -1.7326098   0.83318935  -0.89942049   0.12359391    11379.742     1000 
 2886000   0.54630021   -1.8213999   0.81863087    -1.002769    0.1175013    11663.925     1000 
 2888000   0.57881902   -1.7613114    0.8673603  -0.89395111   0.13063742    11497.324     1000 
 2890000   0.57725084   -1.7566288   0.86501038  -0.89161847    0.1334057    11529.291     1000 
 2892000   0.55260508   -1.8183977   0.82807871  -0.99031895   0.12750301    11542.782     1000 
 2894000   0.57056211    -1.742447   0.85498732  -0.88745969   0.13563269     11312.19     1000 
 2896000   0.56150662    -1.747621   0.84141768  -0.90620334   0.13594603    11451.158     1000 
 2898000   0.55631362   -1.7470525   0.83363597  -0.91341652    0.1331412    11323.192     1000 
 2900000   0.52776384    -1.738649   0.79085411  -0.94779493   0.12735442    11510.077     1000 
 2902000   0.55525543   -1.7376973   0.83205027  -0.90564699   0.13258651    11380.692     1000 
 2904000   0.55663492   -1.7819174   0.83411742  -0.94779993   0.13508638    11337.991     1000 
 2906000   0.56110404   -1.7692506   0.84081441  -0.92843623   0.12492091    11356.104     1000 
 2908000    0.5550787   -1.7621683   0.83178543  -0.93038283   0.12932214    11558.889     1000 
 2910000   0.55404551   -1.7160456   0.83023719  -0.88580837   0.13236026    11351.137     1000 
 2912000   0.55392695   -1.7674038   0.83005954   -0.9373443   0.13542817    11449.097     1000 
 2914000   0.55409599   -1.7272727   0.83031285  -0.89695982   0.12868317    11344.005     1000 
 2916000    0.5556825   -1.7727424   0.83269022  -0.94005215   0.14715823    11341.092     1000 
 2918000   0.55631182   -1.7494427   0.83363327  -0.91580945   0.12547097    11426.992     1000 
 2920000      0.57564   -1.6949486   0.86259654  -0.83235209   0.14444848    11356.092     1000 
 2922000   0.53195547   -1.7654496   0.79713528  -0.96831434   0.12857788    11613.889     1000 
 2924000   0.54759182   -1.7850781   0.82056635  -0.96451171   0.12417967    11513.648     1000 
 2926000   0.58808735   -1.7469663    0.8812489  -0.86571744   0.14126197    11349.122     1000 
 2928000   0.58706385   -1.7502751   0.87971518   -0.8705599   0.12706589    11599.577     1000 
 2930000   0.53922102   -1.7249115    0.8080227   -0.9168888    0.1265117    11405.681     1000 
 2932000   0.56530661   -1.7374318   0.84711196  -0.89031988   0.11215755    11584.439     1000 
 2934000   0.54627794   -1.8251843   0.81859749   -1.0065868   0.12787083    11291.422     1000 
 2936000   0.57701205   -1.8251423   0.86465256  -0.96048978   0.13528041     11574.93     1000 
 2938000   0.57028205   -1.7553933   0.85456766  -0.90082565   0.12888262     11578.66     1000 
 2940000   0.54191304   -1.7202783   0.81205669  -0.90822156   0.13172974    11442.118     1000 
 2942000   0.55521657   -1.7745321   0.83199203  -0.94254006   0.12127596    11635.283     1000 
 2944000   0.57232602   -1.8059466   0.85763054  -0.94831607   0.12871687    11481.268     1000 
 2946000   0.53762367   -1.7597529   0.80562906  -0.95412385   0.12306924    11556.173     1000 
 2948000   0.56739788   -1.8048083   0.85024572  -0.95456256   0.13726489    11403.494     1000 
 2950000   0.55954785    -1.713157   0.83848246  -0.87467452   0.13293023    11351.407     1000 
 2952000   0.56607221   -1.8011413    0.8482592   -0.9528821   0.12578804    11535.926     1000 
 2954000   0.57700488   -1.7148018   0.86464181  -0.85015999    0.1312408    11281.764     1000 
 2956000   0.54511146   -1.7311486   0.81684953  -0.91429907   0.12103475    11515.417     1000 
 2958000   0.54814674   -1.7476806   0.82139788  -0.92628269   0.14925294    11205.623     1000 
 2960000   0.55125071   -1.7813727   0.82604919  -0.95532354   0.11943099     11552.28     1000 
 2962000   0.54836785   -1.7839984   0.82172922   -0.9622692   0.11815957    11673.655     1000 
 2964000   0.57536765   -1.7482166   0.86218842  -0.88602822   0.12344096    11496.889     1000 
 2966000   0.56292057   -1.7380466   0.84353648  -0.89451011   0.14047028    11335.957     1000 
 2968000   0.56427562   -1.7798688   0.84556701  -0.93430181   0.12767441    11484.777     1000 
 2970000   0.57278144   -1.7559153   0.85831298  -0.89760235   0.12540953    11450.853     1000 
 2972000   0.54834474   -1.7914433   0.82169459  -0.96974872   0.12548574    11561.262     1000 
 2974000   0.53726872   -1.7816296   0.80509717  -0.97653243   0.12328882    11619.881     1000 
 2976000   0.56320894   -1.6923827   0.84396859  -0.84841409   0.15158308    11334.632     1000 
 2978000   0.57471235   -1.7551926   0.86120646  -0.89398617     0.130362    11479.205     1000 
 2980000   0.56983445   -1.7722842   0.85389692  -0.91838725   0.12830416    11424.146     1000 
 2982000   0.56223792   -1.7675455   0.84251352  -0.92503202   0.13343109    11254.318     1000 
 2984000   0.58126442   -1.8037274   0.87102473  -0.93270264   0.12430004    11518.781     1000 
 2986000   0.55102048   -1.7738866   0.82570419  -0.94818242   0.13881595    11397.612     1000 
 2988000   0.52846413   -1.7309115    0.7919035  -0.93900803   0.12821161     11594.77     1000 
 2990000   0.56866944   -1.7782708   0.85215115  -0.92611962   0.12992177    11407.644     1000 
 2992000   0.56346321   -1.7764618   0.84434962   -0.9321122   0.12772046    11519.644     1000 
 2994000   0.56680493   -1.7443099   0.84935719  -0.89495274   0.12393404     11508.79     1000 
 2996000   0.54931657   -1.7492359   0.82315088  -0.92608498   0.10979824     11641.22     1000 
 2998000   0.54290057   -1.7577659   0.81353651   -0.9442294   0.13959272    11415.547     1000 
 3000000   0.55536972   -1.8098673   0.83222152   -0.9776458   0.13545828    11512.235     1000 
Loop time of 1168.08 on 1 procs for 3000000 steps with 1000 atoms

Performance: 1109513.080 tau/day, 2568.317 timesteps/s
100.0% CPU use with 1 MPI tasks x 1 OpenMP threads

MPI task timing breakdown:
Section |  min time  |  avg time  |  max time  |%varavg| %total
---------------------------------------------------------------
Pair    | 920.14     | 920.14     | 920.14     |   0.0 | 78.77
Neigh   | 144.53     | 144.53     | 144.53     |   0.0 | 12.37
Comm    | 25.482     | 25.482     | 25.482     |   0.0 |  2.18
Output  | 0.016737   | 0.016737   | 0.016737   |   0.0 |  0.00
Modify  | 72.536     | 72.536     | 72.536     |   0.0 |  6.21
Other   |            | 5.371      |            |       |  0.46

Nlocal:        1000.00 ave        1000 max        1000 min
Histogram: 1 0 0 0 0 0 0 0 0 0
Nghost:        2200.00 ave        2200 max        2200 min
Histogram: 1 0 0 0 0 0 0 0 0 0
Neighs:        27103.0 ave       27103 max       27103 min
Histogram: 1 0 0 0 0 0 0 0 0 0

Total # of neighbors = 27103
Ave neighs/atom = 27.103000
Neighbor list builds = 150000
Dangerous builds not checked

Total wall time: 0:19:28
