LAMMPS (29 Sep 2021 - Update 2)
OMP_NUM_THREADS environment is not set. Defaulting to 1 thread. (src/comm.cpp:98)
  using 1 OpenMP thread(s) per MPI task
# ----------------------- Inicialização -----------------------

units			lj
atom_style 		atomic
dimension 		3
boundary 		p p p

# -------------------- Criação dos Átomos ---------------------

read_data 		topologia.txt
Reading data file ...
  orthogonal box = (0.0000000 0.0000000 0.0000000) to (21.540000 21.540000 21.540000)
  1 by 1 by 1 MPI processor grid
  reading atoms ...
  1000 atoms
  read_data CPU = 0.006 seconds

velocity 		all create ${temp} 87287 rot yes dist gaussian
velocity 		all create 0.34 87287 rot yes dist gaussian

# ------------------ Interação Interatômica -------------------

pair_style		table linear 1000
pair_coeff		1 1 force.table AA 5.0
WARNING: 2 of 1000 force values in table AA are inconsistent with -dE/dr.
WARNING:  Should only be flagged at inflection points (src/pair_table.cpp:465)
pair_coeff		1 2 force.table AB 5.0
WARNING: 1 of 1000 force values in table AB are inconsistent with -dE/dr.
WARNING:  Should only be flagged at inflection points (src/pair_table.cpp:465)
pair_coeff		2 2 force.table BB 5.0
pair_write		1 1 1000 r 0.008 5.0 table.check AA
Appending to table file table.check with DATE: 2023-06-15
Neighbor list info ...
  update every 1 steps, delay 10 steps, check yes
  max neighbors/atom: 2000, page size: 100000
  master list distance cutoff = 5.3
  ghost atom cutoff = 5.3
  binsize = 2.65, bins = 9 9 9
  1 neighbor lists, perpetual/occasional/extra = 1 0 0
  (1) pair table, perpetual
      attributes: half, newton on
      pair build: half/bin/atomonly/newton
      stencil: half/bin/3d
      bin: standard
pair_write		1 2 1000 r 0.008 5.0 table.check AB
Appending to table file table.check with DATE: 2023-06-15
pair_write		2 2 1000 r 0.008 5.0 table.check BB
Appending to table file table.check with DATE: 2023-06-15

neighbor 		0.3 bin
neigh_modify		every 20 delay 0 check no

# ------------------------- Ensemble --------------------------------------

fix 1			all npt temp ${temp} ${temp} 0.5 iso ${press} ${press} 5
fix 1			all npt temp 0.34 ${temp} 0.5 iso ${press} ${press} 5
fix 1			all npt temp 0.34 0.34 0.5 iso ${press} ${press} 5
fix 1			all npt temp 0.34 0.34 0.5 iso 0.13 ${press} 5
fix 1			all npt temp 0.34 0.34 0.5 iso 0.13 0.13 5

# ---------------------- Função de Distribuição Radial -----------------------

#compute RDF 		all rdf 2000 1 1 1 2 2 2
#fix 2 			all ave/time 1 2000 2000 c_RDF[*] file rdf.data mode vector

# ------------------------- Execução ---------------------------

timestep 		0.005
thermo_style		custom step temp pe ke etotal press vol atoms
thermo			2000
run			3000000
Per MPI rank memory allocation (min/avg/max) = 2.670 | 2.670 | 2.670 Mbytes
Step Temp PotEng KinEng TotEng Press Volume Atoms 
       0         0.34  -0.99052333      0.50949  -0.48103333   0.10308698    9993.9483     1000 
    2000   0.34655619   -2.3641921   0.51931444   -1.8448776   0.13503219    11236.328     1000 
    4000   0.33565153   -2.4534233   0.50297382   -1.9504494   0.13128289    11371.169     1000 
    6000   0.34434612   -2.4374476   0.51600266   -1.9214449   0.14173857    11247.966     1000 
    8000   0.32484452   -2.4038655   0.48677952    -1.917086    0.1287137    11309.943     1000 
   10000   0.35433092    -2.461904   0.53096488   -1.9309391   0.13486556    11373.132     1000 
   12000   0.33827322   -2.4268392   0.50690242   -1.9199368   0.12029114     11451.96     1000 
   14000   0.33929947   -2.4066929   0.50844026   -1.8982526    0.1302363    11337.665     1000 
   16000   0.35061995   -2.4351076   0.52540399   -1.9097036   0.13199868    11362.848     1000 
   18000   0.34562749   -2.4732932    0.5179228   -1.9553704    0.1236801    11431.308     1000 
   20000   0.32452709    -2.410636   0.48630384   -1.9243321   0.13110196    11342.917     1000 
   22000   0.34194422   -2.4374938   0.51240342   -1.9250904   0.13590772    11309.147     1000 
   24000   0.33193677   -2.4757876   0.49740725   -1.9783804    0.1251487    11413.494     1000 
   26000   0.34695892   -2.4603108   0.51991793   -1.9403929   0.12548027    11398.721     1000 
   28000   0.33192194   -2.4369288   0.49738503   -1.9395437   0.12840848    11366.041     1000 
   30000   0.34482821   -2.4831788   0.51672508   -1.9664537   0.13375354    11424.312     1000 
   32000   0.33422571   -2.4638249   0.50083723   -1.9629877   0.13841191    11343.544     1000 
   34000   0.33158537   -2.4427433   0.49688067   -1.9458626   0.13621461    11285.939     1000 
   36000   0.33024136   -2.4526845   0.49486667   -1.9578179   0.12138327    11446.942     1000 
   38000   0.35884944   -2.4448798   0.53773589   -1.9071439   0.14061741    11314.368     1000 
   40000   0.33928778   -2.4509173   0.50842274   -1.9424945   0.13458633    11293.119     1000 
   42000   0.34274053   -2.4837118   0.51359668   -1.9701151   0.11573321    11505.533     1000 
   44000   0.32716392    -2.492732   0.49025514   -2.0024769   0.12449239    11408.193     1000 
   46000   0.33297581   -2.4265198   0.49896425   -1.9275555    0.1289062    11381.489     1000 
   48000   0.33721024   -2.5010731   0.50530954   -1.9957635   0.12581074    11397.226     1000 
   50000    0.3394976   -2.4570521   0.50873715   -1.9483149   0.12117486    11433.966     1000 
   52000   0.33692703   -2.4312659   0.50488515   -1.9263808   0.12706092    11420.819     1000 
   54000   0.32842664   -2.4545406   0.49214732   -1.9623933   0.13053427    11400.239     1000 
   56000   0.33574001   -2.4005753    0.5031064   -1.8974689    0.1200791      11370.8     1000 
   58000   0.32733601   -2.4152107   0.49051301   -1.9246977   0.12200801    11470.909     1000 
   60000   0.33717554   -2.4301635   0.50525754   -1.9249059   0.14291703    11288.908     1000 
   62000    0.3316337   -2.4634221    0.4969531    -1.966469    0.1370056    11276.681     1000 
   64000   0.34526723   -2.4448527   0.51738294   -1.9274697   0.13354462    11326.624     1000 
   66000   0.33870444   -2.4853846    0.5075486    -1.977836   0.12493729    11455.945     1000 
   68000   0.33326621   -2.4084253   0.49939941   -1.9090259   0.13817616    11238.135     1000 
   70000   0.33957102   -2.4199231   0.50884718   -1.9110759   0.13645127     11366.13     1000 
   72000   0.34259608   -2.4430592   0.51338023   -1.9296789   0.13556169    11357.593     1000 
   74000   0.34565876   -2.4608633   0.51796965   -1.9428937   0.12765235    11418.805     1000 
   76000   0.33331713   -2.4698957   0.49947572     -1.97042    0.1227668    11445.082     1000 
   78000   0.34573101   -2.4212968   0.51807791   -1.9032189   0.14805922    11235.245     1000 
   80000   0.34780498   -2.4668228   0.52118577    -1.945637   0.14657946    11254.389     1000 
   82000   0.34208116   -2.4691536   0.51260862   -1.9565449   0.12580622    11499.565     1000 
   84000   0.33447445    -2.453868   0.50120997    -1.952658   0.13229148    11372.591     1000 
   86000   0.34029374   -2.4360256   0.50993018   -1.9260954    0.1245017     11400.88     1000 
   88000   0.33482753   -2.4208591   0.50173905     -1.91912   0.12581034    11363.042     1000 
   90000   0.32875758   -2.3944753   0.49264323   -1.9018321   0.13852422    11195.685     1000 
   92000   0.34621432   -2.4381348   0.51880216   -1.9193326   0.12678941     11456.16     1000 
   94000    0.3500895   -2.4529539   0.52460912   -1.9283448   0.11985531    11488.412     1000 
   96000   0.31978131    -2.407868   0.47919229   -1.9286757   0.14328925    11316.267     1000 
   98000   0.35064969   -2.4291851   0.52544855   -1.9037365   0.13441078    11337.489     1000 
  100000   0.35303724   -2.4634067   0.52902631   -1.9343804   0.13908631    11226.957     1000 
  102000   0.33301324   -2.4425836   0.49902034   -1.9435633   0.13251678    11344.794     1000 
  104000   0.33724193   -2.4905659   0.50535703   -1.9852089   0.12091679    11429.907     1000 
  106000   0.34051641   -2.4229264   0.51026385   -1.9126626   0.14216328    11289.918     1000 
  108000   0.33551509    -2.451816   0.50276936   -1.9490466    0.1368644    11320.102     1000 
  110000    0.3258467   -2.4430937   0.48828128   -1.9548125   0.11647838    11523.157     1000 
  112000   0.34788205   -2.4558822   0.52130125    -1.934581   0.13664032    11297.602     1000 
  114000   0.34359111   -2.4678026   0.51487128   -1.9529313    0.1350177      11315.3     1000 
  116000   0.33562614   -2.4326082   0.50293578   -1.9296724   0.13706724    11273.137     1000 
  118000   0.34920584   -2.4339436   0.52328495   -1.9106586   0.12095166    11415.716     1000 
  120000   0.32861631   -2.4712377   0.49243154   -1.9788062   0.13216404    11374.495     1000 
  122000   0.33677792   -2.4501536   0.50466171   -1.9454919    0.1195739    11476.696     1000 
  124000   0.32811438   -2.4670177    0.4916794   -1.9753383   0.12785844     11398.09     1000 
  126000   0.33876557   -2.4360376   0.50764021   -1.9283974   0.12411023    11376.739     1000 
  128000   0.33905103   -2.4175304   0.50806797   -1.9094625   0.12588285    11410.031     1000 
  130000   0.33528423   -2.4604531   0.50242341   -1.9580297   0.12750092    11323.563     1000 
  132000   0.33184352   -2.4654557   0.49726752   -1.9681882    0.1301409    11412.915     1000 
  134000   0.34182661   -2.4162012   0.51222718    -1.903974   0.13618527    11330.092     1000 
  136000   0.32913664   -2.4587618   0.49321126   -1.9655505   0.12781116    11316.373     1000 
  138000    0.3412258   -2.4765933   0.51132686   -1.9652664   0.12013985    11468.318     1000 
  140000   0.33935441   -2.4431675   0.50852258    -1.934645   0.13996385    11292.181     1000 
  142000   0.34904765   -2.4009081    0.5230479   -1.8778602   0.13767416    11305.583     1000 
  144000   0.32658041   -2.4163676   0.48938075   -1.9269869   0.13493099    11320.848     1000 
  146000   0.33863647   -2.4165481   0.50744674   -1.9091013   0.12340226    11437.073     1000 
  148000   0.33620471   -2.4560465   0.50380276   -1.9522437      0.11943    11442.208     1000 
  150000   0.33059925   -2.4864236   0.49540297   -1.9910206   0.13337292    11315.021     1000 
  152000   0.34743532   -2.4336553   0.52063182   -1.9130235   0.14759527    11271.353     1000 
  154000   0.33640338   -2.4302051   0.50410047   -1.9261047    0.1188305    11473.727     1000 
  156000   0.33728406   -2.4712064   0.50542016   -1.9657863   0.12899261    11362.159     1000 
  158000   0.34945111   -2.4433258   0.52365249   -1.9196733   0.13068093    11406.808     1000 
  160000   0.34484083   -2.4901267   0.51674399   -1.9733827   0.13661696     11313.49     1000 
  162000    0.3296732   -2.4430821    0.4940153   -1.9490668   0.13074775    11401.064     1000 
  164000   0.34613647   -2.4872552    0.5186855   -1.9685697   0.12411155     11497.98     1000 
  166000   0.35908965    -2.458646   0.53809584   -1.9205501   0.11922653    11421.438     1000 
  168000    0.3542232   -2.4155577   0.53080347   -1.8847542   0.12570785    11355.615     1000 
  170000     0.328753   -2.4688035   0.49263637   -1.9761671   0.12295681     11399.16     1000 
  172000   0.33772037   -2.4530646   0.50607397   -1.9469907   0.13998566    11299.074     1000 
  174000   0.35040234   -2.4216218   0.52507791   -1.8965439   0.13574661    11348.121     1000 
  176000   0.33417138   -2.4776929   0.50075581   -1.9769371   0.12487547    11444.975     1000 
  178000   0.32767055   -2.4424396   0.49101432   -1.9514253   0.14023672    11316.015     1000 
  180000   0.34017581   -2.4164395   0.50975345   -1.9066861   0.13623917    11358.265     1000 
  182000   0.35008744   -2.4256922   0.52460603   -1.9010862   0.13116886    11354.905     1000 
  184000   0.33608389   -2.4544135   0.50362171   -1.9507918   0.14000496     11316.98     1000 
  186000   0.34625669    -2.414881   0.51886565   -1.8960154   0.14500995    11313.646     1000 
  188000    0.3374313   -2.4603234   0.50564081   -1.9546826   0.13509645    11297.464     1000 
  190000   0.31353457   -2.4387716   0.46983155   -1.9689401   0.12244687     11364.41     1000 
  192000   0.34394415    -2.460442   0.51540031   -1.9450417   0.12859831    11428.845     1000 
  194000   0.34840809   -2.4301819   0.52208952   -1.9080924   0.13177153    11352.802     1000 
  196000   0.34838117   -2.4318416   0.52204919   -1.9097925   0.12280981    11412.109     1000 
  198000   0.33430132   -2.4652851   0.50095052   -1.9643346   0.13530772     11377.51     1000 
  200000   0.33970694   -2.4313247   0.50905084   -1.9222738   0.13525323    11353.002     1000 
  202000    0.3397004   -2.4795676   0.50904104   -1.9705265   0.10513216    11585.619     1000 
  204000   0.33702705   -2.4252123   0.50503504   -1.9201772   0.12961879    11401.473     1000 
  206000   0.33742686   -2.4262729   0.50563416   -1.9206388   0.13593918    11371.968     1000 
  208000   0.34107669   -2.4596869   0.51110341   -1.9485834   0.13859262    11299.773     1000 
  210000   0.34937342   -2.4997858   0.52353607   -1.9762497   0.12424098    11392.435     1000 
  212000   0.33782954   -2.4319893   0.50623757   -1.9257518    0.1263838    11324.222     1000 
  214000   0.34395557   -2.5004498   0.51541742   -1.9850323   0.11674011    11517.298     1000 
  216000   0.34032632   -2.4415818   0.50997899   -1.9316028   0.13327921    11307.841     1000 
  218000   0.34786665   -2.4513086   0.52127817   -1.9300304   0.12794691    11410.407     1000 
  220000    0.3391811   -2.4104241   0.50826288   -1.9021612   0.12126661    11478.812     1000 
  222000   0.33513334   -2.4786562   0.50219732   -1.9764589   0.13389491    11400.175     1000 
  224000   0.32693988   -2.4663135    0.4899194   -1.9763941   0.12257474    11415.348     1000 
  226000   0.34150862   -2.4353349   0.51175066   -1.9235842   0.11843866    11501.457     1000 
  228000   0.34669933   -2.4274452   0.51952895   -1.9079163   0.12959534    11376.458     1000 
  230000   0.33020246   -2.4594067   0.49480838   -1.9645983   0.13928163     11358.55     1000 
  232000   0.33681053   -2.4326358   0.50471059   -1.9279253   0.13651774    11323.696     1000 
  234000   0.34910612   -2.4802744   0.52313553   -1.9571389   0.12458358    11408.283     1000 
  236000   0.34323416   -2.4534357   0.51433639   -1.9390993   0.13324542    11317.135     1000 
  238000   0.34697916   -2.4610011   0.51994826   -1.9410529   0.12976218    11418.318     1000 
  240000    0.3292169   -2.4050037   0.49333153   -1.9116722   0.13309424    11318.842     1000 
  242000    0.3594022   -2.4624839    0.5385642   -1.9239197    0.1369162    11495.235     1000 
  244000   0.32683925   -2.4210263   0.48976861   -1.9312577   0.13509783    11327.576     1000 
  246000   0.33313746    -2.494177   0.49920648   -1.9949706   0.12681094    11467.553     1000 
  248000   0.35517563   -2.4902478   0.53223068   -1.9580171   0.11916294    11493.183     1000 
  250000   0.34725265   -2.4533696   0.52035809   -1.9330115   0.12554337     11413.37     1000 
  252000    0.3407566   -2.4491418   0.51062377    -1.938518   0.12783921    11453.878     1000 
  254000   0.36374413   -2.4427665   0.54507058   -1.8976959   0.13341801    11341.628     1000 
  256000   0.31934654    -2.410809   0.47854079   -1.9322682   0.13252733    11283.161     1000 
  258000   0.34136952   -2.4613703   0.51154222   -1.9498281   0.11389425    11499.941     1000 
  260000   0.33296785   -2.4109728   0.49895233   -1.9120205   0.12973576    11320.119     1000 
  262000   0.32537103   -2.4752214   0.48756848   -1.9876529   0.12264661    11459.645     1000 
  264000   0.33612323   -2.4328754   0.50368066   -1.9291948   0.13100092    11419.663     1000 
  266000   0.32509213   -2.4721608   0.48715056   -1.9850103   0.12381098    11464.091     1000 
  268000   0.33968493    -2.458245   0.50901787   -1.9492272   0.12614984    11398.127     1000 
  270000   0.33662633   -2.4356828   0.50443455   -1.9312482   0.12483087    11385.837     1000 
  272000   0.34476526    -2.459144   0.51663074   -1.9425133   0.13171099    11411.015     1000 
  274000   0.35053993    -2.454983   0.52528409   -1.9296989   0.13045789    11400.901     1000 
  276000   0.34266704   -2.4396936   0.51348656    -1.926207   0.13652389    11366.456     1000 
  278000   0.34189411   -2.4329914   0.51232832   -1.9206631   0.14147425    11256.875     1000 
  280000   0.33920122   -2.4058993   0.50829302   -1.8976063   0.12893481    11282.288     1000 
  282000   0.35280925   -2.4689472   0.52868467   -1.9402626   0.13007814    11321.258     1000 
  284000   0.32845408   -2.4549026   0.49218843   -1.9627142   0.12305655    11461.886     1000 
  286000   0.34843118   -2.4063058   0.52212413   -1.8841817    0.1230524    11438.302     1000 
  288000   0.33057417   -2.4444195   0.49536539   -1.9490541   0.11894666    11458.659     1000 
  290000   0.32512609   -2.4126563   0.48720145   -1.9254549    0.1192415    11452.712     1000 
  292000   0.33862772   -2.4379613   0.50743363   -1.9305277    0.1362236    11396.528     1000 
  294000   0.34819062   -2.4395522   0.52176365   -1.9177885   0.12770777    11323.316     1000 
  296000   0.32456749   -2.4405503   0.48636438   -1.9541859   0.13106196    11381.998     1000 
  298000   0.34115242   -2.4294833    0.5112169   -1.9182664   0.12765188    11408.369     1000 
  300000    0.3334043   -2.4211555   0.49960635   -1.9215491   0.13389757    11272.227     1000 
  302000   0.33634126   -2.4296832   0.50400737   -1.9256758   0.12227002    11426.569     1000 
  304000   0.35241176   -2.4528423   0.52808902   -1.9247533   0.13280393    11406.141     1000 
  306000   0.34282318   -2.4345247   0.51372054   -1.9208042   0.13310429    11383.298     1000 
  308000   0.33503213   -2.4477593   0.50204564   -1.9457136   0.12482473    11413.869     1000 
  310000   0.34466771   -2.4446188   0.51648456   -1.9281342   0.13829473     11335.14     1000 
  312000   0.33626606   -2.4612733   0.50389469   -1.9573786   0.12952692    11361.309     1000 
  314000    0.3513378   -2.4520355   0.52647969   -1.9255558   0.12966464     11434.48     1000 
  316000   0.34360394   -2.4226231    0.5148905   -1.9077326   0.11861777    11452.519     1000 
  318000   0.33224119    -2.419772   0.49786342   -1.9219086    0.1274057    11336.719     1000 
  320000   0.34698951   -2.4422161   0.51996378   -1.9222523   0.12756592    11403.202     1000 
  322000   0.33695551   -2.4561612   0.50492784   -1.9512334   0.13492969    11347.275     1000 
  324000   0.33970378   -2.4510492   0.50904611   -1.9420031   0.13108594    11389.377     1000 
  326000   0.35644116   -2.4606771   0.53412708     -1.92655   0.13296035    11358.969     1000 
  328000   0.33321108   -2.4637755   0.49931681   -1.9644587   0.12148614    11468.992     1000 
  330000   0.33553929   -2.3976511   0.50280562   -1.8948454   0.13673687    11318.418     1000 
  332000   0.33602983   -2.4465332    0.5035407   -1.9429925   0.12489692    11417.676     1000 
  334000   0.33569896   -2.4201035   0.50304489   -1.9170586   0.12342752    11396.419     1000 
  336000   0.34172916   -2.4157866   0.51208114   -1.9037055   0.14765646    11211.594     1000 
  338000   0.34254429   -2.5076287   0.51330262   -1.9943261   0.12144906    11514.868     1000 
  340000   0.33913154   -2.4437192   0.50818861   -1.9355306   0.13629986    11384.573     1000 
  342000    0.3434533   -2.4775523   0.51466477   -1.9628875    0.1376956    11364.008     1000 
  344000   0.33001478   -2.4473899   0.49452715   -1.9528628   0.13385976    11339.674     1000 
  346000   0.34926678   -2.4550057   0.52337626   -1.9316294   0.12896182    11384.112     1000 
  348000   0.33414566   -2.4704341   0.50071727   -1.9697168   0.11947833    11454.365     1000 
  350000   0.33948908   -2.4287128   0.50872439   -1.9199884   0.12787211    11399.717     1000 
  352000   0.35058592   -2.4398768     0.525353   -1.9145238    0.1189215    11322.391     1000 
  354000   0.34269262   -2.4132266    0.5135249   -1.8997017   0.13522103    11339.378     1000 
  356000   0.33410059   -2.4633954   0.50064974   -1.9627457   0.13303808    11366.925     1000 
  358000   0.33239238   -2.4049861   0.49808998   -1.9068961   0.14186688    11293.793     1000 
  360000   0.33068756   -2.4217449   0.49553531   -1.9262096   0.13695654    11334.478     1000 
  362000   0.34294574   -2.3829312   0.51390419   -1.8690271   0.12758147    11392.083     1000 
  364000    0.3359375   -2.4510022   0.50340234   -1.9475999    0.1264408     11363.99     1000 
  366000   0.32469234   -2.4099932   0.48655147   -1.9234417   0.13510398    11333.422     1000 
  368000   0.33978595   -2.4068291   0.50916925   -1.8976598   0.13446147    11347.078     1000 
  370000   0.34256607   -2.4548183   0.51333526    -1.941483   0.13672397    11403.973     1000 
  372000   0.32635573   -2.4561496   0.48904406   -1.9671056   0.13019914    11437.572     1000 
  374000   0.34207245   -2.4674954   0.51259556   -1.9548999   0.13297958    11402.282     1000 
  376000   0.34300268   -2.4452419   0.51398951   -1.9312524   0.13254357     11368.46     1000 
  378000   0.34274349   -2.4722282   0.51360112   -1.9586271   0.12176988    11449.313     1000 
  380000   0.33237957   -2.4394529   0.49807078   -1.9413821   0.12800834    11411.939     1000 
  382000   0.33392201   -2.4464676   0.50038213   -1.9460855   0.13380121    11415.094     1000 
  384000   0.35549366   -2.4160723   0.53270725    -1.883365   0.13745507    11318.757     1000 
  386000   0.34759144   -2.4537235   0.52086578   -1.9328577   0.13296469    11372.802     1000 
  388000   0.33841473   -2.4600888   0.50711447   -1.9529743   0.12744107    11434.962     1000 
  390000   0.33319228   -2.4359987   0.49928863   -1.9367101   0.12121671    11485.626     1000 
  392000   0.33494667   -2.4246108   0.50191759   -1.9226932   0.13286025      11307.8     1000 
  394000   0.33842955   -2.4362095   0.50713667   -1.9290729    0.1133529    11579.568     1000 
  396000   0.33125432     -2.43224    0.4963846   -1.9358554   0.12497998    11418.865     1000 
  398000   0.33397453   -2.4886967   0.50046084   -1.9882358   0.13130557     11386.77     1000 
  400000   0.32616975   -2.3896043   0.48876538   -1.9008389   0.12508403    11304.341     1000 
  402000   0.33328735   -2.3958119    0.4994311   -1.8963808   0.11766352    11408.379     1000 
  404000   0.32848045    -2.424688   0.49222796     -1.93246   0.12609837    11489.862     1000 
  406000   0.33343797   -2.4375561   0.49965679   -1.9378993   0.13336467    11426.602     1000 
  408000   0.34747358   -2.4568527   0.52068916   -1.9361636   0.13643413     11406.69     1000 
  410000   0.33722402   -2.4617167   0.50533019   -1.9563865   0.11648169    11507.845     1000 
  412000   0.32725762   -2.4431453   0.49039554   -1.9527498   0.13058058    11332.967     1000 
  414000   0.33661581   -2.4505175    0.5044188   -1.9460987   0.12812693    11391.594     1000 
  416000    0.3351117   -2.4242581   0.50216489   -1.9220933   0.14338876    11260.377     1000 
  418000   0.33672615   -2.4553723   0.50458414   -1.9507882   0.12774574    11412.268     1000 
  420000   0.33868946    -2.437862   0.50752616   -1.9303358   0.12125081    11485.812     1000 
  422000   0.34287147   -2.4684626    0.5137929   -1.9546697   0.13048156    11412.764     1000 
  424000   0.34856896   -2.4264333   0.52233059   -1.9041027   0.13827126    11296.354     1000 
  426000   0.33305804   -2.4033691   0.49908747   -1.9042816   0.13095888    11383.939     1000 
  428000   0.33321496   -2.4275347   0.49932262    -1.928212   0.13370745    11289.922     1000 
  430000    0.3319273   -2.4840143   0.49739306   -1.9866213   0.12155532    11448.249     1000 
  432000   0.32503271   -2.4480731   0.48706152   -1.9610116   0.12236405    11405.098     1000 
  434000   0.33664728   -2.4290373   0.50446595   -1.9245713   0.12816047    11262.558     1000 
  436000   0.31931897   -2.4100825   0.47849948    -1.931583   0.11966098    11364.063     1000 
  438000   0.33348324   -2.4015151   0.49972464   -1.9017904   0.12891089    11375.063     1000 
  440000   0.32814345    -2.435395   0.49172296    -1.943672   0.12012793    11479.217     1000 
  442000   0.33221793   -2.4537924   0.49782857   -1.9559638   0.11427318    11446.069     1000 
  444000   0.34090049   -2.4041027   0.51083939   -1.8932633   0.12743727    11381.158     1000 
  446000   0.33307565    -2.457242   0.49911386   -1.9581282   0.12290279    11453.416     1000 
  448000   0.33516291   -2.4307991   0.50224161   -1.9285574    0.1284753    11370.942     1000 
  450000   0.34193989   -2.4541561   0.51239692   -1.9417592   0.13165449    11364.408     1000 
  452000   0.32110407   -2.3949436   0.48117445   -1.9137691   0.12299132    11368.171     1000 
  454000   0.35234398    -2.452036   0.52798745   -1.9240486   0.12586246    11426.963     1000 
  456000    0.3402417   -2.4469956   0.50985219   -1.9371434   0.12462139    11388.505     1000 
  458000   0.34386605    -2.439188   0.51528328   -1.9239047   0.12716709    11388.135     1000 
  460000   0.34345799    -2.446328    0.5146718   -1.9316562   0.12819755    11447.606     1000 
  462000   0.34168787    -2.448918   0.51201928   -1.9368987   0.12946569    11359.549     1000 
  464000   0.33940461   -2.4300352   0.50859781   -1.9214374    0.1336245    11301.211     1000 
  466000   0.33260308   -2.4805335   0.49840572   -1.9821278   0.12490673    11435.967     1000 
  468000   0.33357617   -2.4617157   0.49986389   -1.9618518   0.13695839    11299.302     1000 
  470000   0.34451585   -2.4227083     0.516257   -1.9064513   0.12422048    11367.148     1000 
  472000   0.33771524   -2.4359994   0.50606628   -1.9299331   0.13555689    11289.146     1000 
  474000    0.3611458   -2.4494528   0.54117698   -1.9082759   0.13856133    11283.505     1000 
  476000   0.34793726   -2.4236885   0.52138398   -1.9023045   0.12362268    11394.406     1000 
  478000   0.34731346   -2.4138504   0.52044922   -1.8934012   0.13962014    11366.731     1000 
  480000   0.34006829   -2.4549637   0.50959233   -1.9453714   0.13373127    11345.778     1000 
  482000   0.34860647   -2.4684675   0.52238679   -1.9460807   0.12369743    11407.489     1000 
  484000   0.34027109   -2.4454559   0.50989623   -1.9355597   0.13978325    11317.751     1000 
  486000   0.34865412    -2.487057    0.5224582   -1.9645988   0.12722414    11460.408     1000 
  488000   0.33472167   -2.4420742   0.50158042   -1.9404938    0.1244208    11527.638     1000 
  490000   0.33780167   -2.4292159    0.5061958   -1.9230201   0.12855186    11361.623     1000 
  492000   0.34847735   -2.3989941   0.52219331   -1.8768008   0.14306076    11265.825     1000 
  494000   0.32835868   -2.4291474   0.49204549   -1.9371019   0.12815408    11346.431     1000 
  496000   0.33937257   -2.4718057    0.5085498    -1.963256   0.12633709     11412.35     1000 
  498000   0.32901509   -2.4569513   0.49302911   -1.9639222   0.12015701    11409.592     1000 
  500000   0.35283583   -2.4634502   0.52872448   -1.9347257    0.1245715    11408.041     1000 
  502000   0.32350542   -2.4718072   0.48477287   -1.9870343   0.14029188     11285.89     1000 
  504000   0.32960904   -2.4053839   0.49391915   -1.9114647   0.13009285    11335.451     1000 
  506000    0.3429929    -2.459519   0.51397486   -1.9455441   0.11493581    11495.324     1000 
  508000   0.34098251   -2.4143332   0.51096229   -1.9033709   0.13304434    11333.516     1000 
  510000   0.33615947   -2.4459326   0.50373496   -1.9421976   0.13194841    11267.588     1000 
  512000   0.33766789   -2.4457524   0.50599534   -1.9397571   0.12530008    11372.382     1000 
  514000   0.33499961   -2.4827585   0.50199691   -1.9807616   0.12308243    11399.955     1000 
  516000   0.33328445   -2.4529571   0.49942674   -1.9535304   0.12422611    11464.279     1000 
  518000   0.34887085   -2.4552944   0.52278296   -1.9325114   0.12629439    11477.852     1000 
  520000   0.35754854   -2.4187723   0.53578649   -1.8829858   0.13007121    11315.802     1000 
  522000   0.34643523   -2.4171767   0.51913319   -1.8980435   0.13269541    11361.419     1000 
  524000   0.33640465   -2.4459982   0.50410236   -1.9418958   0.13241239    11352.052     1000 
  526000   0.32336561   -2.4395024   0.48456336    -1.954939   0.11978706    11429.698     1000 
  528000     0.342489    -2.449342   0.51321976   -1.9361222   0.13235447    11404.557     1000 
  530000   0.33722187   -2.4593234   0.50532698   -1.9539964   0.11915202    11428.338     1000 
  532000   0.35127098    -2.465594   0.52637956   -1.9392145   0.13424724    11338.118     1000 
  534000   0.34521031   -2.4475434   0.51729765   -1.9302458   0.13402212    11339.943     1000 
  536000   0.34485878   -2.4746629   0.51677088    -1.957892   0.13299344    11336.492     1000 
  538000   0.33491157   -2.4510729   0.50186498   -1.9492079   0.11792087    11441.777     1000 
  540000   0.31930966   -2.4465695   0.47848552    -1.968084   0.13244193    11350.224     1000 
  542000   0.34232855   -2.4339511   0.51297934   -1.9209718   0.13293539    11334.415     1000 
  544000   0.34444616   -2.4651536   0.51615257   -1.9490011   0.11977912     11471.09     1000 
  546000   0.34150755    -2.431808   0.51174907   -1.9200589   0.12429415    11372.871     1000 
  548000   0.34097499   -2.4647785   0.51095102   -1.9538275   0.11887606    11528.313     1000 
  550000   0.34607271   -2.4374065   0.51858996   -1.9188166   0.13603866    11336.371     1000 
  552000   0.34196419   -2.4290523   0.51243334   -1.9166189   0.13475072    11247.554     1000 
  554000   0.34306615   -2.4191964   0.51408463   -1.9051118   0.13832599     11317.01     1000 
  556000   0.32710502   -2.4631733   0.49016688   -1.9730064   0.12611305    11403.782     1000 
  558000   0.33985774   -2.4429842   0.50927682   -1.9337073   0.12321886    11362.414     1000 
  560000   0.34101924   -2.4449614   0.51101733   -1.9339441   0.13305288    11360.269     1000 
  562000   0.35365249   -2.4261737   0.52994826   -1.8962254   0.12824248    11396.966     1000 
  564000   0.35801145   -2.4495707   0.53648016   -1.9130905   0.12637932    11396.074     1000 
  566000   0.33398603   -2.4442868   0.50047806   -1.9438087   0.13514024    11311.691     1000 
  568000   0.32553222    -2.446853   0.48781002    -1.959043   0.13021236    11382.405     1000 
  570000   0.32667278    -2.422169   0.48951916   -1.9326499   0.13781756      11326.5     1000 
  572000   0.33945341    -2.411118   0.50867093    -1.902447   0.13004697    11269.535     1000 
  574000   0.33683826   -2.4753833   0.50475214   -1.9706311   0.13275546    11406.613     1000 
  576000   0.33591793   -2.4298958   0.50337303   -1.9265228   0.13158894    11287.917     1000 
  578000   0.35412544   -2.4249126   0.53065697   -1.8942556   0.13421154    11368.293     1000 
  580000   0.34498301   -2.4554953   0.51695704   -1.9385383   0.11445358    11479.345     1000 
  582000   0.34506975   -2.4455988   0.51708703   -1.9285118   0.13225369    11370.901     1000 
  584000   0.34896763   -2.4533078   0.52292799   -1.9303798   0.14793895    11213.323     1000 
  586000   0.35554584   -2.4378183   0.53278545   -1.9050329   0.13505947    11326.828     1000 
  588000    0.3236152   -2.4397219   0.48493737   -1.9547846    0.1330745    11314.488     1000 
  590000   0.34696121   -2.4216487   0.51992137   -1.9017273    0.1242436    11361.922     1000 
  592000   0.34020831   -2.4180193   0.50980215   -1.9082171   0.14350419    11290.759     1000 
  594000   0.33283362   -2.4457729   0.49875118   -1.9470217   0.14214072    11269.494     1000 
  596000   0.33941776   -2.4397955   0.50861752    -1.931178   0.14176881     11266.84     1000 
  598000   0.33188192   -2.4317718   0.49732505   -1.9344468   0.12625035    11421.131     1000 
  600000   0.33529978   -2.4355338   0.50244673    -1.933087   0.14000331    11349.548     1000 
  602000   0.34598189   -2.4418313   0.51845387   -1.9233774   0.11659405    11457.114     1000 
  604000   0.33558024   -2.4338787   0.50286699   -1.9310117   0.13431442     11273.19     1000 
  606000   0.33385627   -2.4281303   0.50028363   -1.9278467   0.13704975    11351.922     1000 
  608000   0.34251285   -2.4419806    0.5132555   -1.9287251   0.14240753    11300.814     1000 
  610000     0.329491   -2.4655026   0.49374226   -1.9717604   0.13212672    11417.745     1000 
  612000   0.33700984   -2.4667939   0.50500925   -1.9617846   0.12651672    11414.634     1000 
  614000   0.35295319   -2.4186393   0.52890035    -1.889739   0.14231219    11354.689     1000 
  616000   0.35009478   -2.4498196   0.52461704   -1.9252025   0.13220527    11409.666     1000 
  618000   0.35073941    -2.460248   0.52558301    -1.934665   0.13512549    11358.999     1000 
  620000   0.34584417   -2.4230387   0.51824748   -1.9047912   0.12570521    11383.461     1000 
  622000   0.33156333   -2.4256524   0.49684765   -1.9288047   0.13255542     11355.04     1000 
  624000   0.35465114     -2.45406   0.53144473   -1.9226152   0.12591266    11394.295     1000 
  626000   0.34036581   -2.4636193   0.51003816   -1.9535811   0.13023941    11388.905     1000 
  628000   0.34580383   -2.4302718   0.51818705   -1.9120848   0.13306307    11329.691     1000 
  630000   0.33581873   -2.4498571   0.50322437   -1.9466328   0.13692157     11303.11     1000 
  632000   0.34737193   -2.4580109   0.52053684   -1.9374741   0.12977071    11480.842     1000 
  634000   0.32279962   -2.4587454   0.48371524   -1.9750301   0.13297754    11335.802     1000 
  636000   0.34507019   -2.4336331   0.51708768   -1.9165454   0.11807822    11481.414     1000 
  638000   0.33964977   -2.4196162   0.50896518    -1.910651   0.12984158    11456.978     1000 
  640000   0.33740346   -2.4349303   0.50559909   -1.9293312    0.1264938    11418.635     1000 
  642000   0.33871379   -2.4030591   0.50756261   -1.8954965   0.12273888    11383.347     1000 
  644000   0.35283101    -2.433647   0.52871726   -1.9049297   0.12740632    11453.303     1000 
  646000   0.33329699   -2.4293673   0.49944555   -1.9299218   0.12580576    11422.655     1000 
  648000   0.34405016   -2.4405274   0.51555916   -1.9249682   0.13137952    11363.582     1000 
  650000   0.34138871   -2.4329816   0.51157098   -1.9214106   0.12520889    11422.354     1000 
  652000   0.34266039   -2.4538851    0.5134766   -1.9404085    0.1307243    11364.927     1000 
  654000   0.33051936   -2.4600536   0.49528325   -1.9647704   0.12443342    11396.313     1000 
  656000   0.33257588   -2.4676154   0.49836496   -1.9692504   0.12579339    11454.401     1000 
  658000   0.33280643   -2.4029603   0.49871044   -1.9042499   0.12790664     11385.49     1000 
  660000    0.3304327   -2.4645181    0.4951534   -1.9693647   0.13561594    11334.634     1000 
  662000   0.33143895   -2.4587707   0.49666127   -1.9621095   0.12536217    11425.654     1000 
  664000   0.34193768   -2.4733885   0.51239362   -1.9609949   0.12473975    11400.258     1000 
  666000   0.33788402   -2.4412658    0.5063192   -1.9349466   0.12158586    11489.705     1000 
  668000   0.35247902   -2.4531028   0.52818981    -1.924913   0.12357335    11444.294     1000 
  670000   0.33716868   -2.4474779   0.50524727   -1.9422306   0.14075055     11282.19     1000 
  672000   0.36069402   -2.4430825   0.54049999   -1.9025825   0.13122648    11398.614     1000 
  674000   0.33843877   -2.4170108   0.50715049   -1.9098603   0.12828812    11406.235     1000 
  676000   0.34007013   -2.4512983   0.50959509   -1.9417032   0.11826478    11397.317     1000 
  678000   0.33207576   -2.4454099   0.49761552   -1.9477944   0.12793924    11345.414     1000 
  680000   0.34414048   -2.4697429   0.51569451   -1.9540484   0.13631537    11416.638     1000 
  682000   0.32923345   -2.4285409   0.49335632   -1.9351846   0.12566272    11382.393     1000 
  684000   0.32757719   -2.4535437   0.49087442   -1.9626693    0.1327729    11370.812     1000 
  686000   0.32849713   -2.4439384   0.49225295   -1.9516855   0.12561434    11406.469     1000 
  688000   0.34630628   -2.4878874   0.51893996   -1.9689475   0.12869213    11439.179     1000 
  690000   0.34104136    -2.476976   0.51105048   -1.9659256   0.12545902    11412.704     1000 
  692000   0.34050979   -2.4215862   0.51025392   -1.9113323   0.12508313    11382.477     1000 
  694000   0.34607426   -2.4419631   0.51859228   -1.9233708   0.12492745    11444.794     1000 
  696000   0.33189845   -2.4561644   0.49734982   -1.9588145   0.12199472      11461.1     1000 
  698000   0.33079217   -2.4820311   0.49569207    -1.986339   0.13055302    11460.525     1000 
  700000   0.33801925   -2.4439067   0.50652185   -1.9373848   0.13558956    11286.293     1000 
  702000   0.33958841   -2.4632346   0.50887324   -1.9543614   0.13606492    11299.247     1000 
  704000   0.33190769   -2.4458813   0.49736367   -1.9485176   0.12744654    11355.617     1000 
  706000    0.3305401    -2.435254   0.49531434   -1.9399396   0.13243193    11320.255     1000 
  708000   0.32879395   -2.4459516   0.49269773   -1.9532538   0.13464928    11375.542     1000 
  710000   0.36033428   -2.4431742   0.53996092   -1.9032133   0.12880787    11398.855     1000 
  712000   0.34634633   -2.4300191   0.51899998   -1.9110191   0.11758056    11519.298     1000 
  714000   0.35456988   -2.4391036   0.53132297   -1.9077806   0.12227952    11354.906     1000 
  716000   0.32931949   -2.4335186   0.49348525   -1.9400333   0.13458515    11350.056     1000 
  718000   0.32429099   -2.4456687   0.48595005   -1.9597187   0.12304385    11443.241     1000 
  720000    0.3377212   -2.3746593   0.50607522   -1.8685841   0.14121633    11218.349     1000 
  722000    0.3344012   -2.4491559    0.5011002   -1.9480557   0.13442312    11331.597     1000 
  724000   0.34429684   -2.4690999   0.51592882   -1.9531711   0.11816473    11447.026     1000 
  726000   0.34455057   -2.4945914   0.51630903   -1.9782824   0.12445834    11377.114     1000 
  728000   0.34786933   -2.4310673   0.52128219   -1.9097851   0.14139965    11273.611     1000 
  730000   0.33417929   -2.4220113   0.50076767   -1.9212436   0.12388709    11462.376     1000 
  732000   0.34762167    -2.423831   0.52091107   -1.9029199   0.13645802    11354.633     1000 
  734000   0.35070868    -2.441985   0.52553696   -1.9164481   0.13204272     11391.39     1000 
  736000   0.34910831   -2.4519356    0.5231388   -1.9287968   0.12949134    11438.411     1000 
  738000   0.32853968   -2.4430171   0.49231672   -1.9507004   0.13817462    11360.956     1000 
  740000   0.33086525   -2.4581555   0.49580157   -1.9623539   0.13349054    11343.889     1000 
  742000   0.34303663     -2.45227    0.5140404   -1.9382296   0.12991223    11329.896     1000 
  744000   0.31979342   -2.4626952   0.47921044   -1.9834848   0.11652483    11455.439     1000 
  746000   0.34220494    -2.472789    0.5127941   -1.9599948   0.12555764    11412.763     1000 
  748000   0.34358556   -2.4005187   0.51486296   -1.8856557   0.12832369    11360.145     1000 
  750000   0.32745459   -2.4107134   0.49069071   -1.9200227   0.13392294    11368.063     1000 
  752000   0.33858808   -2.4196154   0.50737424   -1.9122412   0.12587939    11355.941     1000 
  754000   0.34912294   -2.4407241   0.52316073   -1.9175633   0.12379856     11416.47     1000 
  756000   0.33626221   -2.4362593   0.50388893   -1.9323704   0.13007395    11348.825     1000 
  758000     0.349135   -2.4409575    0.5231788   -1.9177787   0.13917744    11279.954     1000 
  760000   0.34753371   -2.4414861   0.52077926   -1.9207068   0.12989322    11360.677     1000 
  762000   0.33660563   -2.4677249   0.50440354   -1.9633214   0.12779116    11383.027     1000 
  764000   0.32930201   -2.4577694   0.49345907   -1.9643103    0.1290007     11453.23     1000 
  766000   0.33218741   -2.4481944   0.49778284   -1.9504116   0.13502731    11337.024     1000 
  768000   0.34919976   -2.4624612   0.52327584   -1.9391854   0.13484534    11401.157     1000 
  770000   0.34103348   -2.4378734   0.51103867   -1.9268348   0.13882129     11328.44     1000 
  772000   0.34400069   -2.4808803   0.51548503   -1.9653952   0.12688686    11385.031     1000 
  774000   0.34114548   -2.4579766    0.5112065   -1.9467701     0.126952    11346.619     1000 
  776000   0.35448798   -2.4223448   0.53120024   -1.8911446   0.13460116    11389.979     1000 
  778000   0.34242409   -2.4703285    0.5131225    -1.957206   0.11835278    11453.183     1000 
  780000   0.34491502   -2.4712522   0.51685516    -1.954397   0.13375963    11381.518     1000 
  782000   0.33253473    -2.431423   0.49830329   -1.9331197   0.12944504    11378.408     1000 
  784000   0.33943759   -2.3949031   0.50864723   -1.8862559   0.13319637    11313.806     1000 
  786000   0.34072265   -2.4405404   0.51057289   -1.9299675   0.12836668    11342.245     1000 
  788000    0.3307286   -2.4367372   0.49559681   -1.9411404   0.12675516    11420.652     1000 
  790000   0.34654837    -2.496378   0.51930273   -1.9770752   0.13549063     11356.69     1000 
  792000   0.35049963   -2.4250214    0.5252237   -1.8997977   0.13609656    11338.338     1000 
  794000   0.34104621   -2.4181961   0.51105775   -1.9071383   0.13199517    11372.435     1000 
  796000   0.33772581   -2.4399663   0.50608212   -1.9338842   0.13142555    11377.602     1000 
  798000   0.34285733   -2.4017266   0.51377172   -1.8879549   0.13980919    11245.876     1000 
  800000   0.35730212   -2.4725516   0.53541722   -1.9371344   0.12548152    11471.804     1000 
  802000   0.34251479   -2.4614542   0.51325841   -1.9481958   0.12375212    11407.638     1000 
  804000   0.34208758   -2.4056856   0.51261823   -1.8930674   0.13264633    11310.102     1000 
  806000   0.32964751   -2.4538986    0.4939768   -1.9599218   0.13400234    11296.699     1000 
  808000   0.34172486   -2.4542319    0.5120747   -1.9421572   0.13614456     11349.36     1000 
  810000   0.33834814   -2.4246146   0.50701469   -1.9175999   0.13719073    11349.711     1000 
  812000   0.33711452   -2.4453964   0.50516611   -1.9402303   0.13743059    11283.463     1000 
  814000   0.32793986   -2.4410338   0.49141789   -1.9496159   0.13561741    11356.968     1000 
  816000   0.32754898   -2.4372942   0.49083214   -1.9464621    0.1385327    11345.714     1000 
  818000   0.33211037   -2.4372918   0.49766739   -1.9396244   0.12420704    11394.782     1000 
  820000   0.34099886   -2.4500727    0.5109868   -1.9390859   0.13155115    11278.001     1000 
  822000   0.33036995   -2.4298768   0.49505937   -1.9348174   0.12573527    11372.593     1000 
  824000   0.33067581   -2.4565765   0.49551771   -1.9610588   0.12408144     11398.25     1000 
  826000   0.33517574   -2.4855842   0.50226084   -1.9833234   0.11085745    11597.442     1000 
  828000   0.34790998   -2.4456844   0.52134311   -1.9243413   0.13270076    11373.531     1000 
  830000   0.33950647   -2.4301507   0.50875044   -1.9214003   0.13982124    11318.834     1000 
  832000   0.34075427   -2.4192179   0.51062028   -1.9085976   0.13185652    11317.496     1000 
  834000     0.352407   -2.4396873   0.52808189   -1.9116054   0.14279142    11284.675     1000 
  836000   0.34241059   -2.4272596   0.51310227   -1.9141573   0.13301755    11356.084     1000 
  838000    0.3305901   -2.4851445   0.49538926   -1.9897553   0.11897493    11479.753     1000 
  840000   0.33549295   -2.4295906   0.50273619   -1.9268545   0.13035641      11388.6     1000 
  842000   0.34270333   -2.4678545   0.51354095   -1.9543136   0.12028202    11508.296     1000 
  844000   0.34471447   -2.4392267   0.51655464   -1.9226721   0.12320925     11421.14     1000 
  846000   0.34322852   -2.4494316   0.51432793   -1.9351036   0.13314404    11374.865     1000 
  848000   0.32458588   -2.4772513   0.48639194   -1.9908593   0.13023219    11388.042     1000 
  850000   0.33663124   -2.4527016   0.50444191   -1.9482596   0.12542654    11376.921     1000 
  852000   0.32311044   -2.4514409   0.48418099   -1.9672599   0.13868805    11341.569     1000 
  854000   0.34080323   -2.4354929   0.51069363   -1.9247993   0.13729906    11319.465     1000 
  856000   0.33233599   -2.4182472   0.49800548   -1.9202417   0.13301377    11269.747     1000 
  858000   0.33603898   -2.4327447   0.50355441   -1.9291903   0.14045747    11246.858     1000 
  860000   0.31539245   -2.4554049   0.47261558   -1.9827893   0.11381076    11512.458     1000 
  862000   0.34473045   -2.4497067   0.51657858   -1.9331282    0.1308641    11382.385     1000 
  864000   0.33938476   -2.4645712   0.50856807   -1.9560031   0.12513685    11439.228     1000 
  866000   0.35405945   -2.4630143   0.53055809   -1.9324562   0.11945781    11466.657     1000 
  868000   0.33098568   -2.4688249   0.49598204   -1.9728429   0.12385058    11395.963     1000 
  870000   0.32716554   -2.4718978   0.49025757   -1.9816402   0.12302351    11366.308     1000 
  872000   0.33851892   -2.4346664    0.5072706   -1.9273958   0.12491473    11343.707     1000 
  874000   0.35012418   -2.4752257   0.52466108   -1.9505646     0.117869    11480.099     1000 
  876000   0.32644592   -2.4358602   0.48917921    -1.946681   0.13018051    11401.063     1000 
  878000    0.3291038   -2.4521249   0.49316204   -1.9589629   0.13232111    11355.967     1000 
  880000   0.33522184   -2.4471966   0.50232993   -1.9448667   0.13644783    11342.246     1000 
  882000    0.3392981   -2.4370743    0.5084382   -1.9286362   0.12605445    11382.592     1000 
  884000   0.33758673    -2.444154   0.50587371   -1.9382802   0.14681446    11301.558     1000 
  886000   0.34167895   -2.4407813    0.5120059   -1.9287754    0.1394704    11321.748     1000 
  888000   0.33035865   -2.4173728   0.49504244   -1.9223304   0.13293373    11347.504     1000 
  890000   0.33296877   -2.4471656    0.4989537   -1.9482119   0.12667668    11399.868     1000 
  892000   0.34367239   -2.4210035   0.51499307   -1.9060104    0.1180113    11454.566     1000 
  894000   0.34447484   -2.4825992   0.51619556   -1.9664036   0.12632674    11451.592     1000 
  896000   0.34042088   -2.3865775   0.51012069   -1.8764568   0.12680452    11411.338     1000 
  898000   0.34769279   -2.4194772   0.52101764   -1.8984595    0.1323947    11384.795     1000 
  900000   0.35388162   -2.4419741   0.53029161   -1.9116825   0.14174389    11250.702     1000 
  902000    0.3474847   -2.4422729   0.52070582   -1.9215671    0.1409963    11357.734     1000 
  904000   0.35313914    -2.434973     0.529179    -1.905794    0.1342104    11374.755     1000 
  906000   0.32688113   -2.4828028   0.48983137   -1.9929715   0.12689603    11399.034     1000 
  908000   0.32459967   -2.4731653   0.48641261   -1.9867527   0.12725298    11389.257     1000 
  910000    0.3424204   -2.4490102   0.51311697   -1.9358933   0.13694523    11382.649     1000 
  912000   0.34181372   -2.4744995   0.51220787   -1.9622916   0.13018734    11425.781     1000 
  914000   0.35246935   -2.4948645   0.52817532   -1.9666892    0.1301801    11424.017     1000 
  916000   0.33718268   -2.4781933   0.50526824   -1.9729251   0.11559002    11476.612     1000 
  918000   0.34231104   -2.4143972   0.51295309   -1.9014441   0.13251356    11350.958     1000 
  920000   0.34329291   -2.4647957   0.51442443   -1.9503713   0.12995731    11442.559     1000 
  922000   0.33589649   -2.4510393    0.5033409   -1.9476984   0.14017896    11348.025     1000 
  924000   0.34927753   -2.4453909   0.52339237   -1.9219985   0.12988485    11416.227     1000 
  926000   0.33725274   -2.4606238   0.50537323   -1.9552506   0.13493647    11328.299     1000 
  928000   0.35308441   -2.4214646   0.52909698   -1.8923676   0.14110752    11315.119     1000 
  930000   0.33321584   -2.4565577   0.49932393   -1.9572337   0.12321938    11395.855     1000 
  932000   0.34244528   -2.4234028   0.51315425   -1.9102486   0.11540356    11446.805     1000 
  934000   0.33674584   -2.4208436   0.50461365   -1.9162299   0.11479175    11473.024     1000 
  936000   0.33196722    -2.440857   0.49745287   -1.9434041   0.13867778    11290.117     1000 
  938000   0.34545547   -2.4440899   0.51766502   -1.9264249   0.13319748     11278.24     1000 
  940000   0.34541117   -2.4889666   0.51759863   -1.9713679   0.12166642    11428.446     1000 
  942000   0.34766829   -2.4495834   0.52098094   -1.9286024   0.13591904    11279.009     1000 
  944000    0.3426169   -2.4376398   0.51341143   -1.9242284   0.12818984    11361.324     1000 
  946000   0.34965805   -2.4262721   0.52396258   -1.9023095   0.12365011    11433.025     1000 
  948000   0.34217737   -2.4441937   0.51275279   -1.9314409   0.12275485    11409.561     1000 
  950000   0.34197305   -2.4717045   0.51244661   -1.9592579   0.12290649    11414.006     1000 
  952000   0.32803742   -2.4292627   0.49156408   -1.9376986    0.1269022    11414.701     1000 
  954000   0.34253735   -2.5044222   0.51329222     -1.99113   0.11675883    11513.843     1000 
  956000   0.34349163   -2.4426008   0.51472221   -1.9278786   0.13127475    11414.073     1000 
  958000   0.34561434   -2.4391587   0.51790308   -1.9212556   0.12455267    11410.695     1000 
  960000    0.3374298   -2.4462271   0.50563855   -1.9405885   0.13388418    11338.905     1000 
  962000   0.34708027   -2.4952255   0.52009978   -1.9751257   0.12250412    11452.577     1000 
  964000    0.3548299   -2.4765522   0.53171261   -1.9448396   0.14152921    11319.609     1000 
  966000   0.34849014   -2.4680648   0.52221248   -1.9458523   0.12916277    11401.317     1000 
  968000   0.33270173    -2.483119   0.49855354   -1.9845655   0.12854705    11343.996     1000 
  970000   0.33715803   -2.4458887   0.50523132   -1.9406574   0.13621431    11286.489     1000 
  972000   0.33730022   -2.4234008   0.50544438   -1.9179564   0.14018789     11253.35     1000 
  974000   0.34172962   -2.4496785   0.51208183   -1.9375967   0.13136948    11419.421     1000 
  976000   0.33892128   -2.4200326   0.50787354    -1.912159   0.14242546    11273.493     1000 
  978000   0.33303907   -2.4367491   0.49905905   -1.9376901   0.12523756    11398.761     1000 
  980000   0.33696933   -2.4287734   0.50494854   -1.9238249   0.12114333    11444.677     1000 
  982000   0.33106209   -2.4891422   0.49609654   -1.9930456   0.12899804    11366.754     1000 
  984000   0.34820937   -2.4412599   0.52179175   -1.9194682   0.14247422    11318.663     1000 
  986000   0.32751599   -2.4443012   0.49078272   -1.9535185   0.12953838    11385.681     1000 
  988000    0.3451441   -2.4263667   0.51719843   -1.9091683   0.14513039    11183.032     1000 
  990000   0.33378207   -2.4214795   0.50017244    -1.921307   0.11521764    11465.323     1000 
  992000   0.35222233   -2.4444039   0.52780516   -1.9165988   0.13912632    11328.284     1000 
  994000   0.33262018   -2.4386863   0.49843134    -1.940255    0.1252719    11403.694     1000 
  996000   0.34344609   -2.4454381   0.51465397   -1.9307841   0.13028216     11387.99     1000 
  998000   0.33301418   -2.4136225   0.49902176   -1.9146007   0.13619261    11299.706     1000 
 1000000   0.33443985   -2.4707685   0.50115812   -1.9696103   0.13117886    11340.939     1000 
 1002000    0.3353202   -2.4530321   0.50247732   -1.9505547   0.13224285    11359.424     1000 
 1004000   0.33451215   -2.4449525   0.50126645   -1.9436861   0.13094907    11390.849     1000 
 1006000   0.34084692    -2.477544   0.51075911   -1.9667849   0.13484893    11362.764     1000 
 1008000   0.34025797   -2.4168866   0.50987656     -1.90701   0.13957823    11344.678     1000 
 1010000   0.35018337   -2.4862873   0.52474977   -1.9615375   0.13532799    11346.429     1000 
 1012000   0.33041736    -2.468995   0.49513041   -1.9738646   0.13113538    11415.344     1000 
 1014000   0.32511366   -2.4727721   0.48718282   -1.9855893   0.12663699    11468.319     1000 
 1016000   0.34641214   -2.4872689   0.51909859   -1.9681703   0.13923994    11325.063     1000 
 1018000   0.34136792   -2.4610916   0.51153983   -1.9495518   0.12103449    11458.269     1000 
 1020000   0.34448134   -2.4519637    0.5162053   -1.9357584   0.12414326     11385.28     1000 
 1022000   0.34738601   -2.4639972   0.52055794   -1.9434393   0.11921551    11479.242     1000 
 1024000   0.32286818   -2.4352953   0.48381797   -1.9514773   0.12726215    11375.585     1000 
 1026000     0.339999   -2.4455886    0.5094885   -1.9361001    0.1365539    11362.483     1000 
 1028000   0.31951835   -2.4230364   0.47879825   -1.9442381    0.1328404     11316.63     1000 
 1030000   0.33183861   -2.4449531   0.49726015   -1.9476929   0.13055052    11312.234     1000 
 1032000   0.32483312   -2.4653614   0.48676243    -1.978599   0.13061756     11329.94     1000 
 1034000   0.32986231   -2.4211096   0.49429867   -1.9268109   0.12937598    11295.735     1000 
 1036000   0.34895632   -2.4640945   0.52291104   -1.9411834   0.13865037    11312.312     1000 
 1038000   0.33848912   -2.4610126   0.50722594   -1.9537866   0.12779597     11417.89     1000 
 1040000   0.34292872    -2.462373   0.51387869   -1.9484943   0.13623451    11385.647     1000 
 1042000   0.33397507   -2.4375098   0.50046165   -1.9370482   0.12896142    11423.295     1000 
 1044000   0.33198918   -2.4384741   0.49748579   -1.9409883    0.1387803    11348.118     1000 
 1046000   0.34959281   -2.4485375   0.52386482   -1.9246726   0.13372369    11339.738     1000 
 1048000   0.32835832   -2.4163948   0.49204495   -1.9243499   0.13237612    11331.071     1000 
 1050000   0.34642902   -2.4407562   0.51912388   -1.9216324   0.13075807    11463.429     1000 
 1052000   0.32823483    -2.448429   0.49185989   -1.9565691   0.12482413    11437.531     1000 
 1054000   0.33581652    -2.435639   0.50322106    -1.932418   0.14328597    11266.377     1000 
 1056000   0.34309644   -2.4941733   0.51413002   -1.9800433   0.12429695    11419.476     1000 
 1058000   0.33301678    -2.480068   0.49902565   -1.9810424   0.12065573    11380.758     1000 
 1060000   0.33558646   -2.4423319   0.50287631   -1.9394556    0.1337998    11352.445     1000 
 1062000   0.34522317   -2.4456655   0.51731693   -1.9283486   0.12546114    11451.873     1000 
 1064000    0.3304086   -2.4383066   0.49511728   -1.9431893   0.12869893    11383.115     1000 
 1066000   0.33764462   -2.4791383   0.50596046   -1.9731778   0.12776136     11402.01     1000 
 1068000   0.36161069   -2.4586875   0.54187362   -1.9168138    0.1321572    11439.852     1000 
 1070000   0.33055234   -2.4743846   0.49533269   -1.9790519   0.11543547     11503.02     1000 
 1072000   0.34281657   -2.4691209   0.51371064   -1.9554103   0.13191607    11434.063     1000 
 1074000   0.32749417    -2.446548   0.49075002    -1.955798   0.12613325    11322.964     1000 
 1076000   0.32405828   -2.4461427   0.48560133   -1.9605414   0.13055496    11340.626     1000 
 1078000   0.33966901   -2.4403817   0.50899402   -1.9313877   0.13128013    11357.289     1000 
 1080000   0.34183971   -2.4339538    0.5122468    -1.921707   0.13371266    11301.456     1000 
 1082000   0.34075833   -2.4525725   0.51062636   -1.9419461   0.12063096     11474.19     1000 
 1084000   0.34274188   -2.4479455   0.51359871   -1.9343468   0.14803597    11260.472     1000 
 1086000   0.34621437   -2.4785973   0.51880224   -1.9597951   0.11802244    11541.132     1000 
 1088000   0.33823557   -2.4778163     0.506846   -1.9709703   0.12676001    11401.021     1000 
 1090000   0.33700236   -2.4309089   0.50499804   -1.9259109   0.12425352    11407.767     1000 
 1092000   0.32907442   -2.3993454   0.49311802   -1.9062274   0.12624134    11387.195     1000 
 1094000   0.32586476   -2.4469953   0.48830834   -1.9586869   0.13199661    11357.767     1000 
 1096000   0.32959351   -2.4018874   0.49389588   -1.9079915   0.11988792    11339.388     1000 
 1098000    0.3506058   -2.4033928    0.5253828     -1.87801   0.12739936    11413.016     1000 
 1100000   0.34747581   -2.4117941    0.5206925   -1.8911016   0.13175446    11368.344     1000 
 1102000   0.33656078    -2.426383   0.50433633   -1.9220466   0.13605982    11396.498     1000 
 1104000   0.34706718    -2.446123   0.52008018   -1.9260428   0.12701703    11435.197     1000 
 1106000    0.3477572   -2.4301001   0.52111416    -1.908986   0.13611056    11306.236     1000 
 1108000   0.34408231   -2.4324747   0.51560734   -1.9168674   0.14102072    11364.366     1000 
 1110000   0.33263107   -2.4511514   0.49844766   -1.9527037   0.11959033    11440.382     1000 
 1112000   0.33720686   -2.4297218   0.50530448   -1.9244173   0.13684515    11284.359     1000 
 1114000   0.34939008    -2.463514   0.52356103   -1.9399529   0.13271923    11380.232     1000 
 1116000   0.33674098   -2.4348591   0.50460635   -1.9302527   0.14274761    11289.373     1000 
 1118000   0.34367137   -2.4245833   0.51499154   -1.9095917    0.1341725    11317.025     1000 
 1120000   0.33295674    -2.454981   0.49893568   -1.9560453   0.12941719    11339.857     1000 
 1122000   0.34124261    -2.419128   0.51135205    -1.907776   0.12234538    11428.441     1000 
 1124000   0.33202753    -2.436677   0.49754326   -1.9391338   0.13923055    11374.452     1000 
 1126000   0.34864951   -2.4297963    0.5224513    -1.907345   0.13721292    11392.706     1000 
 1128000   0.34600398   -2.4449374   0.51848696   -1.9264505   0.14537072    11256.451     1000 
 1130000   0.33820119   -2.4295156   0.50679448   -1.9227212   0.13366635    11404.438     1000 
 1132000   0.35333891   -2.4101475   0.52947836   -1.8806692   0.14290346    11270.745     1000 
 1134000   0.34535969   -2.5002729    0.5175215   -1.9827514   0.13165769    11428.478     1000 
 1136000    0.3469247   -2.4589888   0.51986666   -1.9391222   0.14305844    11277.835     1000 
 1138000   0.33840602   -2.4065007   0.50710142   -1.8993993   0.13492812    11287.186     1000 
 1140000   0.34966305   -2.4458805   0.52397008   -1.9219104   0.11730456    11431.194     1000 
 1142000   0.33458898   -2.4548302   0.50138159   -1.9534486   0.13548234    11341.173     1000 
 1144000   0.32935302   -2.3923594    0.4935355   -1.8988239   0.12346116    11495.889     1000 
 1146000   0.34014806   -2.4390926   0.50971186   -1.9293808   0.13094923    11420.809     1000 
 1148000   0.32841441   -2.4633131   0.49212899   -1.9711841   0.13091328    11388.901     1000 
 1150000   0.33090668   -2.4084563   0.49586366   -1.9125927   0.13268795    11267.799     1000 
 1152000   0.34017143   -2.4142372   0.50974689   -1.9044903   0.13959969    11329.098     1000 
 1154000   0.36353501   -2.4529829   0.54475721   -1.9082257    0.1335221    11400.941     1000 
 1156000   0.33487409    -2.423356   0.50180882   -1.9215472    0.1281908    11449.178     1000 
 1158000   0.32794496   -2.4250094   0.49142552   -1.9335839   0.13180007    11385.926     1000 
 1160000   0.35720292   -2.4791535   0.53526858   -1.9438849    0.1375405    11311.207     1000 
 1162000   0.33594094   -2.4599407    0.5034075   -1.9565332   0.11822253    11502.468     1000 
 1164000   0.34078203   -2.4483422   0.51066187   -1.9376803   0.13257366    11396.354     1000 
 1166000   0.36286589   -2.4393367   0.54375454   -1.8955821   0.13697126    11322.521     1000 
 1168000   0.34878033   -2.4430795   0.52264732   -1.9204322   0.14313152    11204.685     1000 
 1170000   0.34664213    -2.457044   0.51944323   -1.9376008   0.12522209    11410.333     1000 
 1172000   0.33297509   -2.4218426   0.49896318   -1.9228794   0.12838687    11395.189     1000 
 1174000   0.34087588   -2.4500234   0.51080251   -1.9392209   0.12693304    11410.569     1000 
 1176000   0.33131626   -2.4763903   0.49647741   -1.9799129    0.1282491    11395.268     1000 
 1178000   0.34572438   -2.4955736   0.51806798   -1.9775056   0.14173406    11368.345     1000 
 1180000   0.33147321   -2.4770249   0.49671261   -1.9803123   0.12842944    11402.644     1000 
 1182000   0.34410147   -2.4270198   0.51563606   -1.9113838   0.13118201    11386.061     1000 
 1184000   0.32786766   -2.4635186   0.49130969   -1.9722089   0.12786555    11424.087     1000 
 1186000   0.33592478   -2.4220086   0.50338328   -1.9186253   0.12304701    11413.737     1000 
 1188000   0.34583903   -2.4054038   0.51823979    -1.887164   0.13525785    11355.426     1000 
 1190000   0.33067607   -2.4365006    0.4955181   -1.9409825   0.12317127    11443.965     1000 
 1192000    0.3511515   -2.4530454   0.52620053   -1.9268449   0.12712764    11350.166     1000 
 1194000   0.36026416   -2.4451684   0.53985584   -1.9053126   0.12189791    11452.514     1000 
 1196000   0.35268954   -2.4530752   0.52850527   -1.9245699   0.12966882    11418.754     1000 
 1198000   0.33867345   -2.4305474   0.50750216   -1.9230452   0.13412497    11348.937     1000 
 1200000   0.34820021   -2.4973823   0.52177801   -1.9756043   0.12796008    11413.847     1000 
 1202000   0.34265811   -2.5000206   0.51347318   -1.9865475   0.12143984    11448.228     1000 
 1204000    0.3389128   -2.4711718   0.50786082    -1.963311   0.13213396    11337.014     1000 
 1206000   0.33200618   -2.4527741   0.49751126   -1.9552629   0.12801667    11341.522     1000 
 1208000   0.34064552   -2.4237824   0.51045732   -1.9133251   0.12500237    11509.107     1000 
 1210000   0.35982534   -2.4172786   0.53919827   -1.8780804   0.14428363    11237.816     1000 
 1212000   0.32842626   -2.4342329   0.49214675   -1.9420861   0.14020783    11327.065     1000 
 1214000    0.3275808   -2.4425203   0.49087983   -1.9516404   0.13084869    11322.887     1000 
 1216000   0.33046231   -2.4651099   0.49519778   -1.9699121   0.13916954    11350.347     1000 
 1218000   0.33995738   -2.4486298   0.50942613   -1.9392037   0.13378827    11353.004     1000 
 1220000   0.33353086   -2.4315606   0.49979599   -1.9317647   0.13425774    11409.999     1000 
 1222000   0.34715567   -2.4606995   0.52021277   -1.9404867   0.12347618     11441.45     1000 
 1224000   0.34828059   -2.4117358   0.52189846   -1.8898373   0.13414254    11287.214     1000 
 1226000   0.34673763   -2.4872984   0.51958634   -1.9677121   0.13547277    11356.993     1000 
 1228000   0.34758323   -2.4320421   0.52085348   -1.9111886   0.13279514    11282.505     1000 
 1230000   0.32964243   -2.4119506   0.49396918   -1.9179814   0.13369822    11312.823     1000 
 1232000   0.32812975   -2.4515308   0.49170244   -1.9598283   0.12903876    11444.936     1000 
 1234000   0.34586945   -2.4303733   0.51828537   -1.9120879   0.12785989    11409.605     1000 
 1236000    0.3310244   -2.4437089   0.49604007   -1.9476688   0.12806392    11340.076     1000 
 1238000    0.3208907   -2.4561324   0.48085471   -1.9752777   0.13266746    11355.344     1000 
 1240000   0.35527004   -2.4207823   0.53237216   -1.8884101   0.13565925    11261.568     1000 
 1242000   0.36135301   -2.4728199   0.54148748   -1.9313324   0.13577706    11338.977     1000 
 1244000    0.3233911   -2.4654019   0.48460156   -1.9808003   0.12545529    11428.369     1000 
 1246000   0.32312208   -2.4395748   0.48419843   -1.9553764   0.13060736    11421.982     1000 
 1248000   0.32933071   -2.4122142   0.49350206   -1.9187121   0.14276375    11279.815     1000 
 1250000   0.33938294   -2.4661731   0.50856534   -1.9576078   0.13054029    11383.645     1000 
 1252000   0.34150546   -2.4601153   0.51174593   -1.9483694    0.1209459    11436.121     1000 
 1254000   0.34551646   -2.4631247   0.51775641   -1.9453683   0.12122981    11375.691     1000 
 1256000   0.34837837   -2.4578733   0.52204499   -1.9358283   0.12457636    11468.666     1000 
 1258000   0.32442304   -2.4535923   0.48614792   -1.9674444   0.13553427    11346.865     1000 
 1260000   0.33755889   -2.4353155     0.505832   -1.9294835   0.13160097    11351.176     1000 
 1262000   0.33016536   -2.4281252   0.49475279   -1.9333724   0.12775486    11393.817     1000 
 1264000   0.32457608   -2.4683977   0.48637726   -1.9820205   0.12800224    11381.318     1000 
 1266000   0.34280066   -2.4443799    0.5136868   -1.9306932   0.13146269    11353.375     1000 
 1268000     0.339683   -2.4324695   0.50901498   -1.9234546   0.12363623    11393.552     1000 
 1270000   0.33305192   -2.4798738   0.49907831   -1.9807955   0.11671165    11545.311     1000 
 1272000   0.33308508   -2.4846386     0.499128   -1.9855106   0.12637296    11433.638     1000 
 1274000   0.33321668   -2.4637898   0.49932519   -1.9644646    0.1301962     11391.75     1000 
 1276000   0.33476502   -2.4533989   0.50164539   -1.9517535   0.12904654    11397.825     1000 
 1278000   0.34093176   -2.4646867   0.51088625   -1.9538005    0.1313879    11360.098     1000 
 1280000   0.33134698    -2.403212   0.49652344   -1.9066886   0.12483899    11422.945     1000 
 1282000   0.34714718   -2.4248591   0.52020005    -1.904659   0.12570084    11403.876     1000 
 1284000    0.3364157   -2.3999134   0.50411893   -1.8957945   0.12350396    11411.955     1000 
 1286000    0.3385645   -2.4351172   0.50733891   -1.9277783   0.14006169    11294.992     1000 
 1288000    0.3411647   -2.4668985   0.51123531   -1.9556632   0.12819413    11355.802     1000 
 1290000   0.34237905   -2.4676336   0.51305501   -1.9545786   0.13389225    11350.829     1000 
 1292000    0.3463207   -2.4509221   0.51896157   -1.9319605   0.13089298    11413.536     1000 
 1294000   0.35371785   -2.4098852   0.53004619    -1.879839   0.14420605      11302.3     1000 
 1296000   0.34720163    -2.433932   0.52028165   -1.9136504   0.12913809    11398.334     1000 
 1298000   0.35340809   -2.4265726   0.52958202   -1.8969906   0.13718853    11334.961     1000 
 1300000   0.34298993   -2.4783737   0.51397041   -1.9644033   0.11445081    11554.518     1000 
 1302000   0.34830354   -2.4551656   0.52193285   -1.9332328   0.12933848    11379.908     1000 
 1304000   0.34654827   -2.4142456   0.51930259    -1.894943   0.13745723    11245.216     1000 
 1306000   0.34420376   -2.4396008   0.51578934   -1.9238114   0.11697542    11379.717     1000 
 1308000   0.35659841   -2.4254758   0.53436272   -1.8911131   0.14353344    11221.695     1000 
 1310000   0.32660705   -2.4740335   0.48942067   -1.9846129   0.12810382    11451.777     1000 
 1312000   0.33511091   -2.4389519    0.5021637   -1.9367882   0.12196941    11425.269     1000 
 1314000   0.33644651   -2.4593689   0.50416509   -1.9552038   0.13320203    11421.606     1000 
 1316000   0.33726052   -2.4555533   0.50538488   -1.9501684   0.13751381    11297.452     1000 
 1318000   0.34503141   -2.4631409   0.51702957   -1.9461113   0.12849332    11477.709     1000 
 1320000   0.33056499   -2.4478468   0.49535164   -1.9524951   0.12400756    11421.515     1000 
 1322000   0.34806505   -2.4290706   0.52157548   -1.9074951   0.11937331    11428.606     1000 
 1324000   0.34563256   -2.4547557   0.51793039   -1.9368254   0.15126099     11280.88     1000 
 1326000     0.351253   -2.4847506   0.52635263    -1.958398   0.12634383    11468.939     1000 
 1328000   0.34643092   -2.4330582   0.51912673   -1.9139315   0.14139103    11355.889     1000 
 1330000   0.34091166   -2.4548453   0.51085613   -1.9439892   0.12256279    11432.262     1000 
 1332000   0.35216304   -2.4396172   0.52771632   -1.9119009   0.13382128    11325.273     1000 
 1334000   0.36372514   -2.4555102   0.54504212   -1.9104681   0.13010692     11441.72     1000 
 1336000   0.32078632   -2.4557518    0.4806983   -1.9750535   0.12407584    11415.446     1000 
 1338000   0.34106364   -2.4569652   0.51108386   -1.9458813   0.12788983    11460.374     1000 
 1340000   0.34381136   -2.4333796   0.51520132   -1.9181783    0.1349516    11297.458     1000 
 1342000   0.33651969   -2.4427636   0.50427476   -1.9384889   0.13331688    11318.666     1000 
 1344000   0.33509673   -2.4170513   0.50214245   -1.9149089   0.14186063    11269.712     1000 
 1346000   0.33729986   -2.4759959   0.50544384    -1.970552   0.14038556    11319.601     1000 
 1348000   0.35288709    -2.431649   0.52880131   -1.9028477   0.12837105    11442.629     1000 
 1350000   0.34332948   -2.4446836   0.51447922   -1.9302044   0.13056762    11412.128     1000 
 1352000   0.33827238    -2.397725   0.50690117   -1.8908239   0.13363398    11332.794     1000 
 1354000   0.34356026   -2.4670947   0.51482505   -1.9522696   0.13437739    11372.359     1000 
 1356000   0.33653439   -2.4233658   0.50429679    -1.919069   0.12659198    11329.884     1000 
 1358000   0.35449561   -2.4713474   0.53121166   -1.9401358    0.1355226    11359.361     1000 
 1360000   0.34631475   -2.4661474   0.51895265   -1.9471948   0.11640209    11442.425     1000 
 1362000   0.35033456   -2.4233113   0.52497634    -1.898335   0.12997097     11345.28     1000 
 1364000   0.34477365   -2.4491726   0.51664331   -1.9325293   0.13094275    11357.481     1000 
 1366000   0.33196035   -2.4416239   0.49744258   -1.9441813   0.13651815    11266.341     1000 
 1368000   0.34619696   -2.4321458   0.51877614   -1.9133697    0.1399161    11363.354     1000 
 1370000   0.34017541   -2.4670064   0.50975285   -1.9572535   0.13466486    11358.718     1000 
 1372000   0.34222792   -2.4225481   0.51282853   -1.9097196    0.1324467    11305.343     1000 
 1374000   0.33158747   -2.4580294   0.49688383   -1.9611456   0.11717916    11454.013     1000 
 1376000   0.35966865   -2.4139275   0.53896347    -1.874964   0.14513947    11307.073     1000 
 1378000   0.33208514   -2.4822253   0.49762958   -1.9845957   0.12033886    11431.955     1000 
 1380000   0.33361153   -2.4320395   0.49991687   -1.9321227   0.13442613    11360.697     1000 
 1382000   0.33188821   -2.4422978   0.49733449   -1.9449634   0.14063607    11385.476     1000 
 1384000   0.33574316   -2.4632393   0.50311112   -1.9601282   0.13756704    11373.018     1000 
 1386000   0.34438757   -2.4267522   0.51606478   -1.9106874   0.12773591    11361.343     1000 
 1388000   0.35409208   -2.4408911   0.53060698   -1.9102841   0.14300168    11291.378     1000 
 1390000   0.33571188   -2.4555934   0.50306425   -1.9525291   0.12500984     11439.11     1000 
 1392000   0.34181429   -2.4365466   0.51220871   -1.9243379   0.13175678    11372.713     1000 
 1394000   0.35052427   -2.4614209   0.52526062   -1.9361603   0.13332249     11374.51     1000 
 1396000   0.34702294   -2.4321318   0.52001387   -1.9121179   0.11476616     11490.22     1000 
 1398000   0.33476278   -2.4165879   0.50164202   -1.9149459    0.1184136    11443.202     1000 
 1400000   0.34271316   -2.4270153   0.51355567   -1.9134596   0.12474994    11405.042     1000 
 1402000   0.33433981   -2.4527404   0.50100821   -1.9517322    0.1391653     11316.04     1000 
 1404000   0.33438112   -2.4415658   0.50107011   -1.9404956   0.13948172    11350.061     1000 
 1406000   0.34741917   -2.4064459   0.52060762   -1.8858383   0.12328015    11331.488     1000 
 1408000   0.32605473   -2.4349475   0.48859301   -1.9463545   0.12181925    11447.154     1000 
 1410000   0.34610033   -2.4860753   0.51863135    -1.967444   0.13148164    11467.712     1000 
 1412000   0.34232417   -2.4361461   0.51297278   -1.9231733   0.13628676    11306.997     1000 
 1414000   0.34070535   -2.4222207   0.51054696   -1.9116738    0.1269939    11377.643     1000 
 1416000   0.33349553   -2.4308833   0.49974306   -1.9311403   0.14326328    11264.242     1000 
 1418000   0.34026197   -2.4487882   0.50988256   -1.9389057    0.1249467    11466.974     1000 
 1420000    0.3320825   -2.4738186   0.49762563    -1.976193   0.11524224    11574.037     1000 
 1422000    0.3284167   -2.4372045   0.49213242   -1.9450721   0.13196298    11447.255     1000 
 1424000   0.34352829   -2.4643741   0.51477714   -1.9495969   0.12816121    11381.066     1000 
 1426000   0.34075504   -2.4532465   0.51062143    -1.942625    0.1296394    11374.597     1000 
 1428000   0.32993013   -2.4541315    0.4944003   -1.9597312   0.13000103    11314.061     1000 
 1430000   0.33583797   -2.4242055    0.5032532   -1.9209523   0.13027109    11337.548     1000 
 1432000   0.33465595   -2.4491817   0.50148193   -1.9476998   0.12791197    11395.836     1000 
 1434000   0.33091592   -2.4490669   0.49587751   -1.9531894   0.12633667    11439.272     1000 
 1436000   0.34376664   -2.4753251   0.51513431   -1.9601908    0.1261163    11391.222     1000 
 1438000   0.33909408   -2.4621016   0.50813248   -1.9539691   0.12675571     11466.66     1000 
 1440000   0.33838881   -2.4776805   0.50707563   -1.9706049   0.12391598    11468.395     1000 
 1442000   0.33659295   -2.4398072   0.50438454   -1.9354226   0.13767692    11366.311     1000 
 1444000    0.3471149   -2.4339952   0.52015168   -1.9138436   0.12053214    11417.828     1000 
 1446000   0.33656665   -2.3905094   0.50434512   -1.8861643   0.13522918    11318.133     1000 
 1448000   0.33889546   -2.4435743   0.50783484   -1.9357394   0.13886875    11362.248     1000 
 1450000   0.34815493   -2.4445779   0.52171016   -1.9228678   0.12509104    11437.961     1000 
 1452000   0.34456831    -2.435567   0.51633561   -1.9192314   0.13202386    11349.215     1000 
 1454000   0.33504122   -2.4029852   0.50205926   -1.9009259   0.13750778    11318.578     1000 
 1456000   0.34418595   -2.4332206   0.51576265   -1.9174579   0.11941172    11439.818     1000 
 1458000   0.34798345   -2.4777626   0.52145319   -1.9563094   0.12032096    11474.456     1000 
 1460000   0.34474942   -2.4631384   0.51660701   -1.9465314    0.1298603    11377.001     1000 
 1462000   0.35791927   -2.4535918   0.53634203   -1.9172497   0.12820157     11388.76     1000 
 1464000   0.33746371   -2.4465364   0.50568936   -1.9408471   0.12313356    11439.939     1000 
 1466000   0.33199516   -2.4719532   0.49749475   -1.9744585   0.11075272    11528.087     1000 
 1468000   0.35246809   -2.4104369   0.52817343   -1.8822634   0.12677246    11432.489     1000 
 1470000   0.34595579   -2.4110264   0.51841474   -1.8926116   0.13710169    11328.904     1000 
 1472000   0.32822575   -2.4477555   0.49184629   -1.9559092    0.1224712     11413.26     1000 
 1474000   0.33858461   -2.4650545   0.50736904   -1.9576855   0.11727683    11495.193     1000 
 1476000   0.34713362   -2.4469375   0.52017973   -1.9267578   0.13006683    11342.625     1000 
 1478000   0.34350931   -2.4444174    0.5147487   -1.9296687   0.13617964    11337.599     1000 
 1480000   0.35285053   -2.4642939   0.52874652   -1.9355473   0.13298808    11350.325     1000 
 1482000   0.33774049   -2.5093755   0.50610412   -2.0032714    0.1388668    11353.525     1000 
 1484000   0.33908972   -2.4756542   0.50812594   -1.9675283   0.13265712    11411.485     1000 
 1486000    0.3499907    -2.474358   0.52446107   -1.9498969   0.13039005    11379.978     1000 
 1488000   0.34350712   -2.4311144   0.51474542   -1.9163689   0.13854111    11233.771     1000 
 1490000   0.33479652   -2.3876353   0.50169259   -1.8859427   0.12966574    11249.848     1000 
 1492000   0.33852552   -2.4624634    0.5072805   -1.9551829   0.13278414    11423.043     1000 
 1494000   0.33926993   -2.4572944   0.50839599   -1.9488984   0.13087248    11382.442     1000 
 1496000   0.34627674   -2.4434335   0.51889569   -1.9245378   0.13056205    11366.264     1000 
 1498000   0.34962192   -2.4587597   0.52390845   -1.9348513   0.12297577    11490.754     1000 
 1500000   0.33264971   -2.4287194   0.49847558   -1.9302438   0.13533632    11344.573     1000 
 1502000   0.33634109   -2.5003401   0.50400713    -1.996333   0.13198642    11358.891     1000 
 1504000   0.33048107   -2.4589067   0.49522589   -1.9636808   0.13759036    11368.988     1000 
 1506000   0.35495732   -2.4747175   0.53190354    -1.942814   0.12963381    11418.964     1000 
 1508000   0.32439598   -2.4371281   0.48610738   -1.9510207    0.1335727    11343.769     1000 
 1510000   0.33035254   -2.4370647   0.49503328   -1.9420314     0.135892    11426.637     1000 
 1512000   0.34929138   -2.4394809   0.52341314   -1.9160678   0.12019373    11436.976     1000 
 1514000   0.33956887     -2.42673   0.50884395   -1.9178861    0.1287961    11395.075     1000 
 1516000   0.36025253   -2.4619446   0.53983841   -1.9221062   0.11794081    11508.386     1000 
 1518000   0.34405772   -2.4365366   0.51557049   -1.9209661   0.13160304    11392.508     1000 
 1520000   0.34579561   -2.4347881   0.51817473   -1.9166133    0.1343185    11378.762     1000 
 1522000   0.35928072   -2.4357599   0.53838216   -1.8973777   0.13599614    11369.353     1000 
 1524000   0.32749324   -2.4295156   0.49074862   -1.9387669   0.11663224    11435.567     1000 
 1526000   0.32558766   -2.4517044   0.48789312   -1.9638113   0.14057082    11291.365     1000 
 1528000   0.34884025   -2.4509713   0.52273712   -1.9282342    0.1316529    11349.867     1000 
 1530000   0.34877438   -2.4854421   0.52263841   -1.9628037   0.12313531    11440.011     1000 
 1532000    0.3288286   -2.4470589   0.49274966   -1.9543092   0.12096515    11477.316     1000 
 1534000   0.33368647   -2.4388184   0.50002918   -1.9387892   0.13653516     11342.93     1000 
 1536000   0.35002514   -2.4870645   0.52451268   -1.9625519   0.12165785    11497.031     1000 
 1538000   0.34649812   -2.4774026   0.51922744   -1.9581751   0.13559741    11404.603     1000 
 1540000   0.32885821   -2.4574615   0.49279402   -1.9646675   0.12353912    11448.029     1000 
 1542000    0.3400267   -2.4193658   0.50953002   -1.9098358   0.14081137    11290.513     1000 
 1544000   0.33817933   -2.4722105   0.50676173   -1.9654488    0.1316239    11388.856     1000 
 1546000    0.3484541   -2.4316846   0.52215847   -1.9095261   0.13999647     11318.41     1000 
 1548000   0.32803429   -2.4282481   0.49155939   -1.9366887   0.12530813    11409.774     1000 
 1550000   0.34446568   -2.4645035   0.51618182   -1.9483217   0.13729109     11361.86     1000 
 1552000   0.33746577   -2.4745462   0.50569245   -1.9688538   0.13800449    11322.482     1000 
 1554000   0.33249155   -2.4846314   0.49823859   -1.9863928   0.13185132    11384.005     1000 
 1556000    0.3586333   -2.4775225     0.537412   -1.9401105   0.11846464    11387.596     1000 
 1558000   0.34109749   -2.4447461   0.51113459   -1.9336115   0.12837913     11358.29     1000 
 1560000   0.35442043   -2.4516726   0.53109902   -1.9205736   0.11841507    11510.671     1000 
 1562000   0.31772224   -2.4487407   0.47610677   -1.9726339   0.13707804    11280.732     1000 
 1564000   0.32070437   -2.4651036   0.48057551    -1.984528   0.12312522    11459.027     1000 
 1566000   0.34569633   -2.4526117   0.51802596   -1.9345858   0.12715146    11423.992     1000 
 1568000   0.34598143   -2.4393153   0.51845318   -1.9208621   0.13269387    11313.479     1000 
 1570000   0.33800145   -2.3868976   0.50649518   -1.8804024   0.12204817    11412.598     1000 
 1572000   0.35047882   -2.4521027   0.52519251   -1.9269102   0.13049709    11401.608     1000 
 1574000   0.34913851   -2.4493307   0.52318406   -1.9261466   0.13754758    11369.222     1000 
 1576000   0.33360807   -2.4220147   0.49991169    -1.922103   0.12637605    11385.779     1000 
 1578000   0.33305783   -2.4672466   0.49908717   -1.9681595   0.14239475    11272.402     1000 
 1580000   0.34497138   -2.4166576   0.51693961    -1.899718   0.14074237    11374.502     1000 
 1582000   0.33210875   -2.4050513   0.49766496   -1.9073864   0.13278344    11378.647     1000 
 1584000   0.34571216   -2.4478149   0.51804967   -1.9297652   0.12805437    11399.486     1000 
 1586000   0.35099077   -2.4187899   0.52595968   -1.8928302   0.13470248    11398.009     1000 
 1588000   0.32634075   -2.4800325   0.48902161   -1.9910109   0.12277201    11396.507     1000 
[...]
 2614000   0.35132991   -2.4439145   0.52646787   -1.9174466   0.13224201    11312.426     1000 
 2616000   0.35466996   -2.4463588   0.53147293   -1.9148858   0.13444299    11439.407     1000 
 2618000   0.34030601   -2.4196534   0.50994856   -1.9097048   0.13037473    11392.794     1000 
 2620000   0.33544179   -2.4378547   0.50265952   -1.9351952   0.12458536    11378.835     1000 
 2622000   0.31412719   -2.4357593   0.47071959   -1.9650397    0.1209148     11365.81     1000 
 2624000   0.32760147   -2.4428032   0.49091081   -1.9518924    0.1338127      11349.6     1000 
 2626000   0.33798749   -2.4631304   0.50647425   -1.9566562    0.1323493    11352.998     1000 
 2628000   0.34872762   -2.4689325   0.52256833   -1.9463641   0.12769766    11387.806     1000 
 2630000   0.33769171   -2.4043879   0.50603103   -1.8983569   0.13743708    11290.795     1000 
 2632000   0.32498595   -2.4666427   0.48699144   -1.9796512   0.13948255     11296.65     1000 
 2634000   0.34091344   -2.4626725   0.51085879   -1.9518137   0.12603075    11377.314     1000 
 2636000   0.33163921   -2.3920903   0.49696136   -1.8951289   0.14528607    11279.739     1000 
 2638000   0.34274569   -2.4283614   0.51360441    -1.914757   0.11674942    11474.597     1000 
 2640000   0.33585424    -2.439458   0.50327757   -1.9361805   0.13472073     11358.24     1000 
 2642000   0.33066999   -2.4445589   0.49550899   -1.9490499   0.12828828    11453.046     1000 
 2644000   0.33400886   -2.4148393   0.50051227    -1.914327    0.1367696    11355.758     1000 
 2646000   0.33636612    -2.445505   0.50404463   -1.9414604   0.13077112     11415.49     1000 
 2648000   0.34627133   -2.4114228   0.51888759   -1.8925352   0.13509518    11333.474     1000 
 2650000   0.34270858   -2.4637132   0.51354881   -1.9501644   0.12422027    11403.158     1000 
 2652000    0.3362216   -2.4849259   0.50382807   -1.9810978   0.12397265    11459.111     1000 
 2654000   0.33259497   -2.4599684   0.49839357   -1.9615748   0.13239989    11364.756     1000 
 2656000   0.34305766   -2.4543965    0.5140719   -1.9403246   0.13994168    11350.241     1000 
 2658000    0.3383767   -2.4139936   0.50705749   -1.9069361   0.12695351    11401.512     1000 
 2660000   0.35678267   -2.4363853   0.53463883   -1.9017464    0.1281993    11358.857     1000 
 2662000   0.33668999   -2.4046416   0.50452995   -1.9001117   0.13716551    11330.652     1000 
 2664000   0.32425105   -2.4730048    0.4858902   -1.9871146   0.13641971    11381.856     1000 
 2666000   0.33467378   -2.4284625   0.50150865   -1.9269538   0.12152052    11473.608     1000 
 2668000   0.32357972    -2.440537   0.48488421   -1.9556528   0.12816331    11395.239     1000 
 2670000   0.34106067   -2.4500232   0.51107941   -1.9389437   0.13309072    11351.698     1000 
 2672000   0.34032962   -2.4413562   0.50998394   -1.9313723   0.13428859     11291.69     1000 
 2674000   0.33914487    -2.449218   0.50820858   -1.9410094   0.12627979    11386.626     1000 
 2676000   0.34417664   -2.4634003   0.51574869   -1.9476516   0.12907706    11297.533     1000 
 2678000    0.3476498   -2.4212717   0.52095323   -1.9003185   0.12827693    11304.637     1000 
 2680000   0.33557627   -2.4395842   0.50286104   -1.9367232   0.12934681    11357.409     1000 
 2682000   0.33879568   -2.3986131   0.50768532   -1.8909278   0.13445424    11265.743     1000 
 2684000   0.33691362   -2.4488079   0.50486506   -1.9439429   0.12332586    11402.804     1000 
 2686000   0.33939141   -2.4287578   0.50857802   -1.9201798   0.13128648    11359.921     1000 
 2688000   0.34234397   -2.4241631   0.51300245   -1.9111607    0.1478258    11195.562     1000 
 2690000    0.3459246   -2.4558555   0.51836801   -1.9374875   0.11931744    11467.768     1000 
 2692000   0.34557514   -2.4416207   0.51784435   -1.9237763   0.13188955     11475.27     1000 
 2694000   0.34959548    -2.486957   0.52386882   -1.9630882   0.12088846    11423.889     1000 
 2696000   0.34296394    -2.482649   0.51393146   -1.9687176   0.12963615    11385.342     1000 
 2698000    0.3342409   -2.4416175   0.50085999   -1.9407575   0.13401822    11411.566     1000 
 2700000    0.3244768   -2.4512602   0.48622848   -1.9650318   0.12761826    11426.099     1000 
 2702000    0.3387616   -2.4431308   0.50763426   -1.9354966   0.12528385     11351.03     1000 
 2704000   0.34669941   -2.4230502   0.51952907   -1.9035211   0.14027754    11230.551     1000 
 2706000   0.32753773   -2.4499463   0.49081529    -1.959131   0.14135235    11281.084     1000 
 2708000   0.35249298    -2.426274   0.52821074   -1.8980633   0.14410968    11328.484     1000 
 2710000    0.3473269   -2.4879745   0.52046935   -1.9675051   0.13675556    11341.556     1000 
 2712000   0.34291459   -2.4269787   0.51385751   -1.9131212   0.14690808    11323.231     1000 
 2714000    0.3494304   -2.4122498   0.52362146   -1.8886284   0.12335112    11422.552     1000 
 2716000   0.36327971   -2.4630066   0.54437464    -1.918632   0.11940171    11477.207     1000 
 2718000   0.34989098   -2.4850878   0.52431163   -1.9607762   0.12094414     11437.78     1000 
 2720000   0.36075177   -2.4321048   0.54058652   -1.8915182   0.12769104    11430.306     1000 
 2722000   0.32149363   -2.4429845    0.4817582   -1.9612263   0.13327347    11373.375     1000 
 2724000   0.35134661   -2.4265608    0.5264929   -1.9000679   0.12203623    11417.759     1000 
 2726000    0.3329421   -2.4460884   0.49891373   -1.9471747   0.11779013    11446.488     1000 
 2728000   0.34867259   -2.4551805   0.52248588   -1.9326946   0.13695145    11353.391     1000 
 2730000   0.35023132   -2.4466212   0.52482163   -1.9217995   0.13207474     11369.82     1000 
 2732000   0.33439178   -2.4431435   0.50108609   -1.9420574   0.13127497    11393.671     1000 
 2734000   0.35100793   -2.4412621   0.52598539   -1.9152768   0.12679114    11370.982     1000 
 2736000   0.34315477   -2.4385461   0.51421742   -1.9243287   0.12435765    11447.227     1000 
 2738000   0.34810604   -2.4466197   0.52163689   -1.9249828   0.13551589    11309.436     1000 
 2740000   0.34228074   -2.4505277   0.51290768     -1.93762   0.13825484    11417.219     1000 
 2742000   0.34408809   -2.4257098     0.515616   -1.9100938   0.13815162    11303.943     1000 
 2744000   0.34523699   -2.4340712   0.51733763   -1.9167335   0.12813424    11321.156     1000 
 2746000   0.33668275   -2.4334173    0.5045191   -1.9288982   0.12608157    11410.742     1000 
 2748000    0.3347151   -2.4618634   0.50157057   -1.9602929   0.12842788    11381.961     1000 
 2750000   0.33874081   -2.4710383    0.5076031   -1.9634352   0.12966952    11394.524     1000 
 2752000   0.33302372   -2.4294402   0.49903604   -1.9304042   0.12940892    11385.672     1000 
 2754000   0.34291714   -2.4818628   0.51386134   -1.9680015   0.13465281     11298.92     1000 
 2756000    0.3430729   -2.4400724   0.51409474   -1.9259777   0.12883771    11399.217     1000 
 2758000   0.33414288   -2.4468207   0.50071311   -1.9461076   0.12337105    11369.434     1000 
 2760000   0.34653595   -2.4236484   0.51928412   -1.9043643   0.14351138    11266.182     1000 
 2762000   0.34216607   -2.4396997   0.51273585   -1.9269638   0.11943054    11494.612     1000 
 2764000   0.34798582   -2.4516488   0.52145676   -1.9301921    0.1267911    11347.702     1000 
 2766000   0.34123231   -2.4539664   0.51133662   -1.9426298    0.1360787    11354.535     1000 
 2768000   0.34722998   -2.4547167   0.52032413   -1.9343925   0.13374116    11371.091     1000 
 2770000    0.3487498   -2.4247113   0.52260157   -1.9021098   0.13388866    11223.169     1000 
 2772000   0.35898338    -2.387079    0.5379366   -1.8491424   0.14349738    11280.828     1000 
 2774000   0.33347166   -2.4520952   0.49970728    -1.952388   0.13990997    11351.566     1000 
 2776000   0.35016393   -2.4545799   0.52472065   -1.9298592   0.14282746    11350.829     1000 
 2778000   0.34648193   -2.4280044   0.51920317   -1.9088012   0.12828648    11393.948     1000 
 2780000   0.34098115   -2.4344024   0.51096025   -1.9234421    0.1308702    11313.494     1000 
 2782000   0.33452905   -2.4361805   0.50129178   -1.9348887   0.12919136    11377.349     1000 
 2784000   0.34708064   -2.4562963   0.52010034   -1.9361959   0.12919253    11414.418     1000 
 2786000   0.33658517   -2.4236063   0.50437288   -1.9192335   0.12844671    11377.702     1000 
 2788000   0.34158513   -2.4741489   0.51186532   -1.9622836   0.12055392    11437.452     1000 
 2790000   0.33802034    -2.468767   0.50652348   -1.9622435   0.13429133    11306.139     1000 
 2792000   0.34541441   -2.4513153    0.5176035   -1.9337118   0.12750317    11432.096     1000 
 2794000   0.33313343   -2.4381533   0.49920044   -1.9389528   0.13616367    11316.714     1000 
 2796000   0.35234897   -2.4396209   0.52799494   -1.9116259   0.12873109    11439.912     1000 
 2798000   0.34849799   -2.4357836   0.52222424   -1.9135594   0.14048015    11358.274     1000 
 2800000   0.35971472   -2.4134939   0.53903251   -1.8744614   0.13080377    11328.584     1000 
 2802000   0.35383843   -2.4637638   0.53022688    -1.933537   0.14350006    11287.201     1000 
 2804000   0.34026249   -2.4099812   0.50988334   -1.9000978   0.13041249    11427.002     1000 
 2806000   0.33872353   -2.4517973   0.50757721   -1.9442201   0.12518487     11456.49     1000 
 2808000   0.32125183   -2.4381404   0.48139586   -1.9567446   0.13241742    11372.989     1000 
 2810000   0.33340115   -2.4636567   0.49960163   -1.9640551   0.11485559    11475.599     1000 
 2812000   0.33768443   -2.4576604   0.50602012   -1.9516403     0.124471    11414.737     1000 
 2814000   0.34639858   -2.4325458   0.51907828   -1.9134675    0.1281914     11363.43     1000 
 2816000   0.34779894   -2.3887989   0.52117671   -1.8676222   0.13383572    11304.924     1000 
 2818000   0.34060214   -2.3959936   0.51039231   -1.8856012   0.12753843    11376.659     1000 
 2820000   0.35448649   -2.4426755     0.531198   -1.9114775   0.12689364    11447.292     1000 
 2822000    0.3311542   -2.4185882   0.49623457   -1.9223536   0.12967242    11294.938     1000 
 2824000   0.33085711   -2.4400964   0.49578938    -1.944307   0.13660096     11349.31     1000 
 2826000    0.3502784   -2.4798111   0.52489219   -1.9549189   0.12784222    11501.395     1000 
 2828000   0.34175663   -2.4133321   0.51212231   -1.9012098   0.14290854    11205.262     1000 
 2830000   0.33785465   -2.4554426   0.50627519   -1.9491674   0.12803775    11394.594     1000 
 2832000   0.34138086   -2.4526658   0.51155921   -1.9411066   0.13038459    11367.306     1000 
 2834000   0.35089131   -2.4493569   0.52581063   -1.9235463    0.1458182    11289.529     1000 
 2836000   0.34148275   -2.4310723    0.5117119   -1.9193603   0.13494771    11304.101     1000 
 2838000   0.34170547   -2.3915297   0.51204564   -1.8794841   0.14388312    11315.078     1000 
 2840000   0.33699289   -2.4533967   0.50498385   -1.9484129   0.12870652    11417.166     1000 
 2842000   0.33353066   -2.4106991   0.49979569   -1.9109034   0.13182968    11362.151     1000 
 2844000   0.34423122   -2.4617003   0.51583048   -1.9458698   0.13832198    11353.725     1000 
 2846000   0.36046786   -2.4316254   0.54016109   -1.8914643   0.13538101    11349.726     1000 
 2848000   0.33964142   -2.4664251   0.50895267   -1.9574724   0.12676227     11420.29     1000 
 2850000   0.32987279   -2.4860445   0.49431437   -1.9917301   0.13223347    11436.056     1000 
 2852000   0.35500971   -2.5080382   0.53198205   -1.9760562   0.13028954    11385.037     1000 
 2854000   0.33321085   -2.4006695   0.49931646   -1.9013531   0.12069145    11397.403     1000 
 2856000   0.33093198   -2.4662201   0.49590157   -1.9703185   0.12204177     11418.31     1000 
 2858000   0.33360494   -2.4552118     0.499907   -1.9553048   0.13266217    11346.356     1000 
 2860000   0.34437372   -2.4539455   0.51604402   -1.9379014   0.12928257    11365.833     1000 
 2862000   0.35007475   -2.4268451   0.52458701   -1.9022581   0.12914694    11417.374     1000 
 2864000   0.35997489   -2.4217626   0.53942238   -1.8823402   0.12534986    11450.195     1000 
 2866000   0.33111765   -2.4952649    0.4961798   -1.9990851   0.11920127    11440.943     1000 
 2868000   0.34840745   -2.4695015   0.52208857   -1.9474129   0.11973957    11455.225     1000 
 2870000   0.34349665   -2.4591592   0.51472973   -1.9444295   0.12685683    11428.213     1000 
 2872000   0.34091699   -2.4367481   0.51086411    -1.925884   0.13558823    11385.631     1000 
 2874000   0.33000664   -2.4213232   0.49451495   -1.9268082   0.12839598    11334.968     1000 
 2876000   0.32993595   -2.4372002   0.49440902   -1.9427912     0.122537    11416.387     1000 
 2878000   0.33896657   -2.4447752    0.5079414   -1.9368338   0.11831892    11390.295     1000 
 2880000   0.32693119   -2.4234014   0.48990639    -1.933495   0.13395589    11370.185     1000 
 2882000   0.34895207   -2.4385364   0.52290468   -1.9156317    0.1253962    11353.667     1000 
 2884000   0.34803543    -2.476994   0.52153109   -1.9554629   0.12692588    11451.977     1000 
 2886000   0.33785678   -2.5037917   0.50627839   -1.9975134   0.12553964     11435.14     1000 
 2888000   0.34496224   -2.4451692   0.51692591   -1.9282433   0.12645531    11350.699     1000 
 2890000   0.33557039   -2.4566453   0.50285223   -1.9537931   0.12546253    11389.248     1000 
 2892000     0.340929   -2.4247492    0.5108821   -1.9138671   0.13398665    11380.563     1000 
 2894000   0.34468337   -2.4580166   0.51650803   -1.9415086   0.12911294    11354.489     1000 
 2896000   0.33517923   -2.4519618   0.50226608   -1.9496957   0.12810419    11444.673     1000 
 2898000   0.33306009   -2.4568658   0.49909055   -1.9577753   0.12792557    11396.213     1000 
 2900000    0.3305962   -2.4410984   0.49539841      -1.9457   0.12353875    11364.128     1000 
 2902000   0.34327023   -2.4604694   0.51439044    -1.946079   0.13212813    11389.069     1000 
 2904000   0.34675893   -2.4347953   0.51961825    -1.915177   0.13444469     11365.74     1000 
 2906000   0.33856853   -2.4637171   0.50734494   -1.9563721   0.12263454    11377.374     1000 
 2908000   0.34990058   -2.4245544   0.52432602   -1.9002284   0.13449212    11350.966     1000 
 2910000   0.34051951    -2.455938   0.51026849   -1.9456695   0.12364901    11382.808     1000 
 2912000   0.33834575   -2.4371988   0.50701111   -1.9301877   0.13948234    11304.135     1000 
 2914000   0.32643764    -2.435892   0.48916681   -1.9467252    0.1365147    11345.759     1000 
 2916000   0.34544488   -2.4712692   0.51764915   -1.9536201   0.13381378    11402.306     1000 
 2918000   0.34894987   -2.4229282   0.52290138   -1.9000269   0.13185808    11359.028     1000 
 2920000   0.32784702   -2.4457818   0.49127876   -1.9545031    0.1346775    11367.825     1000 
 2922000   0.35824778   -2.5084519    0.5368343   -1.9716176   0.12600467    11465.042     1000 
 2924000   0.33284445   -2.4512505   0.49876741   -1.9524831   0.13087641    11353.082     1000 
 2926000   0.33599907    -2.467211    0.5034946   -1.9637164   0.12559046    11373.554     1000 
 2928000   0.32479963   -2.4769021   0.48671224   -1.9901898   0.12675222    11366.082     1000 
 2930000   0.33971162   -2.4343604   0.50905786   -1.9253025   0.13138772    11287.116     1000 
 2932000   0.34122439    -2.467494   0.51132475   -1.9561692   0.13056177     11410.76     1000 
 2934000   0.33551208   -2.4458621   0.50276485   -1.9430973   0.14545793    11261.198     1000 
 2936000   0.33547542   -2.4281414   0.50270991   -1.9254315   0.13697067    11277.619     1000 
 2938000    0.3311068   -2.4574113   0.49616354   -1.9612478   0.13428339    11363.285     1000 
 2940000   0.35257432   -2.4774541   0.52833262   -1.9491215   0.12367075    11423.748     1000 
 2942000   0.32693836   -2.4627075   0.48991714   -1.9727903   0.12709966    11466.048     1000 
 2944000   0.31977501   -2.4338336   0.47918285   -1.9546507   0.13332993    11355.661     1000 
 2946000   0.34616621   -2.4537774   0.51873006   -1.9350473   0.11917921    11470.655     1000 
 2948000   0.33329104   -2.3959543   0.49943662   -1.8965177   0.12905542    11317.584     1000 
 2950000    0.3374547   -2.4281768   0.50567587   -1.9225009   0.12390283    11386.312     1000 
 2952000    0.3434319   -2.4694853    0.5146327   -1.9548526   0.12634287     11406.26     1000 
 2954000   0.31443915    -2.434463   0.47118707   -1.9632759   0.12834695    11456.559     1000 
 2956000   0.34241115   -2.4984197    0.5131031   -1.9853166   0.13420966        11393     1000 
 2958000   0.35092373   -2.4451228    0.5258592   -1.9192635     0.132398    11389.644     1000 
 2960000   0.34587685   -2.4243232   0.51829645   -1.9060267   0.13071209    11360.368     1000 
 2962000    0.3470778   -2.4598919   0.52009609   -1.9397958   0.13019836    11388.984     1000 
 2964000   0.34751789   -2.4691235   0.52075555   -1.9483679   0.12367851    11426.094     1000 
 2966000   0.33513141   -2.4740454   0.50219442    -1.971851   0.13174484    11418.433     1000 
 2968000   0.33911445   -2.4368144     0.508163   -1.9286514   0.13067211     11354.51     1000 
 2970000   0.35236291   -2.4458968   0.52801582    -1.917881   0.11216975    11441.844     1000 
 2972000   0.33671825   -2.4004782    0.5045723   -1.8959059   0.12939134    11339.737     1000 
 2974000   0.33763427   -2.4499882   0.50594495   -1.9440432   0.12676701    11363.986     1000 
 2976000   0.35247733   -2.4450935   0.52818728   -1.9169062   0.13991056    11372.836     1000 
 2978000   0.34263662   -2.4906663   0.51344097   -1.9772253   0.12065739    11419.881     1000 
 2980000    0.3389093   -2.4481917   0.50785559   -1.9403362   0.11717457    11506.104     1000 
 2982000   0.33760581   -2.4062426   0.50590231   -1.9003403   0.12941978    11331.992     1000 
 2984000   0.33965496    -2.414087   0.50897296    -1.905114   0.13130688    11393.812     1000 
 2986000   0.34364576   -2.4508741   0.51495318   -1.9359209   0.13680533    11317.054     1000 
 2988000   0.35714025   -2.4302452   0.53517466   -1.8950706   0.13240572    11372.573     1000 
 2990000   0.34600694   -2.4610928    0.5184914   -1.9426014   0.13615425    11361.172     1000 
 2992000   0.34172281   -2.4182201   0.51207164   -1.9061484   0.13973344    11339.452     1000 
 2994000   0.33305923   -2.4527965   0.49908926   -1.9537073   0.13318191    11374.989     1000 
 2996000   0.34211644   -2.4609681   0.51266149   -1.9483066   0.12997388    11391.866     1000 
 2998000   0.33469356    -2.400277    0.5015383   -1.8987387   0.13721157    11329.421     1000 
 3000000   0.36298329   -2.4233316   0.54393047   -1.8794012   0.12527565    11420.852     1000 
Loop time of 1158.11 on 1 procs for 3000000 steps with 1000 atoms

Performance: 1119061.847 tau/day, 2590.421 timesteps/s
100.0% CPU use with 1 MPI tasks x 1 OpenMP threads

MPI task timing breakdown:
Section |  min time  |  avg time  |  max time  |%varavg| %total
---------------------------------------------------------------
Pair    | 912.05     | 912.05     | 912.05     |   0.0 | 78.75
Neigh   | 143.76     | 143.76     | 143.76     |   0.0 | 12.41
Comm    | 24.351     | 24.351     | 24.351     |   0.0 |  2.10
Output  | 0.017121   | 0.017121   | 0.017121   |   0.0 |  0.00
Modify  | 72.624     | 72.624     | 72.624     |   0.0 |  6.27
Other   |            | 5.315      |            |       |  0.46

Nlocal:        1000.00 ave        1000 max        1000 min
Histogram: 1 0 0 0 0 0 0 0 0 0
Nghost:        2166.00 ave        2166 max        2166 min
Histogram: 1 0 0 0 0 0 0 0 0 0
Neighs:        27666.0 ave       27666 max       27666 min
Histogram: 1 0 0 0 0 0 0 0 0 0

Total # of neighbors = 27666
Ave neighs/atom = 27.666000
Neighbor list builds = 150000
Dangerous builds not checked

Total wall time: 0:19:18
