LAMMPS (29 Sep 2021 - Update 2)
OMP_NUM_THREADS environment is not set. Defaulting to 1 thread. (src/comm.cpp:98)
  using 1 OpenMP thread(s) per MPI task
# ----------------------- Inicialização -----------------------

units			lj
atom_style 		atomic
dimension 		3
boundary 		p p p

# -------------------- Criação dos Átomos ---------------------

read_data 		topologia.txt
Reading data file ...
  orthogonal box = (0.0000000 0.0000000 0.0000000) to (21.540000 21.540000 21.540000)
  1 by 1 by 1 MPI processor grid
  reading atoms ...
  1000 atoms
  read_data CPU = 0.006 seconds

velocity 		all create ${temp} 87287 rot yes dist gaussian
velocity 		all create 0.41 87287 rot yes dist gaussian

# ------------------ Interação Interatômica -------------------

pair_style		table linear 1000
pair_coeff		1 1 force.table AA 5.0
WARNING: 2 of 1000 force values in table AA are inconsistent with -dE/dr.
WARNING:  Should only be flagged at inflection points (src/pair_table.cpp:465)
pair_coeff		1 2 force.table AB 5.0
WARNING: 1 of 1000 force values in table AB are inconsistent with -dE/dr.
WARNING:  Should only be flagged at inflection points (src/pair_table.cpp:465)
pair_coeff		2 2 force.table BB 5.0
pair_write		1 1 1000 r 0.008 5.0 table.check AA
Appending to table file table.check with DATE: 2023-06-15
Neighbor list info ...
  update every 1 steps, delay 10 steps, check yes
  max neighbors/atom: 2000, page size: 100000
  master list distance cutoff = 5.3
  ghost atom cutoff = 5.3
  binsize = 2.65, bins = 9 9 9
  1 neighbor lists, perpetual/occasional/extra = 1 0 0
  (1) pair table, perpetual
      attributes: half, newton on
      pair build: half/bin/atomonly/newton
      stencil: half/bin/3d
      bin: standard
pair_write		1 2 1000 r 0.008 5.0 table.check AB
Appending to table file table.check with DATE: 2023-06-15
pair_write		2 2 1000 r 0.008 5.0 table.check BB
Appending to table file table.check with DATE: 2023-06-15

neighbor 		0.3 bin
neigh_modify		every 20 delay 0 check no

# ------------------------- Ensemble --------------------------------------

fix 1			all npt temp ${temp} ${temp} 0.5 iso ${press} ${press} 5
fix 1			all npt temp 0.41 ${temp} 0.5 iso ${press} ${press} 5
fix 1			all npt temp 0.41 0.41 0.5 iso ${press} ${press} 5
fix 1			all npt temp 0.41 0.41 0.5 iso 0.13 ${press} 5
fix 1			all npt temp 0.41 0.41 0.5 iso 0.13 0.13 5

# ---------------------- Função de Distribuição Radial -----------------------

#compute RDF 		all rdf 2000 1 1 1 2 2 2
#fix 2 			all ave/time 1 2000 2000 c_RDF[*] file rdf.data mode vector

# ------------------------- Execução ---------------------------

timestep 		0.005
thermo_style		custom step temp pe ke etotal press vol atoms
thermo			2000
run			3000000
Per MPI rank memory allocation (min/avg/max) = 2.670 | 2.670 | 2.670 Mbytes
Step Temp PotEng KinEng TotEng Press Volume Atoms 
       0         0.41  -0.99052333     0.614385  -0.37613833   0.11008421    9993.9483     1000 
    2000   0.40747351   -2.1928935   0.61059905   -1.5822945   0.13045529    11337.294     1000 
    4000   0.41613739    -2.202578   0.62358188   -1.5789961   0.12518617    11391.366     1000 
    6000   0.40994028   -2.1864703   0.61429551   -1.5721748   0.12128606    11423.562     1000 
    8000   0.41014039    -2.182744   0.61459537   -1.5681486   0.13772042    11406.508     1000 
   10000   0.40180612   -2.2185791   0.60210648   -1.6164726    0.1342908    11390.072     1000 
   12000   0.42266439   -2.1999166   0.63336259    -1.566554   0.12755816     11406.06     1000 
   14000   0.41908968   -2.2337452   0.62800588   -1.6057394   0.11975958    11475.937     1000 
   16000   0.40229814   -2.2418745   0.60284376   -1.6390307    0.1298837    11412.425     1000 
   18000   0.39767368   -2.2303152   0.59591402   -1.6344012   0.12919664    11450.287     1000 
   20000    0.4117152   -2.2297753   0.61695523   -1.6128201   0.12153332    11447.199     1000 
   22000   0.39618091   -2.1798201    0.5936771    -1.586143   0.12633978    11392.931     1000 
   24000   0.38284424   -2.1833972   0.57369209   -1.6097051   0.12359409    11413.986     1000 
   26000   0.41909969   -2.2383251   0.62802088   -1.6103042   0.13435563    11335.184     1000 
   28000   0.43048091   -2.1501454   0.64507564   -1.5050698   0.13561756    11405.089     1000 
   30000   0.40809873   -2.2435221   0.61153595   -1.6319862   0.13071518    11380.444     1000 
   32000    0.4258405   -2.1926469   0.63812199   -1.5545249   0.12683572    11443.326     1000 
   34000   0.40587505    -2.248258   0.60820377   -1.6400543   0.13409871    11452.668     1000 
   36000   0.40522288   -2.1829439   0.60722648   -1.5757174    0.1260548    11435.131     1000 
   38000   0.38765831   -2.2082263   0.58090597   -1.6273203   0.11702722    11414.317     1000 
   40000    0.3944233   -2.1995941   0.59104332   -1.6085508   0.12599761    11351.819     1000 
   42000   0.39698589   -2.1805994   0.59488336    -1.585716   0.12998923    11305.585     1000 
   44000   0.40484834   -2.2108382   0.60666524    -1.604173   0.13475697    11316.208     1000 
   46000   0.40606967    -2.220319    0.6084954   -1.6118236   0.13159738    11340.621     1000 
   48000   0.40878726   -2.2142817   0.61256771   -1.6017139   0.13080775    11298.595     1000 
   50000   0.40254222   -2.1777065   0.60320951    -1.574497   0.13222692    11340.061     1000 
   52000   0.38412098   -2.1779735   0.57560529   -1.6023682   0.12885639    11369.939     1000 
   54000   0.39702075   -2.1507196    0.5949356    -1.555784   0.13029435    11303.322     1000 
   56000   0.39062424   -2.1925098   0.58535042   -1.6071593   0.13228736    11279.153     1000 
   58000   0.42392968   -2.1495802   0.63525862   -1.5143215   0.13394109    11322.886     1000 
   60000   0.42120307   -2.1575014    0.6311728   -1.5263286   0.12783502    11264.658     1000 
   62000   0.41241779   -2.1796862   0.61800805   -1.5616782    0.1282737    11377.533     1000 
   64000   0.41381378   -2.2290264   0.62009995   -1.6089264   0.12172076    11433.147     1000 
   66000    0.4137826   -2.1945432   0.62005323     -1.57449   0.13064485    11374.615     1000 
   68000   0.41160643   -2.2289594   0.61679223   -1.6121672   0.13797867    11313.514     1000 
   70000   0.42278685   -2.1899941    0.6335461    -1.556448   0.12368411    11449.879     1000 
   72000   0.40543004   -2.1995602   0.60753692   -1.5920233   0.13191645    11305.339     1000 
   74000   0.40555295   -2.1946021   0.60772109   -1.5868811    0.1283334    11373.135     1000 
   76000   0.41187376   -2.2542396   0.61719284   -1.6370467   0.12155923    11542.615     1000 
   78000   0.39424856    -2.175932   0.59078147   -1.5851505   0.12204759    11431.286     1000 
   80000   0.40633433   -2.1664954   0.60889199   -1.5576034   0.12186289    11373.774     1000 
   82000   0.39281069   -2.2106224   0.58862682   -1.6219955   0.12534844    11560.105     1000 
   84000   0.40203074   -2.2351043   0.60244306   -1.6326612   0.12903988    11433.459     1000 
   86000   0.41667789   -2.2365248   0.62439182    -1.612133   0.12304132    11531.665     1000 
   88000   0.40280622   -2.1448068   0.60360512   -1.5412017   0.12593086    11495.422     1000 
   90000   0.41756254   -2.1877416   0.62571746   -1.5620242   0.11801208    11439.238     1000 
   92000   0.39053519   -2.1527681   0.58521698   -1.5675511   0.12546209    11312.009     1000 
   94000   0.40419683   -2.2207495   0.60568895   -1.6150606   0.14125369    11223.932     1000 
   96000   0.41405636   -2.1660071   0.62046345   -1.5455437    0.1442505    11234.619     1000 
   98000   0.38677427   -2.1865137   0.57958124   -1.6069325   0.12678843    11395.063     1000 
  100000   0.40306426   -2.1918127    0.6039918   -1.5878209   0.14404151    11349.554     1000 
  102000   0.42462171   -2.1945891   0.63629563   -1.5582934   0.11651168    11421.762     1000 
  104000   0.41198273   -2.2146943   0.61735612   -1.5973382   0.14289773    11373.671     1000 
  106000   0.40887808   -2.1870347   0.61270381   -1.5743309   0.11868343    11394.514     1000 
  108000   0.41454154   -2.1969967   0.62119049   -1.5758062   0.13651481    11308.085     1000 
  110000    0.4156606   -2.1814651    0.6228674   -1.5585977   0.13457743    11364.086     1000 
  112000    0.4091882   -2.2079921   0.61316852   -1.5948236   0.12345792    11412.827     1000 
  114000   0.41508937    -2.211271   0.62201143   -1.5892595    0.1316557    11391.891     1000 
  116000    0.4096817    -2.164389   0.61390803    -1.550481   0.13941215     11240.59     1000 
  118000   0.39597043     -2.21123   0.59336168   -1.6178684   0.12856336    11425.271     1000 
  120000   0.40103675   -2.1521707   0.60095358   -1.5512172   0.12958962      11390.5     1000 
  122000   0.41518418   -2.1960591   0.62215349   -1.5739056    0.1314863    11369.451     1000 
  124000   0.41471689   -2.1782866   0.62145326   -1.5568333   0.14072047    11238.325     1000 
  126000   0.41395202   -2.1846801    0.6203071    -1.564373   0.12148294    11504.367     1000 
  128000   0.41436724   -2.1945766   0.62092932   -1.5736473   0.13407379    11348.763     1000 
  130000   0.40010424   -2.2299386    0.5995562   -1.6303824   0.12218763    11470.922     1000 
  132000   0.39182518   -2.2192039   0.58715003   -1.6320539   0.13515245    11344.118     1000 
  134000    0.3940509   -2.2001823   0.59048527   -1.6096971   0.12880465     11377.36     1000 
  136000   0.41819683   -2.1789613   0.62666795   -1.5522933   0.12107997    11582.851     1000 
  138000    0.4102629   -2.2329206   0.61477896   -1.6181417   0.13088919     11348.15     1000 
  140000   0.40734148   -2.1621703   0.61040121   -1.5517691   0.13360951    11406.067     1000 
  142000   0.41083114   -2.1913224   0.61563046   -1.5756919   0.13048242    11312.388     1000 
  144000   0.40421169   -2.1643712   0.60571122   -1.5586599   0.14174099     11289.65     1000 
  146000   0.42319734   -2.1984699   0.63416122   -1.5643087   0.13979017    11307.841     1000 
  148000   0.42234259   -2.2188232   0.63288037   -1.5859428   0.13206891    11445.638     1000 
  150000   0.38515936   -2.2059824   0.57716129   -1.6288211    0.1272432    11361.016     1000 
  152000   0.39772172    -2.154098     0.595986    -1.558112   0.13886196    11333.902     1000 
  154000   0.39135724   -2.2005333   0.58644883   -1.6140845   0.12097242    11503.549     1000 
  156000   0.43333773   -2.2299926   0.64935658    -1.580636    0.1225269    11476.954     1000 
  158000   0.40013628   -2.1557957   0.59960422   -1.5561915   0.13373755    11425.435     1000 
  160000   0.39989868   -2.2228883   0.59924817   -1.6236402   0.14095565    11368.753     1000 
  162000   0.41421655   -2.2037282    0.6207035   -1.5830247   0.12283415     11517.21     1000 
  164000   0.41563003   -2.1995704    0.6228216   -1.5767488   0.12968628    11433.718     1000 
  166000   0.43066424   -2.2150284   0.64535036   -1.5696781   0.12712502    11357.326     1000 
  168000   0.41395632   -2.1987506   0.62031354    -1.578437   0.13914618    11259.253     1000 
  170000   0.38808988    -2.185605   0.58155269   -1.6040523   0.12464589    11385.443     1000 
  172000    0.4362101   -2.2162994   0.65366084   -1.5626385   0.12654486    11339.667     1000 
  174000   0.40440142   -2.1755909   0.60599552   -1.5695954   0.11956857    11485.955     1000 
  176000    0.4134509   -2.1661783   0.61955617   -1.5466221    0.1224636     11397.26     1000 
  178000   0.40212155    -2.187576   0.60257914   -1.5849968   0.13012547    11416.215     1000 
  180000   0.40304431   -2.1593757    0.6039619   -1.5554138   0.13151336    11318.819     1000 
  182000     0.424995   -2.1723725   0.63685501   -1.5355175   0.13967333    11290.182     1000 
  184000   0.39229339   -2.2020201   0.58785165   -1.6141685   0.13051985    11300.818     1000 
  186000   0.41196221   -2.1947631   0.61732537   -1.5774378    0.1263298    11484.912     1000 
  188000   0.40717473   -2.1858763   0.61015133    -1.575725   0.12413849    11408.521     1000 
  190000   0.39941402   -2.2437068   0.59852191   -1.6451849   0.13241624    11326.571     1000 
  192000   0.41501341    -2.180264   0.62189759   -1.5583664   0.12543826    11397.975     1000 
  194000   0.40093957   -2.1951904   0.60080795   -1.5943825   0.12820528    11454.394     1000 
  196000   0.41948153   -2.1984044   0.62859307   -1.5698113   0.13285447    11394.949     1000 
  198000   0.40217742    -2.179142   0.60266287   -1.5764791   0.12163212     11461.75     1000 
  200000   0.41802827   -2.2003334   0.62641537    -1.573918   0.13813954    11360.535     1000 
  202000   0.42526019   -2.2218758    0.6372524   -1.5846234   0.13509576    11420.969     1000 
  204000   0.40176704   -2.1929801   0.60204792   -1.5909321   0.14020749    11255.798     1000 
  206000   0.40461188   -2.1709822    0.6063109   -1.5646713    0.1295052    11242.064     1000 
  208000   0.41969893   -2.2055989   0.62891885     -1.57668   0.13316572    11453.619     1000 
  210000   0.41250126   -2.1946851   0.61813313   -1.5765519    0.1224404     11430.22     1000 
  212000   0.40475133   -2.1832655   0.60651987   -1.5767457   0.11631425    11522.616     1000 
  214000    0.4017123   -2.1530895   0.60196588   -1.5511236   0.13618294    11271.234     1000 
  216000    0.4133738   -2.2425068   0.61944063   -1.6230662   0.13257492    11343.587     1000 
  218000   0.40945921   -2.2540585   0.61357462   -1.6404839   0.12124074     11344.83     1000 
  220000   0.39730032   -2.1692947   0.59535453   -1.5739402   0.14087953    11309.521     1000 
  222000   0.41463867   -2.1812034   0.62133605   -1.5598673   0.13328767    11370.496     1000 
  224000   0.42896237   -2.1837665   0.64280011   -1.5409664    0.1205221    11415.193     1000 
  226000   0.41820623   -2.2014667   0.62668203   -1.5747847   0.12569203    11373.108     1000 
  228000   0.40734852   -2.1637845   0.61041176   -1.5533727   0.12206826    11364.169     1000 
  230000   0.42479093   -2.2087575   0.63654921   -1.5722083    0.1359682    11309.427     1000 
  232000   0.42666843   -2.2265972   0.63936264   -1.5872345   0.14385773    11307.382     1000 
  234000   0.41230734   -2.1851424   0.61784255   -1.5672999   0.11723703    11511.137     1000 
  236000   0.41350812   -2.1532487   0.61964192   -1.5336068   0.13582327    11338.849     1000 
  238000   0.41336505   -2.2039464   0.61942752   -1.5845189   0.13326422    11254.798     1000 
  240000   0.40583482   -2.1767993   0.60814347   -1.5686558   0.12552493    11491.816     1000 
  242000    0.4099384   -2.2103684   0.61429269   -1.5960757   0.12953734    11361.161     1000 
  244000   0.39925896   -2.2025105   0.59828955   -1.6042209   0.13441127    11405.752     1000 
  246000   0.41129421   -2.1678777   0.61632437   -1.5515533   0.12894403    11401.924     1000 
  248000   0.40588638   -2.1916373   0.60822074   -1.5834165    0.1320808    11289.751     1000 
  250000   0.41587023   -2.1684746   0.62318154   -1.5452931   0.14272895    11211.112     1000 
  252000   0.40515567   -2.2220724   0.60712578   -1.6149466    0.1199518    11454.792     1000 
  254000   0.41918666   -2.2231653   0.62815121    -1.595014   0.13290566    11347.271     1000 
  256000   0.40947661   -2.2287398   0.61360071   -1.6151391   0.14604152    11259.496     1000 
  258000   0.42124408   -2.2340617   0.63123426   -1.6028275   0.12885904    11428.746     1000 
  260000   0.39540581   -2.1944693   0.59251561   -1.6019537   0.13761064     11236.69     1000 
  262000   0.42596023   -2.2068832   0.63830141   -1.5685818   0.12666363    11389.394     1000 
  264000    0.3858315   -2.1730268    0.5781685   -1.5948583   0.14228071    11226.173     1000 
  266000   0.42453023   -2.2347645   0.63615855    -1.598606   0.13330574    11402.749     1000 
  268000   0.39685854   -2.1889548   0.59469252   -1.5942622   0.11958835    11367.464     1000 
  270000    0.4135461   -2.1770133   0.61969882   -1.5573145   0.13146627    11365.605     1000 
  272000    0.3887443   -2.2311742   0.58253333   -1.6486409   0.13127337    11419.224     1000 
  274000   0.40239176   -2.2036545   0.60298405   -1.6006705   0.12155215    11397.372     1000 
  276000   0.41474034   -2.2284394   0.62148839    -1.606951   0.12687509    11363.756     1000 
  278000    0.4131364   -2.2349374   0.61908489   -1.6158525   0.11977724    11435.328     1000 
  280000   0.38531339   -2.1647894   0.57739211   -1.5873972   0.13742178    11249.345     1000 
  282000   0.41210937   -2.2474566   0.61754589   -1.6299107   0.11874919    11535.932     1000 
  284000   0.42418271   -2.2477978   0.63563778   -1.6121601   0.12530156    11478.987     1000 
  286000     0.408934   -2.2033162    0.6127876   -1.5905286   0.13944561    11385.844     1000 
  288000   0.40517154   -2.2004108   0.60714955   -1.5932612    0.1346173    11439.563     1000 
  290000   0.40592227   -2.2160823   0.60827453   -1.6078077   0.10979846    11526.106     1000 
  292000   0.39754487   -2.1576999   0.59572099   -1.5619789   0.13757958    11316.928     1000 
  294000   0.41603999   -2.1930551   0.62343593   -1.5696192   0.13138126    11306.419     1000 
  296000   0.44064322   -2.1946548   0.66030386    -1.534351    0.1268008     11442.36     1000 
  298000   0.42073059   -2.2036928   0.63046478    -1.573228   0.13690401    11310.293     1000 
  300000   0.41199723   -2.2561667   0.61737785   -1.6387888   0.12686329    11363.291     1000 
  302000   0.42884352   -2.2525043   0.64262202   -1.6098823   0.13468586    11425.258     1000 
  304000   0.42054378    -2.179222   0.63018486   -1.5490371   0.11621608    11359.465     1000 
  306000   0.39744692   -2.2340284    0.5955742   -1.6384542   0.12371734    11374.821     1000 
  308000   0.41522193   -2.1667819   0.62221007   -1.5445718   0.12989889    11306.821     1000 
  310000   0.41639636   -2.1720385   0.62396994   -1.5480686   0.13276758    11387.935     1000 
  312000   0.40194406   -2.2208832   0.60231317   -1.6185701   0.12427949    11481.866     1000 
  314000    0.4147208   -2.1823311   0.62145911    -1.560872    0.1387259    11335.702     1000 
  316000   0.42211748   -2.1882949   0.63254304   -1.5557518   0.14490406    11321.079     1000 
  318000   0.40622456   -2.1729932    0.6087275   -1.5642657   0.12892014    11310.407     1000 
  320000   0.39621767   -2.2162775   0.59373218   -1.6225453   0.11490985    11528.259     1000 
  322000   0.39902189   -2.2026404    0.5979343   -1.6047061    0.1246049    11415.547     1000 
  324000   0.39062022   -2.1663269   0.58534441   -1.5809825   0.13044744    11311.642     1000 
  326000   0.42147488   -2.2059412   0.63158011   -1.5743611   0.12478578    11455.718     1000 
  328000   0.40097744   -2.1639971   0.60086469   -1.5631324   0.14224569    11310.726     1000 
  330000   0.41640613   -2.1691682   0.62398459   -1.5451836   0.13973468    11348.108     1000 
  332000    0.4094652   -2.1642942    0.6135836   -1.5507106   0.12819533    11318.545     1000 
  334000   0.41082646   -2.1582843   0.61562345   -1.5426609   0.12744526    11370.211     1000 
  336000   0.43021684   -2.2159018   0.64467994   -1.5712219   0.13647941    11376.292     1000 
  338000   0.42895099   -2.1985293   0.64278306   -1.5557462   0.13445703    11309.566     1000 
  340000   0.40285682   -2.2066606   0.60368094   -1.6029796   0.13321762    11287.885     1000 
  342000   0.41302573   -2.1858247   0.61891906   -1.5669056   0.14083577    11285.346     1000 
  344000   0.38849421   -2.1663994   0.58215858   -1.5842408   0.13489893    11342.006     1000 
  346000   0.42288619   -2.2344137   0.63369495   -1.6007187   0.12548257    11455.111     1000 
  348000   0.41564839   -2.1899166   0.62284911   -1.5670675    0.1322748      11376.1     1000 
  350000   0.40727351   -2.1563895   0.61029936   -1.5460901   0.12707084    11432.278     1000 
  352000   0.41859393   -2.1873846   0.62726301   -1.5601216    0.1376248    11368.832     1000 
  354000    0.3956177   -2.1810018   0.59283313   -1.5881686   0.12947981    11259.386     1000 
  356000   0.41969225   -2.1719598   0.62890883   -1.5430509   0.13410516    11368.791     1000 
  358000    0.3953821   -2.1588211   0.59248007    -1.566341   0.11567327     11503.62     1000 
  360000   0.41405506   -2.2007015   0.62046151   -1.5802399   0.13690205    11326.766     1000 
  362000    0.3959861   -2.1862338   0.59338518   -1.5928486   0.12370793    11395.052     1000 
  364000   0.41796263   -2.1876291   0.62631701   -1.5613121   0.12287828    11533.164     1000 
  366000   0.39638952   -2.2025823    0.5939897   -1.6085926   0.13105835    11442.163     1000 
  368000   0.40216142   -2.2059459   0.60263889    -1.603307   0.13166072    11291.824     1000 
  370000   0.39473541   -2.1326027   0.59151101   -1.5410916   0.13047762    11303.912     1000 
  372000   0.39517616   -2.1770859   0.59217148   -1.5849144   0.14051263    11290.265     1000 
  374000   0.40935318    -2.194999   0.61341574   -1.5815832   0.12610742    11357.561     1000 
  376000   0.41196823   -2.2158818   0.61733439   -1.5985474    0.1264999    11457.738     1000 
  378000   0.40214646   -2.2028933   0.60261646   -1.6002768   0.12585476    11503.892     1000 
  380000   0.40812904   -2.1989235   0.61158137   -1.5873421   0.13195858    11267.678     1000 
  382000   0.40853468   -2.1946012   0.61218922    -1.582412   0.14004741    11269.871     1000 
  384000   0.41824923   -2.1867776   0.62674646   -1.5600311    0.1357477    11233.611     1000 
  386000   0.41059102    -2.196319   0.61527064   -1.5810483   0.12835217    11431.765     1000 
  388000    0.4035674   -2.1883794   0.60474574   -1.5836337   0.12665622    11336.714     1000 
  390000   0.42295517   -2.2120655   0.63379833   -1.5782672   0.14089106    11323.437     1000 
  392000   0.41679612    -2.238749   0.62456898   -1.6141801   0.12163041    11615.003     1000 
  394000   0.41193839   -2.1824967   0.61728968    -1.565207   0.13705507    11285.195     1000 
  396000   0.42428781   -2.2054274   0.63579528   -1.5696322    0.1237823    11369.642     1000 
  398000   0.41806385   -2.2006435   0.62646868   -1.5741748   0.12217886    11395.744     1000 
  400000   0.40400533   -2.1219105   0.60540198   -1.5165085    0.1205368    11460.214     1000 
  402000   0.40970328   -2.1651212   0.61394036   -1.5511809   0.13254736    11306.374     1000 
  404000    0.3995408   -2.2004134   0.59871189   -1.6017015   0.13110042    11339.091     1000 
  406000   0.43505619   -2.1842186   0.65193171   -1.5322869   0.13084391    11366.209     1000 
  408000   0.40634767   -2.2152521   0.60891199   -1.6063401   0.12957262    11432.035     1000 
  410000   0.41550336   -2.1966067   0.62263178    -1.573975   0.12805242    11435.135     1000 
  412000   0.40567244   -2.2005853   0.60790015   -1.5926852    0.1363157    11293.925     1000 
  414000    0.4177283   -2.1864535   0.62596586   -1.5604876   0.12276985    11388.901     1000 
  416000     0.425726   -2.2121903   0.63795041   -1.5742398   0.14072418    11457.688     1000 
  418000   0.40269654   -2.2627875   0.60344077   -1.6593467   0.12373407    11434.743     1000 
  420000   0.39718675   -2.1611563   0.59518435   -1.5659719   0.14923102    11119.371     1000 
  422000   0.39103712   -2.1730645   0.58596913   -1.5870954   0.13372972    11340.601     1000 
  424000   0.42768432   -2.1916282   0.64088495   -1.5507433   0.13877794    11330.331     1000 
  426000   0.42986755   -2.1774344   0.64415652   -1.5332779   0.13674435    11334.382     1000 
  428000    0.4158821   -2.1870209   0.62319933   -1.5638216    0.1285207    11449.885     1000 
  430000   0.40486634   -2.2045958   0.60669222   -1.5979035   0.11858954    11450.019     1000 
  432000   0.39394149   -2.1677796   0.59032132   -1.5774583   0.13538627    11249.413     1000 
  434000   0.39341512   -2.2207101   0.58953255   -1.6311775   0.13109911      11387.5     1000 
  436000   0.42409884   -2.2084981   0.63551211    -1.572986   0.13434956    11391.924     1000 
  438000   0.42621996   -2.1979885   0.63869062   -1.5592979    0.1266259    11414.119     1000 
  440000   0.40368291   -2.2153252   0.60491883   -1.6104063    0.1253442    11458.936     1000 
  442000   0.42761109   -2.1715628   0.64077522   -1.5307875     0.136251    11335.591     1000 
  444000   0.40264962   -2.2212288   0.60337045   -1.6178584   0.13294718    11337.905     1000 
  446000   0.41606564   -2.1977065   0.62347436   -1.5742321   0.12538964    11423.124     1000 
  448000   0.39562381   -2.2152688   0.59284229   -1.6224265   0.11895053    11483.819     1000 
  450000   0.42174651   -2.1694331   0.63198714    -1.537446   0.12317918    11392.963     1000 
  452000   0.42587319   -2.2104772   0.63817097   -1.5723063   0.13695588     11374.65     1000 
  454000   0.40355552   -2.2305653   0.60472794   -1.6258373   0.13711021    11353.053     1000 
  456000   0.41053544   -2.1978528   0.61518736   -1.5826654   0.12088746     11464.38     1000 
  458000   0.39760966    -2.179915   0.59581808   -1.5840969   0.12981984    11446.158     1000 
  460000   0.42414991   -2.2441847   0.63558864   -1.6085961   0.13436435    11412.568     1000 
  462000   0.39908122   -2.1668265   0.59802321   -1.5688033   0.13551643    11263.288     1000 
  464000   0.39831247   -2.1797834   0.59687124   -1.5829121   0.12726666    11353.958     1000 
  466000   0.40030245   -2.1977497   0.59985323   -1.5978965   0.12839473    11410.237     1000 
  468000   0.41050442     -2.16689   0.61514087   -1.5517491   0.13336109    11325.537     1000 
  470000   0.41351169   -2.1700808   0.61964726   -1.5504336   0.13437886    11197.821     1000 
  472000   0.39989477   -2.1798815   0.59924231   -1.5806392   0.13365149    11305.454     1000 
  474000   0.41038645    -2.226344   0.61496409   -1.6113799   0.12669607     11445.53     1000 
  476000   0.40917954   -2.1661369   0.61315555   -1.5529814   0.13503138    11315.928     1000 
  478000   0.39891147   -2.1757752   0.59776884   -1.5780064   0.12631804    11421.044     1000 
  480000   0.41741389   -2.1917954   0.62549471   -1.5663007   0.12998623    11369.374     1000 
  482000    0.4173771   -2.2008116   0.62543958   -1.5753721   0.13288808    11437.657     1000 
  484000   0.40407636   -2.1794889   0.60550842   -1.5739805   0.13031899    11290.113     1000 
  486000   0.41189757   -2.2197094   0.61722851   -1.6024809   0.11770304    11506.731     1000 
  488000   0.40572693   -2.2096805    0.6079818   -1.6016987   0.12224257    11456.546     1000 
  490000   0.41203547   -2.2141392   0.61743516    -1.596704    0.1162535    11545.465     1000 
  492000   0.40915388   -2.2062455   0.61311709   -1.5931284   0.13709711    11316.198     1000 
  494000   0.38656552   -2.2275786   0.57926843   -1.6483101   0.12248184    11318.854     1000 
  496000   0.40003755   -2.2181934   0.59945627   -1.6187372   0.13538759    11371.017     1000 
  498000   0.41843486   -2.1796366   0.62702464    -1.552612   0.13631469     11301.05     1000 
  500000   0.42611493   -2.1908933   0.63853322   -1.5523601    0.1389567    11371.022     1000 
  502000   0.39884731   -2.2188334   0.59767269   -1.6211607   0.12222143    11453.166     1000 
  504000   0.39607919   -2.1621186   0.59352467   -1.5685939   0.12894338    11388.292     1000 
  506000   0.40451552   -2.1902724   0.60616651   -1.5841059   0.12706315    11393.363     1000 
  508000   0.40930843   -2.1644985   0.61334868   -1.5511498   0.12239643    11399.471     1000 
  510000   0.39445155   -2.2036319   0.59108564   -1.6125462    0.1189878    11414.648     1000 
  512000   0.40894025   -2.2178092   0.61279697   -1.6050122   0.13274243    11458.876     1000 
  514000   0.42051447     -2.16051   0.63014093    -1.530369   0.15374882    11062.156     1000 
  516000   0.41640614   -2.1575244    0.6239846   -1.5335398   0.12970191    11338.371     1000 
  518000    0.4050057   -2.2141631   0.60690105   -1.6072621   0.12445785    11470.849     1000 
  520000   0.40106809   -2.1828877   0.60100053   -1.5818872    0.1208209      11341.9     1000 
  522000   0.41312756   -2.1550152   0.61907164   -1.5359435   0.13473075    11315.915     1000 
  524000   0.42308038   -2.2366245   0.63398594   -1.6026385   0.13188435    11350.916     1000 
  526000   0.40447204   -2.2125361   0.60610135   -1.6064348   0.12565647    11344.325     1000 
  528000   0.40539565   -2.2009952   0.60748538   -1.5935098    0.1322277    11420.923     1000 
  530000   0.40335591   -2.2020388   0.60442883     -1.59761    0.1212079    11410.008     1000 
  532000   0.42440339   -2.1839643   0.63596848   -1.5479958   0.13761679    11335.244     1000 
  534000   0.38549365   -2.1903665   0.57766223   -1.6127042   0.12204261    11309.821     1000 
  536000   0.40365361   -2.2002433   0.60487494   -1.5953683   0.12631687    11320.621     1000 
  538000   0.43175907   -2.1665305   0.64699097   -1.5195396   0.13685924    11274.415     1000 
  540000    0.3967765   -2.2026159   0.59456959   -1.6080463   0.12463696    11504.309     1000 
  542000   0.39971167   -2.1783584   0.59896794   -1.5793904   0.11939752    11426.255     1000 
  544000   0.39972378   -2.1458578   0.59898608   -1.5468717   0.14372807    11280.869     1000 
  546000   0.41205249   -2.2214897   0.61746065    -1.604029   0.13248406    11325.093     1000 
  548000   0.43467584   -2.1764172   0.65136175   -1.5250554    0.1389859    11296.781     1000 
  550000   0.40536345   -2.2146084   0.60743714   -1.6071712   0.12835502    11325.168     1000 
  552000   0.42784065   -2.1969793   0.64111922   -1.5558601   0.13662574     11397.08     1000 
  554000   0.40701807   -2.2002703   0.60991658   -1.5903538   0.12531701    11463.431     1000 
  556000   0.40579183   -2.2273216   0.60807906   -1.6192426    0.1271885    11355.887     1000 
  558000   0.40774108    -2.156521   0.61100001    -1.545521   0.13783719    11311.821     1000 
  560000   0.41490143   -2.1930213    0.6217298   -1.5712915   0.13396862    11396.261     1000 
  562000   0.40836182   -2.1906907   0.61193018   -1.5787605   0.12441432    11402.662     1000 
  564000   0.40602466   -2.1945122   0.60842795   -1.5860843   0.12632616    11460.419     1000 
  566000   0.41461407   -2.2153266   0.62129918   -1.5940274   0.13684527    11342.389     1000 
  568000   0.41713502   -2.1518395   0.62507683   -1.5267626   0.13845571     11356.67     1000 
  570000   0.41019365   -2.2202176   0.61467518   -1.6055424   0.13056205    11427.545     1000 
  572000      0.40872   -2.1720984   0.61246692   -1.5596315   0.13429578    11296.247     1000 
  574000   0.40493238   -2.2048208   0.60679117   -1.5980296    0.1332886    11408.654     1000 
  576000   0.41392939   -2.1968284    0.6202732   -1.5765552   0.12525197    11387.523     1000 
  578000   0.39992204   -2.1960885   0.59928317   -1.5968054   0.12968677    11359.474     1000 
  580000   0.40001164   -2.1931552   0.59941745   -1.5937377   0.13213591    11282.713     1000 
  582000   0.41308981   -2.2313729   0.61901508   -1.6123578   0.13488407    11393.801     1000 
  584000   0.42349237   -2.2192012   0.63460332   -1.5845979   0.13224549    11407.772     1000 
  586000   0.40836918   -2.1842055   0.61194122   -1.5722643   0.13992048    11342.009     1000 
  588000   0.40715183    -2.166911   0.61011702    -1.556794   0.12678547    11361.509     1000 
  590000   0.40625585   -2.2111232   0.60877439   -1.6023489   0.13164015    11321.796     1000 
  592000   0.40778037   -2.1877369   0.61105889    -1.576678   0.12687878    11366.763     1000 
  594000   0.38805788   -2.1736045   0.58150473   -1.5920998    0.1328938    11390.588     1000 
  596000   0.41477575   -2.2190284   0.62154147    -1.597487   0.12858679    11383.281     1000 
  598000   0.41598167   -2.2337726   0.62334854   -1.6104241   0.11869926    11442.962     1000 
  600000   0.43611989   -2.2103607   0.65352566    -1.556835   0.12543732    11482.512     1000 
  602000   0.43032003    -2.183827   0.64483457   -1.5389924    0.1371933    11361.694     1000 
  604000   0.40223153   -2.1561437   0.60274395   -1.5533998   0.13143826    11384.968     1000 
  606000   0.40281895    -2.192379   0.60362419   -1.5887548   0.13620437    11297.352     1000 
  608000   0.42780428   -2.1800193   0.64106471   -1.5389546   0.12149905    11453.629     1000 
  610000   0.42271895   -2.1827825   0.63344435   -1.5493381   0.11688361    11376.789     1000 
  612000   0.39509274   -2.1594887   0.59204647   -1.5674422   0.13794198    11289.208     1000 
  614000   0.38877907   -2.1906344   0.58258543   -1.6080489   0.12605097    11311.529     1000 
  616000    0.4002776   -2.1979145   0.59981598   -1.5980985   0.11659076    11405.731     1000 
  618000    0.4091733   -2.2016829   0.61314619   -1.5885367   0.11879349    11428.148     1000 
  620000    0.4045525   -2.2204029   0.60622193    -1.614181   0.13246203    11334.684     1000 
  622000   0.41026495   -2.1786852   0.61478203   -1.5639031   0.13001247     11402.27     1000 
  624000   0.41075277   -2.1942098   0.61551303   -1.5786968    0.1373797     11262.34     1000 
  626000   0.41350041   -2.1489708   0.61963037   -1.5293404   0.13910493    11206.598     1000 
  628000   0.41378819   -2.2079063   0.62006161   -1.5878447   0.12376829    11443.741     1000 
  630000   0.42191076   -2.1663515   0.63223328   -1.5341182   0.14265465    11305.936     1000 
  632000   0.41259968   -2.2217978   0.61828062   -1.6035172   0.14026968    11334.315     1000 
  634000   0.41516533   -2.1721279   0.62212525   -1.5500027   0.13019648    11312.944     1000 
  636000   0.42741786   -2.1807508   0.64048567   -1.5402651   0.13349861    11495.819     1000 
  638000   0.41503827   -2.1965479   0.62193484   -1.5746131   0.12475973    11434.257     1000 
  640000   0.41796904    -2.237241   0.62632661   -1.6109144   0.13262039    11443.954     1000 
  642000   0.42360889   -2.2185808   0.63477792   -1.5838028   0.12941352    11438.625     1000 
  644000   0.40847721   -2.2049408   0.61210309   -1.5928377   0.12872604    11325.364     1000 
  646000   0.40893498   -2.2405907   0.61278907   -1.6278017   0.12569529    11391.994     1000 
  648000   0.42044685   -2.1710562    0.6300396   -1.5410166   0.14599449    11294.395     1000 
  650000   0.41264371   -2.1676044    0.6183466   -1.5492578   0.12745127    11410.302     1000 
  652000   0.40247375   -2.2112703   0.60310692   -1.6081634    0.1270736    11380.398     1000 
  654000   0.40147528   -2.2063717   0.60161071    -1.604761   0.13546281    11340.473     1000 
  656000   0.41168501   -2.2565684   0.61690999   -1.6396584   0.12590229    11338.762     1000 
  658000   0.40118815   -2.1734607   0.60118045   -1.5722802   0.12240483    11454.359     1000 
  660000   0.40327713    -2.240119   0.60431077   -1.6358082    0.1416952    11371.223     1000 
  662000   0.42019831   -2.2135009   0.62966717   -1.5838337   0.13914393    11304.205     1000 
  664000   0.40909496   -2.1971388   0.61302879     -1.58411    0.1307933    11393.047     1000 
  666000   0.41765485   -2.1992868   0.62585579    -1.573431   0.12913718    11440.013     1000 
  668000   0.39938882   -2.2200893   0.59848414   -1.6216051   0.13068567    11387.888     1000 
  670000   0.40410321   -2.1989258   0.60554866   -1.5933772   0.12483374    11433.434     1000 
  672000   0.38444748   -2.1840836   0.57609455   -1.6079891   0.11823306    11369.228     1000 
  674000   0.40756045    -2.224161   0.61072933   -1.6134317   0.13097686    11483.399     1000 
  676000   0.41437001     -2.22204   0.62093346   -1.6011066   0.12963806    11440.217     1000 
  678000   0.41040117   -2.2359084   0.61498616   -1.6209222   0.12183468    11444.886     1000 
  680000   0.41052484   -2.1699555   0.61517147    -1.554784   0.13634363     11282.14     1000 
  682000   0.41331723   -2.1918511   0.61935587   -1.5724953   0.13257214    11363.381     1000 
  684000   0.41535304   -2.2314931   0.62240653   -1.6090866   0.13090335    11349.679     1000 
  686000   0.40824788    -2.174726   0.61175945   -1.5629666   0.13707841    11285.552     1000 
  688000   0.40426842   -2.1765037   0.60579623   -1.5707074   0.12060272    11349.281     1000 
  690000   0.40561741   -2.2308874   0.60781769   -1.6230697   0.12567896    11441.464     1000 
  692000   0.40486582   -2.2272611   0.60669143   -1.6205696   0.12569094    11423.621     1000 
  694000   0.41421923   -2.2133441   0.62070752   -1.5926366   0.13344562    11396.018     1000 
  696000    0.4103321   -2.2417473   0.61488265   -1.6268646   0.12931989    11437.866     1000 
  698000   0.42379653   -2.1889323    0.6350591   -1.5538732   0.14369033    11274.768     1000 
  700000   0.39026775   -2.1907947   0.58481622   -1.6059784   0.12768513    11332.048     1000 
  702000   0.41304653   -2.2020872   0.61895023    -1.583137    0.1301866      11412.7     1000 
  704000   0.40349888   -2.1786567   0.60464307   -1.5740136   0.12476213     11353.27     1000 
  706000   0.41003086   -2.2648119   0.61443125   -1.6503806   0.13011615    11396.696     1000 
  708000   0.40729034   -2.2121387   0.61032458   -1.6018141    0.1260189    11376.117     1000 
  710000   0.40940045   -2.1639623   0.61348658   -1.5504757   0.12945469    11324.888     1000 
  712000   0.42370138   -2.2521116   0.63491652    -1.617195   0.12770622    11360.317     1000 
  714000   0.41957228   -2.1628413   0.62872906   -1.5341122   0.13787802    11281.961     1000 
  716000   0.42065839   -2.2234811   0.63035659   -1.5931245   0.11674381    11482.082     1000 
  718000   0.39391754   -2.1585069   0.59028543   -1.5682214   0.13194657    11320.394     1000 
  720000   0.39384453   -2.2155804   0.59017603   -1.6254044   0.12758567     11399.61     1000 
  722000    0.4076041    -2.218285   0.61079475   -1.6074902   0.12420488    11371.892     1000 
  724000   0.41099341   -2.1319226   0.61587362    -1.516049   0.12698165    11333.657     1000 
  726000   0.39833175   -2.2442861   0.59690012    -1.647386   0.12558157     11383.54     1000 
  728000   0.41375279   -2.2152319   0.62000856   -1.5952233   0.13569585    11330.245     1000 
  730000   0.41056407   -2.1760674   0.61523026   -1.5608372   0.12131135    11429.959     1000 
  732000   0.40508588   -2.2066373   0.60702118   -1.5996161   0.12388092    11411.312     1000 
  734000   0.41463945   -2.1922446   0.62133722   -1.5709074   0.12874256    11374.553     1000 
  736000    0.3814385    -2.204502    0.5715856   -1.6329164   0.12961247    11406.808     1000 
  738000   0.40898251   -2.1610954   0.61286029   -1.5482351   0.14036397    11276.777     1000 
  740000   0.40089285   -2.1392824   0.60073794   -1.5385445   0.13027752    11284.296     1000 
  742000    0.3801722   -2.1803744   0.56968805   -1.6106864   0.11613689    11568.397     1000 
  744000   0.42223646   -2.1783483   0.63272134   -1.5456269   0.13403207    11263.895     1000 
  746000   0.39786431   -2.1737021   0.59619966   -1.5775024   0.13501468    11252.401     1000 
  748000   0.42548516   -2.1966533   0.63758951   -1.5590638   0.12819618    11354.158     1000 
  750000   0.42657342   -2.2114407   0.63922027   -1.5722204   0.11713536    11546.869     1000 
  752000     0.423885   -2.1907448   0.63519167   -1.5555531   0.12051217     11362.05     1000 
  754000   0.41472709   -2.2025281   0.62146854   -1.5810595   0.13421927    11397.588     1000 
  756000    0.4221942   -2.1610546   0.63265801   -1.5283966   0.12638412    11410.992     1000 
  758000   0.42746984   -2.2167346   0.64056356   -1.5761711   0.12965179    11370.638     1000 
  760000   0.41162273   -2.1894701   0.61681666   -1.5726534   0.13459396    11438.024     1000 
  762000   0.41519019   -2.2030205   0.62216249    -1.580858   0.11734733     11414.41     1000 
  764000   0.39951947   -2.1678472   0.59867992   -1.5691673   0.13512529    11386.264     1000 
  766000   0.41861072   -2.1626445   0.62728816   -1.5353564   0.13110323    11325.125     1000 
  768000   0.42421015   -2.1969521   0.63567891   -1.5612732   0.12505568    11432.198     1000 
  770000   0.41586908   -2.2368254   0.62317982   -1.6136456   0.13685706    11425.806     1000 
  772000   0.43457017   -2.2155974    0.6512034    -1.564394   0.12941917    11320.352     1000 
  774000    0.4232394   -2.2405558   0.63422424   -1.6063315    0.1367976    11374.964     1000 
  776000   0.41649838   -2.1829095   0.62412282   -1.5587866   0.12942414    11401.688     1000 
  778000   0.40975669   -2.1686327   0.61402039   -1.5546123   0.14182822    11267.727     1000 
  780000   0.40802909   -2.2094207    0.6114316   -1.5979891   0.12116645    11461.271     1000 
  782000     0.426472   -2.1858751   0.63906829   -1.5468068    0.1364057    11291.111     1000 
  784000   0.39614869   -2.1834779   0.59362881   -1.5898491   0.12256462    11399.459     1000 
  786000   0.39484452   -2.1588709   0.59167452   -1.5671964   0.14701435    11194.608     1000 
  788000   0.41458614    -2.210635   0.62125733   -1.5893777   0.12888146    11408.681     1000 
  790000    0.4156721     -2.22813   0.62288465   -1.6052454   0.11855294    11485.207     1000 
  792000   0.41762274   -2.1985339   0.62580768   -1.5727262   0.12579532     11469.42     1000 
  794000   0.40215213   -2.1926302   0.60262497   -1.5900052   0.12340522      11462.1     1000 
  796000   0.42015283   -2.1973627   0.62959902   -1.5677637   0.13403922    11404.388     1000 
  798000   0.40741925   -2.1830488   0.61051775    -1.572531   0.14010958    11271.691     1000 
  800000   0.38991674   -2.2062961   0.58429024   -1.6220059    0.1246351    11369.981     1000 
  802000   0.42154297    -2.186506   0.63168214   -1.5548238   0.13203597     11413.67     1000 
  804000   0.40877357   -2.2031625    0.6125472   -1.5906153   0.11322746    11450.352     1000 
  806000   0.42159045    -2.175109   0.63175329   -1.5433557   0.13905388    11355.948     1000 
  808000   0.41217401   -2.1802383   0.61764275   -1.5625955   0.12583867     11384.34     1000 
  810000   0.40284218   -2.2142119     0.603659   -1.6105529   0.13573498    11235.545     1000 
  812000   0.40104428   -2.2319164   0.60096485   -1.6309516   0.12886411    11422.777     1000 
  814000   0.41541604   -2.1996801   0.62250093   -1.5771792    0.1375606      11411.7     1000 
  816000   0.40847589   -2.2080799   0.61210112   -1.5959787   0.14413928    11284.647     1000 
  818000   0.40962213   -2.1852393   0.61381877   -1.5714206   0.13342532    11285.774     1000 
  820000   0.38782562   -2.1762762   0.58115669   -1.5951195   0.13144817    11312.986     1000 
  822000   0.40300882   -2.1673866   0.60390871   -1.5634779   0.13305048    11191.784     1000 
  824000   0.41206405   -2.1653287   0.61747799   -1.5478507   0.13536855      11293.4     1000 
  826000   0.41786563   -2.1947796   0.62617164    -1.568608   0.12450477    11517.043     1000 
  828000   0.40985456   -2.1646239   0.61416706   -1.5504568   0.14078744    11284.833     1000 
  830000   0.41506406   -2.1838549    0.6219735   -1.5618814   0.13653074    11224.598     1000 
  832000   0.41890654   -2.1925599   0.62773145   -1.5648285   0.12155676    11468.888     1000 
  834000    0.3942602   -2.1710788   0.59079892   -1.5802799   0.13503975    11355.301     1000 
  836000   0.40646686   -2.1551371    0.6090906   -1.5460465   0.11399342    11411.842     1000 
  838000   0.40902087   -2.1767083   0.61291777   -1.5637905    0.1328167    11369.867     1000 
  840000   0.42205772   -2.2582483   0.63245349   -1.6257948    0.1317768    11318.042     1000 
  842000   0.41666462   -2.1994393   0.62437194   -1.5750673   0.11967373    11512.667     1000 
  844000   0.41017451   -2.1956491    0.6146465   -1.5810026   0.12232546    11479.427     1000 
  846000   0.41087612   -2.1626231   0.61569787   -1.5469252   0.12859207     11390.64     1000 
  848000   0.39874182   -2.1773572   0.59751462   -1.5798426   0.13485264    11338.387     1000 
  850000   0.41278862   -2.2182475   0.61856374   -1.5996837   0.12823657    11473.652     1000 
  852000   0.41218994   -2.1977029   0.61766662   -1.5800363   0.12035936    11511.153     1000 
  854000   0.40315693   -2.2042743   0.60413066   -1.6001436   0.13088126    11394.861     1000 
  856000   0.39612983   -2.1635682   0.59360055   -1.5699676   0.12559375    11413.884     1000 
  858000   0.39582095   -2.2268495   0.59313769   -1.6337119   0.11881688    11501.179     1000 
  860000   0.41480126   -2.2340693   0.62157969   -1.6124896   0.13383563    11374.091     1000 
  862000   0.40299309   -2.1776069   0.60388515   -1.5737218   0.13105876    11355.093     1000 
  864000   0.41458435   -2.1709135   0.62125464   -1.5496588   0.12495177    11398.568     1000 
  866000   0.40459586   -2.2578802    0.6062869   -1.6515933    0.1235555     11538.92     1000 
  868000   0.42450559   -2.1899917   0.63612163   -1.5538701   0.11974946    11499.675     1000 
  870000   0.42075005   -2.2199253   0.63049395   -1.5894313   0.13571593    11381.265     1000 
  872000   0.41440067    -2.143428   0.62097941   -1.5224486   0.13576137    11229.748     1000 
  874000   0.40755953    -2.201606   0.61072795    -1.590878   0.12595269    11364.903     1000 
  876000   0.39829124   -2.2360106   0.59683942   -1.6391712   0.12483049    11469.029     1000 
  878000   0.42382554   -2.1641232   0.63510257   -1.5290207   0.14005981    11292.137     1000 
  880000   0.40960692   -2.1781025   0.61379597   -1.5643066   0.12633267    11315.729     1000 
  882000   0.41621132   -2.1986659   0.62369266   -1.5749733   0.13188081    11328.406     1000 
  884000   0.42875435   -2.1521893   0.64248839   -1.5097009   0.12929208    11354.514     1000 
  886000   0.42267987   -2.2070827   0.63338578   -1.5736969   0.12376621    11443.892     1000 
  888000   0.42003577   -2.2077955    0.6294236   -1.5783719   0.12022876    11494.548     1000 
  890000   0.41867721   -2.2143885   0.62738781   -1.5870007   0.12786858    11500.561     1000 
  892000   0.42928348   -2.1996358    0.6432813   -1.5563545   0.14087506    11289.422     1000 
  894000   0.39702646   -2.2278907   0.59494415   -1.6329465    0.1247823    11419.729     1000 
  896000   0.41805351   -2.1836172   0.62645319    -1.557164    0.1314827    11274.738     1000 
  898000   0.43148948   -2.1747451   0.64658698   -1.5281581   0.13840942    11310.875     1000 
  900000   0.40784581   -2.1720768   0.61115695   -1.5609199   0.12538494     11414.21     1000 
  902000   0.41564578   -2.1927566    0.6228452   -1.5699114   0.13026348    11376.498     1000 
  904000   0.41192604    -2.178691   0.61727117   -1.5614199    0.1412986    11342.379     1000 
  906000   0.40292618   -2.2120106   0.60378488   -1.6082257   0.12575894    11387.853     1000 
  908000    0.4296539   -2.2234468   0.64383637   -1.5796105   0.13603226    11365.785     1000 
  910000   0.38928621   -2.1648849   0.58334538   -1.5815395   0.11458145    11400.155     1000 
  912000   0.37720395   -2.1947557   0.56524012   -1.6295156    0.1173118    11473.121     1000 
  914000   0.40939741   -2.2009908   0.61348202   -1.5875087   0.12950736    11351.901     1000 
  916000   0.42591954   -2.2526152   0.63824042   -1.6143748   0.11713336     11579.88     1000 
  918000   0.40966072   -2.1758761    0.6138766   -1.5619995   0.12957271    11348.416     1000 
  920000   0.40003086   -2.1850363   0.59944625   -1.5855901   0.12800688    11443.573     1000 
  922000   0.41165236   -2.1842441   0.61686106    -1.567383   0.13363863    11286.504     1000 
  924000   0.41480719   -2.1764475   0.62158857   -1.5548589   0.13284226    11280.829     1000 
  926000   0.40345445   -2.2099126    0.6045765   -1.6053361   0.12230305    11403.444     1000 
  928000   0.41719242   -2.1963482   0.62516284   -1.5711853   0.13567835    11410.996     1000 
  930000    0.4118823   -2.2110478   0.61720562   -1.5938421    0.1246859     11373.23     1000 
  932000   0.40875247   -2.1611887   0.61251557   -1.5486732   0.14201561    11234.285     1000 
  934000   0.41357361   -2.1726614   0.61974006   -1.5529214   0.12461892    11464.047     1000 
  936000   0.41168989   -2.2226522    0.6169173   -1.6057349   0.12916998     11395.01     1000 
  938000   0.39490625    -2.184756   0.59176702    -1.592989   0.13571364    11323.408     1000 
  940000   0.39194229   -2.2045806   0.58732553    -1.617255   0.13541461    11243.251     1000 
  942000   0.40394147   -2.1614723    0.6053063    -1.556166   0.12881795    11399.692     1000 
  944000   0.41807266   -2.2358962   0.62648188   -1.6094143   0.13176163    11442.227     1000 
  946000    0.4337009   -2.2328344    0.6499008   -1.5829336   0.12893833    11390.014     1000 
  948000   0.40094148   -2.1733479   0.60081081   -1.5725371   0.12393941    11298.778     1000 
  950000   0.40531953   -2.2238598   0.60737132   -1.6164885   0.12513044    11448.712     1000 
  952000   0.40944489   -2.1626014   0.61355317   -1.5490483   0.12811326    11412.723     1000 
  954000   0.40755429   -2.2005364    0.6107201   -1.5898163   0.13121252    11446.428     1000 
  956000   0.41683477   -2.1835173    0.6246269   -1.5588904   0.13068293    11360.971     1000 
  958000   0.40178833   -2.1564794   0.60207981   -1.5543996   0.13903062    11376.398     1000 
  960000    0.4100273   -2.1941351   0.61442591   -1.5797092   0.13054716    11383.153     1000 
  962000   0.41579575   -2.1805169   0.62306993   -1.5574469   0.14397352    11215.842     1000 
  964000   0.40325996    -2.172117   0.60428506   -1.5678319   0.13371295    11230.881     1000 
  966000   0.41923536   -2.1697106   0.62822418   -1.5414864   0.12385165    11353.508     1000 
  968000   0.42769747   -2.2159738   0.64090467   -1.5750692   0.13576611    11455.559     1000 
  970000   0.40593876   -2.1764998   0.60829924   -1.5682006    0.1416552    11339.661     1000 
  972000   0.41713693   -2.1809783   0.62507969   -1.5558986   0.12512522    11435.103     1000 
  974000   0.41817144   -2.2253468   0.62662991   -1.5987169   0.12555039    11373.092     1000 
  976000   0.41095819   -2.1897934   0.61582085   -1.5739726   0.14353459    11310.418     1000 
  978000   0.40426802   -2.1719932   0.60579563   -1.5661976   0.13142321    11428.269     1000 
  980000   0.40254059   -2.2145069   0.60320707   -1.6112998     0.123265    11412.907     1000 
  982000   0.40114934    -2.179559   0.60112228   -1.5784367   0.13618926    11265.163     1000 
  984000   0.39516069   -2.1950835   0.59214829   -1.6029352   0.13180768    11264.916     1000 
  986000   0.41204823    -2.169983   0.61745428   -1.5525287   0.14512353    11238.134     1000 
  988000   0.40767373   -2.2030963   0.61089909   -1.5921972   0.13453253    11376.641     1000 
  990000   0.42346215   -2.1879501   0.63455802    -1.553392   0.13671792    11325.538     1000 
  992000     0.397541   -2.1459303   0.59571519   -1.5502151   0.12879226     11418.87     1000 
  994000   0.39818964   -2.1915086   0.59668717   -1.5948214   0.13856751    11342.711     1000 
  996000    0.3840469   -2.2310132   0.57549428   -1.6555189   0.11484358    11399.817     1000 
  998000   0.41629938   -2.2487652   0.62382463   -1.6249406   0.12531866    11445.232     1000 
 1000000   0.40175024   -2.1710454   0.60202274   -1.5690227   0.12914757    11464.179     1000 
 1002000   0.41534747   -2.2166045   0.62239819   -1.5942063   0.12168014    11412.014     1000 
 1004000   0.42269587   -2.1545301   0.63340976   -1.5211203   0.13590769    11360.552     1000 
 1006000   0.40679571   -2.2201238   0.60958338   -1.6105404   0.13397404    11442.373     1000 
 1008000   0.41049398   -2.1962281   0.61512522   -1.5811029   0.12533432    11436.227     1000 
 1010000   0.40646212   -2.1806781   0.60908348   -1.5715947   0.12730462    11414.002     1000 
 1012000   0.38637684   -2.1548516   0.57898569   -1.5758659   0.11684654    11436.556     1000 
 1014000   0.40899159   -2.1726088   0.61287389   -1.5597349    0.1262019    11445.547     1000 
 1016000   0.40227986   -2.2114326   0.60281637   -1.6086162   0.13151427    11341.189     1000 
 1018000   0.40868589   -2.1958146   0.61241581   -1.5833987   0.12610387    11324.924     1000 
 1020000   0.41226011     -2.15893   0.61777177   -1.5411583   0.12173704    11457.934     1000 
 1022000   0.39572385   -2.1691739   0.59299218   -1.5761817   0.13184889    11453.672     1000 
 1024000   0.42212986   -2.2287015    0.6325616   -1.5961399   0.12751544    11406.902     1000 
 1026000   0.41008194   -2.1973799   0.61450779   -1.5828721   0.13284938    11350.167     1000 
 1028000    0.4094567   -2.1512579   0.61357087   -1.5376871   0.12312252    11383.618     1000 
 1030000   0.41264412   -2.2455693   0.61834721   -1.6272221   0.13082916    11437.966     1000 
 1032000    0.4145842   -2.2455733   0.62125443   -1.6243189   0.12876405    11441.429     1000 
 1034000   0.40512019    -2.181982   0.60707261   -1.5749094   0.12577952    11368.749     1000 
 1036000   0.40816298    -2.188699   0.61163223   -1.5770667   0.14427988    11204.588     1000 
 1038000   0.40094002   -2.2260593   0.60080862   -1.6252507     0.125247    11398.379     1000 
 1040000   0.39097372   -2.2198127   0.58587412   -1.6339385   0.12743657    11345.688     1000 
 1042000   0.41180646   -2.2267402   0.61709198   -1.6096483    0.1277072    11374.834     1000 
 1044000   0.41364511   -2.1740095    0.6198472   -1.5541623   0.13214395    11373.773     1000 
 1046000   0.40782519    -2.199244   0.61112604   -1.5881179   0.12985397    11457.215     1000 
 1048000   0.41090172   -2.2061559   0.61573622   -1.5904197   0.12492782    11428.542     1000 
 1050000   0.40255718   -2.2298746   0.60323194   -1.6266427   0.13423789     11383.52     1000 
 1052000   0.40210101   -2.1775761   0.60254837   -1.5750277   0.12584171    11414.929     1000 
 1054000    0.3927854    -2.213014   0.58858892   -1.6244251   0.12061587    11525.153     1000 
 1056000   0.41677009   -2.1987685   0.62452999   -1.5742385   0.12649605    11397.522     1000 
 1058000   0.39445192   -2.2388191    0.5910862   -1.6477329   0.12120223    11464.314     1000 
 1060000   0.40048213   -2.1527212   0.60012248   -1.5525987   0.14085286    11261.759     1000 
 1062000    0.4111855    -2.239506   0.61616148   -1.6233445   0.13110366    11340.921     1000 
 1064000    0.4223008   -2.1796914   0.63281775   -1.5468737   0.13439799    11372.735     1000 
 1066000   0.39610122   -2.1867581   0.59355768   -1.5932004   0.13495765    11347.956     1000 
 1068000   0.40283929   -2.1935699   0.60365467   -1.5899153   0.12719991      11461.9     1000 
 1070000   0.39996318   -2.2047006   0.59934483   -1.6053558   0.12549872    11346.198     1000 
 1072000   0.39590218   -2.2198661   0.59325941   -1.6266067   0.12152277    11374.808     1000 
 1074000   0.43217645   -2.1761086   0.64761641   -1.5284922   0.12998849    11386.062     1000 
 1076000    0.4205012   -2.2032379   0.63012105   -1.5731168   0.12330254    11505.784     1000 
 1078000   0.40164263   -2.1817029   0.60186148   -1.5798414   0.13047364    11351.328     1000 
 1080000     0.402471   -2.2042743   0.60310279   -1.6011715   0.13438535    11314.343     1000 
 1082000   0.41735511   -2.1412361   0.62540663   -1.5158295   0.13593052    11294.779     1000 
 1084000   0.40324293   -2.2363781   0.60425953   -1.6321186   0.13150247    11359.513     1000 
 1086000   0.39224299   -2.1885417   0.58777612   -1.6007655   0.12453529    11367.648     1000 
 1088000   0.41814323   -2.1686432   0.62658763   -1.5420555   0.13263018    11386.143     1000 
 1090000   0.42178599   -2.2110516   0.63204631   -1.5790052   0.12661009    11426.982     1000 
 1092000   0.41038052   -2.1905619    0.6149552   -1.5756067   0.12452744    11456.138     1000 
 1094000   0.39955369   -2.2008155    0.5987312   -1.6020843   0.13528047     11356.28     1000 
 1096000   0.41299692   -2.2253655   0.61887588   -1.6064896    0.1171854    11373.581     1000 
 1098000   0.42908878   -2.1876915   0.64298953    -1.544702   0.12798372    11454.029     1000 
 1100000   0.40667952   -2.1776682   0.60940926    -1.568259    0.1326682    11320.097     1000 
 1102000   0.40849974   -2.1819854   0.61213686   -1.5698486   0.13129628    11366.235     1000 
 1104000   0.39651688   -2.2558106   0.59418055   -1.6616301   0.12880999    11471.597     1000 
 1106000   0.40815895   -2.1827978   0.61162618   -1.5711717   0.12027019    11341.729     1000 
 1108000   0.41264944   -2.1669604   0.61835518   -1.5486052   0.12414998     11419.84     1000 
 1110000   0.39841859   -2.1964311   0.59703026   -1.5994009   0.12772403    11334.561     1000 
 1112000   0.40116888   -2.1746443   0.60115157   -1.5734927   0.14244927    11270.591     1000 
 1114000   0.41217961   -2.2060078   0.61765114   -1.5883567    0.1277327    11461.873     1000 
 1116000    0.4139262   -2.1834857   0.62026841   -1.5632173   0.12512946     11336.69     1000 
 1118000   0.40582761   -2.1432544   0.60813268   -1.5351217   0.14295229    11299.976     1000 
 1120000   0.41644599   -2.2119628   0.62404432   -1.5879184   0.12532595    11498.091     1000 
 1122000   0.41241329   -2.2050127   0.61800131   -1.5870113   0.13537165     11334.98     1000 
 1124000   0.42869107   -2.1855699   0.64239357   -1.5431763   0.13132968    11349.827     1000 
 1126000   0.40330484   -2.2147802    0.6043523   -1.6104279   0.12569624    11526.619     1000 
 1128000   0.41849764   -2.2035526   0.62711872   -1.5764339   0.12252293    11435.921     1000 
 1130000   0.40206619   -2.2067095   0.60249619   -1.6042133   0.13742704     11246.25     1000 
 1132000   0.42421123   -2.2243583   0.63568053   -1.5886778   0.13192696    11457.111     1000 
 1134000   0.41247475    -2.195196   0.61809342   -1.5771026   0.12961431    11448.345     1000 
 1136000   0.38881083   -2.1576368   0.58263303   -1.5750037   0.13465614    11248.752     1000 
 1138000   0.40162384   -2.2381314   0.60183332   -1.6362981   0.11896614    11516.384     1000 
 1140000   0.39759662   -2.1912169   0.59579854   -1.5954184   0.13504423    11217.338     1000 
 1142000   0.41241911   -2.1809872   0.61801004   -1.5629771   0.13401705    11297.235     1000 
 1144000   0.39118717   -2.1968033   0.58619398   -1.6106093   0.12684111    11415.293     1000 
 1146000   0.40239727   -2.2248525   0.60299231   -1.6218602   0.13017573      11329.8     1000 
 1148000   0.41872658   -2.1787094   0.62746178   -1.5512476   0.13026003    11365.508     1000 
 1150000   0.43186056   -2.2000456   0.64714305   -1.5529026   0.12275193    11479.334     1000 
 1152000   0.40114992   -2.1989977   0.60112315   -1.5978745   0.12701124    11388.131     1000 
 1154000   0.40407738    -2.176915   0.60550996    -1.571405   0.13248079     11264.51     1000 
 1156000   0.42667972   -2.2082478   0.63937955   -1.5688682   0.13241904     11392.14     1000 
 1158000   0.42397336   -2.1940896   0.63532408   -1.5587655   0.11816062    11503.086     1000 
 1160000   0.41848808    -2.216742   0.62710439   -1.5896376   0.12419481    11509.701     1000 
 1162000   0.39988185   -2.2018315   0.59922295   -1.6026086   0.12825528    11372.652     1000 
 1164000   0.41588335   -2.1810938   0.62320119   -1.5578926   0.12084654    11456.737     1000 
 1166000   0.41587429   -2.1845808   0.62318763   -1.5613931   0.13621709    11308.372     1000 
 1168000   0.40671807   -2.1815865   0.60946703   -1.5721194   0.12160878    11484.762     1000 
 1170000   0.40678479   -2.2367217   0.60956701   -1.6271546   0.12711278    11417.552     1000 
 1172000   0.40195752   -2.1969713   0.60233334    -1.594638   0.11880004    11422.348     1000 
 1174000   0.43368506   -2.1985241   0.64987706   -1.5486471   0.13639325     11379.21     1000 
 1176000   0.40582454   -2.2319009   0.60812808   -1.6237728   0.13120761    11387.937     1000 
 1178000    0.4090274   -2.2063225   0.61292756   -1.5933949   0.13106904    11375.716     1000 
 1180000   0.43909976   -2.2309779   0.65799098   -1.5729869   0.13476438    11387.054     1000 
 1182000   0.41639298   -2.2073615   0.62396488   -1.5833966   0.13097357    11440.946     1000 
 1184000   0.40027271    -2.228061   0.59980865   -1.6282523   0.13366863    11369.069     1000 
 1186000   0.42753672   -2.1902971   0.64066378   -1.5496333   0.13894362     11276.68     1000 
 1188000   0.39762374   -2.1652182   0.59583917    -1.569379   0.13344893    11296.515     1000 
 1190000   0.40795494   -2.2015458   0.61132048   -1.5902253   0.13723521    11344.579     1000 
 1192000    0.4137429   -2.1880396   0.61999374   -1.5680458   0.12978314    11380.233     1000 
 1194000   0.40702641   -2.1731154   0.60992907   -1.5631863   0.13453588    11252.821     1000 
 1196000   0.39286085   -2.1829396   0.58870198   -1.5942376   0.12719812    11386.126     1000 
 1198000    0.4061514   -2.2282666   0.60861787   -1.6196487   0.13136402    11339.423     1000 
 1200000   0.40481685    -2.230146   0.60661805    -1.623528    0.1341681    11349.629     1000 
 1202000   0.41437843   -2.2068857   0.62094608   -1.5859396   0.13076138    11404.637     1000 
 1204000    0.4020041   -2.2252258   0.60240314   -1.6228227    0.1352783    11415.308     1000 
 1206000   0.40512539   -2.1941375   0.60708039   -1.5870571   0.14202868    11334.424     1000 
 1208000   0.41613704   -2.1608592   0.62358136   -1.5372779   0.12899148    11325.375     1000 
 1210000    0.4180253   -2.2151557   0.62641091   -1.5887448   0.12846065    11479.781     1000 
 1212000   0.41511755   -2.1347398   0.62205365   -1.5126861   0.14072336    11256.887     1000 
 1214000   0.41368388   -2.2417627   0.61990529   -1.6218574   0.12276481     11397.54     1000 
 1216000   0.40302067   -2.2245305   0.60392648   -1.6206041   0.12063969    11486.919     1000 
 1218000   0.42126695   -2.2212675   0.63126853    -1.589999   0.13148839    11424.548     1000 
 1220000   0.40981763   -2.1776515   0.61411172   -1.5635398   0.11847912    11523.849     1000 
 1222000   0.40391289   -2.1865356   0.60526347   -1.5812721   0.12085707    11437.106     1000 
 1224000   0.40605733   -2.1944744   0.60847691   -1.5859975   0.12529729    11358.594     1000 
 1226000   0.40811284   -2.1609507   0.61155709   -1.5493936   0.13537177    11291.784     1000 
 1228000   0.39836555    -2.189759   0.59695077   -1.5928082    0.1345721    11372.693     1000 
 1230000   0.40764443   -2.1570979   0.61085518   -1.5462427   0.12283289    11434.994     1000 
 1232000   0.40548996   -2.2239883    0.6076267   -1.6163616    0.1291641    11383.111     1000 
 1234000   0.40475688   -2.1985503   0.60652818   -1.5920221   0.12944877    11445.618     1000 
 1236000   0.40489631   -2.1854363   0.60673712   -1.5786992   0.12458586    11359.603     1000 
 1238000   0.42278927   -2.1747856   0.63354973   -1.5412358   0.13766228    11316.683     1000 
 1240000   0.40266186   -2.1832575    0.6033888   -1.5798687   0.13649629    11329.033     1000 
 1242000   0.39755618   -2.2279073   0.59573793   -1.6321694   0.13438129    11409.133     1000 
 1244000   0.42472965   -2.2010311   0.63645737   -1.5645737    0.1244295    11425.171     1000 
 1246000   0.40756914    -2.207314   0.61074235   -1.5965716   0.13038294    11344.809     1000 
 1248000    0.3916416   -2.1867554   0.58687493   -1.5998805   0.13354619    11359.141     1000 
 1250000   0.39805006   -2.1784407   0.59647802   -1.5819626    0.1254162    11397.354     1000 
 1252000   0.40628372   -2.1949961   0.60881615   -1.5861799   0.12930991     11446.86     1000 
 1254000   0.40775703    -2.182247   0.61102391   -1.5712231   0.13298379    11322.634     1000 
 1256000   0.39388763   -2.2011693   0.59024062   -1.6109287   0.14329737    11295.644     1000 
 1258000   0.41585983   -2.1597333   0.62316596   -1.5365674   0.12825708    11302.808     1000 
 1260000   0.40649939   -2.1665376   0.60913934   -1.5573983   0.12545695    11309.198     1000 
 1262000   0.41559544    -2.206489   0.62276977   -1.5837192   0.13742642    11307.414     1000 
 1264000   0.41122677   -2.1953085   0.61622332   -1.5790851    0.1302834    11410.307     1000 
 1266000   0.41376771   -2.2038916   0.62003092   -1.5838607   0.12878843    11458.807     1000 
 1268000   0.40605867   -2.1957708   0.60847892   -1.5872919   0.13402998    11407.856     1000 
 1270000   0.42039512   -2.1928606   0.62996209   -1.5628985   0.12689616    11452.497     1000 
 1272000   0.40277034   -2.1834802   0.60355136   -1.5799288   0.12511966    11416.551     1000 
 1274000   0.41817464   -2.2180522   0.62663469   -1.5914175   0.12988137    11486.259     1000 
 1276000   0.42070811   -2.1603221    0.6304311    -1.529891   0.13290975    11285.671     1000 
 1278000   0.40216494   -2.1949642   0.60264417   -1.5923201    0.1183894    11407.016     1000 
 1280000   0.41048959     -2.23809   0.61511866   -1.6229714   0.13184928    11346.622     1000 
 1282000   0.42238773    -2.235337   0.63294801    -1.602389   0.13634578    11339.458     1000 
 1284000   0.41760497   -2.1727198   0.62578104   -1.5469388   0.13635275    11265.241     1000 
 1286000   0.39787458   -2.2202469   0.59621506   -1.6240318   0.12378048    11421.704     1000 
 1288000     0.416116   -2.2078964   0.62354982   -1.5843466   0.12232959    11503.362     1000 
 1290000   0.39897906    -2.203254   0.59787011   -1.6053839   0.11299306    11533.114     1000 
 1292000   0.40651329   -2.2006519   0.60916017   -1.5914917    0.1268336    11451.956     1000 
 1294000   0.42794985   -2.2368616   0.64128285   -1.5955788   0.12504398    11453.561     1000 
 1296000   0.41306214   -2.1875882   0.61897362   -1.5686146   0.12504661     11506.35     1000 
 1298000   0.42050353   -2.1592966   0.63012453    -1.529172   0.13653282    11296.708     1000 
 1300000   0.39457783    -2.293949   0.59127488   -1.7026741   0.11590728    11487.601     1000 
 1302000   0.39740713   -2.1712566   0.59551459    -1.575742   0.14388438    11230.423     1000 
 1304000   0.40868063   -2.2334465   0.61240792   -1.6210386   0.13664782    11209.208     1000 
 1306000   0.42556548   -2.1844983   0.63770987   -1.5467884   0.12915485    11250.906     1000 
 1308000   0.42446418   -2.2253786   0.63605958    -1.589319   0.13546614    11375.853     1000 
 1310000   0.39893676   -2.1672059   0.59780674   -1.5693992   0.12396191    11428.106     1000 
 1312000   0.42418388   -2.1747406   0.63563955    -1.539101   0.13666493    11368.153     1000 
 1314000   0.42141741   -2.2216439   0.63149399   -1.5901499   0.14524319    11342.571     1000 
 1316000   0.40012553   -2.1855881   0.59958811       -1.586   0.13204598    11346.496     1000 
 1318000   0.38881168   -2.1915114   0.58263431   -1.6088771   0.12835221    11364.669     1000 
 1320000   0.42240916   -2.2040262   0.63298013   -1.5710461   0.12888691    11472.081     1000 
 1322000   0.40924574   -2.1958584   0.61325474   -1.5826036   0.13330287    11361.869     1000 
 1324000   0.40028533   -2.1530279   0.59982756   -1.5532003   0.13105789     11375.49     1000 
 1326000   0.39624258   -2.1985009   0.59376951   -1.6047314   0.13084876      11377.2     1000 
 1328000   0.41043025   -2.2109345   0.61502972   -1.5959047   0.13046422    11462.111     1000 
 1330000   0.42561382    -2.228139    0.6377823   -1.5903567   0.13571589    11377.871     1000 
 1332000   0.41423277   -2.2102017    0.6207278   -1.5894739   0.13801938    11468.597     1000 
 1334000   0.42289943   -2.1793557    0.6337148   -1.5456409   0.13422626     11332.12     1000 
 1336000   0.40736573   -2.2328821   0.61043755   -1.6224446   0.11959811    11446.648     1000 
 1338000   0.40202846   -2.2083078   0.60243964   -1.6058682    0.1213741    11485.386     1000 
 1340000   0.41850929   -2.2542186   0.62713617   -1.6270825   0.12987763    11522.745     1000 
 1342000   0.44068612   -2.1675469   0.66036816   -1.5071787   0.13092342    11458.884     1000 
 1344000   0.40603685   -2.1597821   0.60844622   -1.5513358    0.1401293    11295.388     1000 
 1346000   0.38508709   -2.1841563   0.57705301   -1.6071033   0.12668736    11280.521     1000 
 1348000   0.40720922   -2.2197738   0.61020302   -1.6095708   0.12710355     11461.61     1000 
 1350000   0.40423107   -2.1808542   0.60574025   -1.5751139   0.13213218    11366.042     1000 
 1352000   0.39619389   -2.2159447   0.59369654   -1.6222482   0.12836129    11333.822     1000 
 1354000   0.40643003   -2.2094157    0.6090354   -1.6003803    0.1194079    11440.677     1000 
 1356000   0.40292429   -2.2286282   0.60378205   -1.6248461   0.13363521     11381.81     1000 
 1358000    0.4101376   -2.1920567    0.6145912   -1.5774655   0.14359894    11341.057     1000 
 1360000   0.41348507   -2.2028581   0.61960738   -1.5832507   0.12788993    11406.143     1000 
 1362000   0.40441645   -2.1623874   0.60601805   -1.5563693   0.11742792    11393.462     1000 
 1364000   0.39459174   -2.1771132   0.59129572   -1.5858174   0.14135817    11292.232     1000 
 1366000   0.41932952   -2.2066448   0.62836529   -1.5782795   0.12676732    11447.157     1000 
 1368000   0.42450869   -2.2176292   0.63612628   -1.5815029   0.13909363     11427.23     1000 
 1370000   0.40936387   -2.1631904   0.61343176   -1.5497586   0.12401396    11417.312     1000 
 1372000   0.40207806    -2.197002   0.60251398    -1.594488   0.11965518    11412.861     1000 
 1374000   0.43333373   -2.1746906   0.64935059     -1.52534   0.13584899    11366.472     1000 
 1376000   0.42586818   -2.1849456   0.63816348   -1.5467821   0.11985742    11467.186     1000 
 1378000   0.40623708   -2.2303056   0.60874627   -1.6215593   0.11942291    11445.142     1000 
 1380000   0.40527955   -2.1831453    0.6073114   -1.5758339   0.14544621    11276.269     1000 
 1382000   0.42395181   -2.1695135   0.63529179   -1.5342217   0.13325942    11308.223     1000 
 1384000   0.41076522   -2.1812028   0.61553168   -1.5656712   0.14088825    11315.554     1000 
 1386000   0.39047861   -2.1718405    0.5851322   -1.5867083   0.12461447    11376.124     1000 
 1388000    0.4202023   -2.1872999   0.62967314   -1.5576268   0.14396632    11341.405     1000 
 1390000   0.41763842   -2.1603611   0.62583117   -1.5345299   0.12888165    11363.666     1000 
 1392000   0.41996003   -2.1670873   0.62931011   -1.5377772    0.1410225    11291.475     1000 
 1394000   0.41007445   -2.2081525   0.61449656    -1.593656   0.12039867    11566.546     1000 
 1396000    0.4047799   -2.1760091   0.60656268   -1.5694464   0.12903353    11406.683     1000 
 1398000   0.41171406   -2.2321878   0.61695351   -1.6152343   0.12844553    11387.271     1000 
 1400000   0.41219012    -2.169986   0.61766689   -1.5523191   0.13115187    11454.289     1000 
 1402000   0.41587993   -2.1658697   0.62319608   -1.5426736   0.12571747    11377.351     1000 
 1404000   0.41603672    -2.224243   0.62343102    -1.600812   0.12493887    11431.011     1000 
 1406000   0.42148505   -2.1763473   0.63159534   -1.5447519   0.13395356    11363.279     1000 
 1408000   0.41056182   -2.1833612   0.61522689   -1.5681343   0.14182503    11249.105     1000 
 1410000   0.40621382   -2.2374926   0.60871141   -1.6287812   0.12604011    11366.656     1000 
 1412000   0.40458207   -2.1776254   0.60626624   -1.5713592    0.1200328    11373.189     1000 
 1414000   0.43220129   -2.2270711   0.64765363   -1.5794175   0.12013344    11555.191     1000 
 1416000   0.41836033   -2.1723726   0.62691295   -1.5454597   0.12560773    11402.655     1000 
 1418000   0.39438109   -2.1881703   0.59098006   -1.5971902   0.10555419    11511.679     1000 
 1420000   0.42070178   -2.2200887   0.63042161   -1.5896671   0.13112248    11384.835     1000 
 1422000   0.41509907   -2.1959445   0.62202595   -1.5739185   0.12847106    11488.633     1000 
 1424000   0.41938364   -2.1577642   0.62844639   -1.5293178   0.13627352    11302.827     1000 
 1426000   0.42465501   -2.1868971   0.63634554   -1.5505515   0.11846535    11427.291     1000 
 1428000   0.40816985   -2.2005662   0.61164252   -1.5889237   0.12420794    11353.757     1000 
 1430000   0.40162773   -2.2114296   0.60183915   -1.6095904     0.141323    11280.995     1000 
 1432000   0.41845325   -2.2073686    0.6270522   -1.5803165   0.12776447    11467.583     1000 
 1434000   0.40891925   -2.1740046   0.61276549   -1.5612392   0.13851198    11213.528     1000 
 1436000   0.40569228   -2.1626053   0.60792987   -1.5546754   0.12527951     11361.65     1000 
 1438000   0.41198689   -2.2177937   0.61736235   -1.6004314   0.13084239    11444.962     1000 
 1440000   0.40646279   -2.1832265   0.60908449    -1.574142   0.13608391    11238.374     1000 
 1442000    0.4044888   -2.1979243   0.60612647   -1.5917979   0.11549152    11492.054     1000 
 1444000   0.42087766   -2.2258422   0.63068517    -1.595157   0.12991486    11462.402     1000 
 1446000   0.40876468   -2.1881625   0.61253387   -1.5756287   0.12779099    11329.207     1000 
 1448000   0.41281612   -2.1621501   0.61860496   -1.5435451    0.1273133    11436.745     1000 
 1450000   0.41033743   -2.2264721   0.61489064   -1.6115814   0.14277289    11320.268     1000 
 1452000   0.40936524   -2.1913205   0.61343381   -1.5778867   0.13007488    11352.985     1000 
 1454000   0.41020657   -2.2019554   0.61469455   -1.5872609    0.1216834    11412.214     1000 
 1456000   0.38748682   -2.1632357   0.58064899   -1.5825867   0.12760441    11383.049     1000 
 1458000   0.41165272   -2.2075754    0.6168616   -1.5907138   0.12516775    11372.151     1000 
 1460000   0.39858201   -2.2155379   0.59727514   -1.6182628   0.12806253     11356.71     1000 
 1462000   0.41577522   -2.2287654   0.62303917   -1.6057263   0.13699473    11303.104     1000 
 1464000   0.42785693   -2.2143208   0.64114361   -1.5731772   0.13386161    11435.805     1000 
 1466000   0.40084378   -2.2467741   0.60066441   -1.6461096   0.13300979    11367.047     1000 
 1468000    0.4148429   -2.1706096   0.62164208   -1.5489676   0.11902252    11471.917     1000 
 1470000   0.41290584    -2.201143    0.6187394   -1.5824036   0.13629219    11355.033     1000 
 1472000   0.41824464   -2.1919911   0.62673959   -1.5652515    0.1314553    11383.417     1000 
 1474000   0.42350364   -2.1841979    0.6346202   -1.5495777   0.14021003    11253.618     1000 
 1476000   0.41838671   -2.2391189   0.62695248   -1.6121664   0.11791384    11436.236     1000 
 1478000   0.42084441   -2.1977189   0.63063535   -1.5670835   0.12696278     11447.26     1000 
 1480000   0.40414418   -2.2178632   0.60561005   -1.6122532   0.12085846    11436.503     1000 
 1482000   0.40547197   -2.2333841   0.60759975   -1.6257844   0.11969871    11509.016     1000 
 1484000   0.41645582   -2.2149997   0.62405905   -1.5909407   0.12330435    11406.262     1000 
 1486000   0.42603164   -2.2023953   0.63840841   -1.5639869    0.1159551    11505.848     1000 
 1488000    0.3959854   -2.1594954   0.59338412   -1.5661113   0.12419082    11487.295     1000 
 1490000   0.40606731   -2.1764189   0.60849186    -1.567927   0.13299609    11295.057     1000 
 1492000    0.4176693   -2.2002234   0.62587745    -1.574346   0.12510265    11458.754     1000 
 1494000   0.40411601   -2.2093953   0.60556784   -1.6038274   0.12449139     11450.94     1000 
 1496000   0.41487307   -2.1614179   0.62168729   -1.5397306    0.1289105     11342.18     1000 
 1498000   0.40538916   -2.2457814   0.60747566   -1.6383057   0.12624642    11393.758     1000 
 1500000   0.41299366   -2.2236254     0.618871   -1.6047544   0.13072087     11388.42     1000 
 1502000   0.40641315   -2.2103963    0.6090101   -1.6013862   0.13469977    11336.897     1000 
 1504000    0.3896658   -2.2015604   0.58391421   -1.6176462   0.12554336    11387.883     1000 
 1506000   0.40366862   -2.1777519   0.60489743   -1.5728545   0.13794038    11328.528     1000 
 1508000   0.40263401   -2.2179594   0.60334707   -1.6146124   0.11907592    11496.876     1000 
 1510000   0.41360534   -2.1841131    0.6197876   -1.5643255   0.13194837    11312.419     1000 
 1512000   0.41888074   -2.2145848   0.62769279    -1.586892   0.13070891    11331.474     1000 
 1514000   0.39490307   -2.1725449   0.59176225   -1.5807827   0.13694598    11319.669     1000 
 1516000    0.4050705   -2.1963664   0.60699814   -1.5893682   0.13774347    11288.394     1000 
 1518000   0.40651534   -2.2356424   0.60916324   -1.6264792   0.12911216    11429.373     1000 
 1520000   0.42642096   -2.1809378    0.6389918    -1.541946    0.1381394    11246.672     1000 
 1522000   0.40941903   -2.2346832   0.61351442   -1.6211688    0.1394063    11342.507     1000 
 1524000   0.40372925   -2.1855482   0.60498828     -1.58056   0.12416299    11354.353     1000 
 1526000   0.40411061   -2.2258447   0.60555975   -1.6202849   0.12274715    11540.263     1000 
 1528000   0.42229401   -2.2464816   0.63280757    -1.613674   0.12534229    11431.496     1000 
 1530000   0.41079582   -2.1951428   0.61557753   -1.5795653   0.12814198    11404.243     1000 
 1532000   0.41136059   -2.1857934   0.61642384   -1.5693695   0.13064251    11324.152     1000 
 1534000   0.41447973   -2.1681944   0.62109787   -1.5470965   0.11356842    11418.057     1000 
 1536000   0.41210594   -2.2011102   0.61754075   -1.5835695   0.14866811    11301.874     1000 
 1538000   0.40720505   -2.2011239   0.61019677   -1.5909271   0.14481252    11299.074     1000 
 1540000   0.42475294   -2.1737168   0.63649228   -1.5372245   0.13245266    11322.377     1000 
 1542000   0.41345649   -2.2049528   0.61956455   -1.5853882   0.12186351     11447.31     1000 
 1544000   0.39972047   -2.2098402   0.59898112   -1.6108591   0.12637625    11401.158     1000 
 1546000   0.39793697   -2.2356173   0.59630855   -1.6393088   0.11786386    11505.769     1000 
 1548000   0.41609442   -2.2186261   0.62351749   -1.5951086   0.12634065    11271.049     1000 
 1550000   0.42140541    -2.233121   0.63147601    -1.601645   0.14070447    11330.339     1000 
 1552000   0.42071341   -2.2165692   0.63043904   -1.5861301    0.1253682    11538.986     1000 
 1554000   0.40878466   -2.2111977   0.61256382   -1.5986339   0.12681991    11417.715     1000 
 1556000   0.41122163   -2.1827507   0.61621561    -1.566535   0.13750353    11440.505     1000 
 1558000   0.41234874   -2.1471773   0.61790459   -1.5292727   0.13631098    11202.831     1000 
 1560000   0.43058473   -2.2305815   0.64523122   -1.5853503    0.1175012    11418.915     1000 
 1562000   0.42051316   -2.1524378   0.63013896   -1.5222988   0.12927517     11291.38     1000 
 1564000   0.41746705   -2.1695596   0.62557438   -1.5439852   0.12914776    11371.803     1000 
 1566000   0.40367621    -2.169356    0.6049088   -1.5644472   0.13873704     11381.03     1000 
 1568000   0.39408197   -2.2124405   0.59053183   -1.6219087   0.13000189    11400.283     1000 
 1570000     0.408523   -2.2148943   0.61217172   -1.6027225   0.12895762    11359.166     1000 
 1572000   0.41805572    -2.211857   0.62645649   -1.5854005   0.13244949    11371.116     1000 
 1574000   0.39720268   -2.2007921   0.59520822   -1.6055839   0.13119137    11398.068     1000 
 1576000   0.40817182    -2.147274   0.61164547   -1.5356285   0.13606832      11276.6     1000 
 1578000   0.41323019   -2.1799682   0.61922544   -1.5607428   0.12005092    11476.677     1000 
 1580000   0.40749409    -2.196942    0.6106299   -1.5863121   0.13723524    11286.432     1000 
 1582000   0.40768617   -2.2088599   0.61091772   -1.5979422   0.12140414    11445.765     1000 
 1584000   0.42899046   -2.1675002   0.64284221    -1.524658   0.13494804    11341.037     1000 
 1586000    0.4070637   -2.2462364   0.60998496   -1.6362514   0.13587137    11346.665     1000 
 1588000   0.38487509   -2.1971889   0.57673532   -1.6204536   0.12223914    11342.813     1000 
[...]
 2614000   0.40534865   -2.1887955   0.60741495   -1.5813805   0.12579296    11372.121     1000 
 2616000   0.42813517   -2.2050613   0.64156055   -1.5635007    0.1226156    11392.641     1000 
 2618000   0.41435555   -2.1490336   0.62091179   -1.5281218   0.13011357    11369.093     1000 
 2620000   0.39847383    -2.186196   0.59711304    -1.589083   0.13192595    11407.236     1000 
 2622000   0.40216324   -2.1995141   0.60264162   -1.5968725   0.12119356    11480.739     1000 
 2624000   0.41380519   -2.1904213   0.62008707   -1.5703342   0.12970192    11358.988     1000 
 2626000   0.40188799    -2.196095   0.60222915   -1.5938659    0.1175844    11440.409     1000 
 2628000    0.4150648   -2.2152838   0.62197461   -1.5933092   0.12127697    11486.565     1000 
 2630000   0.42793611   -2.2127569   0.64126225   -1.5714947   0.11820529    11391.561     1000 
 2632000     0.402537   -2.1718649   0.60320169   -1.5686632   0.13781935    11237.059     1000 
 2634000   0.41298268   -2.2096772   0.61885454   -1.5908227   0.12297754    11365.126     1000 
 2636000   0.40318856   -2.1718914   0.60417806   -1.5677133   0.12886393    11418.501     1000 
 2638000   0.40841048    -2.222639   0.61200311   -1.6106359   0.12841956    11408.294     1000 
 2640000   0.43016514   -2.2093776   0.64460247   -1.5647751   0.13835308    11337.065     1000 
 2642000   0.42881876    -2.216142   0.64258491   -1.5735571   0.12599408    11531.452     1000 
 2644000   0.41814859   -2.2059901   0.62659567   -1.5793945   0.14191916     11298.73     1000 
 2646000   0.42113222   -2.1489897   0.63106663   -1.5179231   0.10861817    11570.638     1000 
 2648000   0.39146962   -2.1871294   0.58661722   -1.6005122   0.12425643    11401.914     1000 
 2650000   0.40033187   -2.2007946   0.59989731   -1.6008973   0.11909109    11416.165     1000 
 2652000   0.40587026   -2.2017762   0.60819659   -1.5935796   0.13151831      11418.5     1000 
 2654000   0.41846626   -2.2430942   0.62707169   -1.6160225   0.12382294    11405.771     1000 
 2656000     0.410879   -2.2380112   0.61570219    -1.622309   0.12230075    11418.369     1000 
 2658000   0.41838903   -2.1976371   0.62695596   -1.5706811   0.13447452    11415.221     1000 
 2660000   0.41608785   -2.1753045   0.62350764   -1.5517968    0.1309353    11415.587     1000 
 2662000   0.42350857   -2.1622866   0.63462759   -1.5276591   0.12102874    11328.149     1000 
 2664000   0.41220669   -2.1865024   0.61769172   -1.5688106   0.11638782    11512.638     1000 
 2666000   0.41197221   -2.1994201   0.61734036   -1.5820797   0.13158217    11416.259     1000 
 2668000   0.41269545   -2.2248557   0.61842413   -1.6064315   0.13121557    11432.163     1000 
 2670000   0.38658327   -2.1833702   0.57929503   -1.6040751   0.12612132    11439.883     1000 
 2672000   0.42129235   -2.1560515   0.63130658    -1.524745   0.12947092    11334.518     1000 
 2674000    0.4273558   -2.1995901   0.64039267   -1.5591975   0.12748651    11375.279     1000 
 2676000   0.40592841   -2.2185136   0.60828372   -1.6102299   0.12642971    11411.613     1000 
 2678000   0.42437938   -2.1693388    0.6359325   -1.5334063   0.12123383    11452.656     1000 
 2680000   0.41393205   -2.2042181   0.62027717   -1.5839409   0.13361061    11400.739     1000 
 2682000   0.41288943   -2.2157704   0.61871482   -1.5970556   0.13427012    11412.998     1000 
 2684000   0.40013944   -2.2118884   0.59960894   -1.6122794   0.12263904    11409.269     1000 
 2686000   0.41228297   -2.2063705   0.61780603   -1.5885645   0.12895251    11345.128     1000 
 2688000   0.42157816   -2.1903535   0.63173488   -1.5586186   0.12459744    11509.196     1000 
 2690000   0.42434096   -2.1993067   0.63587492   -1.5634317   0.12277473    11481.318     1000 
 2692000   0.41754841   -2.2123985   0.62569629   -1.5867022   0.13271132    11416.556     1000 
 2694000   0.41553232   -2.2024176   0.62267518   -1.5797424    0.1285966    11336.116     1000 
 2696000   0.41261695   -2.2221212    0.6183065   -1.6038147   0.12022279     11437.69     1000 
 2698000   0.41097454   -2.1657804   0.61584534   -1.5499351   0.14251904    11165.479     1000 
 2700000   0.41070054   -2.2730303   0.61543476   -1.6575955   0.11673222    11586.093     1000 
 2702000   0.40245418   -2.2055202   0.60307759   -1.6024426   0.13120536    11358.005     1000 
 2704000    0.4233867   -2.1089477   0.63444498   -1.4745027   0.14351972    11272.603     1000 
 2706000   0.41168698   -2.2219303   0.61691294   -1.6050173   0.12386835    11353.053     1000 
 2708000   0.40669805   -2.2293257   0.60943703   -1.6198887   0.12403108     11415.03     1000 
 2710000   0.40064804   -2.2181154   0.60037109   -1.6177443   0.12374995     11471.58     1000 
 2712000    0.4143362   -2.2491187    0.6208828   -1.6282359   0.11987605    11472.415     1000 
 2714000   0.40462748   -2.2276311   0.60633427   -1.6212969   0.13053077    11409.728     1000 
 2716000   0.40864722   -2.2296874   0.61235786   -1.6173295    0.1319846    11343.788     1000 
 2718000    0.4227515   -2.1964991   0.63349312    -1.563006   0.12650189    11451.522     1000 
 2720000   0.42776465   -2.1963669   0.64100532   -1.5553616   0.13464729    11445.516     1000 
 2722000   0.42936004   -2.2002778   0.64339603   -1.5568818   0.13205922    11299.013     1000 
 2724000   0.40324028   -2.2376249   0.60425555   -1.6333694   0.12270996    11336.271     1000 
 2726000   0.40927195   -2.1609937   0.61329401   -1.5476997   0.13321159    11367.616     1000 
 2728000   0.40369036   -2.1479378      0.60493   -1.5430078   0.12347607    11368.392     1000 
 2730000   0.41269062   -2.2006438    0.6184169   -1.5822269   0.12737422     11363.13     1000 
 2732000   0.41333592   -2.2031861   0.61938388   -1.5838023   0.12702063    11396.272     1000 
 2734000   0.41245374   -2.1973229   0.61806194    -1.579261   0.13618674    11336.005     1000 
 2736000    0.4270604   -2.1836302   0.63995001   -1.5436802   0.14762661    11217.817     1000 
 2738000   0.40767606   -2.1950922   0.61090258   -1.5841896   0.13750152    11336.223     1000 
 2740000    0.4202761   -2.2009545   0.62978373   -1.5711707   0.12981549    11384.814     1000 
 2742000   0.42764724   -2.1749213    0.6408294   -1.5340919   0.13538755    11301.955     1000 
 2744000   0.41141325   -2.1794993   0.61650275   -1.5629965   0.12086092    11365.834     1000 
 2746000   0.39849514   -2.1927554   0.59714497   -1.5956104   0.13201031     11286.44     1000 
 2748000   0.40305383   -2.2033861   0.60397617   -1.5994099   0.11989754    11460.679     1000 
 2750000   0.42330919   -2.1875092   0.63432882   -1.5531804   0.12342489    11423.459     1000 
 2752000   0.40292471   -2.1820937   0.60378268    -1.578311   0.14656535    11210.935     1000 
 2754000   0.41639099   -2.2032185   0.62396189   -1.5792566   0.12569773    11371.544     1000 
 2756000   0.41369083   -2.2584794   0.61991571   -1.6385637    0.1225228     11409.59     1000 
 2758000   0.40700653   -2.2082924   0.60989928   -1.5983931   0.13391921     11344.96     1000 
 2760000   0.41014286   -2.2129085   0.61459907   -1.5983094   0.12536895    11411.833     1000 
 2762000   0.43230986   -2.1680134   0.64781633   -1.5201971   0.14068099    11270.728     1000 
 2764000   0.41025606   -2.1761051    0.6147687   -1.5613364   0.13950929    11239.399     1000 
 2766000    0.3946185   -2.2029892   0.59133582   -1.6116534   0.12668245     11490.42     1000 
 2768000   0.41246376   -2.1442356   0.61807694   -1.5261586   0.14060889    11233.687     1000 
 2770000   0.42367267   -2.1712882   0.63487349   -1.5364147   0.12393228    11344.502     1000 
 2772000   0.40309021   -2.1483825   0.60403068   -1.5443519    0.1301173    11442.264     1000 
 2774000   0.41054097    -2.221143   0.61519565   -1.6059474   0.12846545    11366.259     1000 
 2776000   0.42997926   -2.2409118   0.64432392   -1.5965879     0.127123    11573.382     1000 
 2778000   0.41018628   -2.2069421   0.61466414    -1.592278   0.12860693    11346.532     1000 
 2780000   0.40649386   -2.2137286   0.60913106   -1.6045976   0.12675766    11393.624     1000 
 2782000   0.39480897   -2.1945523   0.59162124   -1.6029311   0.13735586    11340.488     1000 
 2784000   0.41535503   -2.1873858   0.62240951   -1.5649763   0.12635705    11502.575     1000 
 2786000   0.42921455   -2.2134659     0.643178   -1.5702879   0.12832099    11441.826     1000 
 2788000   0.40913892   -2.2174372   0.61309467   -1.6043426   0.13397839    11331.547     1000 
 2790000   0.41531096   -2.1834702   0.62234348   -1.5611267   0.13291633    11277.921     1000 
 2792000   0.41323313   -2.1939064   0.61922984   -1.5746765    0.1267006    11424.877     1000 
 2794000   0.40774841   -2.1963019   0.61101099   -1.5852909   0.14243537    11324.373     1000 
 2796000    0.4045203   -2.2046868   0.60617366   -1.5985131   0.12852588    11393.757     1000 
 2798000   0.41587823   -2.2068393   0.62319353   -1.5836458   0.12906567    11381.921     1000 
 2800000   0.40775463   -2.2138762   0.61102032   -1.6028559   0.13688954     11377.54     1000 
 2802000   0.40322085   -2.2046741   0.60422644   -1.6004477   0.13179084    11344.685     1000 
 2804000   0.39457355   -2.2163085   0.59126847     -1.62504   0.13233195    11323.646     1000 
 2806000   0.40986361    -2.143801   0.61418063   -1.5296203   0.14058708    11224.349     1000 
 2808000   0.41810433   -2.2346072   0.62652934   -1.6080779   0.11660285    11546.037     1000 
 2810000   0.39985658   -2.1609363   0.59918509   -1.5617512   0.11935329    11384.349     1000 
 2812000   0.39868331    -2.199145   0.59742693   -1.6017181   0.12520463    11352.948     1000 
 2814000   0.42483658   -2.2238741   0.63661761   -1.5872565   0.12104128    11440.319     1000 
 2816000   0.40123597   -2.2053942    0.6012521   -1.6041421   0.12629761    11423.131     1000 
 2818000   0.42244934   -2.2103033   0.63304034   -1.5772629   0.13248377    11400.809     1000 
 2820000   0.39607072   -2.1705522   0.59351197   -1.5770403    0.1206973     11454.32     1000 
 2822000   0.41151047     -2.18798   0.61664843   -1.5713316   0.13659468    11277.185     1000 
 2824000   0.41069805   -2.2300443   0.61543103   -1.6146133   0.12476215    11473.699     1000 
 2826000   0.41098078   -2.1809715    0.6158547   -1.5651168   0.13163233    11426.731     1000 
 2828000   0.41515235   -2.2395656   0.62210579   -1.6174598    0.1256442    11487.669     1000 
 2830000   0.41547287    -2.219626   0.62258609   -1.5970399   0.12531843    11463.071     1000 
 2832000   0.38915036   -2.2243617   0.58314182   -1.6412199   0.12088895    11420.337     1000 
 2834000    0.4106136   -2.1993277   0.61530449   -1.5840232   0.12372183    11447.457     1000 
 2836000   0.40776845   -2.2277921   0.61104102   -1.6167511   0.12785846    11380.339     1000 
 2838000   0.39722961   -2.2271718   0.59524857   -1.6319232   0.13260937    11459.014     1000 
 2840000   0.40141722   -2.1717592    0.6015237   -1.5702355   0.11771352    11420.883     1000 
 2842000   0.40605259   -2.1789198   0.60846981     -1.57045   0.12417867    11374.985     1000 
 2844000   0.40459637   -2.2056642   0.60628766   -1.5993766   0.12354205    11397.771     1000 
 2846000   0.42142912   -2.1753978   0.63151154   -1.5438863   0.12927099    11335.198     1000 
 2848000   0.40749574   -2.1978704   0.61063236    -1.587238    0.1213141    11430.607     1000 
 2850000   0.39607557   -2.2129189   0.59351924   -1.6193996   0.13108099    11442.355     1000 
 2852000   0.42013058   -2.2247244   0.62956568   -1.5951587   0.11900446    11413.099     1000 
 2854000   0.41401506   -2.1690712   0.62040156   -1.5486697   0.11543554    11425.459     1000 
 2856000   0.41267512   -2.2381656   0.61839367    -1.619772   0.14004943    11269.836     1000 
 2858000    0.3969155   -2.2404085   0.59477788   -1.6456306   0.12052371    11484.008     1000 
 2860000   0.40753285   -2.1670595   0.61068798   -1.5563715   0.12845956    11445.267     1000 
 2862000    0.4041199   -2.1723431   0.60557367   -1.5667695   0.13017867    11380.914     1000 
 2864000   0.42367748   -2.2020366   0.63488071   -1.5671558   0.12576631    11512.057     1000 
 2866000   0.40482434   -2.1568406   0.60662928   -1.5502113   0.12769803    11358.051     1000 
 2868000   0.40955554   -2.1765037   0.61371898   -1.5627848   0.13875648    11362.632     1000 
 2870000    0.4090723   -2.2237666   0.61299485   -1.6107717   0.12079592    11496.309     1000 
 2872000   0.41309864   -2.1639307   0.61902832   -1.5449023   0.12122083    11449.137     1000 
 2874000   0.42230578   -2.1706317   0.63282521   -1.5378065   0.13856222    11405.554     1000 
 2876000   0.42085461   -2.1767083   0.63065063   -1.5460577    0.1264874    11400.298     1000 
 2878000   0.41455685   -2.1691785   0.62121344    -1.547965   0.13193453    11344.683     1000 
 2880000   0.41465115   -2.1880347   0.62135474     -1.56668   0.13616594    11424.715     1000 
 2882000   0.40304093   -2.1879264   0.60395684   -1.5839696   0.12446662    11406.351     1000 
 2884000   0.38550702   -2.1877789   0.57768226   -1.6100967   0.13292084    11338.376     1000 
 2886000   0.41010494   -2.1809928   0.61454225   -1.5664505   0.12738779    11426.711     1000 
 2888000    0.4331281   -2.1691897   0.64904245   -1.5201472   0.12659486    11500.909     1000 
 2890000   0.41204466     -2.19578   0.61744893    -1.578331   0.13116157    11336.443     1000 
 2892000   0.40505837   -2.2122218   0.60697996   -1.6052418   0.13159651    11301.338     1000 
 2894000   0.40510895   -2.2107757   0.60705576   -1.6037199   0.14013176    11307.467     1000 
 2896000   0.42222109   -2.1994157    0.6326983   -1.5667174   0.13428258    11298.904     1000 
 2898000   0.42166654   -2.2309614   0.63186731   -1.5990941   0.12874218    11391.762     1000 
 2900000    0.4242257   -2.2229889   0.63570221   -1.5872867   0.13681509    11350.421     1000 
 2902000   0.40605927   -2.2157838   0.60847982    -1.607304   0.13701106    11357.945     1000 
 2904000   0.41071944   -2.2232542   0.61546308   -1.6077912   0.11034898    11575.675     1000 
 2906000   0.41196204    -2.239749   0.61732511   -1.6224239   0.14242466    11429.414     1000 
 2908000   0.41986273    -2.143442   0.62916431   -1.5142777    0.1347718    11341.337     1000 
 2910000   0.39834995    -2.196216    0.5969274   -1.5992886   0.12224534    11449.307     1000 
 2912000   0.40314274   -2.2392791    0.6041094   -1.6351697    0.1253283    11463.421     1000 
 2914000     0.404729   -2.2008478   0.60648641   -1.5943614   0.12937672    11400.869     1000 
 2916000   0.41110104   -2.2227898   0.61603491   -1.6067549   0.12596632    11433.931     1000 
 2918000    0.3979919    -2.226567   0.59639086   -1.6301762   0.13974604    11264.493     1000 
 2920000   0.41397794   -2.2069843   0.62034594   -1.5866383   0.13671604    11306.136     1000 
 2922000   0.40672048   -2.2029273   0.60947064   -1.5934566    0.1237185    11424.809     1000 
 2924000   0.40273183   -2.2475008   0.60349365   -1.6440071   0.10813944    11556.352     1000 
 2926000   0.41555015   -2.1941643    0.6227019   -1.5714624   0.13540662    11326.088     1000 
 2928000   0.40626522   -2.2452024   0.60878843    -1.636414   0.12059783    11495.071     1000 
 2930000   0.40779869   -2.1594982   0.61108633   -1.5484119   0.14098463    11323.567     1000 
 2932000    0.4046571   -2.1859688   0.60637867   -1.5795901   0.13847822    11278.838     1000 
 2934000   0.42550523   -2.1752289   0.63761959   -1.5376093   0.13595756    11377.969     1000 
 2936000   0.39640691   -2.1771801   0.59401575   -1.5831644   0.11224332    11484.238     1000 
 2938000   0.39981674   -2.1731026   0.59912538   -1.5739773    0.1255277    11418.609     1000 
 2940000   0.40893397   -2.1469603   0.61278756   -1.5341727    0.1334071    11318.871     1000 
 2942000   0.42521228    -2.233112   0.63718061   -1.5959314   0.13285608    11297.849     1000 
 2944000   0.40587598   -2.1700437   0.60820516   -1.5618386   0.11948368     11403.19     1000 
 2946000   0.42687416   -2.1746991   0.63967093   -1.5350282   0.12748745    11456.763     1000 
 2948000   0.39888755   -2.1878997     0.597733   -1.5901667   0.12298006    11482.952     1000 
 2950000   0.41650491   -2.1991341    0.6241326   -1.5750015   0.14518402    11194.432     1000 
 2952000   0.41762989   -2.1995706   0.62581839   -1.5737522   0.14707733    11173.084     1000 
 2954000   0.41387116   -2.2244206   0.62018593   -1.6042347   0.13607272    11351.734     1000 
 2956000   0.41666386   -2.1721846   0.62437079   -1.5478138   0.12774797    11360.818     1000 
 2958000   0.42019808   -2.2181257   0.62966682   -1.5884589   0.11738905    11464.266     1000 
 2960000   0.40940482   -2.2046144   0.61349313   -1.5911212   0.12937084    11335.518     1000 
 2962000   0.41845757   -2.2098975   0.62705867   -1.5828389   0.12312783    11435.762     1000 
 2964000    0.4295923   -2.1845987   0.64374407   -1.5408546   0.13106755    11388.701     1000 
 2966000   0.39194526   -2.1811226   0.58732997   -1.5937926   0.12854456    11368.466     1000 
 2968000   0.41016327   -2.2001915   0.61462966   -1.5855618   0.13083456    11349.258     1000 
 2970000   0.39996509   -2.1573292   0.59934769   -1.5579816   0.13639545    11319.497     1000 
 2972000   0.41697082   -2.2254174   0.62483078   -1.6005866   0.13070134    11358.931     1000 
 2974000   0.41325603   -2.1928687   0.61926416   -1.5736046   0.12376332    11379.347     1000 
 2976000    0.4118269    -2.208524   0.61712261   -1.5914014   0.13415106    11260.294     1000 
 2978000   0.41164476   -2.1305352   0.61684967   -1.5136856   0.13988777    11267.482     1000 
 2980000   0.40616633   -2.1835072   0.60864025    -1.574867   0.11881968    11473.111     1000 
 2982000    0.4199332   -2.1705888    0.6292699   -1.5413189   0.14048918     11254.21     1000 
 2984000   0.39775873   -2.1387458   0.59604146   -1.5427043    0.1270596     11370.89     1000 
 2986000   0.42510326   -2.2116194   0.63701724   -1.5746022   0.13584603    11268.715     1000 
 2988000   0.41067828   -2.1796333    0.6154014   -1.5642319   0.13113871    11315.865     1000 
 2990000   0.40920292   -2.1701959   0.61319058   -1.5570053   0.12406901    11360.128     1000 
 2992000   0.41494995   -2.1661925   0.62180249     -1.54439   0.12900225    11308.935     1000 
 2994000    0.4067167   -2.2063722   0.60946498   -1.5969072    0.1273825    11365.931     1000 
 2996000   0.42810847    -2.187878   0.64152055   -1.5463574   0.13490434    11324.843     1000 
 2998000   0.40392736   -2.1767203   0.60528515   -1.5714351   0.12528156    11328.207     1000 
 3000000   0.41386253   -2.1696124     0.620173   -1.5494394   0.14262295    11214.172     1000 
Loop time of 1162.62 on 1 procs for 3000000 steps with 1000 atoms

Performance: 1114720.225 tau/day, 2580.371 timesteps/s
100.0% CPU use with 1 MPI tasks x 1 OpenMP threads

MPI task timing breakdown:
Section |  min time  |  avg time  |  max time  |%varavg| %total
---------------------------------------------------------------
Pair    | 914.98     | 914.98     | 914.98     |   0.0 | 78.70
Neigh   | 144.98     | 144.98     | 144.98     |   0.0 | 12.47
Comm    | 24.188     | 24.188     | 24.188     |   0.0 |  2.08
Output  | 0.018942   | 0.018942   | 0.018942   |   0.0 |  0.00
Modify  | 73.177     | 73.177     | 73.177     |   0.0 |  6.29
Other   |            | 5.287      |            |       |  0.45

Nlocal:        1000.00 ave        1000 max        1000 min
Histogram: 1 0 0 0 0 0 0 0 0 0
Nghost:        2149.00 ave        2149 max        2149 min
Histogram: 1 0 0 0 0 0 0 0 0 0
Neighs:        28000.0 ave       28000 max       28000 min
Histogram: 1 0 0 0 0 0 0 0 0 0

Total # of neighbors = 28000
Ave neighs/atom = 28.000000
Neighbor list builds = 150000
Dangerous builds not checked

Total wall time: 0:19:22
