LAMMPS (29 Sep 2021 - Update 2)
OMP_NUM_THREADS environment is not set. Defaulting to 1 thread. (src/comm.cpp:98)
  using 1 OpenMP thread(s) per MPI task
# ----------------------- Inicialização -----------------------

units			lj
atom_style 		atomic
dimension 		3
boundary 		p p p

# -------------------- Criação dos Átomos ---------------------

read_data 		topologia.txt
Reading data file ...
  orthogonal box = (0.0000000 0.0000000 0.0000000) to (21.540000 21.540000 21.540000)
  1 by 1 by 1 MPI processor grid
  reading atoms ...
  1000 atoms
  read_data CPU = 0.005 seconds

velocity 		all create ${temp} 87287 rot yes dist gaussian
velocity 		all create 0.40 87287 rot yes dist gaussian

# ------------------ Interação Interatômica -------------------

pair_style		table linear 1000
pair_coeff		1 1 force.table AA 5.0
WARNING: 2 of 1000 force values in table AA are inconsistent with -dE/dr.
WARNING:  Should only be flagged at inflection points (src/pair_table.cpp:465)
pair_coeff		1 2 force.table AB 5.0
WARNING: 1 of 1000 force values in table AB are inconsistent with -dE/dr.
WARNING:  Should only be flagged at inflection points (src/pair_table.cpp:465)
pair_coeff		2 2 force.table BB 5.0
pair_write		1 1 1000 r 0.008 5.0 table.check AA
Appending to table file table.check with DATE: 2023-06-15
Neighbor list info ...
  update every 1 steps, delay 10 steps, check yes
  max neighbors/atom: 2000, page size: 100000
  master list distance cutoff = 5.3
  ghost atom cutoff = 5.3
  binsize = 2.65, bins = 9 9 9
  1 neighbor lists, perpetual/occasional/extra = 1 0 0
  (1) pair table, perpetual
      attributes: half, newton on
      pair build: half/bin/atomonly/newton
      stencil: half/bin/3d
      bin: standard
pair_write		1 2 1000 r 0.008 5.0 table.check AB
Appending to table file table.check with DATE: 2023-06-15
pair_write		2 2 1000 r 0.008 5.0 table.check BB
Appending to table file table.check with DATE: 2023-06-15

neighbor 		0.3 bin
neigh_modify		every 20 delay 0 check no

# ------------------------- Ensemble --------------------------------------

fix 1			all npt temp ${temp} ${temp} 0.5 iso ${press} ${press} 5
fix 1			all npt temp 0.40 ${temp} 0.5 iso ${press} ${press} 5
fix 1			all npt temp 0.40 0.40 0.5 iso ${press} ${press} 5
fix 1			all npt temp 0.40 0.40 0.5 iso 0.13 ${press} 5
fix 1			all npt temp 0.40 0.40 0.5 iso 0.13 0.13 5

# ---------------------- Função de Distribuição Radial -----------------------

#compute RDF 		all rdf 2000 1 1 1 2 2 2
#fix 2 			all ave/time 1 2000 2000 c_RDF[*] file rdf.data mode vector

# ------------------------- Execução ---------------------------

timestep 		0.005
thermo_style		custom step temp pe ke etotal press vol atoms
thermo			2000
run			3000000
Per MPI rank memory allocation (min/avg/max) = 2.670 | 2.670 | 2.670 Mbytes
Step Temp PotEng KinEng TotEng Press Volume Atoms 
       0          0.4  -0.99052333       0.5994  -0.39112333   0.10908461    9993.9483     1000 
    2000   0.40175495   -2.2358857   0.60202979   -1.6338559    0.1266847    11417.231     1000 
    4000   0.40706776   -2.2268528   0.60999104   -1.6168617    0.1310665    11461.359     1000 
    6000    0.3976412   -2.2532956   0.59586534   -1.6574303   0.12985509    11414.406     1000 
    8000   0.41477594   -2.2332225   0.62154175   -1.6116807   0.13683081    11328.121     1000 
   10000   0.39519928   -2.2183703   0.59220612   -1.6261642    0.1287663    11448.614     1000 
   12000   0.40665333   -2.2184619   0.60937001   -1.6090919   0.13374613    11394.045     1000 
   14000   0.40685702   -2.1851556   0.60967525   -1.5754804   0.13298273    11254.145     1000 
   16000    0.4160641   -2.2166579   0.62347205   -1.5931858   0.12986768    11403.139     1000 
   18000   0.40289492   -2.2615017   0.60373804   -1.6577636   0.12858885    11458.992     1000 
   20000   0.39747364   -2.2282398   0.59561425   -1.6326255   0.12731941    11417.243     1000 
   22000   0.39723995   -2.2262084   0.59526407   -1.6309443   0.12006539    11438.246     1000 
   24000   0.40083193    -2.168825   0.60064665   -1.5681783   0.14031596    11322.942     1000 
   26000   0.40618995   -2.2672442   0.60867564   -1.6585686   0.12447483    11523.153     1000 
   28000   0.39497135   -2.2214667   0.59186456   -1.6296021   0.12757506    11373.409     1000 
   30000   0.39665874    -2.248792   0.59439313   -1.6543989   0.12007573     11395.08     1000 
   32000   0.39684172   -2.2250385   0.59466732   -1.6303712   0.12665808    11422.034     1000 
   34000   0.39750932   -2.2219433   0.59566771   -1.6262755   0.14561929    11252.799     1000 
   36000   0.38489358   -2.2370749   0.57676303   -1.6603119   0.13125391    11376.754     1000 
   38000   0.41002703   -2.2073241    0.6144255   -1.5928986    0.1344854    11303.634     1000 
   40000   0.38814687   -2.1975352   0.58163809   -1.6158971   0.12915812    11260.656     1000 
   42000   0.40369307   -2.1934389   0.60493407   -1.5885048   0.13654957    11297.364     1000 
   44000   0.40179656   -2.2144333   0.60209215   -1.6123412   0.12796754    11374.126     1000 
   46000   0.38951318   -2.2034763    0.5836855   -1.6197908   0.13092252    11395.171     1000 
   48000    0.3853513   -2.2033168   0.57744892   -1.6258679   0.12883121    11298.355     1000 
   50000   0.41141975   -2.2230606    0.6165125   -1.6065481    0.1305709    11334.498     1000 
   52000   0.38695511   -2.2330116   0.57985223   -1.6531594   0.13218227    11397.271     1000 
   54000   0.40452044   -2.2114052   0.60617388   -1.6052313   0.13769941    11270.246     1000 
   56000   0.39328021   -2.2084745    0.5893304   -1.6191441   0.13696757    11230.119     1000 
   58000   0.39118039   -2.2148696   0.58618382   -1.6286857   0.12705413    11434.575     1000 
   60000   0.40099948   -2.2780131   0.60089772   -1.6771154   0.11269119    11448.622     1000 
   62000    0.4142248    -2.258322   0.62071587   -1.6376062   0.13097449    11377.845     1000 
   64000   0.40469668   -2.2402956   0.60643798   -1.6338576   0.12923032    11329.596     1000 
   66000   0.40089328   -2.2502487   0.60073858   -1.6495101   0.13060611    11322.479     1000 
   68000   0.41152113   -2.2341678   0.61666441   -1.6175034   0.13491663    11329.474     1000 
   70000   0.39276705   -2.2457186   0.58856143   -1.6571571   0.12919552    11362.031     1000 
   72000   0.38915301   -2.2304969   0.58314579   -1.6473511   0.11571881    11541.277     1000 
   74000   0.39596551   -2.1804896   0.59335431   -1.5871353   0.12616907    11345.728     1000 
   76000   0.38998821   -2.2193441   0.58439734   -1.6349468   0.13961366    11264.164     1000 
   78000   0.41803928   -2.2349568   0.62643186    -1.608525   0.12912692    11460.581     1000 
   80000   0.38707238   -2.2459965   0.58002797   -1.6659685   0.12335599    11437.767     1000 
   82000   0.39152649   -2.2492482   0.58670245   -1.6625458   0.12700882    11342.584     1000 
   84000    0.3948042   -2.2733475    0.5916141   -1.6817334   0.14078926     11294.64     1000 
   86000   0.40292305   -2.2328136    0.6037802   -1.6290334   0.13463776    11265.896     1000 
   88000   0.40907474   -2.2495887    0.6129985   -1.6365902   0.12704551    11417.908     1000 
   90000   0.40012171   -2.2261019   0.59958238   -1.6265195   0.14188381    11359.332     1000 
   92000   0.39349516   -2.2184441    0.5896525   -1.6287916   0.12499025    11455.687     1000 
   94000   0.40464599   -2.2166212   0.60636201   -1.6102592   0.13438841    11294.329     1000 
   96000   0.39804102   -2.2601034   0.59646447    -1.663639   0.13466271    11337.296     1000 
   98000    0.4198639    -2.276324   0.62916606    -1.647158   0.12176489    11430.599     1000 
  100000   0.39692519   -2.2769571    0.5947924   -1.6821647   0.13390835    11411.828     1000 
  102000   0.38997723   -2.2394073   0.58438088   -1.6550264   0.12314489    11392.419     1000 
  104000   0.40526838   -2.2421831   0.60729467   -1.6348885   0.12677735    11326.068     1000 
  106000   0.39933467   -2.2644462   0.59840301   -1.6660432   0.12933767    11435.153     1000 
  108000   0.38775488   -2.2700328   0.58105069   -1.6889821   0.12606072    11408.477     1000 
  110000    0.4043936   -2.2152535   0.60598381   -1.6092697   0.12825954    11350.599     1000 
  112000   0.42059631   -2.2442078   0.63026357   -1.6139442   0.12850939    11448.366     1000 
  114000   0.39847224   -2.2563634   0.59711066   -1.6592528   0.12859735    11451.999     1000 
  116000    0.3987608   -2.2176271   0.59754306   -1.6200841   0.12462065     11404.11     1000 
  118000   0.40860573   -2.2560551   0.61229568   -1.6437594   0.12054761    11477.113     1000 
  120000   0.39708756   -2.2092044   0.59503571   -1.6141687    0.1275223    11327.001     1000 
  122000   0.39276874   -2.2173613   0.58856396   -1.6287974   0.13697988    11325.688     1000 
  124000   0.39157963   -2.2263866   0.58678208   -1.6396045    0.1367046    11357.639     1000 
  126000   0.41526845   -2.2252304   0.62227977   -1.6029506    0.1179841    11503.429     1000 
  128000   0.39874484   -2.2068571   0.59751915    -1.609338   0.12898118    11334.094     1000 
  130000   0.40315414   -2.2348199   0.60412647   -1.6306935    0.1437512    11262.683     1000 
  132000   0.40249476   -2.2289364    0.6031384    -1.625798   0.13417165    11385.997     1000 
  134000   0.41479332   -2.2798329   0.62156779   -1.6582651    0.1296701    11410.239     1000 
  136000   0.39609318    -2.234468   0.59354563   -1.6409224    0.1413968    11236.991     1000 
  138000   0.39802534   -2.1641496   0.59644097   -1.5677087   0.13088131    11317.376     1000 
  140000   0.41130373   -2.2418521   0.61633865   -1.6255135   0.11419053    11487.897     1000 
  142000   0.38389686   -2.2110736   0.57526945   -1.6358041   0.12190466     11457.09     1000 
  144000    0.4031689   -2.1962899    0.6041486   -1.5921413    0.1364694    11296.211     1000 
  146000   0.37743071   -2.2196045   0.56557992   -1.6540246   0.13036284    11396.264     1000 
  148000    0.3980264   -2.2505607   0.59644257   -1.6541182   0.12651083    11344.115     1000 
  150000   0.38378879    -2.238814   0.57510751   -1.6637065   0.13183248    11365.793     1000 
  152000   0.40070951   -2.2553257    0.6004632   -1.6548625   0.13389181    11320.922     1000 
  154000   0.41555097   -2.2452877   0.62270313   -1.6225846   0.12156353    11434.677     1000 
  156000   0.38771893   -2.2289279   0.58099682   -1.6479311    0.1273342    11467.223     1000 
  158000   0.41026347   -2.2210662    0.6147798   -1.6062864     0.124045    11421.673     1000 
  160000   0.38905444   -2.2482249   0.58299808   -1.6652268   0.12586849    11366.069     1000 
  162000   0.39915523   -2.2274844   0.59813411   -1.6293503   0.13221944    11359.291     1000 
  164000   0.40127573   -2.2449244   0.60131169   -1.6436128   0.13004957    11364.828     1000 
  166000   0.39211414   -2.2389752   0.58758304   -1.6513922   0.12515267    11434.371     1000 
  168000   0.41492792   -2.2461723   0.62176948   -1.6244028   0.13173026     11389.99     1000 
  170000   0.40939109   -2.2338713   0.61347255   -1.6203987    0.1285286    11441.405     1000 
  172000   0.40062887   -2.2491274   0.60034236   -1.6487851   0.13569722    11341.188     1000 
  174000   0.41321054   -2.2361497     0.619196   -1.6169537   0.12350866    11434.857     1000 
  176000   0.39912566   -2.1826798    0.5980898     -1.58459   0.13958397     11274.34     1000 
  178000   0.38678458   -2.2417811   0.57959669   -1.6621844   0.13532115    11274.209     1000 
  180000   0.39358946   -2.2312155    0.5897938   -1.6414217   0.13216392    11299.898     1000 
  182000   0.39258185   -2.1812202    0.5882839   -1.5929363    0.1397163    11318.557     1000 
  184000   0.41077562   -2.2344024   0.61554726   -1.6188551   0.14095093     11352.63     1000 
  186000   0.39264088     -2.19843   0.58837236   -1.6100577    0.1302652    11321.365     1000 
  188000   0.40365551   -2.2587476   0.60487779   -1.6538698   0.12127585    11421.492     1000 
  190000   0.40932799   -2.2041095   0.61337799   -1.5907315   0.13587294    11305.642     1000 
  192000    0.4004222   -2.2223793   0.60003267   -1.6223466   0.13661817    11378.927     1000 
  194000   0.40115705   -2.2372804   0.60113384   -1.6361466   0.14070773    11344.566     1000 
  196000   0.40748571   -2.2236625   0.61061734   -1.6130452    0.1326587    11313.125     1000 
  198000   0.39833397   -2.2371971   0.59690345   -1.6402937   0.12869762    11344.937     1000 
  200000   0.40451315   -2.2177896   0.60616296   -1.6116266   0.13215786    11329.994     1000 
  202000   0.41524203   -2.1970978   0.62224018   -1.5748576   0.12479059    11387.188     1000 
  204000   0.40289709   -2.2175578   0.60374129   -1.6138165   0.12719185     11404.68     1000 
  206000   0.40387225   -2.2172075   0.60520256    -1.612005   0.12473195     11456.45     1000 
  208000    0.3982036   -2.2266937    0.5967081   -1.6299856   0.12055553     11349.02     1000 
  210000   0.39791627   -2.2041882   0.59627754   -1.6079107   0.12786755     11387.84     1000 
  212000   0.39625982   -2.2412973   0.59379534    -1.647502   0.12653098    11415.968     1000 
  214000     0.392654   -2.2236851   0.58839202   -1.6352931   0.12215536     11393.58     1000 
  216000   0.39355597   -2.2333918   0.58974363   -1.6436481   0.11550737    11588.943     1000 
  218000   0.40848218   -2.2341421   0.61211054   -1.6220316    0.1464935     11240.74     1000 
  220000   0.40266987   -2.2562939   0.60340079   -1.6528931   0.12940979    11366.079     1000 
  222000   0.39189561   -2.1467125   0.58725556    -1.559457   0.13883603     11212.79     1000 
  224000   0.40752589   -2.2562687   0.61067755   -1.6455911   0.13165348    11303.305     1000 
  226000   0.40800177   -2.2518706   0.61139065   -1.6404799   0.13950341    11243.008     1000 
  228000   0.39466204   -2.2240671   0.59140107    -1.632666   0.12805701    11424.774     1000 
  230000    0.3812245   -2.1661707   0.57126491   -1.5949058   0.13212342    11251.444     1000 
  232000   0.38644234   -2.2164309   0.57908385    -1.637347   0.12699741    11358.859     1000 
  234000   0.40866925   -2.2497489   0.61239087   -1.6373581    0.1193807    11492.808     1000 
  236000   0.39472615   -2.2162046   0.59149713   -1.6247074   0.12999616     11362.01     1000 
  238000   0.39688461    -2.214079   0.59473159   -1.6193475   0.12860471    11359.069     1000 
  240000   0.41143186   -2.2336814   0.61653064   -1.6171507   0.12412389    11485.027     1000 
  242000   0.39994772   -2.1819618   0.59932165   -1.5826402   0.13548328    11367.806     1000 
  244000   0.40059231   -2.2302885   0.60028757   -1.6300009   0.13365058     11395.81     1000 
  246000   0.39192285    -2.234766   0.58729639   -1.6474696   0.13965109    11359.507     1000 
  248000   0.40794204   -2.2840158   0.61130115   -1.6727147   0.13490821    11472.704     1000 
  250000   0.39952306   -2.2273724   0.59868531    -1.628687   0.13405214    11373.292     1000 
  252000   0.39854818   -2.2499705   0.59722445    -1.652746   0.11819876    11564.617     1000 
  254000   0.39646462   -2.2265822   0.59410224     -1.63248    0.1283073    11361.775     1000 
  256000   0.40210773   -2.2499213   0.60255843   -1.6473629   0.11516887    11422.127     1000 
  258000   0.40460253   -2.2075271   0.60629689   -1.6012302    0.1324425    11333.062     1000 
  260000   0.39747607   -2.2400622    0.5956179   -1.6444443   0.13206753    11444.002     1000 
  262000   0.41608232   -2.2366577   0.62349936   -1.6131584   0.13075756    11371.207     1000 
  264000    0.4041864   -2.1959683   0.60567333    -1.590295   0.14568606    11279.418     1000 
  266000   0.39078958   -2.2376978   0.58559818   -1.6520996    0.1278512    11360.461     1000 
  268000   0.40233926   -2.2283897   0.60290538   -1.6254843   0.12584052    11448.008     1000 
  270000   0.40730154   -2.1943369   0.61034136   -1.5839956   0.13067705    11323.126     1000 
  272000   0.40150659   -2.2342674   0.60165763   -1.6326097   0.12523665    11487.648     1000 
  274000   0.39535441   -2.2481354   0.59243859   -1.6556969   0.12951169    11387.446     1000 
  276000   0.39570164   -2.2145137   0.59295891   -1.6215548   0.12436377    11433.133     1000 
  278000   0.40509816   -2.1914012   0.60703959   -1.5843616   0.13384971    11296.916     1000 
  280000   0.41221129   -2.2308497   0.61769862   -1.6131511   0.13651743     11318.67     1000 
  282000   0.39340128   -2.1937566   0.58951181   -1.6042448    0.1331569    11301.753     1000 
  284000   0.39072423   -2.2521315   0.58550026   -1.6666313   0.12816746    11368.806     1000 
  286000   0.39148502   -2.1979724    0.5866403   -1.6113321    0.1377872    11254.542     1000 
  288000   0.39562502   -2.2394207   0.59284409   -1.6465766   0.13516573    11354.296     1000 
  290000   0.39626979   -2.2263981   0.59381028   -1.6325878   0.12010733    11436.019     1000 
  292000   0.40096138    -2.285417   0.60084063   -1.6845764   0.11781591    11606.412     1000 
  294000   0.38613562   -2.2511498   0.57862423   -1.6725256   0.12349789    11455.254     1000 
  296000   0.40840861   -2.2321909   0.61200031   -1.6201906   0.13792446    11295.006     1000 
  298000   0.40878469   -2.2376837   0.61256386   -1.6251198   0.12790265    11447.987     1000 
  300000    0.3937632   -2.2463121   0.59005415   -1.6562579   0.14398854    11205.781     1000 
  302000   0.40807857   -2.2294547   0.61150574    -1.617949   0.12449279     11449.86     1000 
  304000    0.4092784   -2.2188206   0.61330368   -1.6055169   0.12096579    11509.793     1000 
  306000   0.39145244   -2.2294688   0.58659148   -1.6428773   0.13108018    11336.862     1000 
  308000   0.39525932   -2.2373805   0.59229609   -1.6450844   0.12280805    11485.004     1000 
  310000   0.40030729   -2.2269205   0.59986048     -1.62706   0.14587357    11284.233     1000 
  312000   0.37630739   -2.2119847   0.56389662    -1.648088   0.12223699    11433.057     1000 
  314000   0.39720689   -2.2337568   0.59521452   -1.6385422   0.12915052    11329.148     1000 
  316000   0.41401735   -2.2215213     0.620405   -1.6011163    0.1362736    11365.069     1000 
  318000   0.40473355   -2.2622223   0.60649323   -1.6557291    0.1231246      11460.8     1000 
  320000   0.39553784   -2.2334234   0.59271345   -1.6407099   0.12501401    11492.921     1000 
  322000   0.39497322   -2.2329698   0.59186737   -1.6411024   0.11835725    11527.619     1000 
  324000   0.40304677   -2.2094895   0.60396558   -1.6055239   0.12502334    11380.742     1000 
  326000   0.39870887   -2.2225423   0.59746524   -1.6250771   0.12006995    11545.672     1000 
  328000   0.40498184   -2.2541111   0.60686529   -1.6472458   0.12800366    11346.998     1000 
  330000   0.39872032   -2.2121423   0.59748239   -1.6146599   0.14030056    11282.272     1000 
  332000   0.40398218   -2.1797759   0.60536729   -1.5744086   0.13334937     11317.72     1000 
  334000   0.39345731   -2.2728776   0.58959578   -1.6832818   0.12993524    11423.885     1000 
  336000   0.39840763   -2.2068793   0.59701383   -1.6098655   0.12723899    11338.107     1000 
  338000   0.41402378   -2.2376531   0.62041464   -1.6172385   0.11884298    11394.601     1000 
  340000   0.39865098   -2.2337699   0.59737849   -1.6363914   0.13649485    11294.337     1000 
  342000    0.3939593   -2.2422091   0.59034801   -1.6518611   0.11835271    11536.721     1000 
  344000   0.41655513   -2.2549504   0.62420787   -1.6307425   0.12633256    11434.705     1000 
  346000   0.38388624   -2.2319239   0.57525353   -1.6566703   0.12634203    11342.431     1000 
  348000   0.40835118   -2.2063651   0.61191425   -1.5944509   0.13374549    11392.459     1000 
  350000    0.3960581   -2.2626932   0.59349307   -1.6692001   0.11426331     11484.01     1000 
  352000   0.38782149   -2.1886812    0.5811505   -1.6075307   0.13546497    11234.925     1000 
  354000   0.37646521   -2.2417819   0.56413311   -1.6776488   0.12337564    11407.032     1000 
  356000   0.39861096   -2.2341051   0.59731853   -1.6367865   0.11975069    11418.803     1000 
  358000   0.41567378   -2.2515624   0.62288715   -1.6286752   0.12036984    11525.898     1000 
  360000   0.39151226   -2.1944071   0.58668112    -1.607726   0.12678734    11357.927     1000 
  362000   0.39033891   -2.2197761   0.58492286   -1.6348532    0.1293913    11319.678     1000 
  364000   0.40233159   -2.1754221   0.60289389   -1.5725282   0.13480394    11224.467     1000 
  366000   0.38353255   -2.1807952   0.57472352   -1.6060717   0.13295074    11177.729     1000 
  368000    0.3942694   -2.2473148    0.5908127   -1.6565021   0.12577251    11380.625     1000 
  370000   0.39943148    -2.199492   0.59854807   -1.6009439   0.12522419    11301.138     1000 
  372000   0.40694575   -2.2333646   0.60980821   -1.6235564   0.12236757    11410.382     1000 
  374000   0.39438135   -2.2327188   0.59098045   -1.6417383   0.13944088    11361.119     1000 
  376000    0.4169699   -2.2301826   0.62482939   -1.6053532   0.12661706     11408.32     1000 
  378000   0.38673305   -2.2651068   0.57951947   -1.6855873   0.12901368     11466.28     1000 
  380000   0.39972417   -2.2736715   0.59898667   -1.6746849   0.11609928    11527.752     1000 
  382000   0.42104919   -2.2134766    0.6309422   -1.5825344   0.12301807    11398.444     1000 
  384000   0.40627329   -2.2326589   0.60880053   -1.6238584   0.11743238    11564.767     1000 
  386000   0.40458328   -2.2457334   0.60626804   -1.6394653   0.12615508    11469.908     1000 
  388000    0.4094424   -2.2180975   0.61354943    -1.604548   0.14326978    11301.713     1000 
  390000   0.38958049   -2.2128614   0.58378637   -1.6290751   0.13970714    11255.193     1000 
  392000   0.38747997   -2.1848384   0.58063874   -1.6041997   0.13042574    11247.843     1000 
  394000   0.39413609   -2.2330422   0.59061294   -1.6424292   0.13156581    11403.176     1000 
  396000   0.40505704   -2.2380918   0.60697798   -1.6311138    0.1289309    11454.266     1000 
  398000   0.38696696   -2.2407028   0.57986999   -1.6608329   0.12280177    11448.379     1000 
  400000    0.4115005   -2.2303016   0.61663349   -1.6136681   0.13096515    11302.406     1000 
  402000    0.3782509   -2.2234293   0.56680898   -1.6566204   0.13072283    11336.383     1000 
  404000   0.38917804   -2.2179793   0.58318329    -1.634796   0.12252354    11406.499     1000 
  406000   0.39686208   -2.2273135   0.59469783   -1.6326157   0.12207465    11405.887     1000 
  408000   0.40649144    -2.184589   0.60912742   -1.5754615   0.14806048    11147.065     1000 
  410000   0.37802195   -2.2284954    0.5664659   -1.6620295   0.13311761    11431.931     1000 
  412000   0.40604943    -2.261047   0.60846506    -1.652582   0.11550566    11518.724     1000 
  414000   0.39878181   -2.2262072   0.59757454   -1.6286326   0.11811487    11498.448     1000 
  416000   0.40468952   -2.2356754   0.60642724   -1.6292482   0.13385366     11414.69     1000 
  418000    0.4003836   -2.2169851   0.59997482   -1.6170103   0.13928094    11386.697     1000 
  420000   0.40289896   -2.1782124   0.60374409   -1.5744683   0.13231606     11402.14     1000 
  422000   0.41385106   -2.2173956   0.62015581   -1.5972398   0.12898775    11439.865     1000 
  424000   0.40016769   -2.2249953   0.59965128    -1.625344   0.12914721     11421.34     1000 
  426000   0.40654347   -2.2515532   0.60920539   -1.6423478   0.12548685    11419.963     1000 
  428000   0.40132387   -2.2582642   0.60138382   -1.6568804   0.13590134    11285.394     1000 
  430000      0.39884   -2.1928658   0.59766174   -1.5952041   0.12641497    11414.071     1000 
  432000   0.40273213   -2.2346517   0.60349409   -1.6311576   0.12012851    11385.827     1000 
  434000   0.42005882    -2.179869   0.62945814   -1.5504109   0.13777142    11220.126     1000 
  436000   0.38228985   -2.2697166   0.57286134   -1.6968552    0.1284679     11372.76     1000 
  438000   0.39876152   -2.2340027   0.59754414   -1.6364586   0.12882999    11371.751     1000 
  440000   0.40037141   -2.2930548   0.59995656   -1.6930983   0.12607384    11407.106     1000 
  442000   0.41755158   -2.2265288   0.62570104   -1.6008277   0.12066006    11405.889     1000 
  444000    0.4001991   -2.2398155   0.59969835   -1.6401172   0.12011294    11454.059     1000 
  446000   0.40799989   -2.2539512   0.61138783   -1.6425634   0.11170376    11537.914     1000 
  448000   0.39042593   -2.2417467   0.58505326   -1.6566934   0.13355021    11264.808     1000 
  450000   0.38830777   -2.2347965    0.5818792   -1.6529173   0.14583403    11265.155     1000 
  452000   0.39862374   -2.1954287   0.59733767    -1.598091   0.13433915    11311.667     1000 
  454000   0.38853365   -2.2548759   0.58221767   -1.6726582   0.12807318    11344.305     1000 
  456000   0.40083958   -2.1824266   0.60065811   -1.5817685   0.12326144     11393.33     1000 
  458000   0.39730794    -2.230112   0.59536595    -1.634746   0.11900332    11419.118     1000 
  460000   0.40424072   -2.2443621   0.60575472   -1.6386074   0.13365314    11357.251     1000 
  462000    0.3852071   -2.1934539   0.57723284    -1.616221   0.13396793    11260.323     1000 
  464000   0.41400624   -2.2539488   0.62038836   -1.6335604   0.13872716     11396.23     1000 
  466000   0.40248415   -2.2277315    0.6031225    -1.624609    0.1388122    11268.585     1000 
  468000   0.40326086   -2.2290071   0.60428641   -1.6247207   0.13257528    11372.108     1000 
  470000   0.40502486   -2.2227939   0.60692975   -1.6158642   0.13161599    11405.581     1000 
  472000   0.40231913   -2.2429084   0.60287521   -1.6400332   0.14190833    11255.583     1000 
  474000   0.41778331   -2.2346619   0.62604829   -1.6086136   0.13280121    11388.095     1000 
  476000   0.39847163    -2.259269   0.59710973   -1.6621593     0.122376    11543.827     1000 
  478000   0.39363475   -2.2716693   0.58986167   -1.6818076   0.12545374    11431.388     1000 
  480000   0.39611022   -2.2679597   0.59357116   -1.6743886   0.13995205    11327.762     1000 
  482000   0.39361033   -2.2234967   0.58982507   -1.6336717   0.12762653    11343.026     1000 
  484000   0.39322021   -2.2498103   0.58924048   -1.6605698   0.11233312    11435.575     1000 
  486000   0.40928047   -2.2304636   0.61330679   -1.6171568   0.13967389    11335.841     1000 
  488000   0.39022605   -2.1834032   0.58475373   -1.5986494   0.12371599     11388.28     1000 
  490000   0.41511393   -2.2427239   0.62204823   -1.6206757   0.12479384    11390.039     1000 
  492000   0.40719822   -2.2036492   0.61018653   -1.5934626   0.13174802    11325.598     1000 
  494000   0.41580826   -2.2705417   0.62308867    -1.647453   0.12406734    11382.768     1000 
  496000   0.39059067   -2.2662799   0.58530012   -1.6809798   0.12145048    11510.991     1000 
  498000   0.39299266   -2.2336002   0.58889951   -1.6447007   0.13866884    11300.571     1000 
  500000   0.39826173   -2.2780697    0.5967952   -1.6812745   0.12020979    11487.704     1000 
  502000   0.40707126   -2.2793304   0.60999629   -1.6693341     0.124519    11473.148     1000 
  504000   0.41432183   -2.2865572   0.62086126   -1.6656959   0.12393462    11449.838     1000 
  506000   0.40046587   -2.2179688    0.6000981   -1.6178707    0.1261953    11353.536     1000 
  508000   0.39090895   -2.2198975   0.58577706   -1.6341204   0.12752603    11413.708     1000 
  510000   0.41234338   -2.2526093   0.61789655   -1.6347127   0.12140222    11417.731     1000 
  512000   0.39979326   -2.2452682   0.59909021   -1.6461779   0.12801878    11435.587     1000 
  514000   0.39879507   -2.2017536   0.59759442   -1.6041591   0.13421078    11258.175     1000 
  516000   0.41490917   -2.2291632   0.62174139   -1.6074218   0.13779522    11402.119     1000 
  518000    0.4083212   -2.2604426   0.61186932   -1.6485733   0.13150603    11467.865     1000 
  520000   0.39393178   -2.2895892   0.59030678   -1.6992825   0.13984803    11365.931     1000 
  522000    0.4194453   -2.2413084   0.62853878   -1.6127696    0.1391009    11316.298     1000 
  524000   0.38828236   -2.2118924   0.58184111   -1.6300513   0.12327547    11389.574     1000 
  526000   0.39499815   -2.2849673   0.59190473   -1.6930626   0.12041642    11487.058     1000 
  528000   0.39704176   -2.1912083   0.59496708   -1.5962412   0.12902213    11275.927     1000 
  530000    0.3923035   -2.2377448   0.58786679    -1.649878   0.12295625    11403.581     1000 
  532000   0.39175812   -2.2335289   0.58704955   -1.6464794   0.13032123    11298.106     1000 
  534000   0.40631946   -2.2232695   0.60886972   -1.6143998   0.12958168    11329.703     1000 
  536000   0.39425078   -2.2548463    0.5907848   -1.6640615   0.11803566    11415.561     1000 
  538000   0.40322024   -2.2409675   0.60422553    -1.636742   0.12132688    11467.537     1000 
  540000   0.40982468   -2.2389083   0.61412229    -1.624786   0.12339589    11421.653     1000 
  542000   0.40320374   -2.2063432   0.60420081   -1.6021424   0.13203601     11348.59     1000 
  544000   0.40277562   -2.2014984   0.60355927   -1.5979391   0.13478064    11218.714     1000 
  546000   0.37472472   -2.2419819     0.561525   -1.6804569   0.12295131    11445.036     1000 
  548000   0.39764599   -2.2585692   0.59587252   -1.6626966   0.12264788    11460.292     1000 
  550000   0.39214919   -2.1972902   0.58763555   -1.6096546    0.1343943    11319.433     1000 
  552000   0.39691017   -2.2575594    0.5947699   -1.6627895    0.1334084    11422.473     1000 
  554000   0.40780559   -2.2226679   0.61109668   -1.6115712   0.14057415    11284.568     1000 
  556000   0.42073511   -2.2555761   0.63047157   -1.6251045   0.13135518    11396.322     1000 
  558000   0.41080689   -2.2289687   0.61559413   -1.6133746   0.12248504    11522.462     1000 
  560000   0.40885401   -2.2616158   0.61266774   -1.6489481     0.121936    11437.146     1000 
  562000   0.41183284   -2.2444631   0.61713152   -1.6273315   0.12723703    11345.642     1000 
  564000   0.39918353   -2.2644812   0.59817652   -1.6663047   0.11684424    11519.074     1000 
  566000   0.39376442   -2.1968181   0.59005598   -1.6067621   0.12668783    11395.813     1000 
  568000   0.38912274   -2.2674633   0.58310043   -1.6843629   0.12006151    11436.416     1000 
  570000     0.410214   -2.1998036   0.61470567    -1.585098   0.12686237    11451.468     1000 
  572000   0.38950106   -2.2636338   0.58366734   -1.6799665   0.13687785    11362.558     1000 
  574000   0.42336497   -2.2645053   0.63441241   -1.6300929   0.14008081    11389.636     1000 
  576000   0.41042715   -2.2201637   0.61502508   -1.6051386   0.12829027    11386.836     1000 
  578000    0.4134279   -2.2426933    0.6195217   -1.6231716   0.12180329    11397.071     1000 
  580000   0.39500684   -2.2770737   0.59191775    -1.685156   0.13959855    11336.414     1000 
  582000    0.3926135   -2.1835654   0.58833132   -1.5952341   0.13459537    11301.534     1000 
  584000   0.39228305    -2.227316   0.58783616   -1.6394798   0.13846622    11331.101     1000 
  586000   0.39910085   -2.2460208   0.59805262   -1.6479681   0.11512883    11415.872     1000 
  588000   0.41093064    -2.233192   0.61577956   -1.6174124   0.14113586    11349.419     1000 
  590000   0.40412039   -2.2639467   0.60557441   -1.6583723   0.12996992    11416.867     1000 
  592000   0.39967171   -2.2212538   0.59890806   -1.6223457   0.13415279    11338.308     1000 
  594000   0.38731031   -2.2028477    0.5803845   -1.6224632   0.12977085    11360.165     1000 
  596000   0.40138236    -2.240015   0.60147146   -1.6385435   0.11542772    11440.342     1000 
  598000   0.39630246   -2.2460424   0.59385923   -1.6521832   0.12825769     11384.59     1000 
  600000   0.37730436   -2.1862502   0.56539059   -1.6208596   0.13395619    11299.751     1000 
  602000   0.39571685   -2.1947818    0.5929817   -1.6018001   0.13744692    11384.253     1000 
  604000    0.4077697   -2.2158255    0.6110429   -1.6047826   0.13785389     11311.65     1000 
  606000   0.41353672   -2.2495753   0.61968477   -1.6298906   0.13203786    11361.206     1000 
  608000   0.39505941   -2.1648737   0.59199652   -1.5728771   0.12824407    11261.738     1000 
  610000   0.39874255   -2.2551399   0.59751572   -1.6576242   0.12968072    11355.735     1000 
  612000   0.39306001   -2.1826903   0.58900042   -1.5936898   0.13120561    11344.808     1000 
  614000   0.40394359   -2.2255171   0.60530947   -1.6202077     0.131217    11355.315     1000 
  616000   0.40799717   -2.1935158   0.61138376   -1.5821321   0.12422591    11427.686     1000 
  618000   0.38673243   -2.2960986   0.57951854     -1.71658    0.1227856     11480.48     1000 
  620000   0.39408436   -2.2256249   0.59053541   -1.6350894   0.14001798    11422.823     1000 
  622000   0.38836703   -2.2344439     0.581968   -1.6524759   0.12136005    11411.465     1000 
  624000   0.38411608   -2.2087195   0.57559794   -1.6331216   0.11368124    11523.924     1000 
  626000   0.39100489    -2.235263   0.58592082   -1.6493422   0.13427474    11371.227     1000 
  628000    0.4054473   -2.2470783   0.60756277   -1.6395156   0.12598709    11320.223     1000 
  630000   0.40157146   -2.2289661   0.60175483   -1.6272113   0.12826193    11370.017     1000 
  632000   0.40679313   -2.2206642    0.6095795   -1.6110847   0.13218268    11468.154     1000 
  634000   0.40783039   -2.2628519   0.61113383   -1.6517181   0.12173612    11504.268     1000 
  636000   0.39192674   -2.2932649   0.58730223   -1.7059627   0.11832308    11418.966     1000 
  638000   0.42750862   -2.2828623   0.64062166   -1.6422406   0.12142023    11453.221     1000 
  640000    0.4093271   -2.2181914   0.61337666   -1.6048147   0.13752194    11332.961     1000 
  642000   0.40254393   -2.1677876   0.60321209   -1.5645755   0.11763473     11299.45     1000 
  644000   0.39867273   -2.2200693   0.59741109   -1.6226582   0.12464487    11349.135     1000 
  646000   0.39450754   -2.2384979   0.59116955   -1.6473284   0.13885111    11316.292     1000 
  648000   0.40888072   -2.2777615   0.61270775   -1.6650538   0.14146615    11348.419     1000 
  650000   0.40355025    -2.275169   0.60472005    -1.670449   0.12612298    11400.518     1000 
  652000   0.39446148   -2.2562684   0.59110052   -1.6651679   0.13302388     11279.11     1000 
  654000   0.39566037   -2.2505623   0.59289706   -1.6576652   0.13498083     11314.85     1000 
  656000   0.42552677   -2.2527253   0.63765187   -1.6150735   0.12982859    11375.474     1000 
  658000   0.39831686   -2.2334673   0.59687782   -1.6365894   0.13328202    11331.462     1000 
  660000   0.37884949   -2.1931191   0.56770596   -1.6254131     0.138564    11202.678     1000 
  662000   0.39037965   -2.2087016    0.5849839   -1.6237177   0.14007218    11258.493     1000 
  664000   0.37937194   -2.2660945   0.56848885   -1.6976056    0.1181837    11561.773     1000 
  666000   0.40481718   -2.2312081   0.60661855   -1.6245896   0.13073636    11390.636     1000 
  668000    0.4003279   -2.2444379   0.59989136   -1.6445465   0.13487759    11373.914     1000 
  670000   0.39804196   -2.2021248   0.59646587   -1.6056589   0.12982839    11329.624     1000 
  672000   0.41235994   -2.1983902   0.61792137   -1.5804688   0.13689381    11337.735     1000 
  674000   0.40626989   -2.2103322   0.60879542   -1.6015368   0.13606669    11274.585     1000 
  676000    0.3995573   -2.1931554   0.59873662   -1.5944188   0.13707113    11267.081     1000 
  678000   0.38979908   -2.2199779   0.58411392    -1.635864   0.12713823    11406.339     1000 
  680000   0.40071117   -2.1974262   0.60046569   -1.5969605   0.14645909    11235.685     1000 
  682000   0.40124557   -2.1910475   0.60126649    -1.589781   0.13329706    11406.553     1000 
  684000   0.38913996   -2.2241748   0.58312622   -1.6410486   0.12209285    11421.742     1000 
  686000   0.39620358   -2.2010207   0.59371107   -1.6073096   0.12288634    11392.146     1000 
  688000   0.38608531   -2.2781591   0.57854883   -1.6996103   0.13352894    11303.133     1000 
  690000   0.38343944   -2.2578756     0.574584   -1.6832916   0.12856009    11439.944     1000 
  692000     0.408097   -2.2188862   0.61153336   -1.6073528   0.12928599    11368.849     1000 
  694000     0.402638   -2.2237841   0.60335304   -1.6204311   0.12966311    11383.537     1000 
  696000   0.40715243   -2.2498341   0.61011792   -1.6397162   0.11830107    11407.356     1000 
  698000   0.42238979   -2.2474209   0.63295111   -1.6144698   0.13020591    11392.406     1000 
  700000   0.42314691    -2.272287   0.63408564   -1.6382014   0.12850476    11494.132     1000 
  702000   0.40001002   -2.2336863   0.59941502   -1.6342712   0.13742026    11321.415     1000 
  704000   0.40760633   -2.2125269   0.61079809   -1.6017288   0.14197843     11293.88     1000 
  706000   0.38945115   -2.2169301   0.58359255   -1.6333376   0.12743252    11384.442     1000 
  708000   0.41161598   -2.2749446   0.61680654    -1.658138   0.11313738    11544.208     1000 
  710000   0.39738892   -2.2393699    0.5954873   -1.6438826    0.1495217    11162.869     1000 
  712000   0.40773057   -2.1979216   0.61098426   -1.5869373   0.12919945    11278.226     1000 
  714000   0.40981401   -2.2140395   0.61410629   -1.5999332   0.12820803    11363.231     1000 
  716000   0.38542616    -2.244067    0.5775611   -1.6665059   0.12892259    11394.481     1000 
  718000    0.3805262   -2.2134632   0.57021851   -1.6432447   0.12020881    11431.698     1000 
  720000   0.40098028   -2.2665614   0.60086895   -1.6656925   0.11947904    11481.778     1000 
  722000   0.40215311   -2.2511009   0.60262644   -1.6484744   0.13027152    11427.937     1000 
  724000   0.39856775    -2.184694   0.59725378   -1.5874402   0.13280699    11178.608     1000 
  726000   0.38204168   -2.2123046   0.57248946   -1.6398152   0.12813235    11347.936     1000 
  728000   0.38880724   -2.1959185   0.58262765   -1.6132908   0.13748513    11305.899     1000 
  730000   0.41482587   -2.2082484   0.62161657   -1.5866318   0.12831834    11412.357     1000 
  732000   0.38344201   -2.2386778   0.57458785   -1.6640899   0.13232052    11335.162     1000 
  734000   0.39785115   -2.2344728   0.59617994   -1.6382929    0.1239716    11421.629     1000 
  736000   0.38819111   -2.2274288   0.58170438   -1.6457244   0.12816266    11322.339     1000 
  738000   0.40355813   -2.2223654   0.60473186   -1.6176335   0.13442666     11333.55     1000 
  740000   0.42348484   -2.2665881   0.63459203    -1.631996   0.14175151    11320.608     1000 
  742000   0.40984234   -2.2256506   0.61414875   -1.6115019   0.13343421    11331.721     1000 
  744000   0.39268102   -2.2779872   0.58843251   -1.6895547   0.12279109    11450.466     1000 
  746000   0.40668505   -2.2729238   0.60941754   -1.6635062   0.13083627    11450.909     1000 
  748000   0.39505029   -2.2167257   0.59198286   -1.6247429   0.13758332    11274.177     1000 
  750000   0.38008188   -2.2097764    0.5695527   -1.6402237   0.13473628    11326.718     1000 
  752000   0.38591101   -2.2490391   0.57828765   -1.6707514   0.12583375    11451.306     1000 
  754000   0.39693681   -2.2225817   0.59480981   -1.6277719   0.11887634     11414.37     1000 
  756000   0.40846461    -2.265837   0.61208422   -1.6537527   0.12779715    11440.744     1000 
  758000   0.40019193    -2.221975   0.59968761   -1.6222874   0.13796662    11309.005     1000 
  760000   0.39740378   -2.2121936   0.59550957   -1.6166841    0.1301253    11377.828     1000 
  762000   0.38528009   -2.2260717   0.57734221   -1.6487294   0.12454621    11358.182     1000 
  764000   0.39731636   -2.2034775   0.59537856    -1.608099   0.12980504    11506.465     1000 
  766000    0.3977354   -2.2528313   0.59600649   -1.6568248   0.12463811    11417.569     1000 
  768000   0.40462865   -2.2161252   0.60633604   -1.6097892   0.13359379    11366.085     1000 
  770000   0.41329753   -2.2682794   0.61932634   -1.6489531   0.12895325     11462.97     1000 
  772000   0.39833819   -2.2560059   0.59690978   -1.6590961   0.13268571    11346.374     1000 
  774000   0.38508696   -2.2255931    0.5770528   -1.6485403   0.13945558    11289.229     1000 
  776000   0.39756584   -2.2586404   0.59575241   -1.6628879   0.14412447    11287.653     1000 
  778000   0.40553143   -2.2118601   0.60768885   -1.6041713   0.12681576    11423.098     1000 
  780000   0.40475545   -2.2507839   0.60652604   -1.6442579   0.13157557    11369.991     1000 
  782000   0.39384272   -2.2060516   0.59017332   -1.6158783   0.13208853    11278.696     1000 
  784000   0.39311831   -2.2526247   0.58908779   -1.6635369   0.13575392    11332.113     1000 
  786000   0.39358887   -2.2309573   0.58979292   -1.6411644   0.12390057     11397.57     1000 
  788000   0.39449294   -2.2000314   0.59114767   -1.6088837   0.12499535    11392.095     1000 
  790000   0.40363272   -2.2410758   0.60484364   -1.6362321   0.13529799    11334.897     1000 
  792000   0.40502768   -2.2467909   0.60693398   -1.6398569   0.13393509    11377.213     1000 
  794000   0.40702841    -2.248994   0.60993207   -1.6390619   0.13314368     11320.66     1000 
  796000   0.38277298   -2.2384448   0.57358531   -1.6648595   0.12835739    11310.471     1000 
  798000   0.39373283   -2.1855335   0.59000865   -1.5955249   0.14145129    11140.856     1000 
  800000   0.39539067   -2.1964456   0.59249292   -1.6039527   0.13117621    11351.214     1000 
  802000   0.39794163   -2.2168682   0.59631553   -1.6205526   0.12935019    11407.757     1000 
  804000   0.41787032   -2.2068448   0.62617867   -1.5806662   0.13201743    11416.207     1000 
  806000   0.39938895   -2.2553937   0.59848434   -1.6569093   0.13269144    11366.585     1000 
  808000   0.38793876    -2.239259   0.58132623   -1.6579328   0.12411838    11505.041     1000 
  810000   0.37859664   -2.2030762   0.56732706   -1.6357491   0.13473031    11371.775     1000 
  812000   0.39908276   -2.2280558   0.59802552   -1.6300303   0.13138378    11398.999     1000 
  814000   0.39781561   -2.2383957   0.59612669    -1.642269   0.13311812    11388.336     1000 
  816000    0.3960772   -2.2605489   0.59352168   -1.6670273   0.12450994    11485.165     1000 
  818000   0.39520612   -2.2203714   0.59221636    -1.628155   0.13297197    11409.673     1000 
  820000   0.40721232   -2.2854769   0.61020767   -1.6752692   0.12803567    11506.754     1000 
  822000   0.40607123   -2.1860577   0.60849774     -1.57756   0.12660984     11308.36     1000 
  824000   0.39718172   -2.2561524   0.59517681   -1.6609756   0.12635573    11444.012     1000 
  826000   0.40112503   -2.1643024   0.60108586   -1.5632165   0.13655533    11269.667     1000 
  828000   0.40294118    -2.212642   0.60380735   -1.6088346   0.13343439     11332.02     1000 
  830000   0.40092492   -2.2337703     0.600786   -1.6329843    0.1342224    11277.767     1000 
  832000   0.39343595   -2.2856899   0.58956378   -1.6961261   0.11610237    11429.176     1000 
  834000   0.41502356    -2.228485    0.6219128   -1.6065722   0.12242684      11534.8     1000 
  836000   0.40577633    -2.222186   0.60805583   -1.6141302   0.12902354    11490.078     1000 
  838000    0.3948865   -2.2391093   0.59173742   -1.6473718   0.13394336    11351.263     1000 
  840000   0.40077547   -2.2359516   0.60056205   -1.6353895   0.12945963    11393.643     1000 
  842000   0.39184432   -2.2494964   0.58717871   -1.6623177   0.12321604    11460.445     1000 
  844000   0.39796171    -2.198089   0.59634562   -1.6017434   0.12934115    11325.728     1000 
  846000   0.38742889    -2.232904   0.58056219   -1.6523418   0.12648821    11446.165     1000 
  848000   0.40221686   -2.2399058   0.60272197   -1.6371839   0.13619803     11317.62     1000 
  850000   0.40327804   -2.2312459   0.60431214   -1.6269338   0.14002112    11363.349     1000 
  852000   0.39196403   -2.2411041    0.5873581    -1.653746   0.12200734     11438.05     1000 
  854000   0.39645275   -2.2296098   0.59408445   -1.6355253   0.12968328    11438.572     1000 
  856000    0.4227121     -2.23189   0.63343408   -1.5984559   0.12375349    11431.329     1000 
  858000   0.39561801   -2.1842503   0.59283358   -1.5914167   0.13759271    11272.554     1000 
  860000   0.39527869   -2.2524551   0.59232512     -1.66013   0.12918134     11387.21     1000 
  862000     0.389882   -2.2067183   0.58423817   -1.6224801   0.13000181    11385.373     1000 
  864000   0.40129878   -2.2576984   0.60134622   -1.6563521   0.11903573    11443.715     1000 
  866000   0.41358116   -2.1744701   0.61975136   -1.5547188   0.13567419    11352.237     1000 
  868000   0.41979969   -2.2511665   0.62906984   -1.6220967   0.13430389     11338.98     1000 
  870000   0.39440732   -2.2346682   0.59101937   -1.6436489   0.12732672    11312.214     1000 
  872000   0.40852271   -2.1878495   0.61217128   -1.5756782   0.13432909    11340.943     1000 
  874000   0.39925158   -2.2359993    0.5982785   -1.6377208   0.12393912    11432.523     1000 
  876000   0.39053896   -2.2011942   0.58522263   -1.6159716   0.13672236     11305.31     1000 
  878000   0.39333313   -2.2271929   0.58940969   -1.6377832   0.13417178    11232.204     1000 
  880000   0.40102168   -2.2588582   0.60093099   -1.6579272   0.12594354    11424.953     1000 
  882000   0.40001999   -2.2298574   0.59942996   -1.6304275   0.11053481    11473.699     1000 
  884000   0.40700128   -2.2743826   0.60989142   -1.6644912   0.12339707    11471.837     1000 
  886000   0.41950991   -2.2082192    0.6286356   -1.5795836   0.12168524    11384.645     1000 
  888000   0.39698832   -2.1662624   0.59488699   -1.5713754   0.15001811     11150.79     1000 
  890000   0.39702275   -2.2607468   0.59493858   -1.6658082   0.12952701     11466.27     1000 
  892000   0.40704335   -2.2847252   0.60995447   -1.6747707   0.12185804    11422.851     1000 
  894000   0.41822867   -2.2375766   0.62671567    -1.610861   0.14413384    11311.939     1000 
  896000   0.40385652    -2.257326     0.605179    -1.652147   0.12932121    11383.346     1000 
  898000   0.40191343   -2.2068489   0.60226728   -1.6045816    0.1268454    11304.277     1000 
  900000   0.41794496   -2.2234111   0.62629052   -1.5971206   0.15138042    11265.742     1000 
  902000   0.40460212   -2.2625588   0.60629628   -1.6562625   0.11384941    11516.727     1000 
  904000    0.4025159   -2.2377703   0.60317007   -1.6346003    0.1240237    11435.136     1000 
  906000    0.3916416   -2.2377347   0.58687494   -1.6508598   0.12982927    11387.225     1000 
  908000   0.40754402   -2.1805498   0.61070472   -1.5698451   0.12995041    11322.888     1000 
  910000   0.40288247   -2.2089736   0.60371938   -1.6052543   0.14886686    11251.773     1000 
  912000   0.40205586   -2.2316954   0.60248071   -1.6292147   0.12141694    11401.961     1000 
  914000    0.3921917   -2.2389736   0.58769926   -1.6512743   0.12248477    11399.178     1000 
  916000   0.41751742   -2.2381213   0.62564986   -1.6124714   0.13079977    11492.612     1000 
  918000   0.40161876   -2.2498153   0.60182571   -1.6479895   0.12843608    11372.093     1000 
  920000   0.39670098   -2.2068228   0.59445641   -1.6123664   0.13591745    11349.255     1000 
  922000   0.38748041   -2.2006621   0.58063939   -1.6200227   0.13360366    11285.552     1000 
  924000   0.39423817   -2.2424803    0.5907659   -1.6517144   0.12716821    11443.361     1000 
  926000   0.38536739   -2.2339194   0.57747303   -1.6564463   0.12421005    11382.166     1000 
  928000   0.39309644   -2.2647453   0.58905502   -1.6756903   0.12843252    11323.581     1000 
  930000    0.3797009   -2.2384567    0.5689818    -1.669475   0.13520544    11319.461     1000 
  932000   0.39019683   -2.2453499   0.58470995     -1.66064   0.13114059    11415.825     1000 
  934000   0.39802998    -2.231856   0.59644792   -1.6354081    0.1313762    11311.179     1000 
  936000   0.39398764   -2.2354448   0.59039048   -1.6450543   0.12432384    11449.786     1000 
  938000   0.39027924    -2.263125   0.58483345   -1.6782916   0.12721015    11462.533     1000 
  940000   0.40249199   -2.2207768   0.60313425   -1.6176425   0.11836311    11359.597     1000 
  942000   0.38890324    -2.238056    0.5827715   -1.6552845   0.12100261    11502.811     1000 
  944000   0.41480406   -2.2969875   0.62158388   -1.6754036   0.13946865    11270.241     1000 
  946000   0.38293994   -2.2299377    0.5738355   -1.6561022   0.12135527    11413.176     1000 
  948000   0.40909218   -2.2003392   0.61302463   -1.5873146   0.12437547    11335.883     1000 
  950000   0.40344416    -2.180759   0.60456107   -1.5761979   0.13825282    11220.621     1000 
  952000   0.38924233   -2.2661772   0.58327963   -1.6828976   0.13062854    11313.425     1000 
  954000   0.40296744   -2.2316501    0.6038467   -1.6278034   0.12556001    11475.797     1000 
  956000   0.41036914   -2.1963882   0.61493816     -1.58145   0.12866872    11445.891     1000 
  958000   0.39670693   -2.2165249   0.59446533   -1.6220596   0.12765615    11464.032     1000 
  960000   0.39057247   -2.2363571   0.58527285   -1.6510843   0.12521645    11390.145     1000 
  962000   0.39780859   -2.2812897   0.59611617   -1.6851736    0.1280567    11410.795     1000 
  964000   0.41083654   -2.2349156   0.61563856    -1.619277   0.13663119    11346.675     1000 
  966000   0.39995707   -2.2539643   0.59933567   -1.6546286   0.12965949    11425.442     1000 
  968000   0.39944651   -2.2198281   0.59857059   -1.6212575    0.1131305    11502.996     1000 
  970000    0.4107519   -2.2089009   0.61551172   -1.5933892   0.12706511    11349.861     1000 
  972000   0.38667622   -2.2605659   0.57943432   -1.6811316   0.13475174    11356.067     1000 
  974000    0.4074435   -2.2501599   0.61055408   -1.6396058   0.11068571    11611.292     1000 
  976000   0.38693421   -2.2358371   0.57982091   -1.6560162   0.13541053    11388.057     1000 
  978000   0.38916598   -2.2178114   0.58316522   -1.6346462   0.12910852    11308.085     1000 
  980000   0.40358488   -2.2383548   0.60477195   -1.6335828   0.13810439    11274.993     1000 
  982000   0.41368003   -2.2502525   0.61989952   -1.6303529   0.12643693    11414.781     1000 
  984000    0.4129568   -2.2381218   0.61881576    -1.619306   0.13792627    11328.322     1000 
  986000   0.41246233     -2.23768    0.6180748   -1.6196052   0.13393117    11379.305     1000 
  988000   0.39065682   -2.2377632   0.58539924   -1.6523639   0.12417508    11453.338     1000 
  990000   0.40479328    -2.213877   0.60658273   -1.6072943   0.12601743    11383.153     1000 
  992000   0.39595705   -2.2266307   0.59334164    -1.633289   0.11991307    11335.543     1000 
  994000   0.41212629   -2.2342667   0.61757124   -1.6166955   0.12724851    11350.238     1000 
  996000   0.39808266    -2.230029   0.59652687   -1.6335021   0.13593894    11269.515     1000 
  998000   0.41010417   -2.2446767    0.6145411   -1.6301355   0.13211925    11370.908     1000 
 1000000   0.39641969   -2.2022569    0.5940349    -1.608222   0.13223295    11372.824     1000 
 1002000   0.41563362   -2.1895642   0.62282698   -1.5667372   0.13261946     11370.63     1000 
 1004000   0.39717247   -2.2494894   0.59516294   -1.6543264   0.14715323    11202.786     1000 
 1006000   0.39852318   -2.2115792   0.59718698   -1.6143922   0.12139161    11362.147     1000 
 1008000   0.39951578   -2.2431164    0.5986744    -1.644442   0.13953051    11374.277     1000 
 1010000   0.39521632   -2.1881515   0.59223166   -1.5959199   0.12342765    11543.033     1000 
 1012000   0.39931235   -2.2614866   0.59836956    -1.663117   0.12832281    11462.815     1000 
 1014000   0.41384094   -2.2103992   0.62014066   -1.5902585    0.1189705    11358.504     1000 
 1016000   0.40858397   -2.2157552   0.61226308   -1.6034921   0.11681436    11436.819     1000 
 1018000    0.3869161    -2.232526   0.57979378   -1.6527322   0.12665022    11357.711     1000 
 1020000   0.40296005   -2.2219828   0.60383563   -1.6181471   0.13358453    11370.852     1000 
 1022000   0.40914416   -2.2600623   0.61310252   -1.6469598   0.12019101    11458.073     1000 
 1024000   0.38814847   -2.2585614   0.58164048   -1.6769209   0.11972718     11364.12     1000 
 1026000   0.40636091   -2.2856047   0.60893183   -1.6766728   0.12326437    11476.104     1000 
 1028000   0.39678008   -2.2040075   0.59457495   -1.6094326   0.12157182    11480.784     1000 
 1030000   0.41017028   -2.2037504   0.61464017   -1.5891102   0.13517619    11374.174     1000 
 1032000   0.38869857    -2.229222    0.5824648   -1.6467572   0.13321894    11251.814     1000 
 1034000   0.40621212   -2.2147878   0.60870887    -1.606079   0.12532285    11347.839     1000 
 1036000    0.4149072   -2.1922338   0.62173844   -1.5704954    0.1418006    11272.783     1000 
 1038000   0.37616238   -2.2084985   0.56367933   -1.6448192   0.12419462    11311.661     1000 
 1040000   0.40058815     -2.24236   0.60028134   -1.6420787   0.12551856    11350.188     1000 
 1042000   0.41128412   -2.2412276   0.61630926   -1.6249183   0.13763053    11331.064     1000 
 1044000   0.40143607   -2.2443598   0.60155196   -1.6428078   0.12234914    11473.273     1000 
 1046000   0.41340216   -2.2035534   0.61948314   -1.5840702   0.13280208    11305.059     1000 
 1048000   0.39573345   -2.2087122   0.59300658   -1.6157056   0.13411528    11358.309     1000 
 1050000   0.39768166   -2.2282731   0.59592597   -1.6323471   0.11631196    11460.625     1000 
 1052000   0.40232258   -2.2249929   0.60288038   -1.6221126   0.11742074        11539     1000 
 1054000   0.39969958   -2.2183919   0.59894982   -1.6194421   0.12247764    11482.302     1000 
 1056000   0.40247237   -2.2124811   0.60310484   -1.6093763   0.13405291    11306.543     1000 
 1058000   0.40574906   -2.2057476   0.60801496   -1.5977327     0.140056    11181.427     1000 
 1060000   0.41915493    -2.208773   0.62810366   -1.5806694    0.1167021    11466.674     1000 
 1062000   0.41066036   -2.2242723   0.61537454   -1.6088978   0.15078176    11333.938     1000 
 1064000   0.40264947   -2.2781815   0.60337023   -1.6748113   0.12342413    11550.235     1000 
 1066000   0.41711981   -2.2354875   0.62505403   -1.6104335   0.12902751    11449.655     1000 
 1068000   0.39292728    -2.238563   0.58880153   -1.6497614   0.12771119    11377.848     1000 
 1070000   0.40817244   -2.2326398    0.6116464   -1.6209934   0.12694359     11417.76     1000 
 1072000   0.40149372   -2.2080163   0.60163834   -1.6063779   0.12955955    11280.651     1000 
 1074000    0.4017581   -2.1857656   0.60203451   -1.5837311   0.12921323    11306.939     1000 
 1076000   0.40787074   -2.2543701   0.61119431   -1.6431758   0.12167616    11454.367     1000 
 1078000   0.39292694   -2.2810941   0.58880103   -1.6922931   0.11662179    11549.937     1000 
 1080000   0.39614941   -2.2580648   0.59362989   -1.6644349   0.12047841    11420.189     1000 
 1082000   0.39308758   -2.2576544   0.58904173   -1.6686127   0.13399343    11387.277     1000 
 1084000   0.40286545   -2.2427127   0.60369388   -1.6390188   0.12980169    11374.716     1000 
 1086000   0.39840257   -2.2834877   0.59700626   -1.6864815   0.12960872    11425.405     1000 
 1088000   0.39820646   -2.1936959   0.59671238   -1.5969835   0.13798886    11266.222     1000 
 1090000   0.39915113   -2.2420192   0.59812797   -1.6438912   0.13137874    11432.723     1000 
 1092000   0.38658819   -2.2586542    0.5793024   -1.6793518   0.12891278    11346.686     1000 
 1094000   0.40061845   -2.2167545   0.60032675   -1.6164278   0.13745333    11362.394     1000 
 1096000   0.41694217    -2.192281   0.62478784   -1.5674932   0.14286352    11179.928     1000 
 1098000   0.39573086   -2.2189777   0.59300269    -1.625975    0.1264513    11443.409     1000 
 1100000   0.40520938   -2.1907141   0.60720625   -1.5835078   0.12218297     11446.35     1000 
 1102000   0.38788464   -2.2091888   0.58124513   -1.6279437   0.12812213    11360.294     1000 
 1104000   0.40230565   -2.2147815   0.60285502   -1.6119265   0.12341717    11368.615     1000 
 1106000   0.39382796   -2.2107038    0.5901512   -1.6205526   0.13726091    11369.839     1000 
 1108000   0.38196701   -2.2447251   0.57237757   -1.6723475   0.11831004    11516.539     1000 
 1110000   0.38922236   -2.2415864   0.58324971   -1.6583367    0.1301908    11364.085     1000 
 1112000   0.40146511   -2.2451097   0.60159546   -1.6435142   0.13213009    11340.695     1000 
 1114000    0.3947004   -2.2178862   0.59145854   -1.6264277   0.13007965    11343.908     1000 
 1116000   0.39678821   -2.2224398   0.59458714   -1.6278527      0.12443    11433.405     1000 
 1118000   0.40749839    -2.277351   0.61063634   -1.6667146   0.13314992    11372.693     1000 
 1120000   0.40313503   -2.2173361   0.60409784   -1.6132383   0.13392847     11407.85     1000 
 1122000   0.39261369   -2.2418424   0.58833161   -1.6535108   0.11741774    11492.013     1000 
 1124000   0.39478926   -2.2154941    0.5915917   -1.6239024   0.13886847    11349.074     1000 
 1126000   0.39856981   -2.2448216   0.59725687   -1.6475648   0.13284525     11398.08     1000 
 1128000   0.39524189   -2.2078632   0.59226997   -1.6155933   0.12759774    11427.727     1000 
 1130000    0.4023982    -2.232403    0.6029937   -1.6294093   0.15282536    11228.633     1000 
 1132000   0.41758044   -2.2080462   0.62574429   -1.5823019   0.12661253    11324.527     1000 
 1134000    0.4051975   -2.2075495   0.60718845   -1.6003611   0.11138599    11471.334     1000 
 1136000   0.39700883   -2.2594394   0.59491773   -1.6645217   0.12674953    11383.269     1000 
 1138000   0.40997349   -2.2658752   0.61434528   -1.6515299   0.12450391    11461.298     1000 
 1140000   0.40329741   -2.2605256   0.60434117   -1.6561845   0.12432034    11418.988     1000 
 1142000   0.40804713   -2.2016732   0.61145863   -1.5902146    0.1396381     11313.24     1000 
 1144000   0.41108475   -2.2587707    0.6160105   -1.6427602   0.12954267     11406.29     1000 
 1146000   0.40279133   -2.2031992   0.60358281   -1.5996164   0.13374397    11283.199     1000 
 1148000   0.42021446   -2.2284565   0.62969137   -1.5987652   0.12191354    11545.378     1000 
 1150000   0.39418598   -2.1961601   0.59068768   -1.6054725   0.12636173    11378.373     1000 
 1152000   0.40188987   -2.1981685   0.60223197   -1.5959365   0.13051695    11366.528     1000 
 1154000   0.40709059   -2.2268428   0.61002525   -1.6168175   0.12188878     11534.39     1000 
 1156000   0.39438672   -2.2627733    0.5909885   -1.6717848   0.13106529    11453.132     1000 
 1158000   0.39775714   -2.2235288   0.59603908   -1.6274897    0.1202375    11442.583     1000 
 1160000    0.4207327   -2.2081249   0.63046795    -1.577657   0.13716494    11395.816     1000 
 1162000   0.43645611   -2.2244411   0.65402948   -1.5704116   0.13112186    11312.068     1000 
 1164000   0.39044553   -2.2192833   0.58508263   -1.6342007   0.13242258    11336.148     1000 
 1166000   0.42148437    -2.250965   0.63159433   -1.6193707   0.12990793    11330.939     1000 
 1168000   0.41146496   -2.2464708   0.61658024   -1.6298906   0.11930183    11407.247     1000 
 1170000   0.39801155   -2.2212588   0.59642031   -1.6248385   0.12602243    11360.239     1000 
 1172000    0.4020721   -2.2693539   0.60250504   -1.6668489   0.12627086    11434.065     1000 
 1174000   0.39559896   -2.2379931   0.59280504   -1.6451881   0.13257865    11404.576     1000 
 1176000   0.41338436   -2.2747477   0.61945646   -1.6552912   0.14443243    11308.058     1000 
 1178000   0.38620291   -2.2227235   0.57872507   -1.6439984   0.13238589    11333.432     1000 
 1180000   0.40787019   -2.2071391   0.61119348   -1.5959456   0.13263661    11396.198     1000 
 1182000   0.38601428   -2.1965692    0.5784424   -1.6181268   0.12203876    11292.374     1000 
 1184000   0.41485585    -2.247433    0.6216615   -1.6257715   0.13255067    11305.511     1000 
 1186000   0.40961145   -2.2783145   0.61380276   -1.6645117   0.12916399    11402.133     1000 
 1188000   0.42435308    -2.205264   0.63589308   -1.5693709   0.13343472    11265.166     1000 
 1190000   0.39202739   -2.2520111   0.58745305    -1.664558   0.14042082    11382.489     1000 
 1192000   0.40673204    -2.220311   0.60948796   -1.6108231   0.13299266    11411.937     1000 
 1194000   0.40319885   -2.2859692   0.60419348   -1.6817757   0.13212685    11386.572     1000 
 1196000   0.41291257    -2.215733   0.61874949   -1.5969835   0.13945781    11328.911     1000 
 1198000   0.41397603   -2.1701636   0.62034308   -1.5498205   0.12583773    11358.249     1000 
 1200000   0.41027311   -2.2355621   0.61479425   -1.6207679   0.13092569    11347.484     1000 
 1202000   0.41449747   -2.2437411   0.62112446   -1.6226167   0.13716352    11300.209     1000 
 1204000    0.3941973   -2.2005499   0.59070466   -1.6098452   0.12551576     11517.55     1000 
 1206000   0.39807478   -2.2314148   0.59651506   -1.6348998   0.13462646    11395.837     1000 
 1208000   0.41743921   -2.1731584   0.62553266   -1.5476258   0.14482399    11211.118     1000 
 1210000    0.4096861   -2.2195003   0.61391462   -1.6055857   0.13692195    11321.018     1000 
 1212000   0.39012191   -2.1996286   0.58459769   -1.6150309   0.13461401    11313.733     1000 
 1214000    0.3903365     -2.20945   0.58491924   -1.6245307   0.12059748    11381.276     1000 
 1216000   0.38729681   -2.3015315   0.58036427   -1.7211672   0.12862825    11420.632     1000 
 1218000   0.39951823   -2.2449468   0.59867807   -1.6462687   0.13085712    11338.434     1000 
 1220000   0.40220516   -2.2755697   0.60270443   -1.6728653   0.13005247    11456.592     1000 
 1222000   0.41738689   -2.2581537   0.62545426   -1.6326994   0.12676665    11493.509     1000 
 1224000   0.40804547   -2.2581237   0.61145614   -1.6466675    0.1292836    11412.532     1000 
 1226000   0.37908161   -2.2149603    0.5680538   -1.6469065   0.13293354    11312.523     1000 
 1228000   0.38011561   -2.2290999   0.56960324   -1.6594967   0.13835894    11252.936     1000 
 1230000   0.39610973   -2.2471294   0.59357043    -1.653559   0.13916549    11260.766     1000 
 1232000    0.4113655   -2.2469695    0.6164312   -1.6305383    0.1178354    11428.584     1000 
 1234000   0.39849813   -2.2565472   0.59714944   -1.6593978   0.12402208    11431.263     1000 
 1236000   0.39745121   -2.2171761   0.59558065   -1.6215955   0.12882629    11300.376     1000 
 1238000    0.4006198   -2.2109079   0.60032876   -1.6105791   0.13164177    11375.412     1000 
 1240000   0.38791644   -2.2204492   0.58129279   -1.6391564   0.13562581    11348.005     1000 
 1242000   0.39239816   -2.2433485   0.58800864   -1.6553399   0.12858305    11438.668     1000 
 1244000   0.40759163   -2.2285485   0.61077606   -1.6177725   0.13617144    11317.163     1000 
 1246000   0.39853584   -2.2309476   0.59720596   -1.6337416   0.13337176    11332.163     1000 
 1248000   0.39854092     -2.22123   0.59721357   -1.6240165   0.13217628    11401.598     1000 
 1250000   0.40172951   -2.2422996   0.60199168   -1.6403079   0.13613747    11374.856     1000 
 1252000   0.40685171   -2.2370852   0.60966729   -1.6274179   0.12117997    11512.546     1000 
 1254000   0.39887864   -2.2444901   0.59771964   -1.6467705   0.11625408    11503.728     1000 
 1256000   0.38564119    -2.227092   0.57788332   -1.6492087   0.12535027    11328.857     1000 
 1258000   0.41160579   -2.2337058   0.61679127   -1.6169145   0.15671611    11193.764     1000 
 1260000   0.39683865   -2.2443596   0.59466272   -1.6496968   0.12527207    11404.586     1000 
 1262000    0.3890876   -2.2092668   0.58304777    -1.626219   0.13866885    11277.236     1000 
 1264000   0.38496107   -2.2283542   0.57686416     -1.65149   0.13316864    11320.765     1000 
 1266000   0.39194354   -2.2429064    0.5873274    -1.655579    0.1352441    11297.768     1000 
 1268000   0.40133461   -2.2355769   0.60139992    -1.634177    0.1399664    11348.096     1000 
 1270000   0.41064995   -2.2271901   0.61535895   -1.6118311   0.13163259    11337.976     1000 
 1272000   0.38655593   -2.2266343   0.57925406   -1.6473802   0.13341856    11364.269     1000 
 1274000   0.41523698   -2.2223616   0.62223261    -1.600129   0.12065464    11512.728     1000 
 1276000   0.39601881   -2.2267816   0.59343419   -1.6333474   0.13348984    11396.014     1000 
 1278000   0.42785765   -2.2441512   0.64114469   -1.6030066   0.12460878    11492.324     1000 
 1280000   0.40020449   -2.2315963   0.59970644   -1.6318899    0.1297373    11422.365     1000 
 1282000   0.40003646    -2.213351   0.59945463   -1.6138963   0.13830283    11345.682     1000 
 1284000     0.398722   -2.2356664   0.59748491   -1.6381815   0.13642175    11269.211     1000 
 1286000   0.39418457   -2.2004494   0.59068558   -1.6097639   0.12141802    11452.078     1000 
 1288000   0.40080072   -2.2885483   0.60059988   -1.6879484   0.12122512    11489.981     1000 
 1290000   0.38478555   -2.2279207   0.57660115   -1.6513196   0.11918348    11506.176     1000 
 1292000   0.40507767   -2.2567554   0.60700889   -1.6497465   0.12546345    11411.956     1000 
 1294000   0.40448184   -2.2218304   0.60611603   -1.6157144   0.12604918     11417.23     1000 
 1296000   0.40398952   -2.2280551   0.60537829   -1.6226768   0.14319533     11309.62     1000 
 1298000   0.38954118   -2.2241679   0.58372746   -1.6404404   0.11915324     11452.99     1000 
 1300000   0.38611529   -2.2297998   0.57859377   -1.6512061   0.13265038    11315.577     1000 
 1302000   0.40383918   -2.2590392   0.60515302   -1.6538862    0.1276381    11434.016     1000 
 1304000   0.39407914   -2.2136266   0.59052759    -1.623099   0.13651202    11350.016     1000 
 1306000   0.41497327   -2.2080237   0.62183745   -1.5861862   0.13422479    11255.114     1000 
 1308000   0.37985668   -2.2128839   0.56921524   -1.6436687   0.11693311    11460.696     1000 
 1310000   0.39366164   -2.2307769   0.58990197    -1.640875   0.12331869    11430.011     1000 
 1312000   0.40029209   -2.2059507    0.5998377    -1.606113   0.12786267    11357.777     1000 
 1314000   0.39212059   -2.2625067   0.58759271    -1.674914   0.12830527    11474.706     1000 
 1316000   0.39917665   -2.2040089   0.59816622   -1.6058427   0.13828622     11246.36     1000 
 1318000   0.40446742   -2.2094407   0.60609444   -1.6033462   0.12408404    11447.169     1000 
 1320000   0.41759201    -2.204334   0.62576162   -1.5785724   0.12947331    11356.054     1000 
 1322000   0.41141033    -2.205895   0.61649838   -1.5893966   0.13674054    11381.335     1000 
 1324000   0.40098465   -2.2389906   0.60087549   -1.6381151   0.12507563    11436.432     1000 
 1326000   0.40966666    -2.245548   0.61388549   -1.6316626   0.14266716    11217.343     1000 
 1328000    0.4071802   -2.1915316   0.61015954    -1.581372   0.14103963    11176.571     1000 
 1330000    0.4001323    -2.270594   0.59959826   -1.6709958   0.12365811    11362.775     1000 
 1332000   0.41090616   -2.1851145   0.61574288   -1.5693716   0.13460249    11333.664     1000 
 1334000   0.40162944   -2.2254363   0.60184172   -1.6235946   0.13296994    11329.018     1000 
 1336000   0.40181043   -2.2382874   0.60211293   -1.6361745   0.12739785    11419.947     1000 
 1338000   0.40733162   -2.2398925   0.61038643    -1.629506   0.13911741     11248.24     1000 
 1340000   0.38558695   -2.2582729   0.57780205   -1.6804708    0.1302501    11426.211     1000 
 1342000   0.37507673   -2.2335063   0.56205248   -1.6714538   0.11869732     11463.02     1000 
 1344000    0.3947189   -2.2460083   0.59148627    -1.654522   0.12672204    11457.684     1000 
 1346000   0.39692787   -2.2573628   0.59479641   -1.6625664   0.13134302    11369.013     1000 
 1348000    0.4082207   -2.1963088   0.61171871   -1.5845901   0.12872912    11392.084     1000 
 1350000   0.39320272   -2.2199026   0.58921427   -1.6306883   0.12277823    11461.355     1000 
 1352000   0.37912913   -2.2192251     0.568125   -1.6511001   0.11391872     11448.08     1000 
 1354000   0.40136116   -2.2726281    0.6014397   -1.6711884   0.12089519     11480.52     1000 
 1356000   0.41665315   -2.2382744   0.62435475   -1.6139196   0.12125272    11474.799     1000 
 1358000   0.39366837   -2.2622538   0.58991206   -1.6723417    0.1396644    11392.297     1000 
 1360000   0.38989542   -2.1810237   0.58425829   -1.5967654   0.12923942    11309.805     1000 
 1362000   0.40790741   -2.2424969   0.61124925   -1.6312477   0.13155846    11396.177     1000 
 1364000   0.40813309   -2.2323075   0.61158743   -1.6207201   0.13198605    11260.449     1000 
 1366000   0.38852269   -2.1958904   0.58220125   -1.6136891   0.11860513    11447.557     1000 
 1368000   0.41267199   -2.2429645   0.61838897   -1.6245755   0.12651724    11456.087     1000 
 1370000   0.40575311   -2.2051625   0.60802104   -1.5971415   0.12533132    11359.397     1000 
 1372000   0.39054541   -2.1810203   0.58523229    -1.595788   0.13152049    11294.251     1000 
 1374000   0.39013157   -2.2218225   0.58461216   -1.6372104   0.13216859    11342.862     1000 
 1376000    0.3976125   -2.2106697   0.59582233   -1.6148474   0.13276607    11337.045     1000 
 1378000   0.39701199   -2.2149286   0.59492247   -1.6200062   0.12928524    11330.147     1000 
 1380000   0.42419486   -2.2547699   0.63565599   -1.6191139     0.126618    11386.315     1000 
 1382000   0.40672985   -2.2624958   0.60948467   -1.6530111   0.11745101    11445.792     1000 
 1384000   0.40308628   -2.2273488    0.6040248    -1.623324   0.13995178    11297.846     1000 
 1386000   0.42080834   -2.2209888    0.6305813   -1.5904075   0.13436502    11378.054     1000 
 1388000   0.38941979   -2.2466278   0.58354556   -1.6630823    0.1308869    11382.435     1000 
 1390000   0.38516789   -2.2711197   0.57717409   -1.6939456    0.1229642    11502.873     1000 
 1392000   0.40061874    -2.195065   0.60032718   -1.5947378   0.14606848    11178.497     1000 
 1394000   0.39971708   -2.2802664   0.59897604   -1.6812903   0.12498929    11447.696     1000 
 1396000   0.42280182   -2.2465319   0.63356852   -1.6129634   0.13080564    11425.161     1000 
 1398000   0.39282907   -2.2054115   0.58865436   -1.6167571   0.13587957    11372.302     1000 
 1400000   0.39439503   -2.2132204   0.59100095   -1.6222195   0.12859617    11382.207     1000 
 1402000   0.40578988   -2.2354372   0.60807613   -1.6273611   0.14216541     11294.43     1000 
 1404000   0.39269458   -2.2550664   0.58845283   -1.6666135   0.12717808    11384.592     1000 
 1406000   0.39020259   -2.2460311   0.58471858   -1.6613125   0.12391415    11445.932     1000 
 1408000   0.39978164   -2.2152104   0.59907279   -1.6161376   0.13244029    11364.008     1000 
 1410000   0.39046943   -2.2495244   0.58511844    -1.664406   0.12726035    11311.916     1000 
 1412000   0.40912816   -2.2197168   0.61307854   -1.6066383    0.1364913     11350.13     1000 
 1414000   0.41776443   -2.2662032      0.62602   -1.6401832   0.14264313    11330.974     1000 
 1416000   0.38212815   -2.2397524   0.57261903   -1.6671334   0.12744578     11362.39     1000 
 1418000   0.41626603   -2.2466332   0.62377464   -1.6228585   0.13249636    11307.041     1000 
 1420000   0.42369202   -2.1776967   0.63490248   -1.5427942    0.1449968     11316.49     1000 
 1422000   0.40101488   -2.1814873    0.6009208   -1.5805665   0.13015556    11355.355     1000 
 1424000   0.38435751    -2.244376   0.57595973   -1.6684162    0.1183299    11411.206     1000 
 1426000   0.38917764   -2.2515115   0.58318269   -1.6683288   0.11551078     11448.72     1000 
 1428000   0.39344634   -2.1937966   0.58957933   -1.6042172   0.13386828     11193.81     1000 
 1430000   0.40914369   -2.2230699   0.61310182    -1.609968   0.14395446    11255.609     1000 
 1432000   0.40140805   -2.2323784   0.60150996   -1.6308684   0.13423026    11304.851     1000 
 1434000   0.41266646   -2.2280051   0.61838069   -1.6096244   0.13336256    11447.135     1000 
 1436000   0.40418068   -2.2047049   0.60566474   -1.5990401   0.13518447     11295.31     1000 
 1438000   0.41490775   -2.2138079   0.62173926   -1.5920687   0.14639118    11299.518     1000 
 1440000   0.40448081   -2.2239056   0.60611449   -1.6177911   0.12997879    11469.704     1000 
 1442000   0.39286281   -2.2499564   0.58870492   -1.6612515    0.1339661    11331.778     1000 
 1444000   0.39841007    -2.205483   0.59701749   -1.6084655   0.12647761    11385.047     1000 
 1446000   0.38243611   -2.2456811   0.57308052   -1.6726006   0.12179358    11504.924     1000 
 1448000   0.41080627   -2.2207069   0.61559319   -1.6051137     0.136417    11369.521     1000 
 1450000   0.39392029   -2.2073845   0.59028955   -1.6170949   0.13952065     11215.54     1000 
 1452000    0.3925216   -2.2151077   0.58819362   -1.6269141   0.10614387    11517.917     1000 
 1454000   0.40391564   -2.2198487   0.60526759   -1.6145811    0.1384444    11339.214     1000 
 1456000   0.39087487   -2.2527349     0.585726   -1.6670089   0.13025178    11453.644     1000 
 1458000   0.40690209   -2.2230443   0.60974278   -1.6133016   0.13657298    11354.368     1000 
 1460000   0.40798928   -2.2754786   0.61137194   -1.6641067   0.13594622    11331.467     1000 
 1462000   0.39301589   -2.2262076   0.58893432   -1.6372733   0.13016774    11457.361     1000 
 1464000   0.39095412   -2.2428148   0.58584475   -1.6569701    0.1231638    11382.192     1000 
 1466000   0.39768623   -2.2036822   0.59593281   -1.6077494   0.12942858     11352.97     1000 
 1468000    0.3869004    -2.230331   0.57977024   -1.6505607   0.12275993    11426.838     1000 
 1470000   0.39928597   -2.1955971   0.59833003    -1.597267   0.13369128     11323.78     1000 
 1472000   0.39767066   -2.2036494   0.59590949     -1.60774    0.1332676    11370.952     1000 
 1474000   0.39978696   -2.1981063   0.59908076   -1.5990256   0.13130764    11435.728     1000 
 1476000   0.39654576   -2.2135782   0.59422382   -1.6193544   0.12750135     11464.39     1000 
 1478000   0.39641787   -2.2342407   0.59403218   -1.6402086   0.12099878    11491.982     1000 
 1480000   0.40809418   -2.2307704   0.61152913   -1.6192413   0.12586872    11431.311     1000 
 1482000   0.41493931   -2.2288018   0.62178656   -1.6070152   0.13029973    11406.446     1000 
 1484000   0.41239619   -2.2267916    0.6179757   -1.6088159   0.12955859    11341.063     1000 
 1486000   0.40052952   -2.2656148   0.60019349   -1.6654214   0.13071032    11420.146     1000 
 1488000   0.39461576   -2.2488934   0.59133171   -1.6575617   0.13141284    11399.223     1000 
 1490000   0.38237589   -2.2580546   0.57299027   -1.6850644   0.14305028    11288.932     1000 
 1492000   0.40738478   -2.2571484   0.61046609   -1.6466823   0.12518979    11454.369     1000 
 1494000   0.40211907     -2.18693   0.60257543   -1.5843546   0.12969182    11308.122     1000 
 1496000   0.40049254   -2.2038746   0.60013807   -1.6037365   0.13803494    11176.001     1000 
 1498000    0.3888304   -2.2574125   0.58266235   -1.6747502   0.13699067     11430.38     1000 
 1500000    0.4239578   -2.1768774   0.63530076   -1.5415767   0.14537193    11225.892     1000 
 1502000   0.40899197   -2.2523086   0.61287447   -1.6394341   0.11993198    11590.435     1000 
 1504000   0.39804443   -2.2327078   0.59646957   -1.6362382   0.12426044    11411.857     1000 
 1506000   0.41075574   -2.2321426   0.61551748   -1.6166251   0.12619981    11391.715     1000 
 1508000   0.40259827   -2.2382344   0.60329351   -1.6349409   0.12984577    11408.298     1000 
 1510000   0.39921928   -2.2144095   0.59823009   -1.6161794   0.12801678    11262.388     1000 
 1512000   0.40989719   -2.2293317   0.61423094   -1.6151008   0.12698757    11452.609     1000 
 1514000   0.38121472   -2.2286018   0.57125025   -1.6573515   0.12135681    11443.035     1000 
 1516000   0.39205272   -2.2296412     0.587491   -1.6421502   0.12614125    11405.918     1000 
 1518000   0.38034184   -2.2242327   0.56994225   -1.6542905   0.12571125    11372.412     1000 
 1520000   0.40872296   -2.2496439   0.61247136   -1.6371726   0.13615718    11344.753     1000 
 1522000    0.3826024   -2.2949816    0.5733297   -1.7216519   0.12036958    11512.201     1000 
 1524000   0.38080471   -2.2230057   0.57063586   -1.6523699   0.12590934    11459.313     1000 
 1526000   0.40118298   -2.1970051    0.6011727   -1.5958324   0.13189463    11290.327     1000 
 1528000   0.39731649   -2.2023151   0.59537877   -1.6069363   0.13654924    11313.738     1000 
 1530000    0.3931453   -2.2362602   0.58912823    -1.647132   0.12935938    11393.171     1000 
 1532000   0.37820101   -2.2187792   0.56673422   -1.6520449   0.14323137    11215.344     1000 
 1534000   0.40516128   -2.2098608   0.60713417   -1.6027267   0.13260014    11337.792     1000 
 1536000    0.3770832   -2.2420586   0.56505918   -1.6769994   0.13327398    11373.179     1000 
 1538000   0.39422009   -2.2482798    0.5907388    -1.657541   0.12626216    11450.904     1000 
 1540000   0.39465102   -2.2324107   0.59138456   -1.6410262    0.1311182    11339.115     1000 
 1542000   0.41069569   -2.2167904   0.61542749   -1.6013629    0.1289718    11364.137     1000 
 1544000   0.40387419   -2.2459493   0.60520547   -1.6407438   0.12767072    11379.004     1000 
 1546000   0.40779191   -2.2066561   0.61107618   -1.5955799    0.1200052    11390.042     1000 
 1548000   0.39654869   -2.2280982   0.59422822     -1.63387   0.13874715    11243.868     1000 
 1550000    0.3940321   -2.1918033    0.5904571   -1.6013462    0.1381416     11255.07     1000 
 1552000   0.40158671   -2.2258054   0.60177769   -1.6240278   0.12722078    11379.848     1000 
 1554000   0.39066049   -2.2295458   0.58540474   -1.6441411   0.13386626    11257.353     1000 
 1556000   0.39105207   -2.2325967   0.58599153   -1.6466052   0.13984706    11307.672     1000 
 1558000   0.40446453   -2.2315416    0.6060901   -1.6254515   0.14172298    11276.554     1000 
 1560000    0.4066461   -2.1958055   0.60935918   -1.5864463   0.13216195    11402.227     1000 
 1562000   0.39172212   -2.2469431   0.58699559   -1.6599476   0.13296574     11360.26     1000 
 1564000   0.41635399    -2.245841   0.62390646   -1.6219345   0.14740435    11204.986     1000 
 1566000   0.40617587   -2.2416584   0.60865454   -1.6330039   0.13233059    11378.179     1000 
 1568000   0.39227396   -2.1958625   0.58782253   -1.6080399   0.11993051    11383.704     1000 
 1570000    0.4014884   -2.2023896   0.60163036   -1.6007592   0.13669305    11338.577     1000 
 1572000   0.39820443   -2.1995486   0.59670934   -1.6028393   0.12838577     11317.78     1000 
 1574000    0.3986274   -2.2379281   0.59734316   -1.6405849   0.13223047    11363.857     1000 
 1576000   0.39192561   -2.2889698   0.58730053   -1.7016692    0.1204203    11467.531     1000 
 1578000   0.39868154   -2.1898033   0.59742428    -1.592379   0.14143367      11299.4     1000 
 1580000   0.40627768   -2.2175589    0.6088071   -1.6087518   0.12857028    11385.054     1000 
 1582000    0.4056628   -2.2552254    0.6078857   -1.6473397   0.11956904    11505.584     1000 
 1584000    0.3896908   -2.2270732   0.58395166   -1.6431216   0.12695287    11435.499     1000 
 1586000   0.40754099   -2.2737868   0.61070018   -1.6630866    0.1275265    11499.174     1000 
 1588000   0.40466562   -2.2780447   0.60639144   -1.6716532   0.13215909    11407.004     1000 
[...]
 2614000   0.39998812   -2.2060972    0.5993822    -1.606715   0.13427419    11222.139     1000 
 2616000   0.39015911   -2.2422796   0.58465343   -1.6576261   0.14064646    11306.704     1000 
 2618000   0.40782516   -2.2257344     0.611126   -1.6146084   0.14209134    11285.187     1000 
 2620000   0.40803782   -2.2548229   0.61144467   -1.6433782   0.13063468    11382.406     1000 
 2622000   0.39584657   -2.2220552   0.59317608   -1.6288791   0.12948663    11375.641     1000 
 2624000    0.3864754   -2.2048495   0.57913339   -1.6257162   0.12114537    11377.374     1000 
 2626000   0.38782861   -2.2133994   0.58116118   -1.6322382   0.14480455    11232.872     1000 
 2628000   0.38499667   -2.2338566   0.57691751   -1.6569391   0.13060679    11404.846     1000 
 2630000   0.39178432   -2.2154591    0.5870888   -1.6283703   0.12819704    11310.932     1000 
 2632000   0.39649393   -2.2467746   0.59414616   -1.6526285   0.12649087    11433.195     1000 
 2634000   0.40504889    -2.192346   0.60696576   -1.5853802   0.13542821    11301.729     1000 
 2636000   0.40652408   -2.2658817   0.60917634   -1.6567054   0.12760312     11354.48     1000 
 2638000   0.40875887   -2.2294882   0.61252517   -1.6169631   0.12402337    11403.113     1000 
 2640000   0.38390733   -2.2225218   0.57528513   -1.6472367   0.12208254    11514.929     1000 
 2642000   0.40363606   -2.2226734   0.60484864   -1.6178248    0.1403329    11297.713     1000 
 2644000   0.39271761   -2.2334682   0.58848734   -1.6449808   0.12421376    11380.589     1000 
 2646000   0.40222524    -2.258988   0.60273451   -1.6562535   0.13370834    11342.064     1000 
 2648000   0.40287816   -2.1893166   0.60371292   -1.5856037   0.14589918    11205.125     1000 
 2650000   0.40181923   -2.1748464   0.60212612   -1.5727203   0.11689894    11379.646     1000 
 2652000   0.40352644   -2.2020126   0.60468437   -1.5973282   0.13388977    11343.835     1000 
 2654000   0.41706321    -2.211533   0.62496922   -1.5865638   0.13165829    11385.091     1000 
 2656000   0.39979963   -2.2422079   0.59909974   -1.6431082     0.135448    11350.249     1000 
 2658000   0.40040702   -2.2130351   0.60000993   -1.6130252   0.11837609    11433.575     1000 
 2660000   0.41225376   -2.2740404   0.61776226   -1.6562781   0.13329315    11406.196     1000 
 2662000   0.40956375   -2.2398073   0.61373128    -1.626076   0.12901957    11313.096     1000 
 2664000   0.41787239   -2.2502103   0.62618177   -1.6240285   0.14125996    11292.359     1000 
 2666000   0.40817423   -2.2635444   0.61164908   -1.6518953   0.12980085    11350.508     1000 
 2668000   0.40179321   -2.2079056   0.60208712   -1.6058185   0.14061921    11336.902     1000 
 2670000   0.39694382   -2.2359891   0.59482031   -1.6411688   0.13112129    11337.391     1000 
 2672000   0.40579663   -2.2561631   0.60808625   -1.6480768   0.11251956    11494.045     1000 
 2674000   0.39413207   -2.2528384   0.59060691   -1.6622314   0.12799432    11336.514     1000 
 2676000   0.40099309    -2.213285   0.60088815   -1.6123969   0.13079092    11439.033     1000 
 2678000    0.4088691    -2.281776   0.61269035   -1.6690857   0.13857541    11456.858     1000 
 2680000   0.39486921   -2.2222522   0.59171152   -1.6305407   0.12209938    11411.841     1000 
 2682000    0.4071169    -2.229308   0.61006468   -1.6192433   0.13219264    11413.903     1000 
 2684000    0.4080989   -2.2259755    0.6115362   -1.6144393   0.12822471    11414.712     1000 
 2686000   0.41245862    -2.259032   0.61806924   -1.6409628   0.13168164    11340.502     1000 
 2688000   0.38475491   -2.2394826   0.57655524   -1.6629274   0.11494026    11471.536     1000 
 2690000   0.40312781   -2.2342558   0.60408702   -1.6301688   0.13566548    11427.603     1000 
 2692000   0.40641403    -2.222694   0.60901143   -1.6136825   0.13291693    11314.443     1000 
 2694000   0.38919939     -2.25023   0.58321528   -1.6670147   0.13837816    11377.288     1000 
 2696000   0.39705427   -2.2230099   0.59498582    -1.628024   0.12378548    11455.945     1000 
 2698000   0.39230432   -2.2503879   0.58786802   -1.6625199   0.13863195    11286.994     1000 
 2700000   0.38513331   -2.2279479   0.57712226   -1.6508256   0.12318701    11401.492     1000 
 2702000   0.40558763   -2.2477143   0.60777306   -1.6399413   0.13659479    11431.921     1000 
 2704000    0.3837654   -2.2129611   0.57507246   -1.6378887   0.13513159    11284.535     1000 
 2706000   0.40985424   -2.1931633   0.61416657   -1.5789967   0.13814629    11189.994     1000 
 2708000   0.41224564   -2.2185021   0.61775009    -1.600752   0.13797123    11366.457     1000 
 2710000   0.40581485   -2.2114515   0.60811356   -1.6033379   0.13846714    11411.289     1000 
 2712000   0.38299281   -2.2551782   0.57391473   -1.6812635   0.12346982     11389.78     1000 
 2714000   0.42292645   -2.2380062   0.63375528   -1.6042509   0.14271277    11261.499     1000 
 2716000   0.40098912   -2.1765629    0.6008822   -1.5756807   0.13678927    11307.994     1000 
 2718000    0.3921671   -2.2270974   0.58766241    -1.639435   0.12060979    11417.629     1000 
 2720000   0.41958318   -2.1880384    0.6287454    -1.559293   0.12976541    11271.151     1000 
 2722000   0.39998503   -2.2339628   0.59937756   -1.6345852   0.12972452      11297.4     1000 
 2724000    0.4251062   -2.2339654   0.63702164   -1.5969437   0.13487503    11313.502     1000 
 2726000   0.41227245    -2.238484   0.61779026   -1.6206937   0.12836269    11464.993     1000 
 2728000   0.38951636    -2.217039   0.58369026   -1.6333487   0.12429301    11427.333     1000 
 2730000   0.39282787   -2.2235335   0.58865257   -1.6348809   0.11803562    11364.025     1000 
 2732000   0.39853139   -2.2286162    0.5971993   -1.6314169   0.12996411    11511.624     1000 
 2734000   0.39409338   -2.2204574   0.59054893   -1.6299085   0.13385958    11291.498     1000 
 2736000    0.4023173   -2.2310277   0.60287247   -1.6281553   0.11850121    11542.617     1000 
 2738000   0.40191157   -2.2247614   0.60226449   -1.6224969   0.11705469    11387.151     1000 
 2740000   0.39823579   -2.2016861   0.59675633   -1.6049298   0.13796261     11262.88     1000 
 2742000   0.40477386    -2.273047   0.60655363   -1.6664933   0.12722566    11473.187     1000 
 2744000   0.39526205   -2.1958115   0.59230018   -1.6035114    0.1338624    11218.712     1000 
 2746000   0.42426214   -2.2601647   0.63575682   -1.6244079   0.11535305    11472.043     1000 
 2748000   0.41598492   -2.1857542    0.6233534   -1.5624008   0.13138092    11342.367     1000 
 2750000   0.41084942   -2.2231963   0.61565786   -1.6075384   0.12638526    11480.907     1000 
 2752000   0.40238489   -2.2374305   0.60297376   -1.6344568    0.1231894    11388.939     1000 
 2754000   0.39931166    -2.229159   0.59836852   -1.6307905      0.13229    11355.249     1000 
 2756000   0.41259108   -2.2481085   0.61826773   -1.6298408   0.13520071     11408.04     1000 
 2758000   0.39711364   -2.2238554   0.59507478   -1.6287807    0.1322696    11361.074     1000 
 2760000   0.40143199   -2.2940838   0.60154584   -1.6925379   0.11797675    11484.747     1000 
 2762000   0.39390406   -2.2271087   0.59026523   -1.6368435    0.1214704    11444.289     1000 
 2764000   0.36823625    -2.243239   0.55180203   -1.6914369    0.1327559    11351.177     1000 
 2766000   0.40271222    -2.257798   0.60346426   -1.6543337   0.12141248     11387.48     1000 
 2768000   0.41152528   -2.2072738   0.61667064   -1.5906032   0.12549501     11474.54     1000 
 2770000   0.41226482   -2.1908579   0.61777883   -1.5730791   0.12330755    11354.605     1000 
 2772000   0.40408922   -2.2433084    0.6055277   -1.6377807   0.13374542    11365.983     1000 
 2774000   0.40200301   -2.2305475   0.60240151    -1.628146   0.11305431     11466.74     1000 
 2776000   0.41219482   -2.1924911   0.61767394   -1.5748171   0.14009277    11264.173     1000 
 2778000   0.39275923   -2.2266579    0.5885497   -1.6381082   0.12477594    11423.959     1000 
 2780000    0.3952888   -2.1907222   0.59234027   -1.5983819   0.13489071     11207.01     1000 
 2782000   0.40674306   -2.2333859   0.60950447   -1.6238814   0.14171285     11335.79     1000 
 2784000   0.39246746   -2.2076274    0.5881125   -1.6195149   0.12004558    11377.885     1000 
 2786000   0.38673791   -2.2038199   0.57952676   -1.6242931   0.12391705     11348.04     1000 
 2788000    0.3910968   -2.2110148   0.58605856   -1.6249562   0.14133301    11296.087     1000 
 2790000   0.41237385   -2.2192763   0.61794222   -1.6013341   0.13115296    11412.886     1000 
 2792000   0.39621258    -2.246701   0.59372455   -1.6529765   0.12285862     11483.15     1000 
 2794000   0.38853472   -2.2131057   0.58221928   -1.6308864    0.1235086    11335.985     1000 
 2796000   0.39950664   -2.2317357    0.5986607    -1.633075   0.12284676    11445.577     1000 
 2798000    0.4017839   -2.2439788   0.60207317   -1.6419056   0.12671088     11429.88     1000 
 2800000   0.39983528   -2.2247346   0.59915317   -1.6255815   0.12342438    11366.987     1000 
 2802000   0.39740149   -2.2495963   0.59550613   -1.6540901   0.13412353    11377.898     1000 
 2804000   0.40600975   -2.2820915   0.60840562   -1.6736859   0.12821097    11416.491     1000 
 2806000   0.40050241   -2.2395684   0.60015286   -1.6394155   0.12606951    11428.495     1000 
 2808000   0.40726172   -2.2639785   0.61028168   -1.6536968   0.13938974     11350.42     1000 
 2810000   0.40725999   -2.2258636    0.6102791   -1.6155845    0.1284158    11352.533     1000 
 2812000    0.3872785   -2.2140818   0.58033683    -1.633745    0.1343853    11327.267     1000 
 2814000   0.39385583   -2.2373534   0.59019296   -1.6471605   0.12545396     11456.83     1000 
 2816000   0.39573327   -2.2168357    0.5930063   -1.6238294   0.11629559    11441.579     1000 
 2818000   0.41183452   -2.2463823   0.61713403   -1.6292482   0.14146858    11293.682     1000 
 2820000   0.40991973   -2.2128549   0.61426472   -1.5985902   0.13642073    11384.841     1000 
 2822000   0.41758785    -2.202599   0.62575539   -1.5768437   0.13727821    11352.101     1000 
 2824000   0.39648747    -2.257852   0.59413647   -1.6637155   0.12259952    11353.967     1000 
 2826000   0.40899806   -2.2070672    0.6128836   -1.5941836   0.12723978    11306.855     1000 
 2828000   0.40301855   -2.2159136    0.6039233   -1.6119903   0.13871745    11292.047     1000 
 2830000   0.39421738   -2.2422128   0.59073475    -1.651478   0.12851907     11322.74     1000 
 2832000   0.39454294   -2.2443383    0.5912226   -1.6531157   0.12984948    11445.411     1000 
 2834000   0.39238485   -2.2289193    0.5879887   -1.6409306     0.137128    11341.788     1000 
 2836000   0.40068848   -2.2517856   0.60043169   -1.6513539    0.1193322    11421.715     1000 
 2838000   0.40731593   -2.2184799   0.61036292    -1.608117   0.13684371    11300.291     1000 
 2840000   0.37931019   -2.2309028   0.56839632   -1.6625065   0.13429167    11334.827     1000 
 2842000    0.3977173   -2.2495979   0.59597937   -1.6536186   0.12254179    11457.806     1000 
 2844000   0.40620304   -2.2102393   0.60869526    -1.601544   0.13881865    11244.768     1000 
 2846000   0.42133683   -2.1862962   0.63137324    -1.554923   0.14134788    11289.958     1000 
 2848000   0.40000894   -2.2106455    0.5994134   -1.6112321   0.12416826    11348.908     1000 
 2850000   0.39803131   -2.1958384   0.59644991   -1.5993885   0.13950754    11283.856     1000 
 2852000   0.39704718   -2.2067469    0.5949752   -1.6117717    0.1322557    11287.717     1000 
 2854000   0.41088444   -2.2349994   0.61571033    -1.619289   0.13712677    11230.263     1000 
 2856000    0.4150836   -2.1889087   0.62200277   -1.5669059   0.13193504    11291.798     1000 
 2858000   0.39820836   -2.2501406   0.59671523   -1.6534254   0.13590957    11255.652     1000 
 2860000   0.39574634   -2.2223743   0.59302589   -1.6293484   0.12852199    11350.924     1000 
 2862000   0.39313811   -2.2191054   0.58911746   -1.6299879   0.13021234    11316.483     1000 
 2864000   0.40490735   -2.2386743   0.60675366   -1.6319206   0.14243856    11327.469     1000 
 2866000   0.40560113   -2.2334202   0.60779329   -1.6256269   0.13050975    11339.613     1000 
 2868000    0.4111118   -2.2426446   0.61605103   -1.6265936   0.14270788    11255.718     1000 
 2870000    0.4004489   -2.2492098   0.60007268   -1.6491371   0.11971088    11548.328     1000 
 2872000   0.39000305    -2.254965   0.58441957   -1.6705454    0.1267342    11362.928     1000 
 2874000   0.40395348   -2.2077313    0.6053243    -1.602407    0.1271344    11347.483     1000 
 2876000   0.39088646    -2.222146   0.58574336   -1.6364027    0.1265838    11432.454     1000 
 2878000   0.39686946   -2.2670926   0.59470889   -1.6723837   0.12351643    11442.779     1000 
 2880000   0.39505272   -2.2711722   0.59198649   -1.6791857   0.12804835    11452.516     1000 
 2882000   0.40660549   -2.1695421   0.60929832   -1.5602438   0.13215261      11258.7     1000 
 2884000   0.38235844   -2.2643488   0.57296412   -1.6913847   0.11940512    11457.657     1000 
 2886000   0.40497801   -2.2131542   0.60685955   -1.6062946   0.13180701    11413.631     1000 
 2888000   0.40511954   -2.2000529   0.60707163   -1.5929813   0.15196524    11257.006     1000 
 2890000   0.38984574   -2.2166504   0.58418383   -1.6324666   0.12044404    11473.881     1000 
 2892000   0.38662968   -2.2195161   0.57936458   -1.6401515   0.12855151    11403.666     1000 
 2894000   0.40411575     -2.19002   0.60556745   -1.5844525   0.13519212    11254.682     1000 
 2896000   0.40976157   -2.2495521   0.61402772   -1.6355244     0.135744    11353.375     1000 
 2898000   0.41249788   -2.2627063   0.61812807   -1.6445782   0.12980654    11412.864     1000 
 2900000   0.41571665   -2.2276412    0.6229514   -1.6046898   0.12750711    11510.114     1000 
 2902000   0.41003432   -2.2315567   0.61443643   -1.6171203   0.14217729     11342.89     1000 
 2904000    0.4079853   -2.2018457   0.61136596   -1.5904797   0.12499464    11391.736     1000 
 2906000   0.40560435    -2.242146   0.60779812   -1.6343478   0.13576078     11383.15     1000 
 2908000   0.40374273   -2.2211452   0.60500848   -1.6161367   0.12171901    11456.933     1000 
 2910000    0.4018413   -2.2651944   0.60215919   -1.6630352   0.14331975     11338.05     1000 
 2912000    0.4048325   -2.2088537   0.60664151   -1.6022122   0.12846421    11278.507     1000 
 2914000   0.38049825   -2.2332673   0.57017662   -1.6630907   0.13187477     11407.28     1000 
 2916000   0.41760106   -2.1866413   0.62577519   -1.5608661   0.12303715    11441.079     1000 
 2918000   0.40126359   -2.2333742   0.60129349   -1.6320807   0.13212993    11327.524     1000 
 2920000   0.40600959   -2.2090134   0.60840537    -1.600608   0.13155246    11309.667     1000 
 2922000   0.38775681     -2.24145   0.58105358   -1.6603964    0.1201928    11358.596     1000 
 2924000   0.38082945    -2.233116   0.57067294   -1.6624431   0.11638581    11359.289     1000 
 2926000   0.39411372   -2.2266046   0.59057941   -1.6360252   0.12070417    11454.977     1000 
 2928000   0.40313351   -2.2599011   0.60409556   -1.6558056   0.13028941    11426.022     1000 
 2930000   0.40002035   -2.1802792   0.59943049   -1.5808487   0.13047954    11341.531     1000 
 2932000   0.38818845    -2.259649   0.58170039   -1.6779486   0.12851619    11404.491     1000 
 2934000   0.39022154   -2.2403944   0.58474697   -1.6556474   0.13538446     11338.65     1000 
 2936000   0.40378226    -2.237635   0.60506771   -1.6325673   0.12080181    11443.864     1000 
 2938000   0.40529909   -2.2222155   0.60734068   -1.6148748    0.1297105     11329.36     1000 
 2940000   0.39224283   -2.2743748   0.58777587   -1.6865989   0.13376866    11422.951     1000 
 2942000   0.39249201   -2.2275154   0.58814928   -1.6393661   0.14010434    11325.811     1000 
 2944000   0.40576441   -2.2164745   0.60803797   -1.6084365   0.13073456    11349.607     1000 
 2946000   0.42231575   -2.2903695   0.63284015   -1.6575293   0.12861681    11477.773     1000 
 2948000   0.40551799   -2.2605639    0.6076687   -1.6528952   0.12758609     11392.09     1000 
 2950000   0.41178584   -2.2505342   0.61706107   -1.6334731   0.13192648    11400.057     1000 
 2952000   0.41433483   -2.2837789   0.62088074   -1.6628981   0.11736515    11524.115     1000 
 2954000   0.40535254   -2.2440014   0.60742078   -1.6365806   0.12643938    11401.181     1000 
 2956000   0.40020559   -2.2164894   0.59970808   -1.6167813   0.13030759    11516.568     1000 
 2958000   0.38081514   -2.2488396   0.57065149   -1.6781881    0.1220434    11497.086     1000 
 2960000    0.3954175    -2.252751   0.59253313   -1.6602179    0.1271816     11428.97     1000 
 2962000   0.39612587   -2.2245137   0.59359461   -1.6309191   0.11652739    11456.782     1000 
 2964000   0.39098873   -2.2245633   0.58589662   -1.6386667   0.12051553    11441.986     1000 
 2966000   0.39347918   -2.2519365   0.58962856   -1.6623079    0.1270457    11395.014     1000 
 2968000   0.40166052   -2.2118749   0.60188828   -1.6099866   0.13052886    11374.119     1000 
 2970000   0.39439515    -2.185214   0.59100113   -1.5942129   0.13553061    11291.666     1000 
 2972000   0.40242401   -2.2351909   0.60303238   -1.6321585   0.11805066    11506.006     1000 
 2974000   0.39425573   -2.2487099   0.59079222   -1.6579177   0.12183045     11448.81     1000 
 2976000   0.39666612   -2.2293514   0.59440418   -1.6349472   0.12928158     11359.05     1000 
 2978000   0.39700045   -2.1759002   0.59490518   -1.5809951   0.14147088    11307.026     1000 
 2980000   0.39541394   -2.2120647   0.59252779   -1.6195369   0.11891671    11412.199     1000 
 2982000   0.39460313   -2.2569206   0.59131279   -1.6656078   0.14082323    11256.667     1000 
 2984000   0.40047127   -2.1894727    0.6001062   -1.5893665   0.13168289    11370.928     1000 
 2986000   0.42068944   -2.2627141   0.63040313    -1.632311   0.12730235    11426.242     1000 
 2988000   0.41205396   -2.2759358   0.61746286    -1.658473    0.1307474    11449.855     1000 
 2990000   0.40065664   -2.2488212   0.60038398   -1.6484372   0.12536495    11359.606     1000 
 2992000   0.39630146   -2.2256688   0.59385774   -1.6318111   0.12355682    11466.301     1000 
 2994000   0.40645865   -2.2257481   0.60907829   -1.6166699     0.133057    11412.411     1000 
 2996000    0.4071131   -2.1650706   0.61005898   -1.5550116   0.12039471    11361.635     1000 
 2998000   0.41330912   -2.2295495   0.61934372   -1.6102057   0.12237108    11375.776     1000 
 3000000   0.39984714   -2.2572864   0.59917094   -1.6581155   0.12643021    11333.909     1000 
Loop time of 1162.74 on 1 procs for 3000000 steps with 1000 atoms

Performance: 1114613.093 tau/day, 2580.123 timesteps/s
100.0% CPU use with 1 MPI tasks x 1 OpenMP threads

MPI task timing breakdown:
Section |  min time  |  avg time  |  max time  |%varavg| %total
---------------------------------------------------------------
Pair    | 916.88     | 916.88     | 916.88     |   0.0 | 78.86
Neigh   | 143.79     | 143.79     | 143.79     |   0.0 | 12.37
Comm    | 23.889     | 23.889     | 23.889     |   0.0 |  2.05
Output  | 0.018288   | 0.018288   | 0.018288   |   0.0 |  0.00
Modify  | 72.798     | 72.798     | 72.798     |   0.0 |  6.26
Other   |            | 5.356      |            |       |  0.46

Nlocal:        1000.00 ave        1000 max        1000 min
Histogram: 1 0 0 0 0 0 0 0 0 0
Nghost:        2186.00 ave        2186 max        2186 min
Histogram: 1 0 0 0 0 0 0 0 0 0
Neighs:        27779.0 ave       27779 max       27779 min
Histogram: 1 0 0 0 0 0 0 0 0 0

Total # of neighbors = 27779
Ave neighs/atom = 27.779000
Neighbor list builds = 150000
Dangerous builds not checked

Total wall time: 0:19:22
