LAMMPS (29 Sep 2021 - Update 2)
OMP_NUM_THREADS environment is not set. Defaulting to 1 thread. (src/comm.cpp:98)
  using 1 OpenMP thread(s) per MPI task
# ----------------------- Inicialização -----------------------

units			lj
atom_style 		atomic
dimension 		3
boundary 		p p p

# -------------------- Criação dos Átomos ---------------------

read_data 		topologia.txt
Reading data file ...
  orthogonal box = (0.0000000 0.0000000 0.0000000) to (21.540000 21.540000 21.540000)
  1 by 1 by 1 MPI processor grid
  reading atoms ...
  1000 atoms
  read_data CPU = 0.005 seconds

velocity 		all create ${temp} 87287 rot yes dist gaussian
velocity 		all create 0.58 87287 rot yes dist gaussian

# ------------------ Interação Interatômica -------------------

pair_style		table linear 1000
pair_coeff		1 1 force.table AA 5.0
WARNING: 2 of 1000 force values in table AA are inconsistent with -dE/dr.
WARNING:  Should only be flagged at inflection points (src/pair_table.cpp:465)
pair_coeff		1 2 force.table AB 5.0
WARNING: 1 of 1000 force values in table AB are inconsistent with -dE/dr.
WARNING:  Should only be flagged at inflection points (src/pair_table.cpp:465)
pair_coeff		2 2 force.table BB 5.0
pair_write		1 1 1000 r 0.008 5.0 table.check AA
Appending to table file table.check with DATE: 2023-06-15
Neighbor list info ...
  update every 1 steps, delay 10 steps, check yes
  max neighbors/atom: 2000, page size: 100000
  master list distance cutoff = 5.3
  ghost atom cutoff = 5.3
  binsize = 2.65, bins = 9 9 9
  1 neighbor lists, perpetual/occasional/extra = 1 0 0
  (1) pair table, perpetual
      attributes: half, newton on
      pair build: half/bin/atomonly/newton
      stencil: half/bin/3d
      bin: standard
pair_write		1 2 1000 r 0.008 5.0 table.check AB
Appending to table file table.check with DATE: 2023-06-15
pair_write		2 2 1000 r 0.008 5.0 table.check BB
Appending to table file table.check with DATE: 2023-06-15

neighbor 		0.3 bin
neigh_modify		every 20 delay 0 check no

# ------------------------- Ensemble --------------------------------------

fix 1			all npt temp ${temp} ${temp} 0.5 iso ${press} ${press} 5
fix 1			all npt temp 0.58 ${temp} 0.5 iso ${press} ${press} 5
fix 1			all npt temp 0.58 0.58 0.5 iso ${press} ${press} 5
fix 1			all npt temp 0.58 0.58 0.5 iso 0.13 ${press} 5
fix 1			all npt temp 0.58 0.58 0.5 iso 0.13 0.13 5

# ---------------------- Função de Distribuição Radial -----------------------

#compute RDF 		all rdf 2000 1 1 1 2 2 2
#fix 2 			all ave/time 1 2000 2000 c_RDF[*] file rdf.data mode vector

# ------------------------- Execução ---------------------------

timestep 		0.005
thermo_style		custom step temp pe ke etotal press vol atoms
thermo			2000
run			3000000
Per MPI rank memory allocation (min/avg/max) = 2.670 | 2.670 | 2.670 Mbytes
Step Temp PotEng KinEng TotEng Press Volume Atoms 
       0         0.58  -0.99052333      0.86913  -0.12139333    0.1270775    9993.9483     1000 
    2000   0.56313072   -1.7425062   0.84385138  -0.89865482   0.13498195    11484.147     1000 
    4000   0.56266338   -1.7141282   0.84315108  -0.87097715   0.12042808    11494.142     1000 
    6000    0.6046056   -1.7122713   0.90600149  -0.80626979   0.13419235    11368.804     1000 
    8000    0.5864861   -1.6403215   0.87884942  -0.76147204   0.13581163    11481.321     1000 
   10000   0.61442933   -1.7313279   0.92072234   -0.8106056   0.11867448    11516.025     1000 
   12000   0.59174829   -1.7156978   0.88673482  -0.82896293   0.12491838    11448.117     1000 
   14000   0.61584789   -1.6986417   0.92284807  -0.77579368   0.13342803    11562.393     1000 
   16000   0.59017848   -1.7102777   0.88438246  -0.82589519   0.13696911    11393.065     1000 
   18000   0.55594117   -1.7182674   0.83307784  -0.88518957   0.11524537    11571.918     1000 
   20000   0.58654445   -1.6790051   0.87893686   -0.8000682   0.12972714    11551.924     1000 
   22000   0.57089135   -1.7168378   0.85548069   -0.8613571   0.11457346    11638.001     1000 
   24000   0.59816278   -1.7301922   0.89634692  -0.83384529   0.12676935    11434.662     1000 
   26000   0.57125548   -1.7039746   0.85602634  -0.84794827   0.12663316    11563.676     1000 
   28000   0.59717849   -1.7207859   0.89487197  -0.82591393    0.1349331    11612.804     1000 
   30000   0.56905917   -1.7083206   0.85273516  -0.85558541   0.13747721    11414.989     1000 
   32000    0.5933769   -1.7251103   0.88917528  -0.83593506   0.12449352    11586.296     1000 
   34000    0.5780448   -1.7204627   0.86620013  -0.85426259   0.13314885     11602.99     1000 
   36000   0.60477677   -1.6676813   0.90625799   -0.7614233   0.13173513    11401.805     1000 
   38000   0.57498843   -1.7336816   0.86162016  -0.87206147   0.11872296    11530.637     1000 
   40000   0.58059949   -1.7034377   0.87002834  -0.83340932   0.12773155    11511.638     1000 
   42000   0.58946319   -1.7177856   0.88331059  -0.83447502   0.12691628    11502.191     1000 
   44000   0.55604645   -1.6878538   0.83323561  -0.85461816   0.12218481    11393.837     1000 
   46000   0.59767724   -1.7235896   0.89561934  -0.82797025     0.128739    11468.432     1000 
   48000   0.60136091   -1.6690848   0.90113933  -0.76794545   0.14689974    11272.735     1000 
   50000    0.5745022   -1.7221255   0.86089154  -0.86123394   0.12382518    11519.142     1000 
   52000    0.5741391   -1.7090096   0.86034745  -0.84866217   0.12417895    11599.488     1000 
   54000   0.58899569   -1.7439941   0.88261005  -0.86138405   0.11767646    11666.149     1000 
   56000   0.57222704   -1.7146931   0.85748222  -0.85721093   0.13493284    11405.224     1000 
   58000     0.562741    -1.735451    0.8432674  -0.89218364   0.12454818    11528.213     1000 
   60000   0.60493636   -1.7312302   0.90649714  -0.82473307   0.12427694    11634.918     1000 
   62000   0.58614315   -1.7668332   0.87833551  -0.88849772    0.1197725    11673.981     1000 
   64000   0.58180252   -1.7292713   0.87183107  -0.85744025   0.12528715     11611.99     1000 
   66000   0.57564013    -1.721785   0.86259674  -0.85918828   0.13618996     11442.17     1000 
   68000   0.56048733   -1.6857963   0.83989026  -0.84590607   0.14224338    11439.087     1000 
   70000   0.58423483   -1.6737604   0.87547589  -0.79828453   0.13885385    11306.185     1000 
   72000   0.58481214   -1.6911143   0.87634099  -0.81477328   0.13165362    11554.961     1000 
   74000   0.56811609   -1.7123528   0.85132196  -0.86103086   0.14556042    11414.269     1000 
   76000   0.60105923   -1.7364082   0.90068726  -0.83572094   0.13209928    11468.365     1000 
   78000   0.55873221   -1.7083622   0.83726022  -0.87110199   0.12614205     11636.68     1000 
   80000    0.5898502   -1.7340357   0.88389053   -0.8501452   0.11931358    11657.704     1000 
   82000   0.57049244   -1.7377376   0.85488293   -0.8828547   0.12217551    11511.134     1000 
   84000   0.59048742   -1.7474801   0.88484539  -0.86263467   0.13459831    11524.795     1000 
   86000   0.58980162   -1.7256004   0.88381772  -0.84178269   0.13586074    11428.727     1000 
   88000   0.56028482   -1.7125189    0.8395868  -0.87293212   0.13175956    11492.677     1000 
   90000   0.57730496   -1.6938566   0.86509148  -0.82876515   0.12091011     11494.29     1000 
   92000   0.56558508   -1.7389222   0.84752925  -0.89139299   0.11750672    11490.794     1000 
   94000   0.57616707   -1.7209212   0.86338636  -0.85753484   0.14381782    11245.923     1000 
   96000   0.57075335   -1.7216647    0.8552739  -0.86639077   0.13629656     11409.43     1000 
   98000   0.59904433   -1.7247557   0.89766792   -0.8270878   0.12529254    11553.477     1000 
  100000   0.59287867   -1.7114938   0.88842868   -0.8230651    0.1202655    11503.213     1000 
  102000   0.58293718   -1.7129823   0.87353136  -0.83945095   0.12232538    11608.476     1000 
  104000   0.56974997   -1.7580986   0.85377032  -0.90432832   0.12948983     11504.72     1000 
  106000   0.55591164   -1.7631607    0.8330336  -0.93012711   0.13530388    11550.117     1000 
  108000   0.56186208   -1.7426509   0.84195033  -0.90070053   0.12703992    11536.677     1000 
  110000   0.60002518   -1.6775357   0.89913774  -0.77839801   0.13831402    11394.612     1000 
  112000   0.57277309    -1.754045   0.85830048  -0.89574454   0.12364168     11545.01     1000 
  114000   0.56140326   -1.7331451   0.84126278  -0.89188236   0.11880387    11659.653     1000 
  116000   0.55220027   -1.7183902   0.82747211  -0.89091811   0.13504634    11570.309     1000 
  118000   0.58299043   -1.7358681   0.87361115  -0.86225697    0.1290604    11646.821     1000 
  120000   0.56927533   -1.7104178   0.85305908  -0.85735876   0.12135729    11382.074     1000 
  122000    0.5889826   -1.7444894   0.88259043  -0.86189895   0.13493263    11475.403     1000 
  124000   0.59720771   -1.6591423   0.89491576  -0.76422652   0.13254593    11482.462     1000 
  126000   0.56139094   -1.7224225   0.84124432  -0.88117822    0.1381898    11393.698     1000 
  128000   0.58542333   -1.6847846   0.87725686  -0.80752777   0.14542388    11293.657     1000 
  130000   0.57385745   -1.6952163   0.85992539  -0.83529092    0.1254357    11442.553     1000 
  132000   0.59448926   -1.7220376   0.89084216  -0.83119541   0.13534104    11455.625     1000 
  134000     0.587338   -1.6677334     0.880126   -0.7876074   0.12572951    11528.051     1000 
  136000   0.56174659   -1.7027489   0.84177727  -0.86097166   0.13070472    11286.826     1000 
  138000   0.59171211   -1.7298678    0.8866806  -0.84318717    0.1261093     11500.45     1000 
  140000   0.57453239   -1.7443347   0.86093679  -0.88339795   0.12268069    11507.444     1000 
  142000    0.5751004   -1.6873672   0.86178795   -0.8255792   0.12488174    11579.576     1000 
  144000   0.59209271   -1.7291213   0.88725093  -0.84187041   0.13837907     11449.82     1000 
  146000   0.57020514   -1.6906815   0.85445241  -0.83622907   0.13274901    11533.413     1000 
  148000   0.57950125   -1.7898552   0.86838262  -0.92147256   0.13168068    11320.648     1000 
  150000   0.58377062   -1.7372497   0.87478027  -0.86246938   0.12306375     11636.26     1000 
  152000   0.57411112   -1.7155287   0.86030552  -0.85522323   0.13755265     11419.58     1000 
  154000   0.60969866   -1.7079273   0.91363344  -0.79429384   0.13820794    11442.275     1000 
  156000   0.57503558   -1.6759339   0.86169081  -0.81424313   0.13017825    11390.061     1000 
  158000   0.56241992   -1.6429811   0.84278625  -0.80019484   0.13257339     11151.22     1000 
  160000   0.57546901   -1.6995856   0.86234032  -0.83724527   0.12436206    11491.405     1000 
  162000   0.59940392   -1.7652685   0.89820677   -0.8670617     0.115434    11775.842     1000 
  164000   0.57728298   -1.6903315   0.86505854  -0.82527296   0.12943079    11527.786     1000 
  166000   0.57680638   -1.7193935   0.86434437   -0.8550491   0.13806665     11362.97     1000 
  168000   0.58748078   -1.7652795   0.88033995  -0.88493959   0.13545983    11448.184     1000 
  170000   0.60305741   -1.7118113   0.90368153   -0.8081298   0.12963227    11632.301     1000 
  172000   0.57833445   -1.7134713   0.86663418  -0.84683715   0.13365405    11491.173     1000 
  174000   0.58125094   -1.7113029   0.87100454  -0.84029835   0.12294832    11516.011     1000 
  176000   0.60934528   -1.7115256    0.9131039  -0.79842166   0.13538717    11584.862     1000 
  178000   0.59711588   -1.7277998   0.89477814  -0.83302164   0.12629669    11636.689     1000 
  180000   0.57993329   -1.7266575   0.86903004  -0.85762744   0.14142601     11404.48     1000 
  182000   0.57888713   -1.6400469   0.86746237  -0.77258448    0.1331293    11460.327     1000 
  184000   0.58125508   -1.7111655   0.87101074  -0.84015471   0.12784571    11447.691     1000 
  186000   0.59978033   -1.6994875   0.89877083  -0.80071664    0.1314145    11595.004     1000 
  188000     0.606297    -1.715224   0.90853605  -0.80668791   0.13016168    11524.651     1000 
  190000   0.58917375   -1.7192167   0.88287686  -0.83633986   0.12417601    11617.055     1000 
  192000   0.58450424   -1.7294204    0.8758796   -0.8535408   0.13250748    11362.892     1000 
  194000   0.58582249   -1.7308571     0.877855  -0.85300214   0.13316696    11481.786     1000 
  196000   0.62274876    -1.697626   0.93318902  -0.76443693   0.13406909    11439.092     1000 
  198000   0.56183215   -1.7439981   0.84190548  -0.90209266   0.13937379    11310.259     1000 
  200000   0.56282367   -1.7254416   0.84339127  -0.88205029   0.12787831    11517.818     1000 
  202000   0.55589175   -1.6797206   0.83300378  -0.84671685   0.13038664    11367.554     1000 
  204000   0.58315669   -1.6930411    0.8738603  -0.81918079   0.11627419    11622.994     1000 
  206000   0.56927574   -1.7153702    0.8530597  -0.86231052   0.11984441    11476.715     1000 
  208000    0.5879686   -1.7204365   0.88107095  -0.83936559   0.13236328    11592.213     1000 
  210000   0.59942644   -1.7365849   0.89824051  -0.83834443   0.13609476    11530.064     1000 
  212000      0.58117    -1.743787   0.87088325  -0.87290373   0.14247696    11380.612     1000 
  214000   0.59432766   -1.7394451       0.8906  -0.84884508    0.1210554    11766.423     1000 
  216000   0.59840518   -1.7249487   0.89671016  -0.82823853   0.13949233    11451.044     1000 
  218000   0.58276956   -1.6732124   0.87328019  -0.79993221   0.14793328    11261.335     1000 
  220000    0.5675335   -1.7580767   0.85044895  -0.90762777   0.12882046    11501.661     1000 
  222000   0.56595995   -1.7545422   0.84809098  -0.90645126   0.12238215    11647.162     1000 
  224000   0.59460219   -1.7112469   0.89101139  -0.82023549    0.1388362     11424.25     1000 
  226000   0.59487495   -1.7376338   0.89142011  -0.84621366   0.12542922    11640.816     1000 
  228000   0.59379661   -1.7172474   0.88980421  -0.82744324   0.13587704    11267.128     1000 
  230000   0.60108027   -1.7387681   0.90071879  -0.83804931   0.13322537    11548.873     1000 
  232000    0.5516205    -1.760008   0.82660332  -0.93340471   0.12333643    11475.791     1000 
  234000   0.56809642   -1.6349972   0.85129248  -0.78370472   0.13252001    11375.729     1000 
  236000   0.60190162   -1.7199682   0.90194957  -0.81801868   0.13644312    11415.927     1000 
  238000   0.58774006   -1.7133234   0.88072849  -0.83259496    0.1258756     11576.68     1000 
  240000   0.57735389   -1.6983524    0.8651648  -0.83318763   0.13069098    11383.561     1000 
  242000   0.57350156   -1.6911567   0.85939209  -0.83176457   0.12514475     11533.35     1000 
  244000   0.60042172   -1.6890113   0.89973195  -0.78927937   0.12554141    11329.403     1000 
  246000    0.5900225   -1.7121141   0.88414871  -0.82796542   0.12896164    11636.412     1000 
  248000   0.56158866   -1.6877834   0.84154061  -0.84624281   0.13240416    11364.359     1000 
  250000   0.58747316   -1.7188017   0.88032852  -0.83847316   0.13159057    11550.561     1000 
  252000   0.57652007   -1.6831092   0.86391532  -0.81919388   0.13740916    11426.499     1000 
  254000   0.56599494   -1.7240791   0.84814342  -0.87593564   0.13921477    11333.452     1000 
  256000   0.57805681    -1.683066   0.86621812  -0.81684785   0.12445154    11494.505     1000 
  258000   0.56085816   -1.7421325   0.84044595  -0.90168655    0.1254836    11417.762     1000 
  260000   0.59007912   -1.6906644   0.88423356  -0.80643082   0.14017889    11487.069     1000 
  262000   0.58203039    -1.684412   0.87217254   -0.8122395   0.13206763    11324.948     1000 
  264000   0.56846696   -1.6995254   0.85184774  -0.84767768    0.1306436    11406.406     1000 
  266000   0.58890071   -1.7070782   0.88246772  -0.82461044   0.13045664    11542.966     1000 
  268000   0.59013582   -1.7299177   0.88431852  -0.84559921   0.12923944    11672.376     1000 
  270000   0.57489799   -1.6651381   0.86148464   -0.8036535   0.12935751    11534.804     1000 
  272000   0.59392632   -1.7501855    0.8899986  -0.86018691   0.11421176    11730.893     1000 
  274000   0.57491193    -1.723422   0.86150553   -0.8619165   0.14465263    11493.422     1000 
  276000   0.55992695   -1.6968167   0.83905054  -0.85776617   0.13389516    11435.979     1000 
  278000   0.61842769   -1.6941142    0.9267139  -0.76740034   0.12878626    11547.367     1000 
  280000   0.60456737   -1.6732334   0.90594421  -0.76728921   0.13101483    11501.536     1000 
  282000   0.58008484    -1.756108   0.86925713  -0.88685082   0.13886896    11431.115     1000 
  284000   0.56549664   -1.6951422   0.84739672  -0.84774544   0.12151729    11435.206     1000 
  286000   0.57370177   -1.7126208   0.85969211  -0.85292865   0.13440207    11439.141     1000 
  288000   0.57402446   -1.6997618   0.86017565  -0.83958616   0.13767987    11476.792     1000 
  290000   0.60928071   -1.7014078   0.91300714  -0.78840065   0.13352529    11523.961     1000 
  292000   0.58030415   -1.7333886   0.86958577  -0.86380283   0.12672991    11476.433     1000 
  294000   0.58271479   -1.7056888   0.87319811  -0.83249073   0.13021355    11440.048     1000 
  296000   0.57782525   -1.6956254   0.86587114  -0.82975425   0.11880329    11529.156     1000 
  298000   0.57104162   -1.7338176   0.85570587  -0.87811175   0.13235004    11572.515     1000 
  300000   0.58070282   -1.7217205   0.87018317  -0.85153728    0.1343654    11479.413     1000 
  302000    0.5642823   -1.7959144   0.84557703  -0.95033735   0.11173081     11565.02     1000 
  304000   0.57039036   -1.6896513   0.85472995   -0.8349213   0.13300536    11450.471     1000 
  306000   0.58525689   -1.6951136   0.87700745  -0.81810617   0.13496738    11414.764     1000 
  308000   0.54983869   -1.7167813   0.82393327  -0.89284799   0.12613299    11515.627     1000 
  310000   0.56970024   -1.7430415   0.85369581  -0.88934568   0.11660133    11576.232     1000 
  312000   0.56605367   -1.6862469   0.84823142  -0.83801544   0.13488508    11352.235     1000 
  314000   0.58733757   -1.7201468   0.88012534  -0.84002145   0.13538892    11371.969     1000 
  316000   0.58737007    -1.775797   0.88017405  -0.89562293   0.13446775     11494.18     1000 
  318000   0.58337498   -1.6909287   0.87418741  -0.81674132   0.12782513    11480.789     1000 
  320000   0.58079657   -1.6738663   0.87032366  -0.80354268   0.13158877    11592.395     1000 
  322000   0.57824025   -1.7173471   0.86649301  -0.85085412   0.14114902    11449.912     1000 
  324000   0.58888351   -1.7285979   0.88244194    -0.846156   0.14416612    11360.608     1000 
  326000   0.56612208   -1.7471725   0.84833394  -0.89883861   0.12378574    11527.779     1000 
  328000   0.59766596   -1.7773369   0.89560244  -0.88173442   0.13719725    11372.768     1000 
  330000   0.58124567   -1.7472319   0.87099663  -0.87623523   0.12891497    11525.457     1000 
  332000   0.59581435    -1.689005    0.8928278  -0.79617723   0.15202341    11242.654     1000 
  334000   0.60812618   -1.7094207   0.91127708  -0.79814357   0.12939424    11603.992     1000 
  336000   0.58553826     -1.72565   0.87742908  -0.84822089   0.12090663    11431.832     1000 
  338000   0.55761841   -1.7052618   0.83559118  -0.86967066   0.13401918    11346.788     1000 
  340000   0.57742964   -1.6409829   0.86527831  -0.77570457   0.12807444    11579.249     1000 
  342000   0.54727903   -1.7049807   0.82009763  -0.88488305   0.12714615    11411.829     1000 
  344000   0.58590028   -1.7049937   0.87797157  -0.82702212   0.14952694    11187.516     1000 
  346000   0.57071804   -1.7313965   0.85522098  -0.87617555   0.12347264    11599.477     1000 
  348000   0.56043159   -1.7381837   0.83980673  -0.89837692   0.12487046    11577.609     1000 
  350000   0.57998442   -1.7068383   0.86910666  -0.83773166   0.13976648    11312.334     1000 
  352000   0.58894288   -1.6909064    0.8825309  -0.80837551   0.12972442    11581.713     1000 
  354000   0.56337437   -1.7018116    0.8442165  -0.85759512   0.11968717    11675.084     1000 
  356000   0.54638034   -1.6881927   0.81875094  -0.86944178   0.13020929    11491.971     1000 
  358000   0.57086265   -1.7039863   0.85543768  -0.84854865   0.14184722    11274.409     1000 
  360000   0.57286437   -1.7338255   0.85843726   -0.8753882    0.1208392    11538.583     1000 
  362000   0.60672015   -1.6341871   0.90917014  -0.72501699   0.13749996    11234.395     1000 
  364000   0.58833709   -1.6475715   0.88162313  -0.76594836   0.12073582     11537.93     1000 
  366000   0.57481864   -1.7323236   0.86136573   -0.8709579   0.12748003    11695.446     1000 
  368000   0.58101681   -1.6890204   0.87065369  -0.81836673   0.13211551    11345.195     1000 
  370000   0.56149945   -1.7006384   0.84140692  -0.85923152   0.11772007    11399.727     1000 
  372000   0.58891395   -1.6567964   0.88248756  -0.77430889   0.12171547    11467.361     1000 
  374000   0.55236101   -1.6948228   0.82771298  -0.86710984   0.12709722    11242.198     1000 
  376000   0.57957963   -1.7288032   0.86850008  -0.86030316   0.14579822    11362.397     1000 
  378000   0.59043604    -1.661542   0.88476841  -0.77677361   0.14301767     11330.56     1000 
  380000   0.59371004   -1.6352035   0.88967449  -0.74552906   0.14037045     11360.34     1000 
  382000   0.60145454   -1.7464508   0.90127963  -0.84517115   0.12434072    11461.213     1000 
  384000   0.57881895   -1.6413487   0.86736019  -0.77398849   0.13947222    11402.443     1000 
  386000   0.59283267   -1.6965181   0.88835975  -0.80815836   0.12124346    11632.553     1000 
  388000   0.56129686    -1.717983   0.84110334   -0.8768797   0.13020977    11438.671     1000 
  390000   0.59789662   -1.7036686   0.89594809   -0.8077205   0.12177657    11555.504     1000 
  392000   0.58045941   -1.7275647   0.86981842  -0.85774628   0.12495447    11585.909     1000 
  394000    0.5650329   -1.7138399    0.8467018  -0.86713809   0.13117908    11533.907     1000 
  396000   0.59886812    -1.697441   0.89740388  -0.80003716    0.1377283    11559.935     1000 
  398000   0.58012104   -1.6819246   0.86931138  -0.81261321   0.12535902    11572.977     1000 
  400000   0.57069589   -1.7119929   0.85518779  -0.85680506   0.12905798    11455.177     1000 
  402000   0.55822479   -1.7066462   0.83649985  -0.87014635   0.12736081    11455.132     1000 
  404000   0.54380293   -1.7317082   0.81488869  -0.91681952   0.12857682    11374.191     1000 
  406000   0.59250387    -1.758648   0.88786704    -0.870781   0.11812318    11533.432     1000 
  408000   0.55983931   -1.7153159    0.8389192  -0.87639673   0.11767293    11641.239     1000 
  410000   0.60856323   -1.7384613   0.91193199  -0.82652935   0.13125573    11502.176     1000 
  412000   0.57662935   -1.6881795   0.86407908  -0.82410043   0.13043528    11498.786     1000 
  414000   0.61584744   -1.6393601    0.9228474  -0.71651273   0.13141727    11443.256     1000 
  416000   0.58409262   -1.6723362   0.87526279  -0.79707339   0.13098805     11412.49     1000 
  418000   0.57395009   -1.7136405   0.86006421  -0.85357624   0.13212155    11515.932     1000 
  420000   0.56213219   -1.6544918   0.84235508  -0.81213674   0.12821348     11384.97     1000 
  422000   0.59629182   -1.7000045    0.8935433  -0.80646119   0.13486696    11468.734     1000 
  424000   0.61020761   -1.6901935    0.9143961  -0.77579737   0.13510476    11451.992     1000 
  426000   0.59282827   -1.7338418   0.88835316   -0.8454886   0.13538098    11556.035     1000 
  428000   0.58713065   -1.7843478   0.87981528  -0.90453252   0.12121836    11460.904     1000 
  430000   0.58585978   -1.7082395   0.87791088  -0.83032865   0.14054147    11374.671     1000 
  432000   0.58350683   -1.7107535   0.87438499  -0.83636852   0.14985875    11300.611     1000 
  434000   0.58036121     -1.69147   0.86967127  -0.82179874   0.13275076    11419.274     1000 
  436000   0.57829554   -1.7474471   0.86657587   -0.8808712   0.12802983    11530.453     1000 
  438000   0.59267933   -1.6981193   0.88812997  -0.80998929   0.13435467    11498.441     1000 
  440000   0.59051084   -1.7523796    0.8848805  -0.86749914   0.12996515    11485.987     1000 
  442000   0.57712154   -1.6902131   0.86481663   -0.8253965   0.14402108    11207.689     1000 
  444000   0.57104782   -1.7213912   0.85571515  -0.86567603   0.13040806    11419.215     1000 
  446000   0.55732573   -1.7310429    0.8351526  -0.89589026   0.12299252    11544.436     1000 
  448000   0.57608227   -1.7385575   0.86325928  -0.87529817   0.13445498    11418.814     1000 
  450000   0.55409898   -1.7807883   0.83031732  -0.95047095   0.12374317    11658.555     1000 
  452000   0.56150865   -1.7365196   0.84142071  -0.89509891   0.13060729    11529.717     1000 
  454000    0.5805099   -1.7195881   0.86989408    -0.849694    0.1309613    11544.216     1000 
  456000   0.56066705   -1.7220132   0.84015958  -0.88185359   0.13259086     11608.82     1000 
  458000   0.58076568   -1.7229493   0.87027736  -0.85267194   0.13466279    11505.515     1000 
  460000   0.59223629   -1.6553791   0.88746608  -0.76791303   0.13323972    11431.223     1000 
  462000   0.58235836   -1.7043047     0.872664  -0.83164073   0.13265122    11450.893     1000 
  464000   0.57783502    -1.747609   0.86588578  -0.88172318   0.11808977     11559.78     1000 
  466000   0.59919825   -1.6803546   0.89789858  -0.78245605   0.14515487    11177.072     1000 
  468000    0.6018939   -1.7513913   0.90193801   -0.8494533   0.12829119    11642.905     1000 
  470000   0.56621434   -1.7633507   0.84847219   -0.9148785   0.11469712    11606.504     1000 
  472000   0.58820742   -1.7507599   0.88142881  -0.86933108   0.12736039    11392.901     1000 
  474000   0.57585817   -1.7248893   0.86292347   -0.8619658   0.11710248    11707.701     1000 
  476000    0.5786049    -1.750105   0.86703944   -0.8830656   0.12618148    11424.706     1000 
  478000    0.5865454   -1.6819137   0.87893828  -0.80297544   0.13829629    11283.553     1000 
  480000   0.58244887   -1.6401559   0.87279963  -0.76735623    0.1373504    11318.004     1000 
  482000   0.58378918   -1.6981003   0.87480809  -0.82329216   0.12992022    11320.545     1000 
  484000   0.60661794   -1.6849107   0.90901699  -0.77589376   0.12904321    11323.345     1000 
  486000   0.55454117   -1.6957691   0.83097994  -0.86478915   0.13525875    11307.725     1000 
  488000   0.58251167   -1.7623121   0.87289374  -0.88941838   0.11420494    11626.941     1000 
  490000   0.57270487   -1.7250766   0.85819825  -0.86687834   0.13008229    11448.027     1000 
  492000   0.57832387   -1.7014325   0.86661831  -0.83481423   0.13430914    11445.687     1000 
  494000   0.57813449   -1.7418989   0.86633454  -0.87556441   0.12663854    11567.973     1000 
  496000   0.57596225   -1.7253097   0.86307943  -0.86223027   0.12892426    11447.209     1000 
  498000   0.58412829   -1.6653895   0.87531624  -0.79007326   0.13641124     11306.72     1000 
  500000   0.58061829   -1.7421339   0.87005651  -0.87207743   0.13698508    11310.115     1000 
  502000   0.62024085   -1.6963752   0.92943091  -0.76694429   0.13236087     11590.76     1000 
  504000   0.61256023   -1.6900422    0.9179215  -0.77212072   0.14341116    11328.126     1000 
  506000   0.56270293   -1.6760677   0.84321034  -0.83285738    0.1332691    11506.634     1000 
  508000   0.58179595   -1.7124654   0.87182123  -0.84064416   0.13969794    11217.767     1000 
  510000   0.60336538   -1.7059586   0.90414302  -0.80181556   0.13278149    11459.452     1000 
  512000   0.56646657   -1.7568938   0.84885016  -0.90804368   0.13173692    11363.429     1000 
  514000    0.5521079   -1.7624416   0.82733368  -0.93510788   0.11952702    11516.469     1000 
  516000   0.56938391   -1.7188883   0.85322179  -0.86566656   0.14476259    11382.113     1000 
  518000   0.58646549   -1.6794234   0.87881853  -0.80060485   0.12489825    11514.207     1000 
  520000   0.59417091   -1.7172603   0.89036511   -0.8268952   0.12159708    11670.628     1000 
  522000   0.59373889    -1.667292   0.88971773  -0.77757429   0.14331931    11288.247     1000 
  524000   0.58145209   -1.7440584   0.87130596  -0.87275246   0.11947821    11609.002     1000 
  526000   0.58076697   -1.6855367    0.8702793  -0.81525745   0.12818583    11504.899     1000 
  528000   0.58533494    -1.773493   0.87712442  -0.89636857   0.11985263    11638.975     1000 
  530000   0.59217391   -1.7351238   0.88737261  -0.84775124   0.12157033    11412.424     1000 
  532000   0.59899276   -1.7068382   0.89759065  -0.80924752   0.13643298    11353.503     1000 
  534000   0.57475765   -1.7413083   0.86127433  -0.88003398    0.1382503    11369.767     1000 
  536000   0.57570524    -1.705797    0.8626943  -0.84310266   0.12754871    11555.895     1000 
  538000   0.60135128   -1.6771657   0.90112489  -0.77604084   0.13105392    11571.691     1000 
  540000   0.56556251   -1.6982742   0.84749543  -0.85077879   0.13489493    11364.895     1000 
  542000   0.56503058   -1.7634845   0.84669832  -0.91678618   0.13840804    11492.908     1000 
  544000   0.58057898   -1.7240891    0.8699976  -0.85409149   0.12278368    11571.969     1000 
  546000   0.59880227   -1.6898468    0.8973052  -0.79254159   0.13541181    11498.788     1000 
  548000    0.5802421   -1.6805313   0.86949279  -0.81103853   0.11658997    11584.298     1000 
  550000   0.57994821   -1.7031569   0.86905239  -0.83410448   0.11718603    11647.566     1000 
  552000   0.56115213   -1.6998058   0.84088646  -0.85891931   0.11436335    11633.174     1000 
  554000   0.57302364   -1.7453776   0.85867592  -0.88670166   0.12778332    11544.163     1000 
  556000   0.59304477   -1.7031892   0.88867758  -0.81451164   0.12802189    11362.979     1000 
  558000   0.56627999   -1.7062771   0.84857056  -0.85770653    0.1251314    11471.902     1000 
  560000   0.57575243   -1.7252949   0.86276501  -0.86252984     0.126252    11651.733     1000 
  562000   0.58301218   -1.7522939   0.87364376  -0.87865014    0.1209829    11618.337     1000 
  564000   0.57281981   -1.6885982   0.85837049  -0.83022767   0.12262092     11574.81     1000 
  566000   0.57489041   -1.7378455   0.86147327  -0.87637227   0.13180429    11448.989     1000 
  568000   0.59113877   -1.7078338   0.88582145  -0.82201232   0.11894988    11508.398     1000 
  570000   0.57184328   -1.6478586   0.85690716  -0.79095149   0.13570451    11321.346     1000 
  572000   0.59670226   -1.6940685   0.89415833  -0.79991021   0.13103352    11611.698     1000 
  574000   0.56550127   -1.6743317   0.84740365  -0.82692801   0.13110133    11448.145     1000 
  576000   0.60344932   -1.6700606   0.90426881  -0.76579177   0.12933299    11368.286     1000 
  578000   0.58896152   -1.6844175   0.88255884   -0.8018587   0.14295214     11408.12     1000 
  580000   0.58502765   -1.7763363   0.87666393  -0.89967235   0.13623653    11425.332     1000 
  582000   0.58308068   -1.7191046    0.8737464  -0.84535821   0.13448951    11392.753     1000 
  584000   0.56235282   -1.7204298   0.84268571  -0.87774412   0.11559237    11531.088     1000 
  586000   0.59768915   -1.7027502    0.8956372    -0.807113   0.14581493    11216.406     1000 
  588000   0.56223703   -1.6453499   0.84251219  -0.80283768   0.14366259    11381.071     1000 
  590000   0.58970413   -1.6940188   0.88367163  -0.81034718   0.12788514    11575.033     1000 
  592000    0.5867893   -1.6679724   0.87930377  -0.78866864   0.12380809    11368.602     1000 
  594000   0.59333374   -1.7099911   0.88911061  -0.82088052   0.14024315    11372.028     1000 
  596000   0.59780158   -1.7431387   0.89580567  -0.84733298   0.12430465    11701.511     1000 
  598000   0.56993134   -1.7019363   0.85404211  -0.84789421   0.12781101    11371.069     1000 
  600000   0.54616293   -1.6832989   0.81842515  -0.86487374    0.1293033    11614.744     1000 
  602000   0.56132686   -1.6993451    0.8411483  -0.85819675   0.11099812    11606.074     1000 
  604000   0.57038575   -1.6752743   0.85472305   -0.8205513   0.12481326    11519.972     1000 
  606000   0.58721419   -1.6840196   0.87994046  -0.80407918   0.12823918    11528.772     1000 
  608000     0.580931   -1.7124299   0.87052511  -0.84190476   0.12581699    11589.079     1000 
  610000      0.59184   -1.7255162   0.88687224  -0.83864393   0.12665934    11496.279     1000 
  612000    0.6015779   -1.7315942   0.90146448  -0.83012973   0.13241292    11521.821     1000 
  614000   0.56715007    -1.708811   0.84987438  -0.85893662   0.12717395    11550.669     1000 
  616000   0.57846325   -1.7155123   0.86682718  -0.84868515   0.11620925    11609.655     1000 
  618000   0.57963699   -1.7291402   0.86858603  -0.86055417   0.12264915    11572.545     1000 
  620000   0.56773584   -1.7627215   0.85075215  -0.91196931   0.14024237    11489.492     1000 
  622000   0.56513574   -1.7158116   0.84685591  -0.86895573   0.12668382     11551.34     1000 
  624000   0.60306676   -1.7289139   0.90369554  -0.82521837   0.12480139    11543.888     1000 
  626000   0.57805535   -1.7009965   0.86621595  -0.83478057   0.13520726    11328.121     1000 
  628000   0.58735835   -1.7004098   0.88015649  -0.82025334   0.11942695    11636.805     1000 
  630000   0.58198689   -1.7267606   0.87210735  -0.85465323   0.12530036    11492.537     1000 
  632000    0.6074871   -1.7441426   0.91031941  -0.83382317   0.12872166    11562.523     1000 
  634000   0.57697941   -1.7425115   0.86460365  -0.87790781   0.14060047    11442.164     1000 
  636000   0.59022415   -1.7105455   0.88445088  -0.82609464   0.13344439    11434.947     1000 
  638000   0.54559006   -1.7191048   0.81756671  -0.90153807   0.12325816    11611.202     1000 
  640000   0.56608745   -1.7185256   0.84828204  -0.87024351   0.12473334    11616.363     1000 
  642000    0.6149807    -1.766342   0.92154858   -0.8447934   0.13058643    11590.755     1000 
  644000   0.57121326   -1.7033423   0.85596307  -0.84737925   0.13458213    11459.509     1000 
  646000    0.5681535   -1.7286812   0.85137801  -0.87730318   0.13491865    11606.234     1000 
  648000   0.59157371   -1.7654641   0.88647321   -0.8789909   0.11772183    11556.838     1000 
  650000   0.56581033    -1.727981   0.84786678  -0.88011425   0.11516951    11510.903     1000 
  652000   0.58725113   -1.7104549   0.87999581  -0.83045909   0.11977212    11631.977     1000 
  654000   0.59064064   -1.7075322   0.88507499  -0.82245723   0.13917008    11414.986     1000 
  656000   0.58719808   -1.7446134   0.87991632  -0.86469706   0.13635893    11468.137     1000 
  658000   0.58456442   -1.7284938   0.87596978  -0.85252404   0.13231574    11310.517     1000 
  660000    0.5833847   -1.7496891   0.87420197  -0.87548715   0.11185373    11692.738     1000 
  662000   0.57008293    -1.687756   0.85426927  -0.83348677   0.12367947    11576.603     1000 
  664000   0.56893392   -1.6951419   0.85254747  -0.84259438   0.12693753     11293.12     1000 
  666000   0.59197816   -1.7297029   0.88707927  -0.84262366   0.12654874     11528.16     1000 
  668000   0.56712096   -1.7009618   0.84983075  -0.85113106    0.1225311    11629.168     1000 
  670000   0.58879646   -1.7294377    0.8823115  -0.84712619   0.12886432    11540.053     1000 
  672000   0.56662468   -1.6973656   0.84908708  -0.84827854   0.13118417    11433.779     1000 
  674000   0.57804604   -1.6924971   0.86620199  -0.82629512   0.13572705    11457.655     1000 
  676000   0.56915543   -1.7332117   0.85287941  -0.88033229    0.1291916    11492.588     1000 
  678000   0.60797926   -1.6895045   0.91105692  -0.77844762   0.14551265    11253.763     1000 
  680000   0.56783054   -1.6993022   0.85089406  -0.84840809    0.1344166    11493.041     1000 
  682000   0.57707332    -1.719936   0.86474437  -0.85519165   0.12609983    11467.383     1000 
  684000   0.59974717   -1.6882261   0.89872114  -0.78950494   0.13476339    11338.027     1000 
  686000   0.57065098   -1.6991796   0.85512049  -0.84405909   0.13767158    11431.554     1000 
  688000   0.55855684   -1.6595239   0.83699742  -0.82252647   0.12573031     11486.99     1000 
  690000     0.573468   -1.7102967    0.8593418  -0.85095494    0.1292743    11523.488     1000 
  692000   0.59928121   -1.6757449    0.8980229  -0.77772205   0.13173049    11484.638     1000 
  694000   0.57542101   -1.6777665   0.86226838  -0.81549811   0.11825901    11494.662     1000 
  696000   0.59793472   -1.6696249   0.89600518  -0.77361973   0.12047957    11494.912     1000 
  698000   0.57406803   -1.7197704   0.86024094  -0.85952942   0.12446634    11481.707     1000 
  700000   0.57566112   -1.7380528   0.86262818  -0.87542458   0.13559543    11509.266     1000 
  702000   0.58866215    -1.677649   0.88211024  -0.79553872   0.14161504    11303.118     1000 
  704000   0.57625016   -1.6784028   0.86351086  -0.81489197   0.12838607    11435.263     1000 
  706000   0.54720017   -1.7069744   0.81997946  -0.88699495   0.13569136    11470.361     1000 
  708000   0.58094419   -1.7214364   0.87054487  -0.85089153   0.14320738    11420.161     1000 
  710000   0.55877914   -1.7178583   0.83733054  -0.88052776   0.11827209    11577.339     1000 
  712000   0.58059333   -1.7118319   0.87001911  -0.84181283   0.11915876    11613.202     1000 
  714000   0.58351021   -1.7637755   0.87439005  -0.88938541   0.11905039    11619.218     1000 
  716000   0.57963576   -1.6669123   0.86858419   -0.7983281   0.14012107    11373.144     1000 
  718000   0.58388246   -1.7433991   0.87494787  -0.86845123   0.13373698    11550.722     1000 
  720000   0.57840315   -1.6479122   0.86673712  -0.78117507   0.13778047    11333.838     1000 
  722000   0.56631177   -1.7180069   0.84861819  -0.86938869   0.13333265    11396.961     1000 
  724000   0.60175909   -1.6698053   0.90173599  -0.76806929   0.13889344    11329.601     1000 
  726000   0.58539783   -1.6459604   0.87721865  -0.76874178   0.13007194    11477.482     1000 
  728000   0.54578547   -1.6541681   0.81785953  -0.83630856   0.12870873    11493.325     1000 
  730000   0.58226643   -1.6644473   0.87252625  -0.79192101   0.13233219    11390.708     1000 
  732000   0.56854338   -1.7180861   0.85196226  -0.86612387   0.12563816     11499.88     1000 
  734000   0.56645015    -1.686125   0.84882556  -0.83729942   0.12899976    11569.322     1000 
  736000   0.57011381   -1.7028839   0.85431554  -0.84856835   0.12173524    11454.645     1000 
  738000   0.57123821   -1.7439857   0.85600046  -0.88798521   0.12245062    11711.549     1000 
  740000   0.57075789   -1.7439932    0.8552807  -0.88871246   0.12284659    11556.566     1000 
  742000   0.60069711   -1.7225581   0.90014463  -0.82241352   0.13045801    11520.706     1000 
  744000    0.6078167   -1.7254524   0.91081333  -0.81463907   0.14164675    11349.632     1000 
  746000   0.58818507   -1.6767889   0.88139533  -0.79539353   0.13171765    11371.314     1000 
  748000   0.58563853   -1.7040976   0.87757934  -0.82651822   0.13192385    11389.874     1000 
  750000    0.5891977   -1.6661183   0.88291275  -0.78320552   0.14269685    11339.112     1000 
  752000   0.58447288   -1.7196646    0.8758326  -0.84383195   0.12499312    11629.778     1000 
  754000   0.55667059    -1.681912   0.83417088  -0.84774109   0.14840245    11114.275     1000 
  756000   0.58853101   -1.6985174   0.88191372   -0.8166037   0.13661363    11343.134     1000 
  758000   0.60299619   -1.7174836   0.90358979  -0.81389382   0.12677412    11594.757     1000 
  760000   0.58870975   -1.6554817   0.88218156  -0.77330015   0.13469461    11301.105     1000 
  762000   0.59520497   -1.7392478   0.89191465  -0.84733314     0.131725    11527.392     1000 
  764000   0.57530379   -1.7061002   0.86209272  -0.84400746   0.13384712    11598.444     1000 
  766000   0.58572207   -1.6594962   0.87770452  -0.78179164   0.13961349     11525.63     1000 
  768000   0.56025186    -1.719575   0.83953741  -0.88003754   0.12454027    11534.848     1000 
  770000   0.57512463   -1.6865031   0.86182426  -0.82467879   0.12712437    11395.209     1000 
  772000   0.57795602   -1.7200351   0.86606709  -0.85396801   0.13499934     11408.44     1000 
  774000   0.58442544   -1.7618084   0.87576152  -0.88604686   0.14040904    11436.006     1000 
  776000    0.5919588   -1.7187878   0.88705027  -0.83173751   0.13312552    11387.352     1000 
  778000   0.60269678   -1.7209385   0.90314113  -0.81779737   0.13244278    11429.039     1000 
  780000   0.60031552   -1.6884137   0.89957281  -0.78884088   0.13727695    11449.904     1000 
  782000    0.5582852   -1.7504111   0.83659038  -0.91382073   0.12563346    11491.749     1000 
  784000   0.61192494   -1.7193494   0.91696952  -0.80237993   0.13272829    11541.337     1000 
  786000   0.55356273   -1.6955184   0.82951375  -0.86600469   0.11975455    11573.276     1000 
  788000   0.58188008   -1.7529747    0.8719473  -0.88102745   0.12519538    11550.208     1000 
  790000   0.59407865   -1.6957754   0.89022685  -0.80554859   0.12700001    11614.878     1000 
  792000   0.57782529   -1.6762151    0.8658712  -0.81034391    0.1192417    11455.773     1000 
  794000   0.58119977   -1.6883308   0.87092785  -0.81740294   0.14324806    11292.126     1000 
  796000   0.61206262     -1.72974   0.91717584  -0.81256412   0.13245816    11511.581     1000 
  798000   0.58590698   -1.7563418   0.87798161   -0.8783602    0.1307924    11480.792     1000 
  800000   0.60404577   -1.6847043   0.90516259  -0.77954172   0.12814223    11347.277     1000 
  802000   0.59975357   -1.6772714   0.89873072  -0.77854071   0.14248568    11361.257     1000 
  804000   0.57796007   -1.6848214   0.86607316  -0.81874827   0.13528706    11594.686     1000 
  806000   0.57245472   -1.7179825   0.85782339  -0.86015915   0.12411459      11397.9     1000 
  808000   0.57168773    -1.749252   0.85667406  -0.89257795   0.14231585    11329.504     1000 
  810000   0.60497183    -1.718722   0.90655029  -0.81217167    0.1235611    11540.389     1000 
  812000   0.58444506   -1.7315985   0.87579092  -0.85580755   0.11641404    11630.658     1000 
  814000   0.57251094   -1.7582833   0.85790765  -0.90037563   0.13812324    11426.286     1000 
  816000   0.58944602   -1.7759961   0.88328486  -0.89271129   0.11106564    11813.379     1000 
  818000   0.57623879   -1.7017944   0.86349383  -0.83830059   0.11198907    11642.449     1000 
  820000   0.56859398   -1.7217329   0.85203808  -0.86969486   0.12682367    11420.187     1000 
  822000   0.58918712   -1.6896001    0.8828969  -0.80670317   0.14355197    11406.061     1000 
  824000   0.56371647   -1.7147668   0.84472913  -0.87003768   0.12675192    11574.506     1000 
  826000    0.5880175   -1.7067029   0.88114422  -0.82555867   0.12462484    11404.358     1000 
  828000   0.57710137   -1.6977596    0.8647864  -0.83297319   0.12575646    11504.626     1000 
  830000   0.54844004   -1.7248436    0.8218374  -0.90300618   0.12214639     11557.67     1000 
  832000   0.57430339      -1.7484   0.86059363  -0.88780634   0.11056578    11765.646     1000 
  834000   0.57747412   -1.6135957   0.86534497  -0.74825072   0.14538718    11226.733     1000 
  836000   0.60867866   -1.7495774   0.91210497   -0.8374724   0.13422789    11451.679     1000 
  838000   0.58698306   -1.6961043   0.87959411  -0.81651023   0.12407093    11544.538     1000 
  840000   0.56547065   -1.7322712   0.84735777  -0.88491343   0.13635463    11490.787     1000 
  842000   0.59462112   -1.6785411   0.89103975  -0.78750135   0.12644177    11415.313     1000 
  844000   0.59770889   -1.7302385   0.89566677  -0.83457171   0.13236816    11415.132     1000 
  846000   0.59387075   -1.7105609   0.88991533  -0.82064562   0.12292973    11540.413     1000 
  848000   0.57070815   -1.6978298   0.85520616  -0.84262368   0.13113966    11448.252     1000 
  850000   0.55711427   -1.7373934   0.83483573  -0.90255763   0.12761522    11449.383     1000 
  852000   0.57887816   -1.7243452   0.86744892  -0.85689632   0.13600318    11493.053     1000 
  854000   0.56833131    -1.715149   0.85164447  -0.86350454   0.14856284    11239.752     1000 
  856000   0.59387744   -1.7001037   0.88992534  -0.81017832    0.1354915    11411.235     1000 
  858000   0.58306213   -1.7506899    0.8737186  -0.87697133   0.13233593    11480.073     1000 
  860000   0.56524447   -1.6633635   0.84701883  -0.81634466    0.1255085    11452.424     1000 
  862000   0.57563928   -1.6877205   0.86259545  -0.82512502   0.13150433    11276.666     1000 
  864000   0.60100427   -1.7625335    0.9006049  -0.86192858   0.12109628    11654.785     1000 
  866000   0.56635961   -1.7655775   0.84868988  -0.91688763    0.1313138    11538.717     1000 
  868000   0.56891886   -1.7337388   0.85252492  -0.88121391   0.12226957    11718.285     1000 
  870000   0.58605465   -1.7413146    0.8782029  -0.86311169   0.12794761    11418.079     1000 
  872000   0.59608931   -1.7360035   0.89323984  -0.84276368   0.13185722    11465.361     1000 
  874000   0.59676925   -1.7496565   0.89425871  -0.85539775    0.1314825    11469.867     1000 
  876000   0.58354642   -1.7484964    0.8744443  -0.87405214   0.12476573    11430.955     1000 
  878000   0.59114139   -1.6979126   0.88582538  -0.81208727   0.12783752    11555.104     1000 
  880000   0.57695703   -1.6775404   0.86457011  -0.81297034   0.12154162    11505.539     1000 
  882000   0.57401928   -1.7339104   0.86016788  -0.87374252   0.12443187    11593.153     1000 
  884000    0.5730732   -1.7233966   0.85875019  -0.86464637   0.12116845    11677.178     1000 
  886000   0.59778868    -1.706187   0.89578633  -0.81040064    0.1431534    11312.295     1000 
  888000   0.60429058   -1.7400426   0.90552944  -0.83451318   0.13442555    11437.212     1000 
  890000   0.57343254   -1.7144067   0.85928866  -0.85511802   0.12769433    11559.606     1000 
  892000    0.5782768   -1.7749789   0.86654779  -0.90843109   0.12469271    11569.338     1000 
  894000   0.58447926   -1.6916961   0.87584217   -0.8158539   0.14630176    11339.824     1000 
  896000   0.56965547   -1.7198146   0.85362872  -0.86618585   0.13398395    11467.565     1000 
  898000   0.57519231   -1.7313297   0.86192568  -0.86940404   0.12203412    11490.795     1000 
  900000   0.59660667   -1.7546538   0.89401509  -0.86063875   0.12424932    11510.427     1000 
  902000   0.58860688   -1.6868857   0.88202741  -0.80485832   0.12360353    11528.321     1000 
  904000   0.58963192   -1.6941726   0.88356343  -0.81060916    0.1385594    11370.352     1000 
  906000   0.57761026   -1.7201799   0.86554897  -0.85463093   0.12734394    11558.772     1000 
  908000   0.58973427   -1.7508156    0.8837168  -0.86709881   0.13620604     11425.23     1000 
  910000   0.58268693   -1.7546534   0.87315636  -0.88149699    0.1331281     11465.43     1000 
  912000   0.60457468   -1.6774537   0.90595516  -0.77149858   0.12741985    11570.939     1000 
  914000   0.57210863   -1.7358024   0.85730478  -0.87849759   0.12794056    11459.285     1000 
  916000    0.5831441   -1.7429006   0.87384143  -0.86905917   0.11529881    11681.526     1000 
  918000    0.5601261   -1.6531826   0.83934896  -0.81383362   0.12624768    11505.928     1000 
  920000    0.5763708    -1.713395   0.86369165  -0.84970332   0.14062477     11302.03     1000 
  922000   0.60404472   -1.7101584   0.90516102  -0.80499739   0.12137781     11679.08     1000 
  924000   0.61006554   -1.6903561   0.91418321  -0.77617285    0.1255227    11531.706     1000 
  926000   0.57977902   -1.7048868   0.86879886  -0.83608796   0.11901323    11377.947     1000 
  928000   0.57926827    -1.697466   0.86803351  -0.82943247    0.1226977    11497.456     1000 
  930000   0.57503811   -1.7060391   0.86169461  -0.84434445   0.12754714    11545.473     1000 
  932000   0.60780858    -1.705848   0.91080116  -0.79504687   0.13284196    11576.241     1000 
  934000   0.58440439   -1.6673488   0.87572998  -0.79161883   0.12939707    11414.969     1000 
  936000   0.56128822   -1.6924894    0.8410904  -0.85139901   0.12043196    11585.059     1000 
  938000   0.56835785   -1.7453009   0.85168424  -0.89361671   0.11625294    11659.552     1000 
  940000   0.58693137   -1.7289729   0.87951666  -0.84945623   0.13770502    11434.872     1000 
  942000   0.55656657   -1.6920341     0.834015  -0.85801908   0.11718014    11599.928     1000 
  944000    0.5703823   -1.7359462   0.85471787  -0.88122829   0.13112541    11547.391     1000 
  946000   0.58073044   -1.6661753   0.87022456  -0.79595073   0.13870797    11347.892     1000 
  948000   0.58278127    -1.727005   0.87329773  -0.85370728   0.12181603    11627.778     1000 
  950000   0.57951692   -1.7363977   0.86840611  -0.86799161   0.13093283    11371.186     1000 
  952000   0.56916219   -1.7192458   0.85288955  -0.86635623     0.139606    11383.569     1000 
  954000    0.5890164   -1.7586305   0.88264108  -0.87598938   0.12560678     11551.39     1000 
  956000   0.59144167   -1.7172943   0.88627535   -0.8310189   0.12202927    11608.789     1000 
  958000   0.55087432   -1.7096599   0.82548516  -0.88417471   0.13393672    11485.214     1000 
  960000   0.56378516   -1.7220957   0.84483206  -0.87726361   0.12219402    11460.941     1000 
  962000   0.57369162   -1.6685733    0.8596769  -0.80889642   0.12594514    11517.861     1000 
  964000   0.58648881   -1.7281703   0.87885349  -0.84931685   0.12576868    11580.381     1000 
  966000   0.56718653   -1.7477455   0.84992901  -0.89781652    0.1321561    11528.195     1000 
  968000   0.57312631   -1.7197077   0.85882978  -0.86087796    0.1252076    11556.009     1000 
  970000   0.54668316   -1.6860264   0.81920471  -0.86682174   0.12610842    11419.047     1000 
  972000   0.59965389   -1.7146241   0.89858135  -0.81604275   0.13706402    11336.802     1000 
  974000   0.57610617   -1.7027803   0.86329509  -0.83948522   0.12716338    11492.256     1000 
  976000   0.57021661   -1.7136747    0.8544696  -0.85920505   0.12844424     11438.93     1000 
  978000   0.54685729   -1.7678912   0.81946565  -0.94842558   0.12271478    11635.485     1000 
  980000   0.60377052   -1.6800447   0.90475013   -0.7752946   0.12876477    11517.676     1000 
  982000   0.58142166   -1.6668696   0.87126036  -0.79560921   0.13303674    11367.056     1000 
  984000   0.55641168   -1.7191445    0.8337829  -0.88536157   0.12593421     11461.92     1000 
  986000   0.55859738   -1.7098814   0.83705818  -0.87282321   0.13229203    11407.539     1000 
  988000   0.59176378   -1.6964179   0.88675803  -0.80965991   0.12622535    11472.064     1000 
  990000   0.60836211   -1.7016127   0.91163063  -0.78998206   0.13250947    11576.893     1000 
  992000   0.61458602   -1.7655958   0.92095715  -0.84463867    0.1305768    11716.035     1000 
  994000   0.57787646   -1.7634002   0.86594788  -0.89745236   0.12720516    11499.727     1000 
  996000   0.55822449   -1.7508608    0.8364994  -0.91436138   0.12764814    11627.773     1000 
  998000   0.57131101   -1.7213172   0.85610954  -0.86520764   0.11977644    11442.342     1000 
 1000000    0.5828658   -1.6629384    0.8734244  -0.78951395   0.13756353    11415.399     1000 
 1002000   0.57486358   -1.7335981   0.86143307  -0.87216505   0.13011893    11519.195     1000 
 1004000   0.59122479   -1.7501064   0.88595034  -0.86415601   0.12914342    11500.487     1000 
 1006000   0.58823021   -1.7116532   0.88146296  -0.83019023   0.13833887    11449.005     1000 
 1008000   0.58283554   -1.6780134   0.87337905  -0.80463437   0.12520584    11399.789     1000 
 1010000   0.60459843   -1.7270443   0.90599075  -0.82105355   0.13899113    11421.488     1000 
 1012000   0.57662005    -1.701021   0.86406515  -0.83695583   0.12066892    11368.588     1000 
 1014000   0.60078981   -1.7326121   0.90028354  -0.83232856   0.12926183     11492.81     1000 
 1016000   0.59301019   -1.7691879   0.88862577  -0.88056217   0.12711789    11604.591     1000 
 1018000   0.57322762   -1.7092723   0.85898159  -0.85029071   0.13293026    11395.764     1000 
 1020000   0.58611911   -1.6396905   0.87829949  -0.76139106   0.13127162    11356.758     1000 
 1022000   0.57684537   -1.7186831   0.86440278  -0.85428035   0.12326493    11492.915     1000 
 1024000   0.61001464   -1.6946382   0.91410694  -0.78053121   0.13259118    11465.033     1000 
 1026000   0.58522339   -1.7157656   0.87695726  -0.83880837   0.13318863    11576.305     1000 
 1028000   0.58469075   -1.7372501   0.87615908  -0.86109105   0.12048638    11632.677     1000 
 1030000   0.58639549   -1.7428828   0.87871364  -0.86416918   0.11834955    11529.964     1000 
 1032000   0.59143393   -1.7378465   0.88626374  -0.85158271   0.13674437    11399.728     1000 
 1034000   0.59713876   -1.7087539   0.89481243  -0.81394151   0.13301071    11422.112     1000 
 1036000   0.57316654   -1.6884145   0.85889006   -0.8295244   0.13396818    11403.107     1000 
 1038000   0.57458044   -1.7224738   0.86100879    -0.861465   0.11245124    11630.326     1000 
 1040000   0.56803616   -1.7031801   0.85120218  -0.85197789   0.12373163     11611.53     1000 
 1042000   0.58485028   -1.7134824   0.87639814  -0.83708426   0.14969046    11398.519     1000 
 1044000   0.58402731   -1.7544989   0.87516492  -0.87933402   0.12394621    11505.812     1000 
 1046000   0.57465317   -1.7658936   0.86111777  -0.90477581   0.12472209    11598.928     1000 
 1048000   0.59096635   -1.7043391   0.88556307    -0.818776   0.12480187    11630.375     1000 
 1050000   0.54465217   -1.6819129   0.81616128  -0.86575163   0.13086955    11417.658     1000 
 1052000   0.59520936   -1.7266837   0.89192122  -0.83476244   0.12578244    11639.229     1000 
 1054000   0.60269748   -1.6822056   0.90314218  -0.77906345   0.12341965    11555.647     1000 
 1056000   0.60702789    -1.740272    0.9096313  -0.83064067   0.13439201    11446.192     1000 
 1058000   0.57329523   -1.6953788    0.8590829  -0.83629594   0.12877927    11471.397     1000 
 1060000   0.56363741   -1.7640217   0.84461066  -0.91941106   0.13061785    11679.074     1000 
 1062000   0.58768781   -1.6617333   0.88065019  -0.78108315   0.13622291    11400.422     1000 
 1064000   0.56338367   -1.6899983   0.84423044  -0.84576782   0.12262177    11546.339     1000 
 1066000   0.55575314   -1.7483109   0.83279608   -0.9155148   0.13361163    11538.139     1000 
 1068000     0.537052   -1.7084167   0.80477243  -0.90364428   0.12139937    11469.921     1000 
 1070000   0.56741659   -1.6586568   0.85027377  -0.80838308   0.13280922    11442.876     1000 
 1072000   0.56278349   -1.6891848   0.84333106  -0.84585373   0.11645826     11725.77     1000 
 1074000   0.54864203    -1.692966   0.82214008  -0.87082589   0.12258806    11432.977     1000 
 1076000   0.57962645   -1.7178341   0.86857024  -0.84926387   0.13072202    11469.833     1000 
 1078000    0.5883168   -1.7560101   0.88159272  -0.87441734   0.14971329    11407.964     1000 
 1080000   0.58460957   -1.6493887   0.87603743  -0.77335122   0.15179175    11189.926     1000 
 1082000   0.58000105   -1.7088066   0.86913158  -0.83967498    0.1295559    11352.792     1000 
 1084000   0.54938535   -1.7054726   0.82325394  -0.88221865   0.11891788    11454.235     1000 
 1086000   0.57747692   -1.6663245   0.86534917  -0.80097535   0.12882448    11431.391     1000 
 1088000   0.55770248   -1.6903767   0.83571717  -0.85465956     0.133955    11382.157     1000 
 1090000   0.56338525   -1.6945769   0.84423279  -0.85034407   0.12364022    11549.078     1000 
 1092000    0.5582774   -1.7427512   0.83657868  -0.90617253   0.12537656    11493.401     1000 
 1094000   0.58038126   -1.7233742   0.86970131  -0.85367286   0.13376821    11515.424     1000 
 1096000   0.58507927   -1.7101741   0.87674128  -0.83343286   0.11443064     11713.93     1000 
 1098000   0.57108219   -1.7738044   0.85576667  -0.91803776   0.12876006     11435.15     1000 
 1100000    0.5871166   -1.6767953   0.87979423  -0.79700106   0.13861355    11368.451     1000 
 1102000   0.57835331   -1.7353503   0.86666243  -0.86868782   0.12206683    11677.147     1000 
 1104000    0.6001398   -1.7383243   0.89930949  -0.83901482   0.12918933    11511.495     1000 
 1106000   0.58796414   -1.6339277   0.88106426  -0.75286345   0.12653946    11295.633     1000 
 1108000   0.59434168   -1.7216999   0.89062101  -0.83107893   0.12753055    11523.157     1000 
 1110000   0.61546093   -1.7038676   0.92226821  -0.78159942   0.13426854     11497.74     1000 
 1112000   0.57721508   -1.7655814    0.8649568  -0.90062463   0.13173948    11475.686     1000 
 1114000   0.60054559   -1.6897597   0.89991757  -0.78984216   0.13113466    11424.471     1000 
 1116000   0.57974435   -1.7106538    0.8687469   -0.8419069   0.13147692    11567.782     1000 
 1118000    0.5773993   -1.7224414   0.86523284   -0.8572086   0.13288586    11496.377     1000 
 1120000   0.58896806   -1.6815063   0.88256863  -0.79893763   0.13263548    11373.497     1000 
 1122000   0.57298881   -1.7198363   0.85862373  -0.86121255   0.13408826    11590.684     1000 
 1124000   0.58529427   -1.7024745   0.87706347  -0.82541099   0.13416051    11520.423     1000 
 1126000   0.61463683   -1.7303286   0.92103329  -0.80929531   0.13528536    11404.413     1000 
 1128000   0.59116151   -1.7122737   0.88585552  -0.82641821   0.13133804    11590.452     1000 
 1130000   0.60368444   -1.7119508   0.90462114  -0.80732965   0.11961359    11566.065     1000 
 1132000   0.56402943   -1.7152953    0.8451981  -0.87009722   0.11234552      11574.7     1000 
 1134000   0.59415412   -1.6656516   0.89033995  -0.77531162    0.1544833    11223.458     1000 
 1136000   0.57831175   -1.7393525   0.86660015  -0.87275236   0.11686187    11625.918     1000 
 1138000   0.59701953   -1.7027728   0.89463377  -0.80813907   0.12620206    11491.525     1000 
 1140000   0.56490481    -1.677067   0.84650985  -0.83055716   0.12365301    11428.705     1000 
 1142000    0.5719723   -1.7872347   0.85710049  -0.93013425   0.12226606    11600.548     1000 
 1144000   0.59633391   -1.7013799   0.89360637  -0.80777354   0.11950718    11732.007     1000 
 1146000   0.54872414   -1.7291554   0.82226313  -0.90689224   0.12826737     11538.59     1000 
 1148000   0.58352189   -1.6884392   0.87440755  -0.81403164   0.12962031    11478.501     1000 
 1150000   0.58377362   -1.6900616   0.87478476  -0.81527686   0.14877244    11224.908     1000 
 1152000   0.56083381   -1.6793617   0.84040947  -0.83895227   0.13490302    11457.519     1000 
 1154000   0.57146355   -1.6448396   0.85633813  -0.78850146   0.12536792    11473.343     1000 
 1156000   0.59389567   -1.6687967   0.88995266  -0.77884407   0.12614973    11371.153     1000 
 1158000   0.60315809   -1.7867643    0.9038324  -0.88293187   0.12539854    11682.305     1000 
 1160000   0.57301751   -1.7024706   0.85866673  -0.84380385   0.12458443    11594.644     1000 
 1162000    0.5881771   -1.7125455   0.88138339  -0.83116215   0.13942354    11562.023     1000 
 1164000   0.57984682   -1.6897237   0.86890045  -0.82082326   0.12764436    11461.021     1000 
 1166000   0.56854422   -1.6941578   0.85196352  -0.84219428   0.13264096    11579.047     1000 
 1168000   0.56714174   -1.6072035    0.8498619  -0.75734162   0.13473995    11325.741     1000 
 1170000   0.58665031   -1.6773592   0.87909549  -0.79826371   0.13777227    11468.293     1000 
 1172000   0.60020621   -1.6734698     0.899409  -0.77406084   0.13613276     11499.19     1000 
 1174000   0.58611704   -1.7514737   0.87829638  -0.87317731   0.11972636    11652.304     1000 
 1176000   0.59069999   -1.7485073   0.88516394  -0.86334335   0.12683997    11523.166     1000 
 1178000    0.5680044   -1.6741141    0.8511546  -0.82295946   0.13023133    11383.037     1000 
 1180000   0.61952452   -1.6759439   0.92835749  -0.74758642   0.14219589    11468.012     1000 
 1182000   0.55965171   -1.6963504   0.83863809  -0.85771229   0.13449767    11415.249     1000 
 1184000   0.55775274   -1.7170976   0.83579248  -0.88130511   0.12639187    11295.871     1000 
 1186000   0.57520247   -1.7198475    0.8619409   -0.8579066    0.1241557    11500.708     1000 
 1188000   0.58776469   -1.6686925    0.8807654  -0.78792707   0.12234809    11417.208     1000 
 1190000   0.54723428   -1.6766319   0.82003057  -0.85660138   0.12361478    11491.109     1000 
 1192000   0.56869791   -1.7069801   0.85219382  -0.85478632   0.12789778    11518.655     1000 
 1194000   0.57585486   -1.6904083   0.86291851  -0.82748982   0.11473114    11545.621     1000 
 1196000   0.56909683   -1.7247378   0.85279161  -0.87194615   0.12411435    11524.266     1000 
 1198000   0.58205933   -1.7173852   0.87221591  -0.84516932   0.13042539    11499.239     1000 
 1200000    0.5689418   -1.6860331   0.85255929  -0.83347382    0.1392203    11344.258     1000 
 1202000   0.57515452   -1.6735666   0.86186905   -0.8116975   0.13867669    11328.138     1000 
 1204000   0.58455116   -1.7311302   0.87594992  -0.85518031   0.13322503    11514.509     1000 
 1206000   0.59123322   -1.6987483   0.88596298  -0.81278534   0.14080286    11324.204     1000 
 1208000   0.59451552   -1.6745244   0.89088151  -0.78364285   0.14478129    11266.742     1000 
 1210000   0.57006472   -1.7113166   0.85424198  -0.85707461   0.13144923    11516.293     1000 
 1212000   0.57418525   -1.7792416   0.86041659    -0.918825   0.13138798    11575.924     1000 
 1214000   0.57380816   -1.6757645   0.85985152  -0.81591297   0.12041043    11550.534     1000 
 1216000   0.57043239   -1.7612316   0.85479293  -0.90643868    0.1109115    11655.158     1000 
 1218000   0.57438714   -1.7483949   0.86071913   -0.8876758   0.12084113    11469.261     1000 
 1220000   0.59277563   -1.7145487   0.88827429  -0.82627442   0.13261964    11481.521     1000 
 1222000   0.56786073   -1.6407297   0.85093931  -0.78979043   0.13340526    11357.243     1000 
 1224000   0.57195618      -1.6916   0.85707634  -0.83452363   0.13648202    11298.665     1000 
 1226000   0.59798581   -1.7355127   0.89608174  -0.83943092   0.13277403    11609.386     1000 
 1228000    0.5909039   -1.7283905   0.88546949    -0.842921   0.13931855    11475.016     1000 
 1230000   0.57986666   -1.7487379    0.8689302  -0.87980772   0.12967039    11462.167     1000 
 1232000   0.55839198   -1.6835473   0.83675037  -0.84679691   0.13333892    11517.773     1000 
 1234000   0.57630906   -1.7027346   0.86359912  -0.83913552   0.13511782    11402.784     1000 
 1236000   0.57083699   -1.7334103   0.85539923  -0.87801108   0.12801159    11496.737     1000 
 1238000   0.56619767   -1.6974003   0.84844721  -0.84895312   0.12839338    11529.319     1000 
 1240000   0.59664041   -1.6768999   0.89406566   -0.7828342   0.13838974    11610.495     1000 
 1242000   0.61381558   -1.6441448   0.91980265  -0.72434214   0.13271568    11472.922     1000 
 1244000    0.5727847   -1.6930945   0.85831788  -0.83477667   0.11799453    11633.487     1000 
 1246000   0.56970906   -1.7360298   0.85370902  -0.88232074    0.1187354    11583.142     1000 
 1248000   0.58618325   -1.7477516    0.8783956  -0.86935597   0.13098139    11633.548     1000 
 1250000   0.57745787   -1.7315226   0.86532062  -0.86620198   0.12875702    11488.946     1000 
 1252000   0.58219656   -1.7615958   0.87242154  -0.88917422   0.13163492    11564.431     1000 
 1254000   0.58715708   -1.7185324   0.87985489   -0.8386775   0.13753898      11373.1     1000 
 1256000    0.5847856   -1.7157297   0.87630122  -0.83942848   0.13402546     11465.12     1000 
 1258000   0.59231541   -1.6952664   0.88758464  -0.80768172   0.13163882    11382.539     1000 
 1260000   0.56569512   -1.7305862   0.84769413  -0.88289206   0.12780306    11617.339     1000 
 1262000   0.57321088   -1.6870417    0.8589565  -0.82808519    0.1424729    11252.731     1000 
 1264000   0.59251273   -1.7421039   0.88788032  -0.85422356   0.13807349    11443.276     1000 
 1266000   0.59629398   -1.6892586   0.89354653  -0.79571211   0.14387634    11316.484     1000 
 1268000    0.5810041   -1.6496308   0.87063465  -0.77899619   0.13312106    11446.141     1000 
 1270000   0.60319161   -1.6720928   0.90388263  -0.76821019   0.12145913    11597.194     1000 
 1272000    0.5636427   -1.7836631   0.84461858  -0.93904452   0.12106637    11498.073     1000 
 1274000   0.58622119   -1.6912178   0.87845245  -0.81276533   0.12306964    11559.835     1000 
 1276000   0.55520519   -1.7000339   0.83197497  -0.86805892   0.14145426    11396.141     1000 
 1278000   0.57735007   -1.6878867   0.86515908  -0.82272767   0.12571618    11660.449     1000 
 1280000   0.59522663   -1.6681245    0.8919471  -0.77617741   0.12995419    11550.777     1000 
 1282000   0.57585739   -1.6680571    0.8629223  -0.80513483   0.12902726    11566.913     1000 
 1284000   0.55882779   -1.7872424   0.83740344  -0.94983897    0.1292573    11487.802     1000 
 1286000   0.57146076   -1.7113547   0.85633395  -0.85502073   0.12660754    11454.322     1000 
 1288000   0.56147898   -1.7208567   0.84137626  -0.87948047   0.13399682    11405.928     1000 
 1290000   0.56002451   -1.7048905   0.83919674  -0.86569374   0.12354918    11600.147     1000 
 1292000   0.58429221   -1.7218798   0.87556187  -0.84631792   0.13029835    11434.528     1000 
 1294000    0.5898092   -1.7189603   0.88382908  -0.83513118   0.12951783    11473.898     1000 
 1296000   0.56788416   -1.7137488   0.85097442  -0.86277434   0.13864078    11360.926     1000 
 1298000   0.58966931   -1.6788305   0.88361947  -0.79521105   0.11895571    11767.642     1000 
 1300000   0.55350824   -1.7588522    0.8294321  -0.92942005   0.13327012    11471.652     1000 
 1302000   0.56280361   -1.6699497   0.84336121  -0.82658853   0.13000069    11396.153     1000 
 1304000   0.55662442   -1.7622049    0.8341017  -0.92810325    0.1266071    11572.798     1000 
 1306000   0.58988963   -1.6654696   0.88394962  -0.78151994   0.13005715    11296.513     1000 
 1308000   0.59509925    -1.729043   0.89175622  -0.83728683   0.13405078    11459.105     1000 
 1310000   0.59747397    -1.720342   0.89531475  -0.82502723   0.12008061    11625.102     1000 
 1312000   0.57574431   -1.7143572   0.86275285  -0.85160432   0.13785263    11529.512     1000 
 1314000   0.58093749   -1.7238516   0.87053483   -0.8533168   0.13106259     11369.34     1000 
 1316000   0.58839681   -1.7143258   0.88171262   -0.8326132   0.13885988    11668.537     1000 
 1318000   0.59790139   -1.7101003   0.89595524   -0.8141451   0.14185856    11471.593     1000 
 1320000    0.5797016   -1.7158012   0.86868285   -0.8471184   0.13672695    11480.298     1000 
 1322000   0.58582866   -1.6992102   0.87786425  -0.82134592   0.13629984    11489.043     1000 
 1324000   0.57719628   -1.6994895   0.86492862   -0.8345609   0.12808428    11439.774     1000 
 1326000    0.5935757   -1.7364181   0.88947318  -0.84694496   0.12053984    11569.433     1000 
 1328000   0.58833518   -1.6971072   0.88162026  -0.81548689    0.1266918     11389.81     1000 
 1330000   0.56309944   -1.6958434   0.84380452  -0.85203884    0.1207741    11666.163     1000 
 1332000   0.60088685   -1.7263011   0.90042894  -0.82587218   0.14534637    11423.056     1000 
 1334000   0.57606308   -1.7041086   0.86323053  -0.84087805   0.13497915    11388.063     1000 
 1336000    0.5606588   -1.7321613   0.84014721   -0.8920141   0.12534501    11563.209     1000 
 1338000   0.59216619   -1.7076227   0.88736104  -0.82026165   0.12632713    11693.319     1000 
 1340000   0.58535245   -1.7409157   0.87715065  -0.86376503   0.12849083    11527.197     1000 
 1342000   0.56117949   -1.7319172   0.84092747  -0.89098974   0.12267468    11711.559     1000 
 1344000   0.60043999   -1.6765731   0.89975932  -0.77681378    0.1376187    11321.912     1000 
 1346000   0.58061196   -1.6922239   0.87004703  -0.82217682   0.12505665    11611.832     1000 
 1348000   0.58593273   -1.6935023   0.87802019  -0.81548206   0.12235957    11514.483     1000 
 1350000   0.58166966   -1.6694625   0.87163198  -0.79783049   0.13839995    11351.482     1000 
 1352000   0.54308389   -1.6790618    0.8138112  -0.86525058   0.13663096    11405.827     1000 
 1354000   0.59542192   -1.7487749   0.89223974  -0.85653516   0.13493512    11439.053     1000 
 1356000   0.58473171   -1.7318696   0.87622047  -0.85564914   0.13498578    11574.095     1000 
 1358000   0.58270896   -1.7195908   0.87318937  -0.84640145   0.13960441    11351.175     1000 
 1360000    0.5747384   -1.7245985   0.86124549  -0.86335301   0.13462698     11351.04     1000 
 1362000   0.56723792   -1.7023843   0.85000603  -0.85237831   0.13346093    11426.095     1000 
 1364000   0.58166599   -1.7099932   0.87162648  -0.83836669   0.13668147    11464.327     1000 
 1366000    0.5529762   -1.7002657   0.82863484   -0.8716309   0.12208449    11582.332     1000 
 1368000   0.58184167   -1.6961262   0.87188974  -0.82423647   0.13376653     11552.04     1000 
 1370000   0.59945198   -1.6498598    0.8982788  -0.75158097   0.12656134    11318.925     1000 
 1372000   0.56810642   -1.6956961   0.85130747  -0.84438865   0.13066873    11515.689     1000 
 1374000   0.57980601   -1.7332594    0.8688393  -0.86442013   0.12995761    11528.089     1000 
 1376000   0.56270217   -1.7141596    0.8432092  -0.87095042   0.13556849    11312.044     1000 
 1378000   0.55784293   -1.7544626   0.83592763  -0.91853498   0.13003188    11310.162     1000 
 1380000   0.60211602   -1.6770611   0.90227085  -0.77479021   0.13237116    11368.676     1000 
 1382000   0.56480947   -1.7584517   0.84636699  -0.91208476   0.13040247    11512.686     1000 
 1384000   0.56567782   -1.7145159   0.84766821  -0.86684764   0.13408833    11421.999     1000 
 1386000   0.57565696   -1.7136344   0.86262196  -0.85101245   0.13219464    11532.046     1000 
 1388000    0.5548704   -1.6791252   0.83147329  -0.84765193   0.12345041    11523.048     1000 
 1390000   0.55873745    -1.757149   0.83726807  -0.91988094   0.13632477     11432.03     1000 
 1392000   0.60149378   -1.7329373   0.90133842  -0.83159891   0.13974754    11459.523     1000 
 1394000   0.58572851   -1.6924217   0.87771417  -0.81470749   0.13110933    11313.352     1000 
 1396000   0.57389348   -1.6950567   0.85997938   -0.8350773    0.1425584    11337.583     1000 
 1398000   0.59388752    -1.722789   0.88994045  -0.83284853   0.13317152    11409.975     1000 
 1400000   0.58840276   -1.7020354   0.88172154  -0.82031382   0.13281978    11391.732     1000 
 1402000   0.56419423   -1.6848875   0.84544506  -0.83944245   0.12668226    11431.227     1000 
 1404000   0.57097164   -1.7135125     0.855601  -0.85791153   0.11954756    11629.225     1000 
 1406000   0.57788759   -1.7333801   0.86596455  -0.86741557    0.1225854    11585.349     1000 
 1408000   0.59857666   -1.7370589   0.89696713  -0.84009179   0.13092623    11464.807     1000 
 1410000   0.56896916   -1.6981809   0.85260028  -0.84558065   0.12576579    11497.427     1000 
 1412000     0.585218    -1.688604   0.87694917  -0.81165481   0.11767723    11550.228     1000 
 1414000    0.5832276   -1.7154681   0.87396656  -0.84150153   0.13420863     11471.21     1000 
 1416000   0.61405872   -1.7083496     0.920167  -0.78818257   0.13908719    11407.421     1000 
 1418000   0.60688487   -1.7019728   0.90941697  -0.79255578    0.1282778    11693.242     1000 
 1420000   0.55795548   -1.6768155   0.83609629  -0.84071924   0.11971608     11720.41     1000 
 1422000   0.58263475   -1.6959111   0.87307817  -0.82283291   0.13122843    11381.142     1000 
 1424000   0.56440097   -1.6826389   0.84575486  -0.83688403   0.12189438     11483.64     1000 
 1426000   0.58200357   -1.7045152   0.87213235   -0.8323829   0.13875515    11346.494     1000 
 1428000    0.5841119   -1.6981663   0.87529169  -0.82287466   0.12696946    11447.983     1000 
 1430000    0.5838846   -1.7088529   0.87495108  -0.83390186   0.12202873    11538.923     1000 
 1432000   0.59484406   -1.7013577   0.89137382  -0.80998385   0.14117184    11400.469     1000 
 1434000   0.54305683   -1.7031898   0.81377066  -0.88941913   0.13470355    11427.146     1000 
 1436000   0.58048383   -1.7148449   0.86985502  -0.84498992   0.12883813     11519.13     1000 
 1438000   0.60419278   -1.7226952   0.90538289  -0.81731231   0.12796918     11589.09     1000 
 1440000   0.57867183   -1.6994029   0.86713974  -0.83226313   0.12967792    11484.353     1000 
 1442000   0.57176431   -1.7618427   0.85678881  -0.90505392   0.12595634    11503.627     1000 
 1444000   0.59182894   -1.6841275   0.88685567  -0.79727181   0.14188125    11360.558     1000 
 1446000   0.58853788   -1.7015506   0.88192402  -0.81962657   0.14420728    11358.968     1000 
 1448000   0.58364428   -1.7514469   0.87459096  -0.87685597   0.12363416    11481.423     1000 
 1450000   0.59173573   -1.7332313   0.88671599   -0.8465153   0.12945957    11701.267     1000 
 1452000   0.58410723   -1.7194744   0.87528469  -0.84418971   0.13384125     11444.74     1000 
 1454000   0.56551846   -1.7319575   0.84742941   -0.8845281   0.12073488     11671.85     1000 
 1456000    0.5668455   -1.7373912   0.84941798  -0.88797327   0.13039453    11624.765     1000 
 1458000   0.56301513     -1.69713   0.84367817  -0.85345179    0.1306837    11544.809     1000 
 1460000   0.59864854   -1.7185234   0.89707484  -0.82144853   0.11891289    11482.568     1000 
 1462000   0.55763398   -1.7332048   0.83561452  -0.89759032   0.13039391    11522.782     1000 
 1464000    0.5962716    -1.653066   0.89351299  -0.75955299   0.14272936    11296.987     1000 
 1466000   0.57499764   -1.6923815   0.86163397  -0.83074753   0.12865058     11435.34     1000 
 1468000   0.57980076   -1.7322816   0.86883143  -0.86345019   0.12651251    11506.472     1000 
 1470000    0.5822952   -1.6924838   0.87256936  -0.81991443    0.1240816    11634.463     1000 
 1472000   0.57646319    -1.711493   0.86383009  -0.84766296   0.12873837    11553.179     1000 
 1474000   0.57090533   -1.7143378   0.85550163  -0.85883621    0.1317901     11473.55     1000 
 1476000   0.58281723    -1.677674   0.87335161  -0.80432243   0.14330467    11291.911     1000 
 1478000   0.57032419   -1.7502825    0.8546308  -0.89565174   0.12250932     11419.17     1000 
 1480000   0.55782052   -1.7102432   0.83589405  -0.87434914   0.13753795    11352.115     1000 
 1482000   0.57370326   -1.6890675   0.85969434  -0.82937316   0.13195492     11403.41     1000 
 1484000   0.56979535   -1.7039686   0.85383833  -0.85013029   0.13794937    11401.682     1000 
 1486000   0.56847686   -1.7600675   0.85186257   -0.9082049   0.11631406     11585.49     1000 
 1488000   0.56589721   -1.6367725   0.84799697  -0.78877557   0.12404647    11489.892     1000 
 1490000   0.56726076   -1.7276169   0.85004025  -0.87757665   0.13142002    11581.375     1000 
 1492000   0.55421455   -1.7873893    0.8304905  -0.95689876   0.12092713    11503.675     1000 
 1494000   0.58346537   -1.6932351   0.87432286  -0.81891223   0.12560878    11528.664     1000 
 1496000   0.57252595   -1.6512739   0.85793013  -0.79334377   0.12757978    11478.933     1000 
 1498000   0.60344514   -1.7216059   0.90426254  -0.81734335   0.13680101    11492.936     1000 
 1500000   0.55655334   -1.7226721   0.83399517  -0.88867691   0.12771076    11507.548     1000 
 1502000   0.57365066    -1.738318   0.85961552  -0.87870252   0.13255197    11627.854     1000 
 1504000   0.58405468   -1.7305297   0.87520595  -0.85532373   0.13568805    11269.682     1000 
 1506000   0.58409548    -1.687135   0.87526708  -0.81186789   0.11911202    11532.762     1000 
 1508000   0.59893871    -1.694969   0.89750965  -0.79745939   0.13528194    11452.548     1000 
 1510000   0.57556086   -1.6876791   0.86247795  -0.82520112   0.13187398    11388.912     1000 
 1512000   0.60274019   -1.6877738   0.90320617  -0.78456762   0.13529161    11515.112     1000 
 1514000   0.58212704   -1.7173898   0.87231737  -0.84507243   0.11558119    11690.747     1000 
 1516000   0.56930971   -1.7351753    0.8531106  -0.88206472    0.1249755    11519.246     1000 
 1518000   0.57450545   -1.8053385   0.86089641  -0.94444204   0.12010046    11667.066     1000 
 1520000   0.56034843   -1.6896681   0.83968212  -0.84998598   0.12173126    11426.702     1000 
 1522000   0.58315942   -1.6941679   0.87386439  -0.82030346   0.13019533    11719.386     1000 
 1524000    0.5970239     -1.67771   0.89464031  -0.78306964   0.13014166    11504.314     1000 
 1526000   0.59178799   -1.6987161   0.88679431  -0.81192175   0.13319092    11415.101     1000 
 1528000   0.57397614   -1.7466771   0.86010325  -0.88657386   0.12953817    11571.069     1000 
 1530000   0.57332192   -1.6630358    0.8591229  -0.80391289   0.14180772    11210.125     1000 
 1532000   0.57239407   -1.6563696   0.85773251  -0.79863706   0.12851803     11520.63     1000 
 1534000   0.60538968   -1.7772492   0.90717644   -0.8700728   0.13960607    11372.287     1000 
 1536000   0.58216841   -1.6577119   0.87237936   -0.7853325   0.12526788    11420.038     1000 
 1538000   0.58176851   -1.6737934   0.87178011  -0.80201334   0.12718599    11406.354     1000 
 1540000   0.57292779   -1.7485544   0.85853229   -0.8900221   0.13791296    11465.806     1000 
 1542000   0.55193311   -1.7461234   0.82707177  -0.91905159   0.13413236    11560.424     1000 
 1544000   0.58588406    -1.684102   0.87794726  -0.80615475    0.1432128    11435.089     1000 
 1546000   0.58276191   -1.7491335   0.87326872  -0.87586473   0.12848081     11513.03     1000 
 1548000   0.56089818    -1.733873   0.84050593  -0.89336705   0.11834138    11546.964     1000 
 1550000   0.55574371   -1.7125944   0.83278194  -0.87981245   0.13023898    11503.515     1000 
 1552000   0.55173949    -1.694188   0.82678163  -0.86740638   0.12626332     11569.19     1000 
 1554000   0.58816808   -1.7115834   0.88136986  -0.83021356   0.14737332     11326.26     1000 
 1556000    0.6169752   -1.7474097   0.92453733  -0.82287237   0.13724656    11455.167     1000 
 1558000   0.56150531   -1.7369467    0.8414157  -0.89553101   0.12165792    11523.891     1000 
 1560000    0.5763461   -1.7437025   0.86365464  -0.88004789   0.12788796    11439.698     1000 
 1562000   0.59896157   -1.7347071   0.89754391  -0.83716314   0.13756171    11315.597     1000 
 1564000   0.59541932   -1.7263779   0.89223585  -0.83414208   0.14601544    11459.529     1000 
 1566000   0.57221307   -1.6982891   0.85746129  -0.84082778   0.11635606    11456.749     1000 
 1568000   0.58953115   -1.6701114   0.88341242  -0.78669893   0.13281266    11521.277     1000 
 1570000   0.55616832    -1.702908   0.83341823  -0.86948974   0.11261105    11620.817     1000 
 1572000   0.56488407   -1.7829169   0.84647878  -0.93643807   0.10998031    11523.077     1000 
 1574000   0.59796766    -1.699898   0.89605455  -0.80384348   0.13464356    11514.603     1000 
 1576000   0.54999579   -1.6902548   0.82416869  -0.86608606   0.12685459    11503.148     1000 
 1578000   0.59602517   -1.6920597   0.89314371    -0.798916   0.12545399    11549.514     1000 
 1580000   0.59066601   -1.7781051   0.88511301  -0.89299209   0.12393024    11701.064     1000 
 1582000   0.60319597    -1.720944   0.90388916   -0.8170548   0.13409935    11485.264     1000 
 1584000   0.60326691   -1.7592339   0.90399546  -0.85523846   0.12167719    11811.744     1000 
 1586000   0.56353979   -1.6692878   0.84446437  -0.82482346   0.11726246    11594.507     1000 
 1588000    0.5789202   -1.6823052   0.86751191  -0.81479329   0.14005699    11326.218     1000 
[...]
 2614000   0.56081122   -1.7087056   0.84037562  -0.86832995   0.12133015    11591.705     1000 
 2616000   0.58124506    -1.776072   0.87099572  -0.90507631   0.12199117    11640.724     1000 
 2618000   0.57093792   -1.7362039   0.85555048  -0.88065345   0.13175342    11418.934     1000 
 2620000   0.57913441   -1.7692265   0.86783291  -0.90139359   0.11187542    11639.563     1000 
 2622000   0.59520368   -1.6675983   0.89191272  -0.77568557   0.12828218    11647.247     1000 
 2624000   0.57308369   -1.7620758    0.8587659  -0.90330992   0.12272067    11622.974     1000 
 2626000   0.58914223   -1.7474095   0.88282963  -0.86457982   0.13230447    11592.028     1000 
 2628000   0.58805871   -1.7070193   0.88120598  -0.82581332   0.11729217    11570.829     1000 
 2630000   0.57253928    -1.758867   0.85795012  -0.90091687    0.1424226    11376.562     1000 
 2632000   0.57324214    -1.682684   0.85900335  -0.82368063    0.1403692    11386.871     1000 
 2634000   0.58413933   -1.6924732   0.87533278  -0.81714037   0.13234736    11434.228     1000 
 2636000   0.60130801   -1.7394485   0.90106005   -0.8383885   0.13887572      11444.7     1000 
 2638000   0.58003998   -1.7190433   0.86918991  -0.84985337    0.1229366    11632.612     1000 
 2640000   0.57631091    -1.712492    0.8636019   -0.8488901   0.12698452    11484.261     1000 
 2642000    0.5475749   -1.7580158   0.82054099  -0.93747484   0.11853971    11620.545     1000 
 2644000   0.56069621   -1.7292035   0.84020326  -0.88900023   0.12833555    11413.046     1000 
 2646000   0.54138062   -1.7418835   0.81125885  -0.93062462   0.13564518    11445.343     1000 
 2648000   0.59122304   -1.7031752   0.88594772  -0.81722747     0.120225    11528.215     1000 
 2650000    0.5742922   -1.7111318   0.86057687  -0.85055492    0.1393449    11405.919     1000 
 2652000    0.5784104   -1.6730181   0.86674798  -0.80627013    0.1315413    11468.577     1000 
 2654000   0.59560898   -1.7844298   0.89252006  -0.89190977    0.1300056    11541.895     1000 
 2656000   0.59071207   -1.7034013   0.88518204  -0.81821923   0.14186597    11453.595     1000 
 2658000   0.56957437     -1.73106   0.85350719  -0.87755281   0.13945361    11521.588     1000 
 2660000    0.5825459   -1.7072672   0.87294502  -0.83432213   0.13772245    11418.933     1000 
 2662000    0.5747645   -1.7005724   0.86128461  -0.83928783   0.12584298    11457.321     1000 
 2664000   0.59060248   -1.7013743   0.88501782  -0.81635644   0.13967893    11339.543     1000 
 2666000   0.58441382   -1.6551658   0.87574411  -0.77942173   0.12409482    11332.273     1000 
 2668000   0.60008906   -1.7101402   0.89923346  -0.81090674    0.1309664    11446.375     1000 
 2670000   0.57893105   -1.7230809   0.86752818  -0.85555277   0.12703042    11472.097     1000 
 2672000   0.58328336    -1.734887   0.87405011  -0.86083689   0.13569618    11447.123     1000 
 2674000   0.58140933    -1.719688   0.87124189  -0.84844609   0.12817827    11493.691     1000 
 2676000   0.57855544   -1.7082027   0.86696533  -0.84123741   0.12480664    11532.162     1000 
 2678000   0.59449836   -1.7643766   0.89085579  -0.87352081   0.13853766    11521.297     1000 
 2680000   0.57492027   -1.6845265   0.86151803  -0.82300849   0.13100695    11389.123     1000 
 2682000   0.59536789   -1.7019897   0.89215878  -0.80983088   0.12123301    11558.336     1000 
 2684000   0.60370275   -1.7093163   0.90464856  -0.80466777   0.13783318    11543.852     1000 
 2686000   0.57790626   -1.7600583   0.86599254  -0.89406576    0.1276312    11529.379     1000 
 2688000   0.55092193   -1.6532704   0.82555651  -0.82771387   0.12222622      11394.7     1000 
 2690000   0.58581253   -1.7320575   0.87784007  -0.85421743    0.1301038    11535.034     1000 
 2692000   0.57384091   -1.7142645    0.8599006  -0.85436389     0.125347    11596.826     1000 
 2694000   0.60706399   -1.6847424    0.9096854  -0.77505702   0.14283755    11370.809     1000 
 2696000    0.6019987   -1.7124277   0.90209506   -0.8103326   0.13226389    11520.198     1000 
 2698000   0.57225043   -1.7410066   0.85751728  -0.88348936   0.12211601    11476.717     1000 
 2700000   0.58592737   -1.7094299   0.87801216  -0.83141775   0.12074384    11516.912     1000 
 2702000   0.61266075    -1.740497   0.91807214  -0.82242486    0.1317202     11496.55     1000 
 2704000   0.59412768    -1.709506   0.89030033  -0.81920569   0.14182382    11307.074     1000 
 2706000   0.56595329   -1.6599864   0.84808101  -0.81190539   0.12490106    11382.689     1000 
 2708000   0.57265127    -1.721389   0.85811792  -0.86327104   0.11962124    11502.832     1000 
 2710000   0.57955316   -1.7193685   0.86846041  -0.85090807   0.12578649    11520.983     1000 
 2712000   0.55480033   -1.6200721   0.83136829  -0.78870378   0.14747834    11090.641     1000 
 2714000   0.59270597   -1.7395362   0.88816989  -0.85136631   0.12566833    11604.286     1000 
 2716000   0.56977343   -1.7379763   0.85380549  -0.88417086   0.12808114     11418.27     1000 
 2718000   0.58086388   -1.6705911   0.87042452  -0.80016653   0.13189545     11253.87     1000 
 2720000   0.59611423   -1.6932517   0.89327718  -0.79997452   0.13110282    11389.979     1000 
 2722000   0.56486464   -1.7116782   0.84644966  -0.86522855   0.13541526     11373.89     1000 
 2724000   0.56647177   -1.7783346   0.84885794   -0.9294767   0.12529584    11597.649     1000 
 2726000   0.59770114   -1.7519036   0.89565517  -0.85624842   0.13178606     11552.02     1000 
 2728000   0.59759261   -1.7372067   0.89549252   -0.8417142   0.13161169    11569.259     1000 
 2730000   0.56278621    -1.680992   0.84333514  -0.83765687   0.12196664    11441.319     1000 
 2732000    0.5516844    -1.689406   0.82669908  -0.86270697   0.13648729    11488.325     1000 
 2734000   0.57187256   -1.7222041   0.85695103  -0.86525309   0.11924362    11599.071     1000 
 2736000   0.57515254   -1.7416911   0.86186609  -0.87982503    0.1326173    11417.774     1000 
 2738000   0.57343886   -1.6922986   0.85929813  -0.83300052   0.12443705     11567.43     1000 
 2740000    0.5692702   -1.6796349   0.85305139  -0.82658355   0.13576765    11375.402     1000 
 2742000   0.59472885   -1.6353895   0.89120118  -0.74418835   0.14022696    11234.552     1000 
 2744000   0.57703023   -1.7266821    0.8646798  -0.86200226   0.12813247    11409.074     1000 
 2746000   0.55447485   -1.7241665   0.83088056   -0.8932859   0.11878884    11524.292     1000 
 2748000   0.55531272   -1.7334749   0.83213611  -0.90133875   0.11851465    11571.993     1000 
 2750000    0.5865662   -1.6609644   0.87896946  -0.78199491   0.13191748    11423.544     1000 
 2752000   0.57094417    -1.671393   0.85555983  -0.81583319   0.12689401    11414.743     1000 
 2754000   0.57555683   -1.7606944   0.86247191  -0.89822253   0.13297995    11483.321     1000 
 2756000   0.55007526   -1.6997788   0.82428778  -0.87549102   0.14223693     11316.55     1000 
 2758000   0.57064115   -1.7060894   0.85510576  -0.85098368   0.13242992    11521.145     1000 
 2760000   0.57108956   -1.7338584    0.8557777  -0.87808066   0.13867534    11390.236     1000 
 2762000   0.55874363   -1.7045624   0.83727733  -0.86728506   0.12640975     11559.67     1000 
 2764000   0.57066614   -1.7573049    0.8551432  -0.90216165   0.12699333    11604.288     1000 
 2766000   0.61294265   -1.7184956   0.91849456  -0.80000107   0.14189773     11365.52     1000 
 2768000   0.55966775   -1.7212542   0.83866212  -0.88259205   0.12600797    11478.128     1000 
 2770000   0.60375694   -1.7392442   0.90472978  -0.83451446   0.12165761    11603.158     1000 
 2772000   0.58015836   -1.6701111    0.8693673  -0.80074375   0.12367081    11434.377     1000 
 2774000   0.58561026    -1.694448   0.87753698  -0.81691101    0.1257332    11573.478     1000 
 2776000    0.5826014   -1.6737585   0.87302819  -0.80073031   0.12622141    11465.334     1000 
 2778000   0.58566673   -1.7309351   0.87762159  -0.85331355   0.13049115    11465.975     1000 
 2780000   0.57690298    -1.724301   0.86448912  -0.85981184   0.13252407    11316.799     1000 
 2782000   0.58961587   -1.7064329   0.88353938  -0.82289355   0.12480327     11348.11     1000 
 2784000   0.57280313   -1.7686605   0.85834549  -0.91031496    0.1285989    11496.327     1000 
 2786000   0.56336352   -1.6981967   0.84420023  -0.85399652   0.12923835    11626.483     1000 
 2788000   0.57961298   -1.7094591   0.86855005  -0.84090904   0.12956575    11589.102     1000 
 2790000   0.59935331   -1.6931351   0.89813094  -0.79500413   0.12074526    11544.849     1000 
 2792000   0.56273892   -1.6814247   0.84326427   -0.8381604   0.12944087    11419.469     1000 
 2794000   0.59149606   -1.7157161   0.88635685  -0.82935926   0.12054568    11629.955     1000 
 2796000   0.57028209   -1.6934444   0.85456771  -0.83887668   0.12966918    11564.032     1000 
 2798000   0.58839568   -1.7140874   0.88171093  -0.83237646   0.14162681    11419.106     1000 
 2800000   0.59697422   -1.7134871   0.89456586  -0.81892127   0.12592478    11696.295     1000 
 2802000   0.58921875   -1.6943391    0.8829443  -0.81139484   0.12921068    11310.085     1000 
 2804000   0.60378293   -1.7601006   0.90476872  -0.85533187   0.12648999    11664.606     1000 
 2806000    0.5456873   -1.7322127   0.81771242  -0.91450027   0.12147705    11592.735     1000 
 2808000   0.56717189   -1.7006882   0.84990708  -0.85078113   0.12006589    11654.941     1000 
 2810000   0.56257474   -1.7598453   0.84301825  -0.91682704   0.11473707    11672.484     1000 
 2812000   0.57741781   -1.7102892   0.86526058  -0.84502858   0.12703847     11453.11     1000 
 2814000    0.5789598   -1.6886848   0.86757126  -0.82111356   0.12671328    11328.253     1000 
 2816000   0.59355722   -1.7064847   0.88944549  -0.81703918   0.12369731    11439.919     1000 
 2818000   0.57259631   -1.7124975   0.85803557   -0.8544619   0.13930717      11404.3     1000 
 2820000   0.56108513   -1.7016768   0.84078607  -0.86089069   0.12877735     11469.46     1000 
 2822000    0.5476028   -1.7040949   0.82058279   -0.8835121   0.12105293    11655.618     1000 
 2824000   0.55329941   -1.6580803   0.82911916  -0.82896109   0.12854004    11537.791     1000 
 2826000   0.57635802   -1.7133597   0.86367249   -0.8496872   0.13208088    11290.329     1000 
 2828000   0.58316667   -1.7529912   0.87387526  -0.87911591   0.13313371     11514.98     1000 
 2830000   0.56043114   -1.7914628   0.83980606  -0.95165674   0.12780827    11612.664     1000 
 2832000   0.57444525   -1.6135502   0.86080621  -0.75274402   0.12253674    11503.268     1000 
 2834000   0.57995307   -1.6834329   0.86905967  -0.81437325   0.12302563    11709.221     1000 
 2836000   0.58105898      -1.7707   0.87071688  -0.89998313   0.11931229    11669.799     1000 
 2838000   0.56912668   -1.7100979   0.85283633   -0.8572616   0.13452754    11346.509     1000 
 2840000   0.56563232   -1.6804955   0.84760004   -0.8328955   0.12740568    11357.826     1000 
 2842000   0.62013959   -1.7036519   0.92927917  -0.77437272   0.13845434    11415.838     1000 
 2844000   0.57023645   -1.6709874   0.85449932  -0.81648806    0.1189203    11473.073     1000 
 2846000   0.57495937   -1.7442206   0.86157661  -0.88264401   0.12673707    11546.392     1000 
 2848000   0.60048997   -1.7345114   0.89983421  -0.83467719   0.13402858    11532.296     1000 
 2850000   0.56704248    -1.699517   0.84971316  -0.84980383    0.1317715    11571.564     1000 
 2852000   0.61182692   -1.7111475   0.91682264   -0.7943249   0.13493416    11513.116     1000 
 2854000   0.56452323   -1.7112799   0.84593805  -0.86534182    0.1218457    11552.169     1000 
 2856000   0.61137612   -1.7396407   0.91614712  -0.82349357   0.12550835     11596.38     1000 
 2858000   0.56332941   -1.6776313   0.84414912  -0.83348223   0.13066318    11459.284     1000 
 2860000   0.60126297    -1.753938   0.90099256  -0.85294544   0.13550748     11445.56     1000 
 2862000   0.58962334   -1.7180431   0.88355057  -0.83449256   0.14551767    11289.737     1000 
 2864000   0.55623634   -1.7195976   0.83352016  -0.88607745   0.12501096    11496.545     1000 
 2866000   0.54678648   -1.7197869   0.81935954  -0.90042731   0.12954539    11529.594     1000 
 2868000    0.5747326   -1.6774595    0.8612368  -0.81622272   0.13574056    11399.757     1000 
 2870000   0.58304164   -1.7227584    0.8736879  -0.84907049   0.14291907    11497.765     1000 
 2872000   0.58807795   -1.7194739   0.88123481  -0.83823912   0.15460176    11053.192     1000 
 2874000   0.58542526   -1.6901155   0.87725976  -0.81285576    0.1266546    11663.053     1000 
 2876000   0.57116254   -1.7841957   0.85588706  -0.92830868   0.12114185    11683.781     1000 
 2878000   0.55274735   -1.7696017    0.8282919  -0.94130983   0.12483896    11631.689     1000 
 2880000   0.56438665   -1.7761528   0.84573339   -0.9304194   0.12581175    11548.874     1000 
 2882000   0.60323373   -1.7697857   0.90394575  -0.86583994   0.12687508    11377.833     1000 
 2884000   0.57196095   -1.6716659   0.85708349  -0.81458241   0.12485595    11546.013     1000 
 2886000   0.59927975   -1.7125874    0.8980207   -0.8145667   0.12317575    11532.131     1000 
 2888000   0.58367501    -1.662334     0.874637  -0.78769698   0.13432237    11403.352     1000 
 2890000   0.58955632   -1.6887105   0.88345014  -0.80526031   0.14413514    11485.984     1000 
 2892000   0.55476227   -1.7121293   0.83131126  -0.88081805   0.12682364     11511.63     1000 
 2894000   0.59548597   -1.7045386   0.89233572  -0.81220284   0.13502078    11531.241     1000 
 2896000   0.58802317   -1.6950533   0.88115272   -0.8139006    0.1460995    11289.583     1000 
 2898000   0.60703132   -1.7238663   0.90963643  -0.81422987   0.13722296    11409.353     1000 
 2900000   0.59325101   -1.7546452   0.88898664  -0.86565853   0.12185455    11396.724     1000 
 2902000   0.60207718   -1.6889702   0.90221266  -0.78675757   0.13936092    11309.716     1000 
 2904000   0.55702706    -1.742891   0.83470504  -0.90818596   0.12407306    11538.034     1000 
 2906000   0.59585895   -1.7145755   0.89289463  -0.82168089   0.13346291    11592.146     1000 
 2908000    0.5958811   -1.6700929   0.89292783  -0.77716505   0.12480057    11386.387     1000 
 2910000   0.59615345   -1.7129372   0.89333594  -0.81960128   0.14720592    11295.396     1000 
 2912000   0.56105916    -1.684723   0.84074716  -0.84397582   0.13086054    11570.636     1000 
 2914000   0.58883632   -1.6887671   0.88237122  -0.80639589   0.13961125    11476.737     1000 
 2916000   0.57478346   -1.7175829   0.86131302  -0.85626992   0.13062922    11376.555     1000 
 2918000   0.58811157   -1.7252921   0.88128519  -0.84400694    0.1342614    11490.333     1000 
 2920000   0.58061591   -1.6392346   0.87005293  -0.76918162   0.11512132    11543.727     1000 
 2922000   0.60527477   -1.7278959   0.90700425   -0.8208917    0.1357631    11490.721     1000 
 2924000   0.55959997   -1.7036377   0.83856055  -0.86507715   0.12436872    11590.122     1000 
 2926000   0.58280271   -1.7197796   0.87332985  -0.84644978   0.12200706    11561.527     1000 
 2928000   0.59296651   -1.7245882   0.88856032  -0.83602791   0.12060258    11600.562     1000 
 2930000   0.56522576   -1.6659729    0.8469908   -0.8189821   0.14087004    11380.255     1000 
 2932000   0.54991326    -1.743015   0.82404502  -0.91896998   0.12448583    11436.462     1000 
 2934000   0.60562137   -1.7222033   0.90752362  -0.81467971   0.13314951    11416.758     1000 
 2936000   0.57116155   -1.7430079   0.85588558  -0.88712236   0.12782509    11595.443     1000 
 2938000   0.58502366   -1.6811153   0.87665795  -0.80445736   0.13795299    11338.232     1000 
 2940000   0.60189679   -1.7267328   0.90194234  -0.82479045   0.12766874    11474.355     1000 
 2942000   0.56368001   -1.7193354   0.84467449  -0.87466087   0.12090593    11380.388     1000 
 2944000   0.55053093   -1.6974333    0.8249706  -0.87246269   0.12101958    11471.685     1000 
 2946000   0.57198071   -1.7006366    0.8571131  -0.84352354   0.12882916    11540.795     1000 
 2948000   0.57698766   -1.7683734   0.86461602  -0.90375743    0.1290479    11420.953     1000 
 2950000   0.56945989   -1.7436739   0.85333565  -0.89033827   0.13943721    11405.908     1000 
 2952000   0.58988542   -1.7317108    0.8839433  -0.84776753   0.13628279    11505.345     1000 
 2954000   0.56922634   -1.7077655   0.85298567  -0.85477983   0.12087815    11540.952     1000 
 2956000   0.58161221    -1.704262   0.87154589  -0.83271607   0.13437932    11500.142     1000 
 2958000   0.57152751   -1.7122704   0.85643398  -0.85583643   0.12531583    11665.468     1000 
 2960000   0.55994696   -1.7016854   0.83908053  -0.86260489   0.13047508    11502.637     1000 
 2962000   0.57589053   -1.7218327   0.86297197  -0.85886072   0.13286461     11476.22     1000 
 2964000   0.61413384    -1.781961   0.92027955  -0.86168146    0.1395942    11425.075     1000 
 2966000   0.59171335    -1.714702   0.88668246  -0.82801957   0.12552551    11622.057     1000 
 2968000   0.55568061   -1.7401943    0.8326874  -0.90750689   0.12018465    11529.546     1000 
 2970000   0.58603062   -1.7100083   0.87816688  -0.83184139   0.12580735    11576.662     1000 
 2972000    0.6005968   -1.6879285    0.8999943  -0.78793417   0.12867595    11406.323     1000 
 2974000   0.59175286    -1.802491   0.88674166  -0.91574932   0.12458192    11666.729     1000 
 2976000   0.56307857   -1.6490319   0.84377324  -0.80525862   0.14206854    11213.997     1000 
 2978000   0.58834154   -1.7078715   0.88162979  -0.82624173   0.12446129    11660.094     1000 
 2980000   0.58417544   -1.7782937    0.8753869  -0.90290679   0.12724709    11547.363     1000 
 2982000   0.57983758   -1.7358596   0.86888662  -0.86697298   0.12956348    11616.349     1000 
 2984000   0.58353188   -1.6834103   0.87442252  -0.80898776   0.12559287     11539.34     1000 
 2986000   0.58848993   -1.6991016   0.88185216  -0.81724943   0.13422629    11335.916     1000 
 2988000   0.59607446   -1.6845191   0.89321759  -0.79130148   0.12927368    11543.376     1000 
 2990000   0.58249216    -1.752393    0.8728645  -0.87952848   0.12523823    11527.329     1000 
 2992000   0.57239334   -1.7365523   0.85773142  -0.87882085   0.12969402    11448.619     1000 
 2994000   0.58850538   -1.7302037   0.88187531  -0.84832836   0.12829967    11412.481     1000 
 2996000   0.58258897   -1.6884465   0.87300957  -0.81543697   0.12910385    11472.102     1000 
 2998000   0.59651637    -1.647143   0.89387978  -0.75326319   0.14037333    11335.629     1000 
 3000000    0.5666131   -1.6885776   0.84906974  -0.83950786   0.12751772    11528.559     1000 
Loop time of 1146.45 on 1 procs for 3000000 steps with 1000 atoms

Performance: 1130441.955 tau/day, 2616.764 timesteps/s
100.0% CPU use with 1 MPI tasks x 1 OpenMP threads

MPI task timing breakdown:
Section |  min time  |  avg time  |  max time  |%varavg| %total
---------------------------------------------------------------
Pair    | 899.83     | 899.83     | 899.83     |   0.0 | 78.49
Neigh   | 144        | 144        | 144        |   0.0 | 12.56
Comm    | 24.438     | 24.438     | 24.438     |   0.0 |  2.13
Output  | 0.017787   | 0.017787   | 0.017787   |   0.0 |  0.00
Modify  | 72.756     | 72.756     | 72.756     |   0.0 |  6.35
Other   |            | 5.415      |            |       |  0.47

Nlocal:        1000.00 ave        1000 max        1000 min
Histogram: 1 0 0 0 0 0 0 0 0 0
Nghost:        2180.00 ave        2180 max        2180 min
Histogram: 1 0 0 0 0 0 0 0 0 0
Neighs:        27067.0 ave       27067 max       27067 min
Histogram: 1 0 0 0 0 0 0 0 0 0

Total # of neighbors = 27067
Ave neighs/atom = 27.067000
Neighbor list builds = 150000
Dangerous builds not checked

Total wall time: 0:19:06
