LAMMPS (29 Sep 2021 - Update 2)
OMP_NUM_THREADS environment is not set. Defaulting to 1 thread. (src/comm.cpp:98)
  using 1 OpenMP thread(s) per MPI task
# ----------------------- Inicialização -----------------------

units			lj
atom_style 		atomic
dimension 		3
boundary 		p p p

# -------------------- Criação dos Átomos ---------------------

read_data 		topologia.txt
Reading data file ...
  orthogonal box = (0.0000000 0.0000000 0.0000000) to (21.540000 21.540000 21.540000)
  1 by 1 by 1 MPI processor grid
  reading atoms ...
  1000 atoms
  read_data CPU = 0.006 seconds

velocity 		all create ${temp} 87287 rot yes dist gaussian
velocity 		all create 0.61 87287 rot yes dist gaussian

# ------------------ Interação Interatômica -------------------

pair_style		table linear 1000
pair_coeff		1 1 force.table AA 5.0
WARNING: 2 of 1000 force values in table AA are inconsistent with -dE/dr.
WARNING:  Should only be flagged at inflection points (src/pair_table.cpp:465)
pair_coeff		1 2 force.table AB 5.0
WARNING: 1 of 1000 force values in table AB are inconsistent with -dE/dr.
WARNING:  Should only be flagged at inflection points (src/pair_table.cpp:465)
pair_coeff		2 2 force.table BB 5.0
pair_write		1 1 1000 r 0.008 5.0 table.check AA
Appending to table file table.check with DATE: 2023-06-15
Neighbor list info ...
  update every 1 steps, delay 10 steps, check yes
  max neighbors/atom: 2000, page size: 100000
  master list distance cutoff = 5.3
  ghost atom cutoff = 5.3
  binsize = 2.65, bins = 9 9 9
  1 neighbor lists, perpetual/occasional/extra = 1 0 0
  (1) pair table, perpetual
      attributes: half, newton on
      pair build: half/bin/atomonly/newton
      stencil: half/bin/3d
      bin: standard
pair_write		1 2 1000 r 0.008 5.0 table.check AB
Appending to table file table.check with DATE: 2023-06-15
pair_write		2 2 1000 r 0.008 5.0 table.check BB
Appending to table file table.check with DATE: 2023-06-15

neighbor 		0.3 bin
neigh_modify		every 20 delay 0 check no

# ------------------------- Ensemble --------------------------------------

fix 1			all npt temp ${temp} ${temp} 0.5 iso ${press} ${press} 5
fix 1			all npt temp 0.61 ${temp} 0.5 iso ${press} ${press} 5
fix 1			all npt temp 0.61 0.61 0.5 iso ${press} ${press} 5
fix 1			all npt temp 0.61 0.61 0.5 iso 0.13 ${press} 5
fix 1			all npt temp 0.61 0.61 0.5 iso 0.13 0.13 5

# ---------------------- Função de Distribuição Radial -----------------------

#compute RDF 		all rdf 2000 1 1 1 2 2 2
#fix 2 			all ave/time 1 2000 2000 c_RDF[*] file rdf.data mode vector

# ------------------------- Execução ---------------------------

timestep 		0.005
thermo_style		custom step temp pe ke etotal press vol atoms
thermo			2000
run			3000000
Per MPI rank memory allocation (min/avg/max) = 2.670 | 2.670 | 2.670 Mbytes
Step Temp PotEng KinEng TotEng Press Volume Atoms 
       0         0.61  -0.99052333     0.914085  -0.07643833   0.13007631    9993.9483     1000 
    2000   0.62704208   -1.6381141   0.93962256   -0.6984915   0.12592883    11619.884     1000 
    4000   0.61133801   -1.6153853   0.91609001  -0.69929531   0.12881399    11457.299     1000 
    6000    0.6283484   -1.6194337   0.94158007  -0.67785366    0.1247575    11517.181     1000 
    8000   0.62753226   -1.6657692   0.94035709  -0.72541209   0.13654354     11531.31     1000 
   10000   0.61484711   -1.6527362    0.9213484  -0.73138777   0.14481017    11393.024     1000 
   12000   0.60392779   -1.6682821   0.90498579  -0.76329626   0.14303012     11263.06     1000 
   14000   0.59605923    -1.621316   0.89319475  -0.72812122   0.12094609    11683.926     1000 
   16000   0.61506802   -1.6285808   0.92167943   -0.7069014   0.13699953    11504.975     1000 
   18000   0.59666061   -1.5538378   0.89409592  -0.65974189   0.14923722    11463.309     1000 
   20000   0.62377266   -1.6495225   0.93472333  -0.71479915   0.12058364    11717.487     1000 
   22000   0.60618606   -1.6781548   0.90836981  -0.76978499   0.12853023    11631.944     1000 
   24000   0.60840874   -1.6335061   0.91170049  -0.72180562   0.12221522    11515.647     1000 
   26000   0.58519105   -1.6713811   0.87690879  -0.79447235   0.12641363    11623.933     1000 
   28000   0.62747295   -1.6269132   0.94026821  -0.68664498   0.12973396    11466.389     1000 
   30000   0.56630192   -1.6395631   0.84860343  -0.79095966   0.14037876    11468.784     1000 
   32000   0.59551579   -1.6278117   0.89238041  -0.73543124   0.14228723    11253.156     1000 
   34000   0.60905694   -1.6288856   0.91267183  -0.71621378   0.13784983    11552.496     1000 
   36000   0.62079667   -1.6169093   0.93026381  -0.68664546   0.14277237    11349.644     1000 
   38000    0.6149164   -1.6686196   0.92145222  -0.74716733   0.11967614    11638.041     1000 
   40000   0.60425501   -1.5556496   0.90547614  -0.65017346   0.13824489    11342.701     1000 
   42000   0.59232551   -1.6765318   0.88759978  -0.78893205   0.12582737    11669.348     1000 
   44000   0.62184162   -1.6160504   0.93182967  -0.68422078   0.13670337    11563.403     1000 
   46000   0.60491565   -1.5777599   0.90646609  -0.67129385   0.14710807    11458.104     1000 
   48000   0.58395313   -1.6223089   0.87505377   -0.7472551   0.12932677     11449.37     1000 
   50000   0.63458793   -1.6237363   0.95093001  -0.67280631   0.13842269    11588.132     1000 
   52000   0.62294113   -1.6649437   0.93347728  -0.73146646    0.1265305     11700.15     1000 
   54000   0.61879346   -1.6193645     0.927262  -0.69210246   0.12725943    11576.122     1000 
   56000   0.62966885   -1.6725792   0.94355878  -0.72902038   0.12163904    11576.395     1000 
   58000   0.63099041   -1.6385035   0.94553913  -0.69296436   0.13161214    11572.903     1000 
   60000    0.5838472   -1.5963996   0.87489503   -0.7215046   0.13642632    11498.759     1000 
   62000    0.5767233   -1.6509357   0.86421987  -0.78671579   0.11481062    11754.606     1000 
   64000   0.61010294   -1.6245153   0.91423926  -0.71027603   0.12794979    11618.256     1000 
   66000   0.60587236   -1.6657198   0.90789972  -0.75782008   0.12560699    11723.929     1000 
   68000   0.59027547   -1.6263288   0.88452779  -0.74180102   0.13051296    11533.048     1000 
   70000   0.59085239   -1.6728309   0.88539231  -0.78743857    0.1233819    11577.135     1000 
   72000   0.61942206   -1.6157853   0.92820395  -0.68758133   0.13859181    11294.537     1000 
   74000   0.64037958   -1.6603802    0.9596088  -0.70077137   0.12903312    11646.459     1000 
   76000    0.6129253    -1.596986   0.91846856  -0.67851748   0.12258816    11575.312     1000 
   78000   0.60562483    -1.619936   0.90752881  -0.71240721   0.12882749    11398.446     1000 
   80000   0.62447273   -1.6268018   0.93577239  -0.69102944   0.12702163    11649.449     1000 
   82000   0.62071146   -1.5725357   0.93013613  -0.64239962   0.13806484    11396.353     1000 
   84000   0.61602096    -1.666954   0.92310741   -0.7438466    0.1275091    11483.686     1000 
   86000   0.64053886    -1.653995   0.95984749  -0.69414751    0.1178021    11669.408     1000 
   88000   0.61704599   -1.6849313   0.92464341  -0.76028793   0.12146395    11560.157     1000 
   90000    0.6154479   -1.6189381   0.92224868  -0.69668941   0.12364376    11475.211     1000 
   92000   0.60127906   -1.6224952   0.90101667  -0.72147851   0.13842915    11281.859     1000 
   94000   0.62880337   -1.7010474   0.94226185  -0.75878557   0.11967169     11629.68     1000 
   96000   0.62510971   -1.6478862   0.93672689  -0.71115929    0.1300516    11447.353     1000 
   98000   0.58734662   -1.6383779   0.88013891  -0.75823903   0.14297998    11509.816     1000 
  100000   0.61741492   -1.6332085   0.92519626  -0.70801224   0.13864846    11484.966     1000 
  102000   0.60018922   -1.6007112   0.89938355  -0.70132763   0.12683443    11504.665     1000 
  104000   0.59452487   -1.6680748   0.89089552  -0.77717932   0.11609023    11667.976     1000 
  106000   0.58682886   -1.6373183   0.87936305  -0.75795526    0.1277769    11564.587     1000 
  108000    0.6140648   -1.5442338    0.9201761  -0.62405767   0.12670039    11334.235     1000 
  110000   0.59536593   -1.6003351   0.89215585  -0.70817921    0.1447111    11437.852     1000 
  112000   0.60532321   -1.6143377   0.90707683  -0.70726083   0.13482446     11403.19     1000 
  114000   0.60927222   -1.6696886   0.91299442  -0.75669413   0.12727665    11586.596     1000 
  116000   0.59009155   -1.6050358   0.88425218  -0.72078363   0.13524393    11335.373     1000 
  118000   0.64069944   -1.6454963   0.96008811  -0.68540821   0.13185617    11634.567     1000 
  120000   0.62371382   -1.6807853   0.93463516  -0.74615015    0.1268077    11539.696     1000 
  122000   0.58716657   -1.6386343   0.87986911  -0.75876524   0.13224751    11647.522     1000 
  124000   0.61691362   -1.6366231   0.92444506  -0.71217808   0.13694426    11309.895     1000 
  126000   0.58887563   -1.6650046   0.88243014  -0.78257444   0.13530574    11420.856     1000 
  128000   0.60213769   -1.6429146   0.90230333  -0.74061123   0.14282481    11466.871     1000 
  130000   0.61878291   -1.6824707   0.92724619  -0.75522454   0.12853051    11642.245     1000 
  132000   0.59906054   -1.5980828   0.89769222  -0.70039055   0.11942786    11565.502     1000 
  134000   0.62160213   -1.7232217   0.93147079  -0.79175094   0.11054486    11870.119     1000 
  136000   0.60460041   -1.6237781   0.90599372  -0.71778437   0.12664901    11631.001     1000 
  138000   0.63381133   -1.6584758   0.94976628  -0.70870949   0.12547112    11660.841     1000 
  140000   0.60466689   -1.5401114   0.90609333  -0.63401806   0.13275475     11476.32     1000 
  142000   0.61409055   -1.5739897   0.92021468  -0.65377502   0.12860515    11408.861     1000 
  144000   0.63317686   -1.6341677   0.94881552  -0.68535218   0.13068512    11527.737     1000 
  146000   0.57036958   -1.6847649   0.85469882  -0.83006609   0.13674334    11524.413     1000 
  148000   0.61643566   -1.6037631   0.92372884  -0.68003429   0.12788956    11532.089     1000 
  150000   0.64116017   -1.6401178   0.96077852   -0.6793393   0.13371455    11558.796     1000 
  152000   0.60523774    -1.634307   0.90694876  -0.72735826    0.1354101    11598.807     1000 
  154000   0.61920883   -1.6461439   0.92788443  -0.71825944   0.13155933     11494.75     1000 
  156000    0.5940857   -1.6206718   0.89023743  -0.73043435   0.14203597    11374.514     1000 
  158000   0.62286972    -1.613767   0.93337028   -0.6803967   0.13679544    11559.948     1000 
  160000   0.61200466   -1.6575665   0.91708899  -0.74047749    0.1196393     11591.84     1000 
  162000   0.61731538   -1.6296524    0.9250471  -0.70460526    0.1311061    11437.009     1000 
  164000   0.57856746   -1.6550698   0.86698334  -0.78808643   0.12941487    11523.288     1000 
  166000    0.6331372   -1.6369538    0.9487561  -0.68819769   0.13620904    11412.255     1000 
  168000   0.60579448   -1.6288328   0.90778303  -0.72104981    0.1408977    11473.711     1000 
  170000   0.58913636   -1.6042783   0.88282084  -0.72145751   0.12619251    11610.191     1000 
  172000   0.62236713   -1.6146309   0.93261715  -0.68201371    0.1259921    11640.282     1000 
  174000   0.61847995   -1.6337516   0.92679221  -0.70695938   0.12903057     11630.86     1000 
  176000   0.62348788   -1.6465488   0.93429659  -0.71225225   0.12483427    11593.182     1000 
  178000   0.62672367   -1.6455683   0.93914542  -0.70642293   0.12277771    11759.991     1000 
  180000   0.59050837   -1.6152871   0.88487679  -0.73041033   0.13136336    11402.475     1000 
  182000   0.60999283   -1.6602149   0.91407426  -0.74614062   0.12242083    11746.754     1000 
  184000   0.60767555   -1.6286299   0.91060181  -0.71802809    0.1443764    11372.438     1000 
  186000   0.61135005   -1.6695488   0.91610806  -0.75344077   0.13599421    11521.446     1000 
  188000   0.63306244   -1.6458337   0.94864406  -0.69718965   0.13132335    11488.929     1000 
  190000   0.61861864   -1.6138706   0.92700003  -0.68687054   0.13554741    11374.976     1000 
  192000   0.59976025   -1.6787684   0.89874073   -0.7800277   0.12553554    11548.738     1000 
  194000   0.62273262   -1.6155415   0.93316483  -0.68237667   0.13025302     11420.09     1000 
  196000   0.61816114   -1.6560727   0.92631446   -0.7297582   0.12803076    11809.175     1000 
  198000    0.6090138   -1.6926059   0.91260718  -0.77999876   0.13901799    11391.431     1000 
  200000   0.59810028   -1.6648205   0.89625327   -0.7685672   0.13218883    11349.194     1000 
  202000    0.6024873   -1.6374317   0.90282722   -0.7346045   0.14232766    11447.263     1000 
  204000   0.61548488   -1.6823995   0.92230409  -0.76009538   0.11879209    11564.437     1000 
  206000   0.62217185   -1.6374969   0.93232452  -0.70517235   0.13120497    11596.373     1000 
  208000   0.59171956   -1.6489668   0.88669177  -0.76227508   0.13774855    11499.549     1000 
  210000   0.63197715   -1.6876339   0.94701776  -0.74061613   0.13473837    11469.093     1000 
  212000   0.60048948   -1.6434702   0.89983349  -0.74363671   0.13232832    11614.726     1000 
  214000   0.55697476    -1.645873   0.83462668  -0.81124634   0.12801662    11504.746     1000 
  216000   0.60089088   -1.6800743   0.90043498  -0.77963929   0.11866921    11613.207     1000 
  218000   0.58042476    -1.645988   0.86976651  -0.77622149   0.11825121    11513.041     1000 
  220000   0.59959132   -1.5844701   0.89848759  -0.68598249   0.14147623    11438.161     1000 
  222000   0.59356709   -1.6784117   0.88946028  -0.78895139   0.12504257    11596.189     1000 
  224000    0.5990342    -1.652557   0.89765275  -0.75490424   0.12929695    11528.847     1000 
  226000   0.59701301   -1.6398012   0.89462399  -0.74517723   0.13119427    11432.461     1000 
  228000   0.61746846   -1.6300118   0.92527649  -0.70473526   0.11538374    11780.128     1000 
  230000   0.62106172   -1.6390447   0.93066099  -0.70838367   0.12844131    11565.446     1000 
  232000   0.60374867   -1.6638824   0.90471738  -0.75916497   0.12178945    11609.076     1000 
  234000   0.62563457   -1.6298195   0.93751341   -0.6923061    0.1320271    11488.544     1000 
  236000   0.62252081    -1.618088   0.93284744  -0.68524055   0.12105451     11636.76     1000 
  238000   0.62597772   -1.6603083   0.93802761  -0.72228068   0.12863557    11525.534     1000 
  240000   0.60173728   -1.6222423   0.90170332  -0.72053899   0.13342849    11599.163     1000 
  242000   0.60469882   -1.6143127   0.90614118  -0.70817152   0.13788027    11464.934     1000 
  244000   0.61550919    -1.641758   0.92234053  -0.71941751   0.12886417    11335.157     1000 
  246000   0.57468593   -1.6869791   0.86116687  -0.82581227   0.12523078    11606.222     1000 
  248000   0.61703618   -1.6905368   0.92462872  -0.76590812   0.12201319    11662.258     1000 
  250000   0.59130561   -1.6033361   0.88607146  -0.71726464   0.13710131    11511.142     1000 
  252000   0.61826666   -1.6427173   0.92647258  -0.71624467   0.12612713    11633.266     1000 
  254000   0.61203839   -1.6791462   0.91713953  -0.76200665   0.12504277    11618.538     1000 
  256000    0.6127502   -1.6294239   0.91820618  -0.71121775   0.13345172    11526.927     1000 
  258000   0.60246714   -1.6033997   0.90279701  -0.70060271   0.14289817     11379.89     1000 
  260000   0.62839045   -1.5936544   0.94164309  -0.65201131   0.13728932    11512.982     1000 
  262000   0.62101865   -1.6419641   0.93059645  -0.71136766   0.13064809    11379.799     1000 
  264000   0.63014512   -1.6566666   0.94427246  -0.71239412   0.13333572    11757.057     1000 
  266000   0.62204521    -1.646399   0.93213475  -0.71426428   0.12515627    11490.877     1000 
  268000   0.60074765   -1.6646969   0.90022036  -0.76447658   0.12864191    11502.358     1000 
  270000   0.61778445   -1.6489367      0.92575  -0.72318673   0.11111578    11660.474     1000 
  272000   0.61382823   -1.6914765    0.9198216  -0.77165493   0.12921324    11644.397     1000 
  274000   0.58777981    -1.669817   0.88078804  -0.78902891   0.11478804    11731.513     1000 
  276000   0.60153619    -1.695243   0.90140198  -0.79384099   0.11938439    11887.087     1000 
  278000   0.59118588   -1.6046655   0.88589205  -0.71877345   0.12758434    11345.619     1000 
  280000   0.60886732   -1.6916068   0.91238769  -0.77921908   0.12170102    11691.565     1000 
  282000   0.60766606   -1.6552062   0.91058759  -0.74461858   0.11242142    11753.209     1000 
  284000   0.63362102   -1.5783665    0.9494811   -0.6288854   0.14001384    11400.228     1000 
  286000   0.60557978   -1.6133667    0.9074613  -0.70590536   0.12718223    11504.267     1000 
  288000   0.60638638   -1.6682277   0.90866999  -0.75955769   0.12684278    11553.756     1000 
  290000   0.61998081   -1.5707346   0.92904125  -0.64169337   0.14387157     11350.13     1000 
  292000   0.61609214   -1.6325927   0.92321408  -0.70937865   0.14506789    11357.333     1000 
  294000   0.60432186   -1.6501761    0.9055763  -0.74459981   0.12482962    11547.646     1000 
  296000   0.61806327   -1.6466666   0.92616782  -0.72049882    0.1133294    11730.645     1000 
  298000   0.60117065   -1.6417314   0.90085422  -0.74087716    0.1298992    11576.984     1000 
  300000   0.61647815   -1.6465893   0.92379251  -0.72279681    0.1325852    11610.739     1000 
  302000   0.61535815   -1.7053868   0.92211418  -0.78327264   0.12666477    11628.023     1000 
  304000   0.62192909   -1.6723387   0.93196074  -0.74037796   0.13629345    11656.128     1000 
  306000   0.60843912   -1.6604546   0.91174602  -0.74870858   0.14160619    11493.643     1000 
  308000   0.60967015   -1.6625529   0.91359071  -0.74896221   0.12804335    11536.986     1000 
  310000   0.59559972   -1.6736745   0.89250618  -0.78116828   0.12161787    11691.446     1000 
  312000   0.59983635   -1.6950955   0.89885476  -0.79624073   0.13226243    11634.621     1000 
  314000   0.58550486    -1.599535   0.87737903    -0.722156   0.12399417    11619.469     1000 
  316000   0.60564324   -1.6648472    0.9075564  -0.75729082   0.13067905    11418.922     1000 
  318000   0.61747376   -1.6647995   0.92528443  -0.73951504   0.12794783     11555.34     1000 
  320000   0.60970998   -1.6195298   0.91365041  -0.70587936   0.12281398     11558.28     1000 
  322000   0.61757627   -1.6482422   0.92543804  -0.72280418   0.13189853    11565.471     1000 
  324000   0.62549385   -1.6738892   0.93730254  -0.73658671   0.13607487    11455.899     1000 
  326000   0.60903236   -1.6075955     0.912635  -0.69496047   0.13225996     11628.32     1000 
  328000    0.6144646    -1.646042    0.9207752  -0.72526677   0.13650284    11662.925     1000 
  330000   0.60708874   -1.7032286   0.90972248  -0.79350611    0.1155306    11663.002     1000 
  332000   0.58984941    -1.645073   0.88388934  -0.76118369    0.1386871    11439.169     1000 
  334000    0.6106858   -1.5869174   0.91511268  -0.67180474   0.13202713     11428.97     1000 
  336000   0.62309785   -1.6030745   0.93371213  -0.66936233   0.14248385      11294.9     1000 
  338000   0.59976673   -1.6339165   0.89875045  -0.73516607   0.13605388    11458.587     1000 
  340000   0.60385057    -1.602008   0.90487008  -0.69713794   0.13768287    11448.984     1000 
  342000   0.59150871   -1.6012586   0.88637581   -0.7148828   0.13560041    11328.593     1000 
  344000   0.60894951   -1.6429017   0.91251083  -0.73039085   0.14057323    11439.219     1000 
  346000   0.60279782   -1.6131972   0.90329254  -0.70990466   0.13518642    11478.169     1000 
  348000   0.60566003   -1.6388475   0.90758155  -0.73126592    0.1213496    11587.396     1000 
  350000   0.59888588   -1.6872485   0.89743048  -0.78981801   0.12032237    11765.084     1000 
  352000   0.59400357   -1.6084165   0.89011435  -0.71830211   0.13423344    11500.821     1000 
  354000   0.62149128    -1.665179   0.93130469   -0.7338743   0.12070242    11668.439     1000 
  356000   0.58398656   -1.6739729   0.87510386  -0.79886901    0.1335553    11480.215     1000 
  358000   0.59987161   -1.6120687   0.89890761  -0.71316108   0.13914206    11329.103     1000 
  360000   0.60819712   -1.6396818   0.91138338  -0.72829838   0.14085451    11339.327     1000 
  362000    0.6156853   -1.5980078   0.92260442   -0.6754034   0.12557839    11495.992     1000 
  364000    0.5928798   -1.6352497   0.88843038  -0.74681932   0.13062005    11588.926     1000 
  366000    0.6204503   -1.6554473   0.92974477  -0.72570251   0.13825166    11543.677     1000 
  368000   0.61438721   -1.6579135   0.92065924  -0.73725427   0.12774394    11547.932     1000 
  370000   0.61727375   -1.6799308   0.92498471  -0.75494613   0.11976905    11546.021     1000 
  372000   0.62594415   -1.6289987   0.93797731  -0.69102138   0.13425873    11336.329     1000 
  374000   0.63417745   -1.6495779   0.95031491  -0.69926304   0.12871677    11578.107     1000 
  376000   0.60614214   -1.6161118   0.90830399  -0.70780784   0.13076759    11376.344     1000 
  378000   0.63203837   -1.6308565    0.9471095    -0.683747   0.13773965    11520.845     1000 
  380000   0.59471145    -1.659532    0.8911751  -0.76835689   0.13653555     11441.09     1000 
  382000   0.63853139   -1.6596984   0.95683928  -0.70285912   0.13212444    11491.267     1000 
  384000   0.60591383   -1.5998596   0.90796188  -0.69189774    0.1218691    11703.551     1000 
  386000   0.63901193   -1.6875458   0.95755938  -0.72998645   0.12544934    11616.073     1000 
  388000   0.60742498   -1.6961753   0.91022633  -0.78594902   0.12859003    11472.049     1000 
  390000    0.6201114   -1.6474471   0.92923694  -0.71821019   0.13877981    11490.452     1000 
  392000    0.5955719   -1.5688418    0.8924645  -0.67637726   0.13414263    11275.942     1000 
  394000   0.61221513   -1.6761883   0.91740437  -0.75878393   0.13109151    11618.791     1000 
  396000   0.62066467   -1.6017536     0.930066  -0.67168758   0.14198681    11379.343     1000 
  398000   0.60644909   -1.6343637   0.90876396  -0.72559972   0.13963598    11353.892     1000 
  400000    0.6182834   -1.6061245   0.92649768  -0.67962682   0.12712351    11468.482     1000 
  402000   0.61698344   -1.6584602   0.92454968  -0.73391053   0.12149595    11703.054     1000 
  404000   0.60003721   -1.5901964   0.89915576  -0.69104064     0.133475    11552.572     1000 
  406000   0.60105788   -1.6376125   0.90068523  -0.73692729   0.12864362    11645.939     1000 
  408000   0.58669209   -1.6582013    0.8791581  -0.77904317   0.11779874    11694.094     1000 
  410000   0.61388931   -1.6325249   0.91991313  -0.71261178    0.1199623    11707.136     1000 
  412000    0.6103523    -1.595717   0.91461292  -0.68110406   0.13517529    11544.312     1000 
  414000   0.61439667   -1.6339055    0.9206734  -0.71323211   0.13564542    11476.282     1000 
  416000   0.60486471   -1.6592064   0.90638977  -0.75281664    0.1277731    11455.381     1000 
  418000   0.62857476   -1.6592165   0.94191927  -0.71729725   0.13778688    11404.961     1000 
  420000   0.57711747   -1.6554653   0.86481053  -0.79065478   0.13811341    11536.159     1000 
  422000   0.62651464   -1.6103607   0.93883218  -0.67152852   0.12882419    11521.306     1000 
  424000    0.6085968   -1.6570967    0.9119823  -0.74511444   0.13025869    11572.898     1000 
  426000   0.59366623   -1.5782672   0.88960884  -0.68865838   0.11729987    11521.468     1000 
  428000   0.62075729   -1.6566933    0.9302048  -0.72648853   0.13445106    11543.289     1000 
  430000   0.60622379   -1.6722411   0.90842635  -0.76381474   0.12371629    11677.687     1000 
  432000   0.62216935     -1.67499   0.93232077  -0.74266928   0.12816027    11677.515     1000 
  434000   0.61416349   -1.6634003   0.92032399  -0.74307634   0.13423323    11459.793     1000 
  436000   0.60532369   -1.6492911   0.90707755  -0.74221355   0.11854799     11599.69     1000 
  438000   0.59823006   -1.6660105   0.89644775  -0.76956276   0.11877844    11706.782     1000 
  440000   0.60347987   -1.6673378   0.90431458  -0.76302327   0.12758472    11573.839     1000 
  442000   0.62847892    -1.599508   0.94177567  -0.65773235   0.14221928    11301.147     1000 
  444000   0.58885133   -1.6330284   0.88239372   -0.7506347   0.12163713    11548.663     1000 
  446000   0.59362386   -1.7152389   0.88954535  -0.82569355   0.13875955    11497.234     1000 
  448000   0.62622708   -1.6626801   0.93840128  -0.72427882   0.14923305    11387.436     1000 
  450000   0.59847167     -1.63777   0.89680979  -0.74096017   0.12833543    11567.865     1000 
  452000   0.62236783   -1.6429213   0.93261819  -0.71030313   0.13798801    11505.214     1000 
  454000   0.62029293    -1.636862   0.92950895  -0.70735302     0.136407    11497.198     1000 
  456000   0.62073647   -1.6353725    0.9301736  -0.70519892   0.12702713    11634.194     1000 
  458000   0.61602439    -1.618886   0.92311255  -0.69577344   0.13371891    11427.623     1000 
  460000   0.61649323   -1.6401689    0.9238151  -0.71635379   0.12457828    11567.156     1000 
  462000   0.62564332    -1.676548   0.93752652  -0.73902151   0.13019013    11510.431     1000 
  464000   0.60120853   -1.6476132   0.90091098  -0.74670221   0.12713313     11664.91     1000 
  466000    0.6091583   -1.6411599   0.91282371  -0.72833622   0.13013467    11423.473     1000 
  468000   0.60867882    -1.651519   0.91210521  -0.73941383   0.13172221     11651.09     1000 
  470000   0.57920266   -1.6378358   0.86793519  -0.76990064   0.12520215    11537.057     1000 
  472000   0.61006187   -1.6401953   0.91417772  -0.72601762   0.13224057    11511.763     1000 
  474000   0.62622787   -1.6088768   0.93840246  -0.67047431   0.14172493     11541.28     1000 
  476000    0.5882242   -1.6288039   0.88145396  -0.74734994   0.12390719    11405.305     1000 
  478000   0.60866332   -1.6296606   0.91208199  -0.71757858   0.12522565    11538.831     1000 
  480000   0.61233668   -1.6242484   0.91758652  -0.70666188   0.13553112    11359.402     1000 
  482000   0.59944514   -1.5675634   0.89826854  -0.66929485   0.13154791    11533.526     1000 
  484000   0.60529531   -1.6606431   0.90703503  -0.75360807   0.12899669    11582.327     1000 
  486000   0.60753028   -1.6429921   0.91038412  -0.73260802   0.13968364    11334.185     1000 
  488000   0.61898197   -1.6424337   0.92754448  -0.71488924   0.13055753    11511.711     1000 
  490000   0.63568383   -1.6662561   0.95257221  -0.71368392   0.12883868    11728.616     1000 
  492000   0.62580378    -1.638491   0.93776696  -0.70072407   0.14322604    11445.423     1000 
  494000   0.60336092   -1.6694955   0.90413634  -0.76535913   0.11662039    11775.221     1000 
  496000   0.61447013   -1.6246879   0.92078348  -0.70390441   0.14625022    11377.221     1000 
  498000   0.59178274   -1.5598388   0.88678644  -0.67305231   0.11839551    11626.106     1000 
  500000   0.63429833   -1.6487165   0.95049604  -0.69822047   0.12814368    11563.019     1000 
  502000   0.61116757   -1.6259808   0.91583461  -0.71014622   0.14184988    11377.732     1000 
  504000   0.62463743   -1.6822609   0.93601919  -0.74624174   0.13740429    11438.248     1000 
  506000   0.63066423   -1.6687543   0.94505035  -0.72370394   0.13284892    11497.211     1000 
  508000   0.60458667    -1.630746   0.90597312  -0.72477284    0.1242509    11551.575     1000 
  510000   0.60386918   -1.6575824   0.90489797  -0.75268444   0.11613098    11628.529     1000 
  512000   0.60173605   -1.6197076   0.90170148  -0.71800609   0.12430509    11359.912     1000 
  514000   0.60783674   -1.6431348   0.91084336  -0.73229139   0.12082463    11616.102     1000 
  516000    0.5994703   -1.6291775   0.89830624  -0.73087123   0.13311938    11585.658     1000 
  518000   0.61347671   -1.6568375   0.91929485  -0.73754266   0.12908014    11454.587     1000 
  520000   0.62706223   -1.6559169   0.93965276  -0.71626413   0.13222939    11471.857     1000 
  522000   0.64171476   -1.5750764   0.96160957  -0.61346679   0.13304186    11505.132     1000 
  524000   0.60511711   -1.6226039   0.90676799  -0.71583592   0.12263796    11577.575     1000 
  526000   0.60967293   -1.6601087   0.91359488  -0.74651386   0.14189479    11396.338     1000 
  528000   0.60747689    -1.687712   0.91030413  -0.77740784   0.13073281    11599.517     1000 
  530000   0.59598152   -1.7135197   0.89307832  -0.82044139   0.12847931    11548.627     1000 
  532000   0.61198169   -1.6579656   0.91705456    -0.740911   0.13389787    11440.371     1000 
  534000   0.63773639   -1.6241733   0.95564799  -0.66852531   0.12876541    11554.493     1000 
  536000   0.59522129   -1.6528036    0.8919391  -0.76086448    0.1281548    11589.866     1000 
  538000   0.61370592   -1.6141083   0.91963833     -0.69447    0.1339735    11442.577     1000 
  540000   0.60753733   -1.5579526   0.91039468  -0.64755788   0.14015678    11360.942     1000 
  542000   0.60977328   -1.5955121   0.91374527  -0.68176684   0.13316054    11483.854     1000 
  544000   0.62152543   -1.6617166   0.93135586  -0.73036072    0.1329142    11400.166     1000 
  546000   0.61945826   -1.6059489    0.9282582  -0.67769073    0.1297212    11352.294     1000 
  548000   0.59782253   -1.6639154   0.89583706  -0.76807839   0.14098231    11285.483     1000 
  550000   0.61249257   -1.6691869   0.91782011  -0.75136677   0.11951538    11715.295     1000 
  552000   0.59820382   -1.6394939   0.89640843  -0.74308547   0.12290011    11551.325     1000 
  554000   0.62267351   -1.6256366   0.93307626   -0.6925603   0.12734721    11662.701     1000 
  556000   0.60654022   -1.6275194   0.90890053  -0.71861891   0.12817851    11554.983     1000 
  558000   0.57986117   -1.6814772   0.86892197  -0.81255523   0.13153714    11467.906     1000 
  560000   0.60348838   -1.6779925   0.90432734  -0.77366513   0.11639669    11727.278     1000 
  562000   0.59477592   -1.7008019   0.89127172  -0.80953021   0.12506313    11684.864     1000 
  564000   0.60823848   -1.5968804   0.91144536  -0.68543504   0.13359535    11397.038     1000 
  566000   0.61636837   -1.6776723     0.923628  -0.75404431   0.12895228    11528.143     1000 
  568000   0.60539639   -1.6445363   0.90718649  -0.73734984    0.1399086    11386.323     1000 
  570000   0.59976074    -1.631127   0.89874147   -0.7323855   0.12676194    11627.235     1000 
  572000   0.59462564   -1.6229302   0.89104652  -0.73188365   0.12367571    11522.421     1000 
  574000   0.61609494   -1.6577549   0.92321827  -0.73453664   0.12554732    11503.142     1000 
  576000   0.60455789   -1.6642385   0.90592999  -0.75830854   0.12410614    11600.659     1000 
  578000   0.59911242   -1.6729067   0.89776997  -0.77513671   0.12706449    11539.604     1000 
  580000   0.64045117   -1.6398738   0.95971607  -0.68015776   0.13406849    11451.267     1000 
  582000   0.63200398    -1.650727   0.94705797  -0.70366898   0.13498026    11652.061     1000 
  584000   0.62862404   -1.6426952   0.94199312   -0.7007021   0.12441697    11541.242     1000 
  586000   0.65228919   -1.6113377   0.97745535  -0.63388237   0.13317011    11602.888     1000 
  588000   0.59072712   -1.6220668   0.88520458   -0.7368622   0.13733156    11392.639     1000 
  590000    0.6143175     -1.62769   0.92055477  -0.70713524   0.13604433    11584.567     1000 
  592000   0.63697467   -1.6527555   0.95450654  -0.69824899   0.12628993    11591.385     1000 
  594000   0.62212555   -1.6515222   0.93225513  -0.71926711   0.13675129    11626.867     1000 
  596000   0.60574372   -1.5808479   0.90770697  -0.67314095   0.13373284    11391.489     1000 
  598000   0.62385816   -1.6490587   0.93485146  -0.71420725   0.12400438    11475.076     1000 
  600000   0.63195552     -1.61433   0.94698534  -0.66734461   0.14508628    11294.263     1000 
  602000   0.58197205   -1.7158811   0.87208512  -0.84379603   0.12374525     11741.03     1000 
  604000    0.6159366   -1.6818118   0.92298099  -0.75883082   0.12817855    11581.761     1000 
  606000   0.59272909   -1.6289911   0.88820453  -0.74078661   0.12789036    11609.004     1000 
  608000   0.60802067   -1.6158795   0.91111897  -0.70476051   0.13107936    11399.076     1000 
  610000   0.61832579   -1.6369329    0.9265612  -0.71037169   0.12745894    11691.874     1000 
  612000   0.58036601   -1.5961821   0.86967847  -0.72650362   0.12533845    11429.254     1000 
  614000   0.61644589    -1.594574   0.92374417  -0.67082981   0.13239366    11618.985     1000 
  616000    0.6272623   -1.6157116   0.93995256    -0.675759   0.13032511    11494.197     1000 
  618000   0.60071005   -1.6131442   0.90016402  -0.71298017   0.12994912    11588.624     1000 
  620000   0.62490617   -1.6205807   0.93642189  -0.68415876   0.13569925    11516.342     1000 
  622000   0.60984151   -1.6572021    0.9138475  -0.74335463    0.1290628    11668.091     1000 
  624000   0.62612082   -1.6942093   0.93824204  -0.75596722   0.12939353     11639.26     1000 
  626000   0.62151564   -1.6333095   0.93134118  -0.70196828   0.14409969    11285.626     1000 
  628000   0.63322214     -1.64839   0.94888337  -0.69950666   0.13770457    11487.728     1000 
  630000   0.61003536    -1.672323   0.91413799  -0.75818504   0.12108968    11538.089     1000 
  632000    0.5771717   -1.6960341   0.86489179  -0.83114233   0.12803837    11664.285     1000 
  634000   0.60668813   -1.6992792   0.90912216  -0.79015706   0.11005442    11599.044     1000 
  636000   0.61257004   -1.6529759   0.91793621   -0.7350397    0.1311572     11446.21     1000 
  638000   0.62088398   -1.6837029   0.93039464  -0.75330821   0.13077835    11489.299     1000 
  640000   0.62331531   -1.6289096   0.93403799  -0.69487162   0.14172727    11451.746     1000 
  642000    0.6203322   -1.6845484   0.92956781  -0.75498056   0.13918042    11536.899     1000 
  644000   0.60201824   -1.6242814   0.90212434  -0.72215707   0.13053358    11418.177     1000 
  646000   0.61449575    -1.586496   0.92082188  -0.66567413   0.13242774    11676.081     1000 
  648000   0.59020199   -1.6711612   0.88441768  -0.78674349   0.13930896    11314.863     1000 
  650000   0.63659918   -1.6303583   0.95394388  -0.67641439   0.14303453    11353.659     1000 
  652000   0.60862969   -1.6414089   0.91203158  -0.72937727   0.13511702      11454.2     1000 
  654000   0.62426377    -1.573237   0.93545926  -0.63777771   0.14021623    11505.112     1000 
  656000   0.63627058   -1.6475178   0.95345146  -0.69406629   0.13541207    11487.557     1000 
  658000   0.63723275   -1.6575313   0.95489328  -0.70263798   0.14260273    11397.517     1000 
  660000   0.60727949   -1.5792316   0.91000832  -0.66922325   0.12801542    11426.727     1000 
  662000   0.62748468   -1.6680632   0.94028579   -0.7277774   0.12011571    11699.209     1000 
  664000   0.61719259   -1.6469965   0.92486309  -0.72213342   0.13013579    11361.019     1000 
  666000   0.61918162   -1.6933611   0.92784366  -0.76551747   0.13039717    11444.077     1000 
  668000    0.6042224   -1.6158659   0.90542727  -0.71043864    0.1398987    11571.747     1000 
  670000   0.60976214   -1.6567602   0.91372856  -0.74303162   0.12617247    11522.488     1000 
  672000   0.61106708   -1.6320966   0.91568401  -0.71641255   0.12693453    11620.053     1000 
  674000   0.61247722   -1.6705788   0.91779711  -0.75278165   0.12464931    11578.104     1000 
  676000   0.61543661   -1.6420157   0.92223176  -0.71978399   0.12444469    11526.128     1000 
  678000   0.62788288   -1.6665776    0.9408825  -0.72569515   0.12713241    11571.163     1000 
  680000   0.61399125   -1.6707413   0.92006589  -0.75067541   0.12717522    11662.482     1000 
  682000   0.59507098   -1.6190195   0.89171386  -0.72730561   0.12711965    11550.312     1000 
  684000   0.61211383   -1.6076482   0.91725258  -0.69039565   0.14661453     11363.89     1000 
  686000   0.60137136   -1.5869585   0.90115498  -0.68580351   0.13075754    11515.584     1000 
  688000   0.59552436   -1.6499339   0.89239326  -0.75754059   0.13046489    11654.169     1000 
  690000    0.6002128    -1.612062   0.89941888  -0.71264316   0.13950342    11384.184     1000 
  692000   0.63076079   -1.6507621   0.94519505  -0.70556703   0.12522902    11585.681     1000 
  694000   0.57880503    -1.624618   0.86733934  -0.75727864   0.11951154    11595.459     1000 
  696000   0.59731739   -1.6705272   0.89508011  -0.77544707   0.11823698    11632.202     1000 
  698000   0.61225562   -1.6375098   0.91746505  -0.72004478    0.1261668    11437.314     1000 
  700000    0.5965268   -1.6351817   0.89389541  -0.74128629   0.11738812    11586.134     1000 
  702000   0.61486546   -1.6368627    0.9213759  -0.71548681   0.12888674    11560.749     1000 
  704000   0.59447924   -1.6453969   0.89082714  -0.75456974   0.13178766    11631.986     1000 
  706000   0.59318659    -1.622076   0.88889011  -0.73318593   0.13810379    11573.056     1000 
  708000     0.612307   -1.6420546   0.91754203  -0.72451259   0.13547306    11493.243     1000 
  710000   0.57819678     -1.65971   0.86642788  -0.79328216   0.13443779    11573.926     1000 
  712000   0.57537929   -1.6862194   0.86220587  -0.82401355   0.14071447    11351.386     1000 
  714000   0.62433226   -1.6053221   0.93556189  -0.66976018   0.13270243    11337.502     1000 
  716000   0.61112427   -1.6371897   0.91576972  -0.72141995   0.12417072    11563.962     1000 
  718000   0.62063334   -1.6373448   0.93001906  -0.70732573   0.12939498    11513.889     1000 
  720000   0.59195903   -1.6193196   0.88705061  -0.73226903   0.13399423    11392.337     1000 
  722000   0.57859367   -1.5809544   0.86702262  -0.71393178   0.12572329    11450.547     1000 
  724000   0.60176563   -1.6323391   0.90174579  -0.73059332   0.12314859    11565.813     1000 
  726000   0.61873461   -1.6492824   0.92717381  -0.72210863   0.11495147    11712.804     1000 
  728000   0.61605235   -1.6316605   0.92315445  -0.70850603   0.12165271      11629.3     1000 
  730000   0.62254219   -1.6192613   0.93287947  -0.68638185   0.12859197    11586.356     1000 
  732000   0.62127227   -1.6139845    0.9309765  -0.68300797   0.12734762    11545.533     1000 
  734000   0.60374035   -1.6304259   0.90470491  -0.72572097   0.12371715    11691.622     1000 
  736000   0.60824866   -1.6910457   0.91146061  -0.77958513   0.13608942    11580.831     1000 
  738000   0.60154291   -1.6349483   0.90141205  -0.73353624   0.13519819    11632.447     1000 
  740000     0.594922   -1.6387119   0.89149062  -0.74722124   0.11919286    11651.175     1000 
  742000   0.58213276   -1.6266306   0.87232594  -0.75430467   0.12042046     11529.67     1000 
  744000   0.60643083   -1.6726408    0.9087366  -0.76390417   0.14545218    11420.599     1000 
  746000   0.62220963   -1.5821569   0.93238113  -0.64977573   0.13008617    11578.451     1000 
  748000   0.60470189   -1.6475389   0.90614578  -0.74139313   0.13387313    11634.688     1000 
  750000   0.60187708   -1.6190156    0.9019128  -0.71710285   0.13135346    11392.307     1000 
  752000   0.60674926    -1.655418   0.90921377  -0.74620419   0.13314329    11615.673     1000 
  754000   0.60985538   -1.6411092   0.91386829  -0.72724095   0.13165346    11438.174     1000 
  756000    0.6065011   -1.6721905   0.90884189  -0.76334863   0.13288679    11431.111     1000 
  758000    0.5991341   -1.6204738   0.89780244  -0.72267139   0.13616975    11427.731     1000 
  760000   0.59921238   -1.6604854   0.89791976  -0.76256561     0.140461    11629.666     1000 
  762000   0.60519925   -1.6390934   0.90689107  -0.73220236   0.11610901    11537.225     1000 
  764000   0.61350463   -1.6446184   0.91933669  -0.72528171   0.14571871    11378.823     1000 
  766000   0.60031069   -1.6656302   0.89956556   -0.7660646   0.12721622    11434.935     1000 
  768000   0.60259932   -1.6519754   0.90299508  -0.74898035   0.13554926    11471.406     1000 
  770000   0.63582636   -1.6195955   0.95278579  -0.66680967   0.13509986    11404.689     1000 
  772000   0.60275575   -1.6250701   0.90322949  -0.72184062   0.14317631    11226.883     1000 
  774000   0.62662622   -1.5776306    0.9389994  -0.63863121   0.13935445    11372.021     1000 
  776000   0.59413048   -1.6800225   0.89030452  -0.78971796   0.13321746    11390.948     1000 
  778000   0.60578066    -1.615447   0.90776232  -0.70768471   0.12423092    11530.662     1000 
  780000   0.59221494     -1.63024   0.88743409  -0.74280587   0.13997167    11315.138     1000 
  782000     0.616151   -1.6916256   0.92330227  -0.76832335   0.12404344    11552.656     1000 
  784000   0.60683994   -1.6727971   0.90934965  -0.76344749   0.13275054    11452.807     1000 
  786000   0.61489741   -1.6054301   0.92142377  -0.68400634   0.13342684    11426.154     1000 
  788000    0.6424733   -1.6842445   0.96274624  -0.72149824   0.13521904    11605.679     1000 
  790000   0.59668924    -1.599468   0.89413883   -0.7053292   0.12327566    11495.797     1000 
  792000   0.62373625    -1.644662   0.93466877  -0.70999322    0.1234212    11505.941     1000 
  794000   0.61551672   -1.6354221    0.9223518  -0.71307029   0.14221653    11442.055     1000 
  796000   0.63467411   -1.6827935   0.95105916  -0.73173434   0.13592163      11516.9     1000 
  798000   0.60609687    -1.681942   0.90823616  -0.77370589   0.12363124    11632.612     1000 
  800000   0.59663612    -1.635649   0.89405923  -0.74158979   0.13592957    11509.996     1000 
  802000   0.57383404   -1.6195147    0.8598903  -0.75962442   0.13294053    11337.966     1000 
  804000   0.59972297   -1.5972695   0.89868488   -0.6985846   0.14481095    11337.402     1000 
  806000   0.58167394   -1.6518002   0.87163839  -0.78016182   0.13005935    11503.396     1000 
  808000   0.63131853   -1.6700103   0.94603081  -0.72397947   0.11928893    11688.927     1000 
  810000   0.60262071   -1.6369794   0.90302713  -0.73395229   0.12153855    11798.752     1000 
  812000   0.60787619   -1.6314234   0.91090247  -0.72052098    0.1293641    11480.821     1000 
  814000   0.59785557   -1.6219073   0.89588657  -0.72602074   0.12921683    11646.538     1000 
  816000   0.60717888   -1.6757162   0.90985755  -0.76585866    0.1360128    11459.641     1000 
  818000   0.60722611   -1.5937437   0.90992832  -0.68381542    0.1333815    11580.494     1000 
  820000   0.61773416   -1.6681109   0.92567464  -0.74243626   0.12854204    11557.783     1000 
  822000   0.60185623    -1.667572   0.90188156   -0.7656904   0.12664393    11588.056     1000 
  824000   0.62026933   -1.6336795   0.92947359  -0.70420596   0.12475347    11456.597     1000 
  826000   0.61894015   -1.5817838   0.92748182  -0.65430196   0.13392063    11459.738     1000 
  828000   0.58214803   -1.5583985   0.87234883  -0.68604971   0.13499957    11267.935     1000 
  830000   0.63441831   -1.5936112   0.95067584  -0.64293538   0.12925425    11342.015     1000 
  832000   0.62041902   -1.6187044   0.92969791  -0.68900648   0.13673601    11441.018     1000 
  834000   0.63098969   -1.6493945   0.94553805  -0.70385642   0.12018321    11618.198     1000 
  836000   0.61354821   -1.6420662   0.91940199  -0.72266421   0.12356532    11666.837     1000 
  838000   0.62787737   -1.6359768   0.94087425  -0.69510258   0.12468595    11514.397     1000 
  840000   0.60700003   -1.6384154   0.90958954  -0.72882585   0.11751445    11787.409     1000 
  842000   0.62118181   -1.6420524   0.93084094  -0.71121142    0.1237489     11593.03     1000 
  844000    0.6426457   -1.5712433   0.96300459   -0.6082387   0.14694954    11255.819     1000 
  846000    0.6337387   -1.6638667   0.94965744  -0.71420925    0.1230299     11721.24     1000 
  848000   0.60255075   -1.6515028    0.9029223  -0.74858051   0.12829606    11507.149     1000 
  850000   0.61086909   -1.6683794   0.91538734  -0.75299209   0.11779956    11689.167     1000 
  852000   0.64188797   -1.6503698   0.96186913  -0.68850067   0.13449464    11535.792     1000 
  854000   0.60357314   -1.6425172   0.90445435  -0.73806289   0.14289209    11340.943     1000 
  856000   0.60828155   -1.6606892    0.9115099   -0.7491793   0.13205156    11489.333     1000 
  858000   0.60472648   -1.5978672   0.90618264  -0.69168459   0.13357265    11512.074     1000 
  860000   0.60706357   -1.6098545   0.90968477  -0.70016974   0.13392064    11510.976     1000 
  862000   0.62369719   -1.6336055   0.93461024  -0.69899529   0.13546604    11388.949     1000 
  864000   0.63496998   -1.6080834   0.95150252  -0.65658085   0.12137477    11696.102     1000 
  866000   0.63589627   -1.6180034   0.95289057  -0.66511282   0.14218631    11479.525     1000 
  868000   0.63787501   -1.6616462    0.9558557  -0.70579054   0.12449869      11567.2     1000 
  870000    0.6275425   -1.6687182   0.94037243  -0.72834579    0.1426357    11469.362     1000 
  872000   0.61736157   -1.6271062   0.92511632  -0.70198989   0.12953952    11710.688     1000 
  874000   0.62205145   -1.6526209    0.9321441  -0.72047675   0.12583504    11467.606     1000 
  876000   0.61630185   -1.6432288   0.92352832  -0.71970049   0.12994692    11417.259     1000 
  878000   0.59424185   -1.6272655   0.89047141  -0.73679413   0.12647223    11521.294     1000 
  880000   0.58753423   -1.6933542   0.88042005   -0.8129341   0.12553353    11550.413     1000 
  882000   0.61868773   -1.6487028   0.92710357  -0.72159924   0.14950237    11285.631     1000 
  884000   0.60015265   -1.6127819   0.89932875  -0.71345319   0.12965193    11607.017     1000 
  886000   0.62525767   -1.6444867   0.93694862  -0.70753805   0.13418229    11417.758     1000 
  888000   0.61635774     -1.63554   0.92361208  -0.71192793   0.13687905    11474.158     1000 
  890000   0.63280514   -1.6491636   0.94825851  -0.70090505    0.1260801    11481.328     1000 
  892000   0.60227921    -1.665877   0.90251539  -0.76336159    0.1213523    11639.202     1000 
  894000   0.62834412   -1.6365455   0.94157366   -0.6949718   0.14585958    11401.748     1000 
  896000   0.63392612   -1.6377916   0.94993829  -0.68785332   0.12805322     11544.57     1000 
  898000   0.61629248   -1.6326389   0.92351428  -0.70912458   0.13437309    11424.846     1000 
  900000   0.61755828   -1.6491153   0.92541108  -0.72370419   0.13569772     11521.37     1000 
  902000   0.64955155   -1.6798986     0.973353  -0.70654562   0.12002498    11638.833     1000 
  904000   0.62023333   -1.6036578   0.92941964  -0.67423813   0.13315545    11409.367     1000 
  906000   0.58669776   -1.6530492   0.87916659  -0.77388257   0.11321209    11672.798     1000 
  908000   0.63187944   -1.6148325   0.94687134  -0.66796113   0.13774566    11469.601     1000 
  910000   0.62239339   -1.6359749   0.93265649  -0.70331842   0.12021459    11686.583     1000 
  912000   0.59552235   -1.6363483   0.89239025  -0.74395803   0.13321655    11378.864     1000 
  914000   0.59647793   -1.6507697   0.89382217  -0.75694751   0.12126927    11619.278     1000 
  916000   0.60299217   -1.6217894   0.90358377  -0.71820563   0.12935252    11593.353     1000 
  918000   0.60034642   -1.6259433   0.89961911  -0.72632423   0.12181411    11473.326     1000 
  920000   0.58604046   -1.6456649   0.87818163  -0.76748327   0.11850341    11448.344     1000 
  922000   0.61556317   -1.6567095   0.92242141  -0.73428807   0.12766419    11504.644     1000 
  924000    0.5897843   -1.6225568   0.88379177  -0.73876499   0.12336345    11590.416     1000 
  926000   0.60285805   -1.6411378   0.90338278  -0.73775506   0.12170768    11593.121     1000 
  928000   0.58965374   -1.6679282   0.88359612  -0.78433211    0.1184939    11582.118     1000 
  930000   0.61175431   -1.6473089   0.91671384   -0.7305951   0.12297749    11548.314     1000 
  932000   0.60799025   -1.6489995   0.91107339  -0.73792607   0.12536424    11589.424     1000 
  934000   0.61706744   -1.6323177   0.92467557  -0.70764214   0.14796052    11505.004     1000 
  936000   0.60950652   -1.6789386   0.91334553  -0.76559311   0.11868513     11703.83     1000 
  938000   0.61612684   -1.6716403   0.92326608  -0.74837425   0.13296189    11478.808     1000 
  940000   0.62761152   -1.6434557   0.94047586  -0.70297986   0.12407927    11545.006     1000 
  942000   0.62197423   -1.6322898   0.93202839  -0.70026146   0.13219176    11461.747     1000 
  944000   0.63337026   -1.6511862   0.94910534  -0.70208085   0.12831345    11586.247     1000 
  946000   0.63862546   -1.6099206   0.95698026  -0.65294038   0.13565455    11497.995     1000 
  948000   0.59089227   -1.6551759   0.88545207   -0.7697238   0.13343119    11526.394     1000 
  950000   0.59113955   -1.6062299   0.88582262   -0.7204073   0.14110794    11506.264     1000 
  952000   0.60453756   -1.6370297   0.90589953   -0.7311302   0.13593376    11468.271     1000 
  954000   0.62244982   -1.5716827   0.93274105  -0.63894161   0.14262994    11297.333     1000 
  956000   0.64428035   -1.6736963    0.9654541  -0.70824221   0.12287395    11829.873     1000 
  958000   0.61498271   -1.6213701   0.92155159  -0.69981853   0.12914387    11517.041     1000 
  960000   0.61868955   -1.6622965   0.92710629  -0.73519021   0.11652522    11635.947     1000 
  962000   0.59402926   -1.6594517   0.89015284  -0.76929883   0.11155523    11782.558     1000 
  964000    0.6119565   -1.6241394   0.91701681  -0.70712255   0.12711598    11547.685     1000 
  966000   0.62822013   -1.6884182   0.94138787  -0.74703037   0.11944377    11746.485     1000 
  968000   0.60771646   -1.6163791   0.91066311  -0.70571594   0.12839083     11373.85     1000 
  970000   0.61211398   -1.6405551    0.9172528  -0.72330231   0.13216853    11628.775     1000 
  972000   0.61912557   -1.6388122   0.92775966   -0.7110525    0.1189384    11568.388     1000 
  974000   0.62387005   -1.6835459   0.93486927  -0.74867663   0.13297547     11479.62     1000 
  976000   0.60808793   -1.6178345   0.91121977  -0.70661469   0.13463994    11333.435     1000 
  978000   0.62228689   -1.7079136   0.93249691  -0.77541667   0.13615815    11596.629     1000 
  980000   0.58349986   -1.6737602   0.87437455  -0.79938568   0.11406586    11636.118     1000 
  982000    0.5933895   -1.5595178   0.88919416  -0.67032368   0.12745968    11510.131     1000 
  984000   0.61722126   -1.6091665   0.92490606  -0.68426046   0.13186887    11524.911     1000 
  986000   0.58790627   -1.6566182   0.88097755  -0.77564066   0.12536797     11576.78     1000 
  988000   0.62677711   -1.5917987    0.9392255  -0.65257322   0.12880828    11410.656     1000 
  990000   0.62662631   -1.6739685   0.93899952  -0.73496899   0.12490184    11707.886     1000 
  992000   0.61555253   -1.6549004   0.92240547  -0.73249498   0.12481325    11628.848     1000 
  994000   0.60131176   -1.5953625   0.90106568   -0.6942968   0.14451809    11377.146     1000 
  996000   0.62381758   -1.6879254   0.93479065  -0.75313471   0.12862255    11653.917     1000 
  998000   0.60139404   -1.6451165   0.90118896  -0.74392751   0.13048719    11499.926     1000 
 1000000   0.60992038   -1.6532597   0.91396569    -0.739294   0.13861095     11449.22     1000 
 1002000   0.59683703   -1.6745309   0.89436029  -0.78017059   0.12446858    11753.716     1000 
 1004000   0.59308502   -1.6812813    0.8887379  -0.79254341   0.12202184    11636.433     1000 
 1006000   0.61603897   -1.5831601    0.9231344  -0.66002565   0.12435053    11560.213     1000 
 1008000    0.6284825   -1.6485706   0.94178102  -0.70678955   0.12365272    11668.211     1000 
 1010000   0.60160116   -1.6024221   0.90149933  -0.70092275   0.13097218    11618.535     1000 
 1012000   0.59241626   -1.5905038   0.88773577  -0.70276804   0.11957616    11452.593     1000 
 1014000   0.63017348   -1.7050842   0.94431497  -0.76076926   0.13374589    11623.336     1000 
 1016000   0.61793192   -1.6274427   0.92597099  -0.70147175   0.13097733    11234.352     1000 
 1018000   0.61325994   -1.6772676   0.91897003   -0.7582976   0.13062528    11531.483     1000 
 1020000    0.5970788   -1.6322621   0.89472258  -0.73753954   0.12902465     11358.97     1000 
 1022000   0.60450622   -1.6237274   0.90585257  -0.71787483   0.12916138    11242.078     1000 
 1024000   0.59707843    -1.687244   0.89472202  -0.79252195    0.1160932    11717.136     1000 
 1026000   0.60900716   -1.6242202   0.91259723  -0.71162297   0.13010932    11394.107     1000 
 1028000   0.60972078   -1.6414955   0.91366659  -0.72782894   0.12703799    11429.175     1000 
 1030000   0.59356433   -1.6749206   0.88945614  -0.78546445   0.11488053    11723.079     1000 
 1032000   0.60884127   -1.6083492   0.91234864  -0.69600058   0.12695763    11401.255     1000 
 1034000   0.58090348   -1.6156183   0.87048387  -0.74513439   0.12536126    11548.701     1000 
 1036000   0.60431557   -1.6579819   0.90556688  -0.75241499   0.11539157    11729.222     1000 
 1038000   0.59540411   -1.6649095   0.89221306  -0.77269643   0.12681818    11514.229     1000 
 1040000   0.61902236   -1.6405122     0.927605  -0.71290722   0.13680962    11471.782     1000 
 1042000   0.62893114   -1.6340299   0.94245332  -0.69157656   0.13473751    11549.936     1000 
 1044000   0.64361508    -1.615596    0.9644572  -0.65113885   0.14612373    11339.862     1000 
 1046000   0.59731707   -1.6093217   0.89507963  -0.71424202   0.13494876     11480.59     1000 
 1048000   0.59482413   -1.6471903   0.89134397  -0.75584636   0.11416786    11817.471     1000 
 1050000   0.61919876   -1.6466731   0.92786934  -0.71880371   0.12259339    11572.925     1000 
 1052000   0.60005961   -1.6291651   0.89918932  -0.72997574   0.11190384    11853.281     1000 
 1054000   0.57855353   -1.6105155   0.86696247  -0.74355301    0.1260791    11569.657     1000 
 1056000   0.60554092    -1.669307   0.90740307  -0.76190389   0.12791835    11532.421     1000 
 1058000   0.61505557   -1.6484614   0.92166077   -0.7268006   0.12279139    11597.908     1000 
 1060000   0.61685883   -1.6294373   0.92436296  -0.70507433   0.12972296    11532.333     1000 
 1062000    0.5950234   -1.6717262   0.89164256  -0.78008365   0.13070658    11739.329     1000 
 1064000   0.60947389   -1.6030611   0.91329662  -0.68976453   0.14808758    11485.226     1000 
 1066000   0.59095168   -1.5767205   0.88554109  -0.69117938   0.12900672    11502.088     1000 
 1068000   0.59081465    -1.653007   0.88533575  -0.76767126   0.12537159    11582.217     1000 
 1070000   0.62583461   -1.6764515   0.93781316  -0.73863833   0.11295595    11675.986     1000 
 1072000   0.62310344   -1.6261052   0.93372051  -0.69238466   0.12735611    11569.496     1000 
 1074000    0.5984887   -1.6746936   0.89683532  -0.77785831   0.13388434    11627.492     1000 
 1076000   0.59245624   -1.6502902   0.88779568  -0.76249451   0.13928104    11443.954     1000 
 1078000   0.60638491   -1.6251209   0.90866779  -0.71645307   0.13306231    11604.567     1000 
 1080000   0.61325923   -1.6381683   0.91896896  -0.71919933   0.12739201     11720.93     1000 
 1082000     0.603686   -1.5951095   0.90462347  -0.69048607    0.1376718    11442.625     1000 
 1084000   0.56911687   -1.6369642   0.85282163  -0.78414261   0.11939246    11608.611     1000 
 1086000   0.60912786   -1.6525722    0.9127781  -0.73979409   0.12803596    11523.053     1000 
 1088000   0.56453048   -1.6878469   0.84594892    -0.841898   0.11974707    11674.679     1000 
 1090000    0.6015566   -1.6707737   0.90143256   -0.7693411   0.11725071    11766.404     1000 
 1092000   0.60813445   -1.6194841   0.91128947  -0.70819461   0.13006271     11443.21     1000 
 1094000   0.60292116   -1.6429095   0.90347736  -0.73943218   0.12942583    11635.004     1000 
 1096000   0.60153112   -1.5692276   0.90139439   -0.6678332   0.13104857    11462.247     1000 
 1098000   0.57609068   -1.6458407   0.86327189  -0.78256878   0.12871734    11417.953     1000 
 1100000   0.62001489   -1.6474749   0.92909231   -0.7183826   0.11541202    11597.655     1000 
 1102000   0.64345485   -1.6698351   0.96421709    -0.705618   0.11818548    11712.039     1000 
 1104000   0.60218105   -1.6601031    0.9023683  -0.75773479   0.13800141    11425.258     1000 
 1106000   0.60983019    -1.683495   0.91383055  -0.76966448   0.13747129     11459.39     1000 
 1108000   0.59571088   -1.6370469   0.89267275  -0.74437418    0.1230526    11729.463     1000 
 1110000    0.6184742   -1.6354294   0.92678359   -0.7086458   0.12953191    11708.356     1000 
 1112000   0.61563935   -1.7395326   0.92253557  -0.81699699   0.12967496    11630.076     1000 
 1114000   0.61641472    -1.696125   0.92369745  -0.77242758   0.12703115    11661.946     1000 
 1116000   0.62710793   -1.6888501   0.93972123   -0.7491289   0.13455369    11469.901     1000 
 1118000   0.59503142   -1.6318481   0.89165459  -0.74019347   0.13086981    11581.007     1000 
 1120000   0.60100763   -1.6297071   0.90060994  -0.72909721    0.1327247     11575.85     1000 
 1122000   0.60575062    -1.690229    0.9077173  -0.78251172   0.12778542    11692.208     1000 
 1124000   0.57385201   -1.6466364   0.85991724  -0.78671914   0.13386679    11435.372     1000 
 1126000   0.61053745   -1.6557877   0.91489037  -0.74089737   0.12535682    11605.063     1000 
 1128000   0.62744796   -1.6179937   0.94023076  -0.67776296   0.13167534    11578.269     1000 
 1130000   0.60585364   -1.6193194   0.90787168  -0.71144768   0.13283844     11571.24     1000 
 1132000   0.62450592   -1.6159208   0.93582213  -0.68009866   0.13434227    11642.275     1000 
 1134000   0.62361583   -1.6848536   0.93448832  -0.75036528   0.12026286     11662.32     1000 
 1136000   0.61767383   -1.6449251   0.92558424  -0.71934085   0.14218699    11358.112     1000 
 1138000   0.62619737   -1.6813515   0.93835676   -0.7429947   0.12465732    11692.584     1000 
 1140000    0.5584634   -1.6306587   0.83685741  -0.79380128   0.12572779    11582.005     1000 
 1142000   0.57539563   -1.6736629   0.86223035  -0.81143255   0.11768133    11696.752     1000 
 1144000   0.65210866   -1.6681547   0.97718483  -0.69096986   0.13069722    11388.707     1000 
 1146000   0.60900071   -1.6675681   0.91258757  -0.75498052   0.12964282    11656.779     1000 
 1148000   0.59816242   -1.6671154   0.89634639  -0.77076897   0.12950487    11708.593     1000 
 1150000   0.62158383   -1.5611767   0.93144337  -0.62973335    0.1395878    11344.021     1000 
 1152000   0.61813036    -1.582034   0.92626835  -0.65576562   0.13823328    11388.116     1000 
 1154000   0.60718289   -1.6219028   0.90986356  -0.71203923   0.12164106    11492.327     1000 
 1156000   0.60379709   -1.6001638   0.90478994  -0.69537384   0.14589202    11371.922     1000 
 1158000   0.59297493   -1.6710688   0.88857293  -0.78249583   0.12908942     11569.74     1000 
 1160000    0.6277341   -1.5913363   0.94065955   -0.6506768   0.13164783    11678.028     1000 
 1162000   0.64847731   -1.6744192   0.97174326  -0.70267594    0.1371015    11512.881     1000 
 1164000   0.61944417   -1.6767397   0.92823708  -0.74850261   0.12588565    11660.405     1000 
 1166000   0.61237925   -1.5990817    0.9176503  -0.68143136   0.12099401    11660.937     1000 
 1168000   0.61505258   -1.6952962    0.9216563  -0.77363987   0.13101063     11543.83     1000 
 1170000   0.59537544   -1.6584743    0.8921701  -0.76630422   0.13418456    11440.839     1000 
 1172000   0.62223236   -1.6624773   0.93241519  -0.73006215   0.12982584    11527.879     1000 
 1174000   0.61272704   -1.6497222   0.91817147  -0.73155076   0.11812051    11703.761     1000 
 1176000   0.61856823   -1.6676562   0.92692449  -0.74073173   0.11501873        11711     1000 
 1178000   0.59642206    -1.696847   0.89373846  -0.80310849   0.12540944    11686.985     1000 
 1180000   0.57246465   -1.5983237   0.85783827  -0.74048546   0.12496942    11530.127     1000 
 1182000   0.61570075   -1.6227324   0.92262758  -0.70010484   0.14458385    11309.195     1000 
 1184000   0.57990958   -1.6211718    0.8689945  -0.75217726   0.13506747     11315.48     1000 
 1186000   0.62473722   -1.6908821   0.93616872  -0.75471338   0.11364271    11790.045     1000 
 1188000   0.60814507   -1.6481751   0.91130539  -0.73686974   0.13503322    11572.584     1000 
 1190000   0.61697758    -1.661542    0.9245409  -0.73700112   0.12733444    11585.529     1000 
 1192000   0.61515173   -1.6620628   0.92180487  -0.74025793   0.12558502    11569.135     1000 
 1194000   0.61347172   -1.6265449   0.91928737  -0.70725749   0.14172076    11330.561     1000 
 1196000   0.63027607   -1.6461373    0.9444687  -0.70166856   0.15222712    11415.261     1000 
 1198000    0.6200923    -1.660644   0.92920831  -0.73143564   0.13273659    11486.126     1000 
 1200000   0.59471988   -1.6582831   0.89118775  -0.76709536   0.13727588    11453.974     1000 
 1202000   0.64036714   -1.6137736   0.95959015  -0.65418342   0.12992434    11507.626     1000 
 1204000   0.60580325   -1.6147135   0.90779617  -0.70691737   0.13448821    11466.565     1000 
 1206000    0.5999771   -1.6550416   0.89906569  -0.75597589   0.11189984    11683.245     1000 
 1208000   0.60227667   -1.6100284   0.90251159  -0.70751685   0.11648672    11691.659     1000 
 1210000   0.57433633   -1.6358984   0.86064299  -0.77525543   0.12478207    11414.157     1000 
 1212000   0.60985406   -1.6325246   0.91386631  -0.71865826   0.12318077    11469.728     1000 
 1214000   0.61196272   -1.6383503   0.91702613  -0.72132419    0.1332899    11509.693     1000 
 1216000   0.63144619   -1.6065527   0.94622211  -0.66033055   0.13248879    11663.624     1000 
 1218000   0.63461912   -1.6021879   0.95097674  -0.65121114   0.13902907    11477.936     1000 
 1220000   0.62073305   -1.7054275   0.93016848  -0.77525906   0.11906602    11794.296     1000 
 1222000   0.63222141   -1.6251193   0.94738379  -0.67773553    0.1270713    11517.002     1000 
 1224000   0.60091727    -1.659846   0.90047453   -0.7593715     0.130083    11652.313     1000 
 1226000    0.6287156   -1.6039669   0.94213033  -0.66183653   0.14410998    11333.974     1000 
 1228000   0.60855503   -1.6347823   0.91191972  -0.72286254   0.14732807    11417.676     1000 
 1230000   0.60429947   -1.5967609   0.90554275  -0.69121816   0.12777946    11427.034     1000 
 1232000   0.55890111   -1.6632562   0.83751331  -0.82574287   0.13012217    11568.065     1000 
 1234000   0.63480777   -1.6611298   0.95125944  -0.70987036    0.1261676    11545.501     1000 
 1236000   0.60588431   -1.6547965   0.90791765  -0.74687888   0.14358336    11434.011     1000 
 1238000   0.61083056   -1.6387649   0.91532959  -0.72343533    0.1254566    11564.844     1000 
 1240000   0.62309034   -1.6478908   0.93370088  -0.71418989   0.12792019    11520.246     1000 
 1242000   0.59093169    -1.648252   0.88551114  -0.76274082   0.13025878     11374.87     1000 
 1244000   0.59611695   -1.6457505   0.89328124  -0.75246923   0.13906997    11233.586     1000 
 1246000   0.60227339    -1.611784   0.90250667  -0.70927729   0.14626713    11258.177     1000 
 1248000   0.60985511   -1.6501795   0.91386788   -0.7363116    0.1272024    11517.819     1000 
 1250000   0.61210828   -1.5981498   0.91724426  -0.68090549   0.12038587     11596.08     1000 
 1252000   0.58694507   -1.6310008   0.87953719  -0.75146361    0.1235258     11516.53     1000 
 1254000   0.59445384   -1.7025432   0.89078909  -0.81175415   0.12147748    11624.751     1000 
 1256000   0.62442371   -1.6778086   0.93569893  -0.74210965   0.13855899    11617.192     1000 
 1258000    0.5667767   -1.6839922   0.84931488  -0.83467731   0.12434744    11599.627     1000 
 1260000     0.618576    -1.634943   0.92693613  -0.70800683   0.12925959    11597.579     1000 
 1262000   0.62485555    -1.654025   0.93634604  -0.71767892   0.13525661    11529.807     1000 
 1264000   0.58880967   -1.6012131    0.8823313  -0.71888182   0.11968417    11587.805     1000 
 1266000   0.63142549   -1.6184619    0.9461911  -0.67227083   0.13281104    11507.653     1000 
 1268000   0.59383501   -1.6733063   0.88986176  -0.78344454   0.13194698    11549.101     1000 
 1270000   0.60851011   -1.6895861   0.91185241   -0.7777337   0.13225292    11392.181     1000 
 1272000   0.59649871   -1.6788606   0.89385331  -0.78500731   0.12296212    11629.241     1000 
 1274000   0.62388946   -1.6645915   0.93489835  -0.72969318   0.13464167    11472.119     1000 
 1276000   0.59887224   -1.6419247   0.89741006  -0.74451463   0.12924514    11479.726     1000 
 1278000   0.57871845   -1.6409178   0.86720959  -0.77370822   0.12831591    11664.437     1000 
 1280000    0.5905292   -1.6526793   0.88490801  -0.76777134   0.12184685    11613.271     1000 
 1282000   0.59751065   -1.6424402   0.89536971  -0.74707044   0.13553687    11452.265     1000 
 1284000   0.60740908   -1.6549777   0.91020251  -0.74477524   0.13517605    11484.897     1000 
 1286000   0.59887512    -1.681502   0.89741437  -0.78408759   0.13161005    11567.982     1000 
 1288000   0.60733302   -1.6063651   0.91008852  -0.69627658   0.13464116    11382.862     1000 
 1290000   0.61348145   -1.6897994   0.91930195  -0.77049748   0.12485496    11649.159     1000 
 1292000   0.67028782   -1.6216124    1.0044263  -0.61718608   0.13206593    11479.575     1000 
 1294000   0.62383159   -1.6282141   0.93481164  -0.69340248    0.1162883     11509.18     1000 
 1296000   0.59825325   -1.6314198    0.8964825  -0.73493734   0.14161322    11267.413     1000 
 1298000   0.59412073   -1.5999271   0.89028992   -0.7096372   0.13199896    11534.936     1000 
 1300000   0.60619707   -1.6003838    0.9083863  -0.69199748   0.13904496    11593.583     1000 
 1302000   0.61689719   -1.5755092   0.92442045  -0.65108878   0.14691091    11384.353     1000 
 1304000    0.6011389   -1.5904702   0.90080664  -0.68966357   0.13275021    11512.608     1000 
 1306000   0.58684083   -1.6592431   0.87938099  -0.77986212   0.12187078    11616.805     1000 
 1308000   0.59866343   -1.6149755   0.89709715   -0.7178783   0.13354716    11490.875     1000 
 1310000   0.59592206   -1.6277735   0.89298921  -0.73478428   0.12949723    11589.839     1000 
 1312000   0.61890553   -1.6494889   0.92742994  -0.72205899   0.12771448    11619.108     1000 
 1314000    0.6471268   -1.7000689   0.96971952  -0.73034943   0.13805656    11642.247     1000 
 1316000   0.64007584   -1.6659264   0.95915365  -0.70677278   0.11883977    11751.349     1000 
 1318000   0.61320737   -1.6579048   0.91889125  -0.73901357   0.12538427    11700.156     1000 
 1320000   0.60866109   -1.6671432   0.91207864  -0.75506453   0.14500428    11400.506     1000 
 1322000   0.56927014   -1.6136597   0.85305131  -0.76060844   0.12192176     11483.31     1000 
 1324000   0.61591314   -1.5800681   0.92294584   -0.6571223   0.12489619    11446.794     1000 
 1326000    0.6083724   -1.6363164   0.91164605  -0.72467038   0.12719849    11546.738     1000 
 1328000   0.62120121   -1.6849521   0.93087001  -0.75408205   0.12322687    11615.745     1000 
 1330000   0.63106274   -1.6652341   0.94564752  -0.71958656   0.12181115    11794.554     1000 
 1332000   0.57889691   -1.6681845   0.86747701  -0.80070747   0.12510274    11499.024     1000 
 1334000   0.62796632   -1.6763167   0.94100753  -0.73530916   0.13088927    11613.279     1000 
 1336000   0.59043446   -1.6712796   0.88476604  -0.78651352   0.11964445    11624.393     1000 
 1338000   0.62246969   -1.6667535   0.93277084  -0.73398263   0.13506098    11408.268     1000 
 1340000   0.64483208   -1.6788313   0.96628087  -0.71255038   0.12670694    11766.924     1000 
 1342000    0.5981244   -1.6537247   0.89628941  -0.75743525    0.1262731    11487.105     1000 
 1344000   0.60489289    -1.648793   0.90643199  -0.74236102   0.14008955    11491.029     1000 
 1346000   0.63169108    -1.622762   0.94658909  -0.67617295   0.13438184    11617.236     1000 
 1348000   0.61601973   -1.6640952   0.92310557  -0.74098968   0.11308198    11797.489     1000 
 1350000   0.59294417   -1.6066083   0.88852683  -0.71808145   0.13674195    11535.573     1000 
 1352000    0.6334531    -1.659127   0.94922947  -0.70989758   0.12136753    11695.181     1000 
 1354000   0.61621873   -1.6127813   0.92340376  -0.68937757   0.12816338    11399.024     1000 
 1356000   0.59839427   -1.6304251   0.89669382  -0.73373125   0.12700642    11543.653     1000 
 1358000   0.62635805   -1.6603057   0.93859754  -0.72170816   0.14441621    11500.107     1000 
 1360000   0.59322796   -1.6327083    0.8889521  -0.74375615   0.12233342    11668.257     1000 
 1362000   0.60389822   -1.6270823   0.90494148  -0.72214087   0.13448186    11536.981     1000 
 1364000   0.60893254   -1.6764699   0.91248541  -0.76398451   0.13484934    11406.207     1000 
 1366000   0.61227801   -1.6707424    0.9174986  -0.75324377   0.12857171    11532.669     1000 
 1368000   0.59063968   -1.6257005   0.88507356  -0.74062693   0.13866204    11380.072     1000 
 1370000   0.61759551   -1.6639857   0.92546688  -0.73851879   0.12397885    11523.655     1000 
 1372000    0.5988905   -1.6631518   0.89743742  -0.76571441   0.11992652    11795.363     1000 
 1374000   0.59510636   -1.6520765   0.89176689  -0.76030962   0.13012241    11407.988     1000 
 1376000   0.57764782   -1.6220772   0.86560526  -0.75647193   0.11981127     11577.24     1000 
 1378000   0.60661085    -1.630023   0.90900635  -0.72101666   0.13489084    11482.962     1000 
 1380000    0.6098703   -1.6054886   0.91389064  -0.69159798   0.12307323    11461.413     1000 
 1382000    0.6257172   -1.6632732   0.93763722  -0.72563598   0.12592894    11511.682     1000 
 1384000    0.6019003    -1.625605   0.90194759   -0.7236574   0.12419206     11571.72     1000 
 1386000   0.60154882    -1.635371   0.90142091  -0.73395014   0.12789555    11558.501     1000 
 1388000   0.59916962   -1.6594554   0.89785567  -0.76159973   0.12226898    11676.247     1000 
 1390000   0.62434116    -1.669361   0.93557522  -0.73378577   0.12522738    11638.118     1000 
 1392000   0.63027104   -1.6428286   0.94446115  -0.69836746   0.13603798    11456.539     1000 
 1394000   0.62961268   -1.6409515    0.9434746  -0.69747694    0.1394628    11475.347     1000 
 1396000   0.60211928   -1.6963728   0.90227574  -0.79409708   0.12628736    11741.944     1000 
 1398000   0.59618593   -1.6859951   0.89338461  -0.79261052   0.13007679    11665.254     1000 
 1400000   0.63411032    -1.631843   0.95021431  -0.68162868   0.13097615    11469.387     1000 
 1402000   0.61757608   -1.6342532   0.92543775  -0.70881549   0.13174879     11420.68     1000 
 1404000    0.6352723    -1.671107   0.95195554  -0.71915142   0.11954909    11647.157     1000 
 1406000   0.59464834   -1.6290326   0.89108054  -0.73795207   0.13756804    11336.662     1000 
 1408000   0.59007682   -1.6307257   0.88423011  -0.74649559   0.12620853    11582.924     1000 
 1410000   0.62746667   -1.6434013    0.9402588  -0.70314253   0.14861635     11418.56     1000 
 1412000   0.63248805   -1.6105642   0.94778335  -0.66278082   0.12521477    11618.703     1000 
 1414000   0.63767876   -1.6369216   0.95556163  -0.68135994   0.12702776    11720.012     1000 
 1416000   0.64125962   -1.6148422   0.96092754  -0.65391462   0.14017901    11498.346     1000 
 1418000   0.61637917   -1.6205529   0.92364418  -0.69690869   0.13995465    11275.085     1000 
 1420000   0.61593606   -1.6399968   0.92298019  -0.71701658   0.11607421    11639.626     1000 
 1422000   0.60151874   -1.6783798   0.90137584    -0.777004   0.12720733    11516.459     1000 
 1424000   0.60095571   -1.6904688   0.90053213  -0.78993667   0.12998487    11671.737     1000 
 1426000   0.61522164   -1.6305259   0.92190963  -0.70861624    0.1311134    11439.582     1000 
 1428000   0.60072009   -1.6672863   0.90017905  -0.76710724   0.13216866    11460.478     1000 
 1430000   0.59894672   -1.6754295   0.89752166  -0.77790784   0.13543633    11560.323     1000 
 1432000    0.6142523   -1.6505275   0.92045707  -0.73007046   0.12550033    11529.522     1000 
 1434000   0.60192228   -1.6491087   0.90198054  -0.74712812   0.13781844    11320.656     1000 
 1436000   0.62087185   -1.7142314   0.93037646   -0.7838549   0.13041865    11514.494     1000 
 1438000    0.5959478   -1.6939411   0.89302778  -0.80091328   0.13244047    11517.598     1000 
 1440000    0.6299709   -1.6862854   0.94401139  -0.74227405   0.12448414    11645.917     1000 
 1442000   0.61471699   -1.6154739   0.92115341  -0.69432053   0.12496421     11597.91     1000 
 1444000   0.62247057   -1.6360065   0.93277215  -0.70323439   0.12239895    11668.261     1000 
 1446000   0.62407225   -1.5862501   0.93517227  -0.65107781   0.12288997    11413.912     1000 
 1448000    0.6062103   -1.6723719   0.90840614  -0.76396576   0.12160819    11708.988     1000 
 1450000   0.60590584   -1.5948598    0.9079499  -0.68690991   0.13607347    11444.622     1000 
 1452000   0.58488596   -1.6684108   0.87645161  -0.79195922   0.12353681    11772.617     1000 
 1454000   0.61834971   -1.5889389   0.92659704  -0.66234183   0.14067922    11347.641     1000 
 1456000   0.60128322   -1.6299149   0.90102291  -0.72889204   0.12899554    11615.985     1000 
 1458000   0.58953867   -1.6402921   0.88342369  -0.75686839   0.11977547    11614.903     1000 
 1460000   0.62131872   -1.5816972    0.9310461  -0.65065112   0.12446519    11455.846     1000 
 1462000   0.62147972   -1.6181619   0.93128736  -0.68687456   0.14013603    11401.147     1000 
 1464000   0.60554832   -1.6565979   0.90741416  -0.74918379   0.13760134    11404.505     1000 
 1466000   0.59147318    -1.638552   0.88632256  -0.75222948   0.12888212    11459.179     1000 
 1468000   0.60698817   -1.6120064   0.90957177  -0.70243466   0.12539635    11605.741     1000 
 1470000   0.61169116   -1.6711016    0.9166192  -0.75448236   0.14345931     11397.38     1000 
 1472000   0.62040858   -1.6393674   0.92968225  -0.70968514   0.12989508    11688.082     1000 
 1474000   0.60726922   -1.6650833   0.90999293  -0.75509038   0.11272005    11770.778     1000 
 1476000   0.60079391   -1.6629124   0.90028968  -0.76262272   0.14981743    11379.588     1000 
 1478000   0.61146987   -1.6097293   0.91628761  -0.69344171   0.13528695    11463.898     1000 
 1480000   0.61076599   -1.6283636   0.91523283  -0.71313079      0.13691     11390.03     1000 
 1482000   0.61810967   -1.6137898   0.92623735  -0.68755249   0.12746114    11478.139     1000 
 1484000   0.61998763   -1.6585552   0.92905147  -0.72950375   0.12746852     11453.61     1000 
 1486000   0.60155888   -1.6294365   0.90143598  -0.72800057   0.12942568    11482.115     1000 
 1488000   0.59868455   -1.6906727   0.89712879  -0.79354394   0.14265898    11498.235     1000 
 1490000   0.61872964   -1.6015051   0.92716636  -0.67433877   0.13188134    11544.421     1000 
 1492000   0.62282925   -1.6375147   0.93330963  -0.70420508   0.14258927    11280.152     1000 
 1494000   0.58528102   -1.5861166   0.87704362  -0.70907294    0.1353514    11428.686     1000 
 1496000   0.60915879    -1.628576   0.91282444   -0.7157516   0.14065581    11521.289     1000 
 1498000   0.63752214   -1.6628103   0.95532693  -0.70748341   0.14243501     11373.54     1000 
 1500000   0.62543373   -1.6897429   0.93721245  -0.75253043   0.12625604     11569.48     1000 
 1502000   0.59551543   -1.6319498   0.89237988  -0.73956993   0.13617099    11366.076     1000 
 1504000   0.60568497   -1.6739883   0.90761892  -0.76636936   0.12882309    11498.044     1000 
 1506000    0.6104297   -1.6632988   0.91472891  -0.74856991   0.13473902    11555.791     1000 
 1508000     0.595385   -1.6804908   0.89218442  -0.78830641    0.1249942    11461.247     1000 
 1510000   0.62490387   -1.6344951   0.93641846   -0.6980766   0.12199668    11550.474     1000 
 1512000   0.60477448   -1.6064784   0.90625456  -0.70022386   0.13468941     11395.91     1000 
 1514000   0.60578331   -1.6010173   0.90776629  -0.69325101   0.12794489    11465.836     1000 
 1516000   0.61854199   -1.6603845   0.92688518  -0.73349929   0.11841946    11568.414     1000 
 1518000   0.61383986   -1.7112264   0.91983903  -0.79138733   0.11056235    11703.647     1000 
 1520000   0.63656287   -1.6795662   0.95388946  -0.72567674   0.12793549    11561.358     1000 
 1522000   0.60552187   -1.6901881   0.90737452  -0.78281355   0.13389735    11534.583     1000 
 1524000   0.61702729   -1.6105971   0.92461539   -0.6859817   0.13177487    11647.171     1000 
 1526000   0.59620974   -1.6131519   0.89342029  -0.71973157   0.13083369    11339.845     1000 
 1528000   0.61459107   -1.7046534   0.92096472   -0.7836887   0.12282175    11690.468     1000 
 1530000   0.60453561   -1.6795711   0.90589662  -0.77367446   0.12601449    11596.921     1000 
 1532000   0.61372171   -1.6834022   0.91966199  -0.76374021   0.13532452     11345.53     1000 
 1534000   0.63384652   -1.6520054   0.94981901  -0.70218644   0.12567183    11658.399     1000 
 1536000   0.61681013   -1.5912976   0.92428999   -0.6670076   0.14142075    11460.815     1000 
 1538000   0.60207422   -1.6572481   0.90220822  -0.75503988   0.12933439     11515.64     1000 
 1540000    0.6017476   -1.6202842   0.90171877  -0.71856543   0.12763539    11751.983     1000 
 1542000   0.60874878   -1.5648358   0.91221004  -0.65262571    0.1298239    11454.998     1000 
 1544000   0.57135717   -1.6354454   0.85617872  -0.77926669   0.12546749     11441.85     1000 
 1546000   0.56504487    -1.638538   0.84671974  -0.79181826    0.1256712    11398.999     1000 
 1548000   0.58487708   -1.6261319   0.87643831  -0.74969359    0.1375798    11514.355     1000 
 1550000    0.6132325   -1.6706969    0.9189289  -0.75176797   0.11908561    11585.799     1000 
 1552000   0.60745432   -1.6291205    0.9102703  -0.71885021   0.11869432      11500.5     1000 
 1554000   0.56321196   -1.6394774   0.84397312  -0.79550428   0.11742055    11697.767     1000 
 1556000    0.6247372   -1.6418161    0.9361687  -0.70564739   0.13169946    11344.692     1000 
 1558000   0.59110715   -1.6142073   0.88577406  -0.72843328   0.11661975    11668.814     1000 
 1560000   0.60722436   -1.6455342   0.90992571  -0.73560848    0.1199141    11599.463     1000 
 1562000   0.61940281   -1.6507697   0.92817511  -0.72259455   0.13384838    11345.837     1000 
 1564000   0.60235101   -1.6750759   0.90262299  -0.77245291   0.12885605    11427.359     1000 
 1566000   0.60340907    -1.586158   0.90420849  -0.68194952   0.13627027    11273.328     1000 
 1568000   0.61564501   -1.6231573   0.92254405  -0.70061323   0.13409394    11373.249     1000 
 1570000   0.57608604   -1.5740553   0.86326493  -0.71079033   0.12435308    11576.725     1000 
 1572000   0.63911005   -1.6734325   0.95770641  -0.71572612   0.13714816    11459.453     1000 
 1574000   0.58406539   -1.6388999   0.87522199  -0.76367786   0.12015972    11594.476     1000 
 1576000    0.6123832   -1.6421283   0.91765623  -0.72447203   0.12781801    11617.806     1000 
 1578000   0.57974199   -1.6455351   0.86874338  -0.77679171   0.13636916    11385.665     1000 
 1580000   0.57521168    -1.617895    0.8619547  -0.75594026   0.13467047    11400.187     1000 
 1582000    0.6252972   -1.6529346   0.93700786  -0.71592678   0.14366138    11462.903     1000 
 1584000   0.63745966   -1.6576485   0.95523331   -0.7024152   0.13591649    11459.066     1000 
 1586000   0.59891298   -1.6576509    0.8974711  -0.76017976   0.13363551    11535.721     1000 
 1588000   0.60224153   -1.6754044   0.90245893  -0.77294549   0.12523341    11703.028     1000 
[...]
 2614000    0.6038488   -1.6817759   0.90486742  -0.77690843   0.11923038    11626.903     1000 
 2616000   0.60987148   -1.6593556   0.91389241  -0.74546315   0.12299825    11692.159     1000 
 2618000   0.60125793   -1.6448973   0.90098501  -0.74391229   0.12951556    11757.414     1000 
 2620000   0.60734651   -1.6336655   0.91010875  -0.72355679   0.13174712    11573.637     1000 
 2622000   0.60685581   -1.6405091   0.90937343  -0.73113568   0.12341014    11472.123     1000 
 2624000   0.58826413   -1.6524802    0.8815138  -0.77096637   0.13055858     11566.21     1000 
 2626000   0.61243695   -1.5991117   0.91773678  -0.68137495   0.13042156    11581.408     1000 
 2628000   0.62049499   -1.6886137   0.92981175    -0.758802   0.12763949    11560.712     1000 
 2630000   0.65323851   -1.6540632   0.97887791  -0.67518527    0.1397146    11560.197     1000 
 2632000   0.58877649   -1.5940127   0.88228156   -0.7117311   0.12764231    11380.296     1000 
 2634000    0.6175604   -1.6422491   0.92541425  -0.71683483   0.12933187    11474.623     1000 
 2636000   0.61891551   -1.5754509    0.9274449  -0.64800603   0.13864889    11324.542     1000 
 2638000   0.59010632   -1.6492299   0.88427432  -0.76495554   0.12458828    11655.227     1000 
 2640000   0.61767056   -1.6093939   0.92557933  -0.68381461   0.13128479     11617.85     1000 
 2642000   0.60931547   -1.5976236   0.91305923  -0.68456433   0.15018082    11235.145     1000 
 2644000   0.60657589   -1.6230715   0.90895397  -0.71411756   0.12118251    11603.726     1000 
 2646000   0.61551317   -1.6686861   0.92234648  -0.74633957   0.12411132    11648.698     1000 
 2648000   0.60624465   -1.5813641   0.90845761  -0.67290648   0.13334317    11453.149     1000 
 2650000   0.58930124   -1.6381128    0.8830679  -0.75504493   0.12453462    11630.368     1000 
 2652000   0.59620578   -1.6372625   0.89341436  -0.74384816   0.11779928    11595.609     1000 
 2654000   0.63659618   -1.5951859   0.95393937  -0.64124655   0.13238701    11594.324     1000 
 2656000    0.5995177   -1.6419542   0.89837727  -0.74357696   0.12932547    11607.611     1000 
 2658000   0.62299582   -1.6336157   0.93355924  -0.70005647   0.14004044    11469.195     1000 
 2660000    0.5890919   -1.6293304   0.88275421  -0.74657616   0.14122431    11371.742     1000 
 2662000   0.61185982   -1.6963628   0.91687195  -0.77949084   0.13085896    11707.144     1000 
 2664000   0.60603234   -1.6372298   0.90813946  -0.72909033   0.13466765    11430.685     1000 
 2666000   0.59492463   -1.6208901   0.89149456  -0.72939557   0.12597883    11490.842     1000 
 2668000   0.58872461   -1.6309035   0.88220382  -0.74869965   0.14089779    11499.414     1000 
 2670000   0.61017149   -1.6577306   0.91434197  -0.74338866   0.13322528    11639.597     1000 
 2672000   0.60294635   -1.6335952   0.90351511  -0.73008008   0.12546779    11557.911     1000 
 2674000   0.60031495   -1.6017005   0.89957195  -0.70212854   0.13670716    11375.804     1000 
 2676000   0.64298293   -1.6332806   0.96350991  -0.66977065   0.12499817    11508.011     1000 
 2678000   0.59554903   -1.6054109   0.89243022  -0.71298067   0.12668626    11302.086     1000 
 2680000   0.63284966   -1.6729236   0.94832522  -0.72459841   0.13339447    11410.565     1000 
 2682000   0.63236811   -1.6967703   0.94760361  -0.74916664   0.13754411    11598.344     1000 
 2684000   0.58604363   -1.6923432   0.87818639  -0.81415679   0.12655588    11564.201     1000 
 2686000   0.60866573   -1.6082759    0.9120856  -0.69619032   0.13379265    11512.327     1000 
 2688000   0.58917255   -1.5625994   0.88287507  -0.67972429   0.12926263        11478     1000 
 2690000   0.59097255   -1.6291842   0.88557236  -0.74361181    0.1183319    11669.408     1000 
 2692000   0.61228689    -1.615153   0.91751191  -0.69764109   0.13257515    11443.562     1000 
 2694000   0.65618462   -1.5633462   0.98329265  -0.58005357    0.1515893    11287.988     1000 
 2696000   0.60597587   -1.6321169   0.90805485  -0.72406208    0.1178736    11493.561     1000 
 2698000   0.60843843   -1.6578408   0.91174499  -0.74609586   0.14573151    11477.804     1000 
 2700000   0.60576024   -1.7106052   0.90773171  -0.80287346     0.124714    11496.491     1000 
 2702000   0.59028322   -1.6305846   0.88453941  -0.74604524   0.12092477    11741.054     1000 
 2704000   0.59095449   -1.6918374   0.88554531   -0.8062921   0.11859953     11492.52     1000 
 2706000   0.65191277   -1.6172199   0.97689129  -0.64032866   0.12927189    11615.639     1000 
 2708000   0.58073057    -1.661173   0.87022476  -0.79094828    0.1218829    11629.695     1000 
 2710000   0.61230159   -1.5984283   0.91753394  -0.68089432   0.13593632    11455.194     1000 
 2712000   0.64071881   -1.6766642   0.96011713  -0.71654703   0.12759624     11656.25     1000 
 2714000   0.61101688   -1.6655683    0.9156088  -0.74995955   0.12599543    11516.598     1000 
 2716000   0.60713179   -1.6178657   0.90978699  -0.70807868   0.13157938    11553.415     1000 
 2718000   0.60848043   -1.6657294   0.91180793  -0.75392148   0.13423697    11539.142     1000 
 2720000   0.62293848   -1.6438234   0.93347331  -0.71035008   0.13253474    11561.944     1000 
 2722000   0.59905499   -1.6531865    0.8976839  -0.75550259   0.13609479    11552.584     1000 
 2724000   0.60051479   -1.6444284   0.89987141  -0.74455699   0.12516049    11576.032     1000 
 2726000   0.60014751    -1.676194   0.89932104  -0.77687299   0.12713889    11566.549     1000 
 2728000   0.59496452   -1.6060252   0.89155433  -0.71447085    0.1255854    11713.557     1000 
 2730000   0.58241296   -1.6049141   0.87274582  -0.73216829   0.13476816    11566.246     1000 
 2732000   0.59154119   -1.6014303   0.88642447  -0.71500585   0.12216487    11528.649     1000 
 2734000   0.60438327   -1.6539754   0.90566833  -0.74830708   0.13724654    11311.131     1000 
 2736000   0.62654516   -1.6760866   0.93887793  -0.73720865   0.12550344    11467.093     1000 
 2738000   0.63163209   -1.6385751   0.94650069  -0.69207437   0.13571116    11314.599     1000 
 2740000   0.59622508   -1.6396855   0.89344329  -0.74624218   0.13071185    11793.159     1000 
 2742000   0.60457648    -1.620382   0.90595786   -0.7144241   0.11925445    11746.741     1000 
 2744000   0.63089073   -1.6787826   0.94538975  -0.73339289   0.13021877      11589.4     1000 
 2746000   0.60744262   -1.7473173   0.91025277  -0.83706451   0.13339119    11439.413     1000 
 2748000   0.61904133   -1.6610643   0.92763343  -0.73343084   0.12910944    11574.344     1000 
 2750000   0.62058491   -1.6211969   0.92994648  -0.69125044    0.1289144    11629.384     1000 
 2752000   0.63036278   -1.5997831   0.94459863  -0.65518444   0.13423925    11455.217     1000 
 2754000   0.63532149   -1.6492404   0.95202926  -0.69721117   0.13211321    11360.765     1000 
 2756000   0.61277866   -1.6765608   0.91824883  -0.75831197   0.12598255    11736.547     1000 
 2758000   0.59547231   -1.6371703   0.89231526  -0.74485504   0.13814615    11660.554     1000 
 2760000   0.62674322   -1.6321078   0.93917471   -0.6929331   0.14617121    11295.167     1000 
 2762000   0.59362643   -1.6436664   0.88954921  -0.75411717   0.13310101    11547.082     1000 
 2764000   0.60812086   -1.6302198    0.9112691  -0.71895067   0.12883655    11498.963     1000 
 2766000   0.58936127    -1.672457   0.88315786  -0.78929919   0.12178812    11616.314     1000 
 2768000   0.58309842   -1.6768327   0.87377298  -0.80305976   0.13143306    11386.246     1000 
 2770000   0.60877931   -1.6502763    0.9122558  -0.73802049   0.12544857    11627.067     1000 
 2772000   0.56407239   -1.5821053   0.84526248  -0.73684285   0.12339369    11714.204     1000 
 2774000   0.63035625   -1.6337376   0.94458885  -0.68914878   0.12333187     11792.07     1000 
 2776000   0.61464067   -1.6080324   0.92103904  -0.68699335     0.125274     11607.13     1000 
 2778000   0.61216391   -1.6797319   0.91732762  -0.76240432   0.12597624    11513.071     1000 
 2780000   0.61203151   -1.6610721   0.91712922   -0.7439429   0.13273392     11522.95     1000 
 2782000   0.62600973    -1.667344   0.93807558  -0.72926841    0.1448042    11502.671     1000 
 2784000   0.62125003   -1.6349099   0.93094317  -0.70396674   0.13058524    11547.125     1000 
 2786000   0.62373635   -1.6800318   0.93466893  -0.74536289   0.12963609    11595.061     1000 
 2788000   0.60748077   -1.6649331   0.91030993  -0.75462319   0.14255622    11413.807     1000 
 2790000   0.62501518   -1.6328883   0.93658525  -0.69630305   0.13472169    11491.381     1000 
 2792000   0.60298863   -1.6278451   0.90357847  -0.72426662   0.13019244    11365.456     1000 
 2794000   0.61269012   -1.5474993   0.91811615  -0.62938316   0.14110326    11413.004     1000 
 2796000   0.61691805   -1.6719454    0.9244517  -0.74749371   0.12505268    11596.418     1000 
 2798000   0.62439369   -1.6200184   0.93565395  -0.68436448   0.11749249    11769.959     1000 
 2800000   0.57817833   -1.6307456   0.86640023  -0.76434539   0.12741991    11429.482     1000 
 2802000   0.63233351   -1.6590452   0.94755177   -0.7114934   0.14504158    11373.229     1000 
 2804000   0.63541303   -1.5957607   0.95216642  -0.64359433   0.14504972    11277.144     1000 
 2806000   0.61033407   -1.6223829   0.91458561  -0.70779725    0.1269162    11664.667     1000 
 2808000     0.617045   -1.6392865   0.92464193  -0.71464455   0.12945588     11597.92     1000 
 2810000   0.65531935   -1.5759512   0.98199604  -0.59395514   0.12478655    11603.876     1000 
 2812000   0.59411344    -1.635925   0.89027899    -0.745646   0.12799501    11561.648     1000 
 2814000   0.60121425   -1.6777375   0.90091956  -0.77681798   0.12865107    11642.178     1000 
 2816000   0.61919227   -1.6571223   0.92785962  -0.72926264   0.12446756    11622.511     1000 
 2818000   0.59907188   -1.6849801   0.89770922  -0.78727084   0.13422554     11445.51     1000 
 2820000   0.61986362   -1.6663777   0.92886563  -0.73751208   0.12416867    11593.068     1000 
 2822000   0.60122902   -1.6487275   0.90094169  -0.74778577   0.13261273    11516.329     1000 
 2824000   0.60349311   -1.6022103   0.90433443   -0.6978759   0.13297403    11447.561     1000 
 2826000   0.60130877   -1.6743652   0.90106119  -0.77330402   0.12870718    11599.708     1000 
 2828000   0.60629997    -1.618159    0.9085405  -0.70961845   0.12014761    11629.022     1000 
 2830000   0.61350507    -1.694872   0.91933735  -0.77553462    0.1212054     11683.64     1000 
 2832000   0.57501758   -1.6394972   0.86166385  -0.77783336   0.12827537    11632.375     1000 
 2834000   0.62430264   -1.6257453    0.9355175  -0.69022779    0.1422895    11377.217     1000 
 2836000   0.60483842   -1.6319781   0.90635038  -0.72562774   0.14038076    11510.117     1000 
 2838000   0.60873594   -1.6807518    0.9121908  -0.76856104   0.12734085    11550.904     1000 
 2840000   0.60831872   -1.6014267    0.9115656  -0.68986108   0.14241922    11410.646     1000 
 2842000    0.6049843   -1.6751766   0.90656897  -0.76860765   0.13204048     11427.18     1000 
 2844000   0.60509979   -1.6675199   0.90674204  -0.76077785   0.14161902    11409.241     1000 
 2846000   0.62617297   -1.6933909    0.9383202  -0.75507066   0.13164658    11510.552     1000 
 2848000   0.61685126   -1.6819609   0.92435162  -0.75760932   0.12485194    11483.382     1000 
 2850000   0.62752061   -1.6306684   0.94033964   -0.6903288   0.12830377    11371.138     1000 
 2852000   0.60885879   -1.6652505    0.9123749  -0.75287557   0.13134766     11419.08     1000 
 2854000   0.60032982   -1.6029223   0.89959424   -0.7033281   0.12308048    11626.038     1000 
 2856000   0.61521636   -1.6339199   0.92190171  -0.71201816   0.12914276    11480.259     1000 
 2858000   0.61298211    -1.701071   0.91855369  -0.78251733   0.13472831    11588.106     1000 
 2860000   0.62223937   -1.6156678    0.9324257  -0.68324209   0.12863403    11480.558     1000 
 2862000   0.59576318   -1.6281231   0.89275113  -0.73537194    0.1298989    11588.749     1000 
 2864000   0.62310796   -1.6329261   0.93372728  -0.69919885   0.13641763    11486.356     1000 
 2866000   0.61431822   -1.6148062   0.92055585  -0.69425032   0.13494067    11456.922     1000 
 2868000   0.59700865   -1.6521027   0.89461747  -0.75748524   0.13427486    11526.609     1000 
 2870000   0.59322608   -1.6466889   0.88894928  -0.75773957   0.13488569    11554.216     1000 
 2872000   0.60385349   -1.6099351   0.90487446  -0.70506059   0.12341853     11599.54     1000 
 2874000   0.60923144    -1.661281   0.91293332  -0.74834769    0.1414397    11496.213     1000 
 2876000   0.59549807   -1.6297096   0.89235386  -0.73735579    0.1270635    11525.163     1000 
 2878000   0.62907355   -1.6471904   0.94266672  -0.70452371   0.14558638    11387.654     1000 
 2880000   0.60209697    -1.591815   0.90224231  -0.68957267    0.1229721    11467.507     1000 
 2882000   0.62043348   -1.6221285   0.92971956  -0.69240891   0.13480785    11488.145     1000 
 2884000   0.62338834    -1.650033   0.93414743  -0.71588561   0.13498148    11430.666     1000 
 2886000   0.60080577   -1.6270574   0.90030744  -0.72675001   0.12292646    11467.664     1000 
 2888000   0.61936445   -1.6679758   0.92811764  -0.73985815   0.12094738    11598.385     1000 
 2890000   0.59549568   -1.6966432   0.89235028  -0.80429295   0.12565809    11581.733     1000 
 2892000   0.62739015   -1.6697972   0.94014414  -0.72965311   0.13083901    11514.852     1000 
 2894000   0.61333254   -1.6319776   0.91907881  -0.71289876   0.14037872     11383.65     1000 
 2896000   0.59977734   -1.6724689   0.89876634   -0.7737026   0.12022789    11717.075     1000 
 2898000   0.61411982   -1.6596928   0.92025855  -0.73943428   0.12691094    11476.445     1000 
 2900000    0.6169429   -1.6986609   0.92448894  -0.77417193     0.126061    11721.453     1000 
 2902000   0.64135598    -1.693057   0.96107194  -0.73198507   0.13436444    11575.574     1000 
 2904000   0.59219337   -1.6246874   0.88740177  -0.73728564   0.13641271    11419.688     1000 
 2906000   0.63115738   -1.6519977   0.94578933  -0.70620835   0.13402588     11510.63     1000 
 2908000   0.61191327   -1.6668857   0.91695204  -0.74993362   0.12393815    11582.017     1000 
 2910000   0.61862464   -1.7089875   0.92700903  -0.78197851    0.1227226    11765.353     1000 
 2912000   0.60723546   -1.6319967   0.90994234  -0.72205431   0.13324713    11428.669     1000 
 2914000   0.62150737   -1.6292376   0.93132879  -0.69790885   0.12345293    11619.115     1000 
 2916000   0.62388424    -1.609457   0.93489053  -0.67456644   0.12721301    11704.017     1000 
 2918000    0.5881939   -1.6282285   0.88140855  -0.74681996   0.12957909    11488.983     1000 
 2920000   0.64166858   -1.6705512   0.96154036  -0.70901083   0.14472087    11425.119     1000 
 2922000   0.62190232    -1.623015   0.93192062  -0.69109435    0.1232069    11678.381     1000 
 2924000   0.61655472   -1.6723058   0.92390725  -0.74839851   0.13907578    11494.069     1000 
 2926000   0.60656889   -1.6750234   0.90894349  -0.76607988    0.1202813    11686.665     1000 
 2928000   0.60970015   -1.6474757   0.91363568  -0.73383998   0.13157813    11562.145     1000 
 2930000   0.58849575   -1.6481678   0.88186088  -0.76630691   0.12331679    11533.679     1000 
 2932000   0.62672498    -1.648173   0.93914738   -0.7090256   0.13769855     11494.49     1000 
 2934000   0.59808901   -1.6657729   0.89623639  -0.76953653   0.11533455    11824.931     1000 
 2936000   0.61425012   -1.6587266   0.92045381  -0.73827278    0.1200583     11526.03     1000 
 2938000   0.64502622   -1.6821235   0.96657179  -0.71555171   0.12997063    11670.197     1000 
 2940000   0.63088312   -1.6660921   0.94537835  -0.72071375   0.11647103    11727.223     1000 
 2942000   0.60406149   -1.6963904   0.90518615  -0.79120423   0.11499354    11699.594     1000 
 2944000   0.63103014     -1.64705   0.94559866  -0.70145135   0.13289577    11534.443     1000 
 2946000    0.6045807   -1.6157765   0.90596418  -0.70981227   0.12503129     11741.31     1000 
 2948000   0.63057425   -1.6784079   0.94491551  -0.73349238   0.13403092    11556.096     1000 
 2950000   0.58669189   -1.6889121    0.8791578   -0.8097543   0.13988037    11416.171     1000 
 2952000   0.60550462   -1.6693102   0.90734868   -0.7619615   0.13829336    11347.592     1000 
 2954000   0.59086697   -1.7022312   0.88541416  -0.81681709    0.1227995    11597.446     1000 
 2956000   0.60768869   -1.6582444   0.91062151  -0.74762285   0.13557387    11493.726     1000 
 2958000   0.58711611   -1.6438812    0.8797935  -0.76408774   0.14053139    11362.194     1000 
 2960000   0.60549701   -1.6389136   0.90733727  -0.73157629   0.12501576    11549.435     1000 
 2962000   0.60468097   -1.6305145   0.90611444  -0.72440004   0.13340457    11561.336     1000 
 2964000   0.61092361   -1.6813663   0.91546902   -0.7658973   0.13038195    11569.308     1000 
 2966000   0.60778495   -1.6625396   0.91076575  -0.75177383    0.1217702    11601.271     1000 
 2968000   0.58742567   -1.6591334   0.88025736  -0.77887608   0.12235373     11607.76     1000 
 2970000   0.62236127   -1.6649211   0.93260836  -0.73231275   0.12424644    11659.103     1000 
 2972000   0.61955234   -1.6604021   0.92839918  -0.73200291   0.12456241    11561.993     1000 
 2974000   0.58762176   -1.6175639   0.88055121  -0.73701269   0.13123083    11501.424     1000 
 2976000   0.58584453   -1.6215258   0.87788803  -0.74363782   0.12478834    11536.499     1000 
 2978000   0.60127845   -1.6288409   0.90101576  -0.72782516   0.12810725    11546.816     1000 
 2980000   0.64001459   -1.6369773   0.95906186  -0.67791548   0.13100681    11451.631     1000 
 2982000   0.62470659   -1.6427017   0.93612283  -0.70657888   0.13153786     11570.26     1000 
 2984000   0.59096439   -1.5780056   0.88556013  -0.69244549    0.1199416    11734.371     1000 
 2986000   0.62573996    -1.619574   0.93767133  -0.68190264   0.14335185    11358.062     1000 
 2988000   0.59845326     -1.60269   0.89678221   -0.7059078   0.12267569    11424.281     1000 
 2990000   0.59351005   -1.6126225   0.88937481  -0.72324768    0.1287895    11573.972     1000 
 2992000    0.5948491   -1.6810056   0.89138137  -0.78962423   0.13929558    11447.745     1000 
 2994000   0.61594793   -1.6429844   0.92299797  -0.71998647   0.10877329    11870.272     1000 
 2996000   0.58990774   -1.6750695   0.88397675  -0.79109276   0.12776839    11539.805     1000 
 2998000   0.61276108   -1.6186265   0.91822248  -0.70040404   0.12773152    11568.157     1000 
 3000000   0.57859416   -1.6124121   0.86702334   -0.7453888   0.12466474    11558.613     1000 
Loop time of 1163.28 on 1 procs for 3000000 steps with 1000 atoms

Performance: 1114088.555 tau/day, 2578.909 timesteps/s
100.0% CPU use with 1 MPI tasks x 1 OpenMP threads

MPI task timing breakdown:
Section |  min time  |  avg time  |  max time  |%varavg| %total
---------------------------------------------------------------
Pair    | 915.41     | 915.41     | 915.41     |   0.0 | 78.69
Neigh   | 145.16     | 145.16     | 145.16     |   0.0 | 12.48
Comm    | 24.548     | 24.548     | 24.548     |   0.0 |  2.11
Output  | 0.017323   | 0.017323   | 0.017323   |   0.0 |  0.00
Modify  | 72.837     | 72.837     | 72.837     |   0.0 |  6.26
Other   |            | 5.311      |            |       |  0.46

Nlocal:        1000.00 ave        1000 max        1000 min
Histogram: 1 0 0 0 0 0 0 0 0 0
Nghost:        2147.00 ave        2147 max        2147 min
Histogram: 1 0 0 0 0 0 0 0 0 0
Neighs:        26928.0 ave       26928 max       26928 min
Histogram: 1 0 0 0 0 0 0 0 0 0

Total # of neighbors = 26928
Ave neighs/atom = 26.928000
Neighbor list builds = 150000
Dangerous builds not checked

Total wall time: 0:19:23
