LAMMPS (29 Sep 2021 - Update 2)
OMP_NUM_THREADS environment is not set. Defaulting to 1 thread. (src/comm.cpp:98)
  using 1 OpenMP thread(s) per MPI task
# ----------------------- Inicialização -----------------------

units			lj
atom_style 		atomic
dimension 		3
boundary 		p p p

# -------------------- Criação dos Átomos ---------------------

read_data 		topologia.txt
Reading data file ...
  orthogonal box = (0.0000000 0.0000000 0.0000000) to (21.540000 21.540000 21.540000)
  1 by 1 by 1 MPI processor grid
  reading atoms ...
  1000 atoms
  read_data CPU = 0.005 seconds

velocity 		all create ${temp} 87287 rot yes dist gaussian
velocity 		all create 0.45 87287 rot yes dist gaussian

# ------------------ Interação Interatômica -------------------

pair_style		table linear 1000
pair_coeff		1 1 force.table AA 5.0
WARNING: 2 of 1000 force values in table AA are inconsistent with -dE/dr.
WARNING:  Should only be flagged at inflection points (src/pair_table.cpp:465)
pair_coeff		1 2 force.table AB 5.0
WARNING: 1 of 1000 force values in table AB are inconsistent with -dE/dr.
WARNING:  Should only be flagged at inflection points (src/pair_table.cpp:465)
pair_coeff		2 2 force.table BB 5.0
pair_write		1 1 1000 r 0.008 5.0 table.check AA
Appending to table file table.check with DATE: 2023-06-15
Neighbor list info ...
  update every 1 steps, delay 10 steps, check yes
  max neighbors/atom: 2000, page size: 100000
  master list distance cutoff = 5.3
  ghost atom cutoff = 5.3
  binsize = 2.65, bins = 9 9 9
  1 neighbor lists, perpetual/occasional/extra = 1 0 0
  (1) pair table, perpetual
      attributes: half, newton on
      pair build: half/bin/atomonly/newton
      stencil: half/bin/3d
      bin: standard
pair_write		1 2 1000 r 0.008 5.0 table.check AB
Appending to table file table.check with DATE: 2023-06-15
pair_write		2 2 1000 r 0.008 5.0 table.check BB
Appending to table file table.check with DATE: 2023-06-15

neighbor 		0.3 bin
neigh_modify		every 20 delay 0 check no

# ------------------------- Ensemble --------------------------------------

fix 1			all npt temp ${temp} ${temp} 0.5 iso ${press} ${press} 5
fix 1			all npt temp 0.45 ${temp} 0.5 iso ${press} ${press} 5
fix 1			all npt temp 0.45 0.45 0.5 iso ${press} ${press} 5
fix 1			all npt temp 0.45 0.45 0.5 iso 0.13 ${press} 5
fix 1			all npt temp 0.45 0.45 0.5 iso 0.13 0.13 5

# ---------------------- Função de Distribuição Radial -----------------------

#compute RDF 		all rdf 2000 1 1 1 2 2 2
#fix 2 			all ave/time 1 2000 2000 c_RDF[*] file rdf.data mode vector

# ------------------------- Execução ---------------------------

timestep 		0.005
thermo_style		custom step temp pe ke etotal press vol atoms
thermo			2000
run			3000000
Per MPI rank memory allocation (min/avg/max) = 2.670 | 2.670 | 2.670 Mbytes
Step Temp PotEng KinEng TotEng Press Volume Atoms 
       0         0.45  -0.99052333     0.674325  -0.31619833   0.11408263    9993.9483     1000 
    2000   0.45315664   -2.0494667   0.67905522   -1.3704115   0.12987832    11257.011     1000 
    4000   0.44617739   -2.0958963   0.66859681   -1.4272995   0.11916104     11442.43     1000 
    6000   0.42721077   -2.0780048   0.64017534   -1.4378294   0.13452482    11322.518     1000 
    8000   0.43910021   -2.0734371   0.65799167   -1.4154455   0.13611359    11313.664     1000 
   10000    0.4590042   -2.0987695    0.6878178   -1.4109517   0.13211654    11415.154     1000 
   12000   0.46298647   -2.0757032   0.69378522    -1.381918   0.13131243    11423.626     1000 
   14000   0.45304442   -2.0304546   0.67888706   -1.3515675   0.11401407     11347.71     1000 
   16000   0.44521974   -2.0616073   0.66716178   -1.3944456   0.13842961    11398.641     1000 
   18000   0.45324966   -2.0233317   0.67919461   -1.3441371    0.1422354    11237.476     1000 
   20000   0.43653896   -2.0388727   0.65415363   -1.3847191   0.12443741    11413.741     1000 
   22000   0.47281602   -2.0626212   0.70851481   -1.3541064   0.14622934    11321.592     1000 
   24000   0.44673016   -2.0189238   0.66942515   -1.3494987   0.11904017    11446.292     1000 
   26000   0.45056652   -2.0690829   0.67517392    -1.393909   0.12869683    11354.804     1000 
   28000   0.42878004   -2.0583995    0.6425269   -1.4158726   0.11045793    11459.258     1000 
   30000   0.44005857   -2.1169079   0.65942777   -1.4574801   0.14401974    11319.451     1000 
   32000   0.44037995   -2.0790008   0.65990936   -1.4190915    0.1324293    11390.603     1000 
   34000    0.4437203   -2.0798771   0.66491487   -1.4149622   0.13238862    11484.265     1000 
   36000   0.43905546   -2.0321402    0.6579246   -1.3742156   0.13207546     11312.72     1000 
   38000   0.44167442   -2.0032061   0.66184911    -1.341357   0.13472281    11330.272     1000 
   40000    0.4580017   -2.0955788   0.68631555   -1.4092632   0.11734702    11573.004     1000 
   42000   0.43801427   -2.0919068   0.65636439   -1.4355425   0.12596367    11277.826     1000 
   44000   0.43215018     -2.11708   0.64757704    -1.469503   0.12735451    11476.275     1000 
   46000   0.45917561   -2.0415159   0.68807465   -1.3534413   0.13879164    11262.713     1000 
   48000   0.45009941   -2.0640663   0.67447396   -1.3895924   0.13499982     11291.11     1000 
   50000   0.43182462   -2.0356843   0.64708919   -1.3885951   0.12270289    11505.017     1000 
   52000   0.45713824    -2.056481   0.68502165   -1.3714593   0.14335883    11312.726     1000 
   54000   0.43251756   -2.0848302   0.64812756   -1.4367026   0.13048935    11365.787     1000 
   56000   0.45337854   -2.1012289   0.67938775   -1.4218412   0.12454312    11451.623     1000 
   58000   0.46567078   -2.0668731   0.69780766   -1.3690654    0.1309623    11358.785     1000 
   60000   0.45054498   -2.0674732   0.67514165   -1.3923315   0.12781255    11515.812     1000 
   62000   0.44279084   -2.0919951   0.66352208    -1.428473   0.13412967     11265.68     1000 
   64000   0.47565612   -2.1395552    0.7127707   -1.4267845   0.13733202    11371.174     1000 
   66000    0.4508786   -2.0520497   0.67564158   -1.3764082   0.13706903     11333.46     1000 
   68000   0.44740775   -2.1110289   0.67044052   -1.4405884   0.12928091    11465.638     1000 
   70000   0.47704441   -2.0407738   0.71485105   -1.3259228   0.13090379    11471.352     1000 
   72000    0.4570292   -2.0654346   0.68485825   -1.3805764   0.12223976    11463.003     1000 
   74000   0.44669838   -2.1053409   0.66937752   -1.4359634   0.12286918    11427.866     1000 
   76000   0.43821444   -2.0623915   0.65666433   -1.4057271   0.11987297    11400.405     1000 
   78000   0.44677532    -2.037318   0.66949281   -1.3678251    0.1327998    11260.745     1000 
   80000   0.44076329   -2.0987297   0.66048379    -1.438246   0.13266599    11343.166     1000 
   82000   0.43728712   -2.0680279   0.65527475   -1.4127532   0.13527559    11291.562     1000 
   84000   0.44445114   -2.0467691   0.66601003    -1.380759   0.14838892    11249.173     1000 
   86000    0.4575232   -2.0232304   0.68559852   -1.3376319   0.12859356    11299.633     1000 
   88000   0.45609063   -2.0684373    0.6834518   -1.3849855   0.13736322     11396.54     1000 
   90000   0.45547147   -2.0256377     0.682524   -1.3431137   0.12303743    11408.731     1000 
   92000   0.45566084   -2.1028782   0.68280777   -1.4200704   0.12932517    11415.799     1000 
   94000   0.45723485   -2.0889973   0.68516643   -1.4038309   0.12825387    11430.152     1000 
   96000   0.45961368   -2.0751581   0.68873111    -1.386427   0.13351655    11298.104     1000 
   98000   0.44646848   -2.0157041   0.66903302   -1.3466711   0.13422335    11455.175     1000 
  100000   0.44778048   -2.0611839   0.67099906   -1.3901849    0.1217585    11373.981     1000 
  102000   0.46003429   -2.0259592   0.68936139   -1.3365978   0.14864607    11111.985     1000 
  104000   0.45996329   -2.0183059   0.68925498    -1.329051   0.12755323    11438.981     1000 
  106000   0.46167377    -2.053157   0.69181814   -1.3613389   0.12937105     11458.29     1000 
  108000   0.47166956    -2.085366   0.70679684   -1.3785692   0.11303403    11510.814     1000 
  110000   0.44392076   -2.0477919   0.66521526   -1.3825767   0.12569526    11449.889     1000 
  112000   0.46426048   -2.0803284   0.69569433   -1.3846341   0.13170809    11352.021     1000 
  114000   0.44086977   -2.1075109   0.66064334   -1.4468675   0.12269821    11488.226     1000 
  116000   0.43738008   -2.0593452   0.65541405   -1.4039311   0.13777385    11312.612     1000 
  118000   0.42972509   -2.0695862   0.64394305   -1.4256431   0.11313497     11541.65     1000 
  120000   0.43931445    -2.128317    0.6583127   -1.4700043    0.1330308     11414.69     1000 
  122000   0.44922291   -2.0450469   0.67316054   -1.3718863   0.12061963    11505.405     1000 
  124000   0.44001612   -2.0933391   0.65936415    -1.433975   0.14220384    11164.078     1000 
  126000   0.45392554    -2.072335   0.68020743   -1.3921275   0.12819642    11438.858     1000 
  128000   0.44764874   -2.0925741   0.67080164   -1.4217725   0.11178071    11601.481     1000 
  130000   0.42946752   -2.0569808   0.64355707   -1.4134237   0.13461366    11341.217     1000 
  132000   0.44144213   -2.0089406   0.66150104   -1.3474395   0.14307613    11199.521     1000 
  134000   0.46089663   -2.0602994    0.6906536   -1.3696458    0.1353876    11449.349     1000 
  136000   0.44189181   -2.0906453   0.66217488   -1.4284704   0.11935441    11426.289     1000 
  138000   0.45341442   -2.1315174   0.67944151   -1.4520759   0.12303014    11555.826     1000 
  140000   0.43409095   -2.0600918   0.65048529   -1.4096065   0.12620031    11336.444     1000 
  142000   0.44830902   -2.0857544   0.67179106   -1.4139634   0.12208402    11460.057     1000 
  144000   0.46577394   -2.0783103   0.69796224    -1.380348   0.11885142    11540.013     1000 
  146000   0.47031337   -2.0424407   0.70476459   -1.3376761    0.1388803    11308.906     1000 
  148000   0.45344528   -2.0798615   0.67948776   -1.4003738   0.11825187     11531.94     1000 
  150000   0.44225034    -2.036773   0.66271213   -1.3740609   0.13809374    11290.336     1000 
  152000   0.46607322   -2.0409122   0.69841072   -1.3425015   0.12770824    11407.241     1000 
  154000   0.43995744   -2.0704395   0.65927623   -1.4111632   0.12920898     11391.06     1000 
  156000   0.47745929   -2.0388204   0.71547274   -1.3233477   0.12380275    11421.865     1000 
  158000   0.44959909   -2.1185165   0.67372424   -1.4447923   0.13512323     11331.63     1000 
  160000    0.4442903   -2.0319308   0.66576902   -1.3661618   0.13357959    11300.243     1000 
  162000   0.42883741   -2.0859598   0.64261286    -1.443347   0.14297484    11305.082     1000 
  164000   0.45143184   -2.0399762   0.67647062   -1.3635056   0.13994257    11364.984     1000 
  166000   0.45589341   -2.0704622   0.68315627   -1.3873059   0.13398612     11336.79     1000 
  168000   0.44480002    -2.069442   0.66653283   -1.4029092   0.12928245    11414.689     1000 
  170000   0.46195021   -2.0589945   0.69223238   -1.3667622   0.13511293    11303.573     1000 
  172000   0.46139243   -2.1256388   0.69139656   -1.4342422   0.14372764    11345.993     1000 
  174000   0.45652552   -2.0153401   0.68410349   -1.3312366   0.11769686    11389.293     1000 
  176000   0.45540879   -2.0280737   0.68243007   -1.3456437    0.1357595    11164.068     1000 
  178000   0.44676589   -2.0622099   0.66947869   -1.3927312   0.13675608    11458.367     1000 
  180000   0.46062433   -2.0584251   0.69024556   -1.3681795   0.13814213    11390.184     1000 
  182000   0.44138897   -2.0013554   0.66142137    -1.339934   0.11859394    11567.324     1000 
  184000   0.45799215    -2.087736   0.68630124   -1.4014348   0.13564607    11335.264     1000 
  186000   0.45592868   -2.0834086   0.68320912   -1.4001995   0.12847629    11436.838     1000 
  188000    0.4483773   -2.0416581   0.67189339   -1.3697647   0.13560468    11211.877     1000 
  190000   0.47311939   -2.1034417   0.70896941   -1.3944723   0.13083551    11335.505     1000 
  192000   0.45000275   -2.0974834   0.67432911   -1.4231543   0.13174624    11461.099     1000 
  194000   0.46744838   -2.0845971    0.7004714   -1.3841257   0.11587483      11531.2     1000 
  196000   0.46712445   -2.0329485   0.69998599   -1.3329625   0.13051448    11287.409     1000 
  198000   0.46680365   -2.0274486   0.69950527   -1.3279433   0.13412298    11272.418     1000 
  200000   0.44532546   -2.0848998    0.6673202   -1.4175796   0.13691743    11314.093     1000 
  202000   0.45887791   -2.0100359   0.68762854   -1.3224073   0.14035946    11303.086     1000 
  204000   0.45528608   -2.0948616   0.68224618   -1.4126154   0.12879618    11384.706     1000 
  206000   0.45918741   -2.0647999   0.68809233   -1.3767076   0.13124067    11405.668     1000 
  208000    0.4393233   -2.0838496   0.65832596   -1.4255237   0.12823423     11306.18     1000 
  210000   0.44968661   -2.0659929   0.67385539   -1.3921376   0.12679121    11433.723     1000 
  212000    0.4483539   -2.0738105   0.67185832   -1.4019521    0.1176476     11422.55     1000 
  214000   0.45701216   -2.0807173   0.68483272   -1.3958846   0.12762316     11469.54     1000 
  216000   0.44688119   -2.0850442   0.66965146   -1.4153928   0.12450369    11431.256     1000 
  218000   0.44426489   -2.0713835   0.66573094   -1.4056525   0.12785968    11473.405     1000 
  220000   0.44874132   -2.0910755   0.67243886   -1.4186366   0.12565927    11442.687     1000 
  222000    0.4708347   -2.1019867    0.7055458   -1.3964409   0.13334639    11423.405     1000 
  224000   0.45360284   -2.0454373   0.67972385   -1.3657134   0.13562636    11346.664     1000 
  226000   0.42964469   -2.0256661   0.64382256   -1.3818435   0.12787188    11402.114     1000 
  228000   0.44138453   -2.0458097   0.66141472   -1.3843949   0.13382459    11342.798     1000 
  230000    0.4483683   -2.0642828   0.67187989   -1.3924029   0.13700432     11336.34     1000 
  232000   0.44587425    -2.060209   0.66814256   -1.3920665   0.13846702     11364.87     1000 
  234000   0.44507453    -2.054216   0.66694418   -1.3872718   0.12988436    11268.916     1000 
  236000     0.460879    -2.079952   0.69062718   -1.3893248    0.1303862    11387.662     1000 
  238000   0.44622982   -2.0580815   0.66867539   -1.3894061   0.12874287    11519.912     1000 
  240000   0.45102591    -2.068163   0.67586233   -1.3923007   0.13998767    11274.443     1000 
  242000   0.43911191   -2.0478435   0.65800919   -1.3898343   0.12802627    11505.123     1000 
  244000   0.45611082   -2.0896082   0.68348207   -1.4061262   0.13277045    11435.798     1000 
  246000   0.44703188   -2.0928345   0.66987728   -1.4229572   0.11832453    11511.304     1000 
  248000   0.44964351    -2.103797    0.6737908   -1.4300062   0.11521975     11572.25     1000 
  250000   0.45515428   -2.0422726    0.6820487   -1.3602239   0.12979411     11340.64     1000 
  252000   0.46236434   -2.0495693   0.69285296   -1.3567163   0.13656269     11375.54     1000 
  254000   0.43525184   -2.0610956   0.65222489   -1.4088708   0.12479111    11501.077     1000 
  256000   0.44719569   -2.0465525   0.67012274   -1.3764298   0.13215003    11365.778     1000 
  258000   0.46690808   -2.0904253   0.69966175   -1.3907636    0.1188401    11470.409     1000 
  260000   0.45238319   -2.0614648   0.67789622   -1.3835686   0.13679482    11306.859     1000 
  262000   0.45147423   -2.0962022   0.67653413   -1.4196681   0.11740383    11544.668     1000 
  264000    0.4407619   -2.0517831    0.6604817   -1.3913014    0.1412607    11229.754     1000 
  266000   0.44716406   -2.0221094   0.67007535   -1.3520341   0.11632181    11471.064     1000 
  268000   0.43998291    -2.037616   0.65931439   -1.3783016   0.13554425    11280.514     1000 
  270000   0.45419144   -2.0643324   0.68060588   -1.3837265   0.12826514    11465.893     1000 
  272000   0.47230451     -2.07559   0.70774831   -1.3678417   0.12908302    11443.087     1000 
  274000   0.44630785   -2.0513539   0.66879232   -1.3825616   0.12068389    11440.021     1000 
  276000   0.46343547   -2.0717929   0.69445806   -1.3773349   0.13321461      11464.8     1000 
  278000   0.46344283   -2.0693755   0.69446907   -1.3749065   0.12879826    11473.258     1000 
  280000   0.44266739   -2.0494677   0.66333708   -1.3861306    0.1349089    11308.457     1000 
  282000   0.45893265   -2.0467321   0.68771058   -1.3590216   0.14101965    11285.044     1000 
  284000    0.4493176   -2.0089484   0.67330243   -1.3356459   0.12887035    11308.803     1000 
  286000   0.44059316   -2.0681004   0.66022884   -1.4078715   0.12580583    11361.818     1000 
  288000   0.43670188   -2.0240431   0.65439776   -1.3696453   0.12725953    11376.294     1000 
  290000   0.44455451   -2.0622097   0.66616494   -1.3960448      0.12663    11422.373     1000 
  292000   0.42962416   -2.0931344    0.6437918   -1.4493426   0.12306092    11464.575     1000 
  294000   0.46946229   -2.0346985   0.70348924   -1.3312093   0.12982836    11381.781     1000 
  296000   0.43945264   -2.0272388   0.65851978    -1.368719   0.12696888    11308.946     1000 
  298000   0.47214667   -2.0535645   0.70751179   -1.3460527   0.13196339    11510.225     1000 
  300000   0.43746055   -2.0856334   0.65553463   -1.4300987   0.12848026    11423.884     1000 
  302000   0.45037962    -2.081323   0.67489386   -1.4064292   0.12472403    11460.055     1000 
  304000   0.45723808   -2.0944852   0.68517126    -1.409314   0.12888491    11422.981     1000 
  306000   0.48101075   -2.0399335   0.72079461   -1.3191389   0.14793671     11195.91     1000 
  308000   0.43689982   -2.0676557   0.65469438   -1.4129613   0.13340414     11319.47     1000 
  310000   0.46034545   -1.9980102   0.68982765   -1.3081825   0.13465355    11269.528     1000 
  312000   0.45412885   -2.0589675   0.68051208   -1.3784555   0.13102664    11331.948     1000 
  314000   0.45992219    -2.054718    0.6891934   -1.3655246   0.12244599    11369.734     1000 
  316000   0.45341092    -2.061919   0.67943627   -1.3824828   0.13731635    11258.824     1000 
  318000   0.44099642   -2.0549754   0.66083313   -1.3941422   0.14205528    11320.729     1000 
  320000   0.44570664   -2.0719994    0.6678914    -1.404108   0.12703673    11476.595     1000 
  322000   0.44989466   -2.0788155   0.67416714   -1.4046484   0.13139959    11410.738     1000 
  324000   0.44812666   -2.0280603    0.6715178   -1.3565425   0.13746138    11239.239     1000 
  326000   0.44113371   -2.0319943   0.66103887   -1.3709554   0.13179997    11321.333     1000 
  328000   0.46639088   -2.0466841   0.69888674   -1.3477973   0.12782546    11388.206     1000 
  330000   0.44752996   -2.1136992   0.67062365   -1.4430755   0.11551255    11561.717     1000 
  332000   0.43172439   -2.0657551     0.646939   -1.4188161   0.13129737    11363.497     1000 
  334000   0.44691548   -2.0593392   0.66970285   -1.3896363   0.12634387    11403.345     1000 
  336000   0.45446736   -2.0650069   0.68101934   -1.3839875   0.13104084    11335.782     1000 
  338000    0.4557073   -2.0092853   0.68287739   -1.3264079   0.12368837    11382.558     1000 
  340000   0.46724795   -2.1145127   0.70017106   -1.4143417   0.12884465    11408.861     1000 
  342000   0.45751525   -2.0873143   0.68558661   -1.4017277   0.13920467     11312.91     1000 
  344000   0.45265301   -2.0170116   0.67830054    -1.338711   0.13029409    11398.035     1000 
  346000   0.45792303   -2.0618737   0.68619767   -1.3756761   0.15034025    11235.718     1000 
  348000   0.44966999   -2.0644268   0.67383048   -1.3905963   0.12695889    11446.562     1000 
  350000   0.46497784   -2.0773298   0.69676929   -1.3805605   0.12935964    11418.268     1000 
  352000   0.44211246   -2.0665301   0.66250553   -1.4040245   0.12450893    11393.239     1000 
  354000   0.44204578   -2.0370174    0.6624056   -1.3746118    0.1265902    11356.122     1000 
  356000   0.43689437    -2.043354   0.65468621   -1.3886678   0.13368176    11348.748     1000 
  358000    0.4416682    -2.111597    0.6618398   -1.4497572   0.12082109    11553.127     1000 
  360000   0.47034423    -2.130123   0.70481082   -1.4253121   0.13416729    11324.004     1000 
  362000   0.46482321   -2.0580197   0.69653758   -1.3614821   0.13274566    11330.263     1000 
  364000   0.45099116   -2.0460003   0.67581026     -1.37019   0.12510076    11450.983     1000 
  366000   0.45563546   -2.1095351   0.68276974   -1.4267653    0.1179553    11491.597     1000 
  368000   0.44459892   -2.0736364   0.66623148   -1.4074049   0.13371506    11400.661     1000 
  370000   0.44685906    -2.046242   0.66961831   -1.3766237   0.11488999    11478.693     1000 
  372000   0.43626966   -2.1192404   0.65375009   -1.4654903   0.11945642    11458.545     1000 
  374000   0.45942193   -2.0621716   0.68844376   -1.3737279   0.13689188    11226.261     1000 
  376000   0.45158258   -2.0822954    0.6766965   -1.4055989   0.13687437    11284.794     1000 
  378000   0.46925035    -2.069168   0.70317165   -1.3659964   0.13421932     11405.15     1000 
  380000   0.43916244   -2.0170988   0.65808491   -1.3590139   0.13188065    11373.833     1000 
  382000   0.44900009   -2.0799909   0.67282664   -1.4071642   0.12823484    11393.041     1000 
  384000   0.44205321   -2.0209916   0.66241674   -1.3585748   0.13717389    11276.306     1000 
  386000   0.44262081   -2.0981643   0.66326728   -1.4348971   0.14646326    11231.586     1000 
  388000   0.44665342   -2.0369069   0.66931014   -1.3675968   0.12620569    11325.898     1000 
  390000   0.43536161   -2.0570916   0.65238937   -1.4047022   0.13227026    11347.436     1000 
  392000   0.45349136   -2.0607571    0.6795568   -1.3812003   0.13303802    11415.851     1000 
  394000   0.44846838    -2.032806   0.67202987   -1.3607761   0.12931737    11270.687     1000 
  396000   0.43976914   -2.0502837   0.65899406   -1.3912896   0.12593441    11340.857     1000 
  398000   0.44100831   -2.0645635   0.66085096   -1.4037125   0.12285142    11488.796     1000 
  400000    0.4361034   -2.0488462   0.65350095   -1.3953452    0.1301492    11374.975     1000 
  402000   0.46058163    -2.027592   0.69018157   -1.3374104   0.13434823    11281.083     1000 
  404000   0.46135537   -2.0253377   0.69134102   -1.3339967   0.13595918    11400.879     1000 
  406000   0.45709962   -2.0646441   0.68496378   -1.3796803   0.12897057    11472.655     1000 
  408000   0.45971151   -2.0421223    0.6888777   -1.3532446    0.1518916    11155.075     1000 
  410000   0.44429277   -2.0855432   0.66577271   -1.4197705   0.13381315    11248.583     1000 
  412000   0.45668509   -2.0530541   0.68434261   -1.3687115   0.13186485    11359.423     1000 
  414000    0.4381164   -2.1075659   0.65651743   -1.4510485    0.1154972    11460.067     1000 
  416000   0.44723806   -2.0402894   0.67018624   -1.3701031   0.12487406    11428.564     1000 
  418000   0.43881836   -2.0776111   0.65756931   -1.4200418   0.12892537    11375.942     1000 
  420000   0.46156368   -2.1240864   0.69165318   -1.4324332   0.11109114    11597.011     1000 
  422000   0.43589644   -2.0574284   0.65319081   -1.4042376   0.12626593    11423.175     1000 
  424000   0.45805846   -2.0767461   0.68640061   -1.3903455   0.13231819    11295.496     1000 
  426000   0.44609266   -2.0867583   0.66846986   -1.4182885   0.12058357    11485.377     1000 
  428000   0.43953581   -2.0981392   0.65864441   -1.4394948   0.12288668    11471.353     1000 
  430000   0.44261116   -2.1098428   0.66325282   -1.4465899   0.12443425    11496.242     1000 
  432000   0.45947396   -2.0515875   0.68852173   -1.3630658   0.13636531    11270.401     1000 
  434000    0.4390192   -2.0541637   0.65787028   -1.3962934   0.12499386    11453.561     1000 
  436000   0.44594968   -2.0719219   0.66825559   -1.4036664   0.12891326    11453.942     1000 
  438000   0.44365914    -2.080381   0.66482322   -1.4155578   0.13314034    11336.509     1000 
  440000   0.43168696   -2.0648724   0.64688291   -1.4179895   0.12180721    11444.757     1000 
  442000   0.44293807    -2.077505    0.6637427   -1.4137623    0.1282865    11397.522     1000 
  444000   0.47143022   -2.0236179   0.70643819   -1.3171797   0.13132539    11545.287     1000 
  446000   0.47371317   -2.1301181   0.70985918   -1.4202589   0.13591391     11358.79     1000 
  448000   0.45259307    -2.083866   0.67821071   -1.4056553   0.13944103    11344.236     1000 
  450000   0.47225169   -2.0573691   0.70766915      -1.3497    0.1398285    11307.833     1000 
  452000    0.4529679   -2.0381362   0.67877239   -1.3593638   0.13069746    11392.843     1000 
  454000   0.46148193   -2.0964039   0.69153067   -1.4048732   0.13253831    11428.141     1000 
  456000   0.43813544   -2.0694523   0.65654595   -1.4129064     0.129995    11323.942     1000 
  458000   0.42261863   -2.0424824   0.63329401   -1.4091884   0.12787003    11461.993     1000 
  460000   0.44133361   -2.0628812   0.66133842   -1.4015428   0.12246263    11393.747     1000 
  462000    0.4503432   -2.0383628   0.67483928   -1.3635235   0.13349345    11435.431     1000 
  464000   0.46622376   -2.0123812    0.6986363   -1.3137449    0.1335293    11371.383     1000 
  466000   0.46209259   -2.0674725   0.69244575   -1.3750267   0.13759064    11313.458     1000 
  468000   0.44351455   -2.0383241   0.66460656   -1.3737176   0.13331086    11351.874     1000 
  470000   0.47692902   -2.0358957   0.71467814   -1.3212176   0.14526613    11288.897     1000 
  472000    0.4539582   -2.0785414   0.68025637   -1.3982851     0.127013     11396.59     1000 
  474000   0.46677275   -2.0475937   0.69945897   -1.3481347   0.14056542    11256.465     1000 
  476000   0.42897671   -2.0526981   0.64282161   -1.4098765   0.12511678    11437.619     1000 
  478000   0.44694224   -2.0367401   0.66974294   -1.3669971   0.12888269    11510.435     1000 
  480000   0.44266674   -2.0819556   0.66333612   -1.4186195   0.12959142    11422.393     1000 
  482000   0.46139911    -2.102429   0.69140656   -1.4110224   0.11781696    11490.763     1000 
  484000   0.43682284   -2.0332208   0.65457902   -1.3786417   0.11633162    11402.099     1000 
  486000   0.46928531   -2.0821502   0.70322403   -1.3789262    0.1245421    11349.799     1000 
  488000   0.45974585   -2.1110099   0.68892915   -1.4220807   0.13322861    11334.943     1000 
  490000   0.45428869   -2.0609483    0.6807516   -1.3801967   0.12110563    11456.848     1000 
  492000    0.4510601   -2.0833309   0.67591355   -1.4074173   0.12879649    11364.314     1000 
  494000   0.42234981   -2.0357806   0.63289119   -1.4028894   0.13989082    11261.522     1000 
  496000   0.45511161    -2.102271   0.68198474   -1.4202862   0.11622104    11576.304     1000 
  498000   0.43943016   -2.0690868    0.6584861   -1.4106007   0.14751458    11198.042     1000 
  500000   0.42800973    -2.088416   0.64137258   -1.4470434   0.12840283    11445.768     1000 
  502000   0.47075569   -2.0500808    0.7054274   -1.3446534   0.13319322    11287.767     1000 
  504000   0.42660142   -2.0714067   0.63926223   -1.4321444   0.12233026    11389.572     1000 
  506000   0.43373761   -2.0609377    0.6499558   -1.4109819   0.12717107    11356.632     1000 
  508000   0.45724877   -2.0371849   0.68518729   -1.3519976   0.13476515    11338.141     1000 
  510000   0.46200827   -2.0232772   0.69231939   -1.3309578   0.12725083    11382.983     1000 
  512000    0.4688947   -2.0660352   0.70263871   -1.3633965    0.1263086    11386.195     1000 
  514000   0.43284203   -2.0998114   0.64861378   -1.4511976   0.12431141    11474.673     1000 
  516000   0.45624157   -2.0316588   0.68367799   -1.3479808   0.13332205    11382.899     1000 
  518000   0.44420275   -2.0680369   0.66563783   -1.4023991   0.12300487    11467.799     1000 
  520000   0.46485182   -2.0818948   0.69658046   -1.3853143   0.13467113     11420.69     1000 
  522000   0.45063567   -2.0862636   0.67527756    -1.410986   0.13462417    11281.613     1000 
  524000   0.43827638   -2.0613657   0.65675715   -1.4046086    0.1196859    11495.089     1000 
  526000   0.43585163   -2.0494028   0.65312367   -1.3962791   0.13188653    11369.208     1000 
  528000     0.470267   -2.0417497    0.7046951   -1.3370546   0.13401847    11363.021     1000 
  530000   0.45918061   -2.0573606   0.68808214   -1.3692784   0.11460583    11472.223     1000 
  532000    0.4583281     -2.03919   0.68680466   -1.3523853   0.12221225    11421.661     1000 
  534000   0.46362661   -2.0339017   0.69474447   -1.3391572   0.13723213    11239.616     1000 
  536000   0.43442188   -2.0726831   0.65098119   -1.4217019   0.13007687    11481.233     1000 
  538000   0.44659053   -2.0651444   0.66921591   -1.3959284   0.14000461     11277.73     1000 
  540000   0.43610566   -2.0458196   0.65350433   -1.3923152   0.12458295    11359.117     1000 
  542000   0.46184293   -2.0880419   0.69207163   -1.3959703   0.12840005    11350.495     1000 
  544000   0.45792704   -2.0639947   0.68620367   -1.3777911   0.12802902    11455.042     1000 
  546000   0.46209561   -2.1047694   0.69245027   -1.4123192   0.11834181    11475.346     1000 
  548000   0.44513757   -2.0597197   0.66703865   -1.3926811   0.13855245    11370.246     1000 
  550000   0.45363158   -2.0146301   0.67976692   -1.3348632   0.12739977    11397.096     1000 
  552000   0.46412811   -2.1518668   0.69549597   -1.4563708    0.1328932    11445.462     1000 
  554000    0.4541641   -2.0187976    0.6805649   -1.3382326   0.12118318    11271.101     1000 
  556000   0.45069175   -2.0570762   0.67536159   -1.3817146   0.11902233     11518.93     1000 
  558000   0.46995144   -2.0505755   0.70422224   -1.3463533   0.13305257    11354.366     1000 
  560000   0.45144236   -2.0393879   0.67648637   -1.3629015   0.13053143    11349.973     1000 
  562000   0.40939599   -2.0720319    0.6134799    -1.458552    0.1269769    11373.464     1000 
  564000   0.45695997   -2.0688616   0.68475452   -1.3841071   0.12595612    11441.278     1000 
  566000   0.45216272   -2.1066334   0.67756583   -1.4290675   0.11725015    11511.101     1000 
  568000    0.4473043   -2.0351896   0.67028549   -1.3649041   0.13963715    11272.816     1000 
  570000   0.46476762   -2.0441406   0.69645427   -1.3476863   0.12965012    11476.037     1000 
  572000   0.44326345   -2.0356907   0.66423028   -1.3714604   0.12448632    11377.367     1000 
  574000   0.47405587   -2.0675196   0.71037272   -1.3571468   0.13543086    11319.309     1000 
  576000   0.44277976   -1.9853046   0.66350547   -1.3217991   0.13401463    11323.258     1000 
  578000     0.465755   -2.0316379   0.69793386    -1.333704   0.13033997    11490.528     1000 
  580000   0.47725523   -2.0610263   0.71516697   -1.3458594   0.12402442    11479.474     1000 
  582000   0.45541442    -2.071215    0.6824385   -1.3887765   0.13805547    11407.856     1000 
  584000   0.47176486   -2.0174679   0.70693964   -1.3105282   0.12853131    11388.207     1000 
  586000   0.44715919   -2.0187797   0.67006805   -1.3487117   0.12381818    11367.782     1000 
  588000   0.42919301   -2.0873698   0.64314573   -1.4442241   0.12053071    11379.584     1000 
  590000   0.45794946   -2.0489486   0.68623727   -1.3627113    0.1273309    11302.094     1000 
  592000    0.4661968   -2.1275453   0.69859591   -1.4289494   0.12202732    11500.669     1000 
  594000   0.44685383    -2.057569   0.66961046   -1.3879586   0.13534285    11395.589     1000 
  596000   0.45299511   -2.0506045   0.67881318   -1.3717913   0.13402844    11289.982     1000 
  598000   0.45346858   -2.0382536   0.67952267    -1.358731   0.13336712    11332.295     1000 
  600000   0.45785921   -2.0160835   0.68610202   -1.3299815   0.12882701    11401.399     1000 
  602000   0.44183192   -2.0439516   0.66208513   -1.3818665   0.13502465    11281.828     1000 
  604000    0.4580209   -2.0242272   0.68634432   -1.3378829   0.13565956    11263.061     1000 
  606000   0.43991087   -2.0807509   0.65920644   -1.4215445   0.12939399    11452.917     1000 
  608000   0.44571124   -2.0431906   0.66789829   -1.3752923   0.12730268    11334.199     1000 
  610000   0.46281062   -2.0752747   0.69352171    -1.381753   0.13403545    11336.122     1000 
  612000   0.45847097   -2.0404751   0.68701875   -1.3534564   0.13941719    11323.101     1000 
  614000    0.4742463   -2.0674691   0.71065808   -1.3568111    0.1414209    11294.138     1000 
  616000   0.45376257   -2.0735019   0.67996321   -1.3935387   0.12012118    11506.143     1000 
  618000   0.43366975   -2.0288122   0.64985412    -1.378958   0.13324221    11268.059     1000 
  620000   0.43551421   -2.0606216   0.65261804   -1.4080035   0.12910743    11402.902     1000 
  622000   0.45199964   -2.0517014   0.67732146     -1.37438   0.12889562    11498.624     1000 
  624000   0.44976361    -2.064835   0.67397078   -1.3908643    0.1318431    11371.518     1000 
  626000    0.4783836   -1.9974145   0.71685783   -1.2805567   0.12178508    11447.476     1000 
  628000   0.43915351   -2.0729378   0.65807153   -1.4148662   0.11655947    11458.987     1000 
  630000    0.4541446   -2.0960431   0.68053568   -1.4155075   0.12364205     11499.88     1000 
  632000   0.45116905   -2.0568036   0.67607683   -1.3807268   0.13507365    11360.368     1000 
  634000   0.42925996   -2.0295277   0.64324605   -1.3862816   0.13856642    11236.558     1000 
  636000   0.45507616   -2.0374747   0.68193162   -1.3555431    0.1271788    11470.115     1000 
  638000   0.45331769   -2.0524433   0.67929655   -1.3731467   0.13780068    11455.503     1000 
  640000    0.4632999   -2.0662442    0.6942549   -1.3719893   0.14462587    11376.597     1000 
  642000   0.45666771   -2.0923934   0.68431656   -1.4080768   0.12829553     11435.73     1000 
  644000    0.4320066   -2.0462743    0.6473619   -1.3989124   0.14163371    11204.604     1000 
  646000   0.45500545     -2.03565   0.68182566   -1.3538243   0.12382467    11405.804     1000 
  648000   0.43573507   -2.0315508     0.652949   -1.3786018   0.12789095    11349.072     1000 
  650000   0.45324039   -2.0770606   0.67918072   -1.3978799    0.1258252    11430.494     1000 
  652000   0.43875071   -2.0495894   0.65746794   -1.3921215   0.13760185    11175.418     1000 
  654000   0.45214372   -2.0635242   0.67753737   -1.3859868   0.12200612    11394.997     1000 
  656000   0.45378713   -2.0632052   0.68000002   -1.3832051   0.14655275    11278.755     1000 
  658000   0.44554096   -2.0634084   0.66764313   -1.3957653   0.13816169    11336.055     1000 
  660000   0.46358005   -2.0872166   0.69467471   -1.3925419   0.13226995    11214.008     1000 
  662000   0.46278678   -2.0515232     0.693486   -1.3580372   0.12973177    11364.884     1000 
  664000   0.45053491   -2.0666792   0.67512657   -1.3915526   0.12900097     11386.05     1000 
  666000   0.45483643   -2.0591279   0.68157239   -1.3775555   0.12694996      11491.7     1000 
  668000   0.45524418   -2.0805738   0.68218341   -1.3983904   0.11633904    11554.139     1000 
  670000    0.4545459    -2.028163   0.68113703    -1.347026   0.12768878    11345.902     1000 
  672000   0.46778902   -2.0641507   0.70098184   -1.3631689   0.14314333     11236.46     1000 
  674000   0.43437388   -2.0596049   0.65090926   -1.4086956    0.1283556    11343.242     1000 
  676000    0.4505657    -2.065398    0.6751727   -1.3902253   0.13596471    11368.145     1000 
  678000   0.44430677   -2.0742075   0.66579369   -1.4084138   0.13142636    11389.547     1000 
  680000   0.45947787   -2.0457558   0.68852758   -1.3572282   0.14207198    11243.812     1000 
  682000   0.44351889    -2.103152   0.66461306   -1.4385389   0.12443387    11407.795     1000 
  684000   0.45661077   -2.0451965   0.68423123   -1.3609653   0.13260399    11328.313     1000 
  686000   0.44084376   -2.0625674   0.66060437    -1.401963    0.1283683    11335.685     1000 
  688000   0.46380434   -2.0878757   0.69501081   -1.3928649   0.13746566    11285.652     1000 
  690000   0.44998859   -2.0524597    0.6743079   -1.3781518   0.13219674    11422.696     1000 
  692000   0.43888712   -2.0718035   0.65767235   -1.4141312    0.1335711    11375.787     1000 
  694000   0.46074205   -2.0795393   0.69042196   -1.3891173   0.13234325    11356.957     1000 
  696000   0.44594741   -2.0821599   0.66825219   -1.4139077   0.13970996    11262.381     1000 
  698000   0.45233022   -2.0811668   0.67781683     -1.40335   0.14392823    11303.043     1000 
  700000   0.46447631   -2.0437589   0.69601775   -1.3477411   0.14154698    11242.095     1000 
  702000   0.44068569   -2.0874053   0.66036751   -1.4270378   0.12053986    11439.378     1000 
  704000   0.44253465   -2.0847486   0.66313817   -1.4216104   0.12174233    11375.563     1000 
  706000   0.45738384   -2.1301948   0.68538968   -1.4448051   0.14380718    11231.745     1000 
  708000     0.446599   -2.0788452   0.66922861   -1.4096166    0.1347675    11413.723     1000 
  710000   0.45662212    -2.123148   0.68424824   -1.4388997   0.14582693    11296.454     1000 
  712000   0.45567241   -2.0506468    0.6828251   -1.3678217   0.12539214    11422.451     1000 
  714000   0.46704977   -2.0575087   0.69987408   -1.3576347   0.13262623    11384.431     1000 
  716000   0.43859553   -2.0456946    0.6572354   -1.3884592   0.12808302    11349.418     1000 
  718000   0.44951387   -2.0700343   0.67359653   -1.3964377   0.12702666    11405.889     1000 
  720000   0.43315737   -2.0824933   0.64908632    -1.433407   0.11829906    11519.712     1000 
  722000    0.4313053   -2.0545431   0.64631099   -1.4082322   0.12505592    11419.164     1000 
  724000   0.46751725   -2.0861513   0.70057459   -1.3855767   0.13341693    11464.171     1000 
  726000    0.4356168   -2.0702296   0.65277177   -1.4174578   0.13550012    11301.502     1000 
  728000   0.46651341   -2.0185121   0.69907035   -1.3194418   0.15195275    11143.348     1000 
  730000    0.4385757   -2.0496694   0.65720569   -1.3924637   0.12454732    11402.804     1000 
  732000   0.45310919   -2.0739212   0.67898413   -1.3949371   0.13141965    11403.309     1000 
  734000   0.45338617   -2.0700927   0.67939918   -1.3906936   0.12931637    11472.318     1000 
  736000   0.42842265   -2.0436762   0.64199134   -1.4016848   0.11831484    11426.297     1000 
  738000   0.45931369    -2.080581   0.68828157   -1.3922995   0.14011637    11345.525     1000 
  740000   0.44657541   -2.0548914   0.66919325   -1.3856981   0.12968751    11248.664     1000 
  742000   0.43678202   -2.0833484   0.65451786   -1.4288306   0.13182794    11394.362     1000 
  744000   0.45188545   -2.0386548   0.67715034   -1.3615044   0.12524976    11455.419     1000 
  746000   0.46972695   -2.0823037   0.70388583   -1.3784179    0.1218837    11587.858     1000 
  748000   0.44271237   -2.0581554   0.66340449   -1.3947509   0.13335002    11328.057     1000 
  750000   0.43786246   -2.0491622   0.65613689   -1.3930253   0.13126022    11468.401     1000 
  752000   0.44425251   -2.0219812   0.66571239   -1.3562688    0.1248448    11446.738     1000 
  754000   0.46571644   -2.1270027   0.69787609   -1.4291267   0.13697821    11344.149     1000 
  756000   0.42407158   -2.0724563   0.63547126    -1.436985   0.12879946    11360.514     1000 
  758000     0.432957   -2.0470555   0.64878607   -1.3982694   0.12066311    11266.344     1000 
  760000   0.47023047   -2.0565867   0.70464035   -1.3519464   0.13175546    11377.042     1000 
  762000   0.46456905   -1.9998781   0.69615673   -1.3037214   0.13215367    11435.556     1000 
  764000   0.44566049   -2.0149069   0.66782224   -1.3470846   0.14297979    11156.923     1000 
  766000   0.45037732   -2.0324177   0.67489041   -1.3575273   0.13273982    11441.513     1000 
  768000   0.46605416   -2.0480844   0.69838216   -1.3497022   0.13720331    11320.665     1000 
  770000   0.44364714   -2.1157245   0.66480524   -1.4509193    0.1311807    11435.651     1000 
  772000   0.46633527   -2.0840099    0.6988034   -1.3852065    0.1244485    11383.517     1000 
  774000   0.46177884   -2.0994047    0.6919756   -1.4074291   0.11882843    11490.042     1000 
  776000   0.44044531   -2.0683242    0.6600073   -1.4083169   0.12107467    11491.045     1000 
  778000    0.4468646   -2.0495026   0.66962661    -1.379876   0.13254799    11412.981     1000 
  780000   0.46229862   -2.0794558   0.69275448   -1.3867013    0.1280841    11427.288     1000 
  782000   0.46555531   -2.0188639   0.69763464   -1.3212292   0.12845908    11331.805     1000 
  784000   0.45009985   -2.0975759   0.67447463   -1.4231012   0.13462242     11470.32     1000 
  786000   0.43611537   -2.1152691   0.65351888   -1.4617502   0.11654962    11528.676     1000 
  788000   0.44655857   -2.0425943   0.66916802   -1.3734263   0.13651309    11296.128     1000 
  790000   0.43828856   -2.0662878    0.6567754   -1.4095124   0.13051811    11298.988     1000 
  792000   0.44977408   -2.0132585   0.67398646   -1.3392721   0.12540363    11496.566     1000 
  794000   0.44954465   -2.0591055   0.67364266   -1.3854629   0.12084243    11367.696     1000 
  796000   0.44381726   -2.0755772   0.66506016   -1.4105171   0.13032932    11394.105     1000 
  798000   0.44775046   -2.0642546   0.67095406   -1.3933005   0.13527474    11346.491     1000 
  800000   0.45004692   -2.1091001   0.67439531   -1.4347048   0.12513776    11456.996     1000 
  802000   0.45187468   -2.0369118   0.67713421   -1.3597776   0.13588831    11291.181     1000 
  804000   0.43871667   -2.0880025   0.65741693   -1.4305856   0.12754726    11483.735     1000 
  806000    0.4654692   -2.1066938   0.69750559   -1.4091882    0.1211644    11551.514     1000 
  808000   0.46249996    -2.070255   0.69305619   -1.3771988    0.1382011    11358.137     1000 
  810000    0.4471139   -2.0096149   0.67000018   -1.3396147   0.11883476    11464.028     1000 
  812000   0.44896211   -2.1186043   0.67276973   -1.4458345   0.12083751    11470.982     1000 
  814000   0.45814591   -2.0693148   0.68653164   -1.3827831    0.1365564    11317.072     1000 
  816000   0.45563445   -2.0769665   0.68276823   -1.3941983   0.14039063    11243.704     1000 
  818000   0.44289686   -2.0784019   0.66368095    -1.414721   0.13676208    11380.616     1000 
  820000   0.45690805    -2.052083   0.68467671   -1.3674063   0.13357534     11400.75     1000 
  822000    0.4480293    -2.076685    0.6713719   -1.4053131   0.12288793    11516.646     1000 
  824000   0.43008355   -2.0432071    0.6444802   -1.3987269   0.13665368    11345.307     1000 
  826000   0.45539941   -2.0678448   0.68241602   -1.3854288   0.12473379    11478.419     1000 
  828000   0.44876299   -2.0667728   0.67247134   -1.3943015   0.12484887    11399.237     1000 
  830000   0.43428973   -2.0352014   0.65078316   -1.3844182    0.1289769    11350.892     1000 
  832000   0.43263542   -2.0362786   0.64830418   -1.3879744   0.13445396    11320.236     1000 
  834000   0.46310248   -2.0504185   0.69395906   -1.3564594   0.12930095     11480.13     1000 
  836000   0.43942813   -2.0792656   0.65848305   -1.4207825   0.12719329    11464.414     1000 
  838000   0.45729797   -2.0604114   0.68526101   -1.3751504   0.12684809    11431.067     1000 
  840000   0.43853648   -2.0437358   0.65714691   -1.3865889   0.12269468    11399.754     1000 
  842000   0.45375484   -2.1085197   0.67995163   -1.4285681   0.12963851    11411.178     1000 
  844000   0.43908326   -2.0733981   0.65796627   -1.4154318   0.11809534    11479.128     1000 
  846000   0.44729483   -2.0321821    0.6702713   -1.3619108   0.11872013    11418.881     1000 
  848000   0.45373088   -2.0844259   0.67991573   -1.4045102    0.1303632    11544.824     1000 
  850000   0.44468472   -2.0769287   0.66636005   -1.4105686   0.12829742    11437.986     1000 
  852000   0.45083051   -2.0880067   0.67556953   -1.4124371   0.11904966    11531.552     1000 
  854000   0.45619333   -2.0881195   0.68360571   -1.4045137   0.11585615     11524.53     1000 
  856000   0.45223607   -2.0642803   0.67767575   -1.3866045   0.13457478    11330.603     1000 
  858000   0.45968976   -2.1385458    0.6888451   -1.4497007    0.1218826    11495.191     1000 
  860000   0.45427916   -2.0643133   0.68073732    -1.383576   0.13483237    11379.283     1000 
  862000   0.44705678   -2.0459759   0.66991458   -1.3760614   0.11996771    11405.626     1000 
  864000    0.4535478   -2.1193039   0.67964138   -1.4396625   0.12634089    11392.238     1000 
  866000   0.45826115   -2.0239804   0.68670434   -1.3372761   0.12553954    11390.487     1000 
  868000   0.45691471   -2.0697304    0.6846867   -1.3850437   0.12404438    11394.914     1000 
  870000   0.45035884   -2.1105129   0.67486272   -1.4356501   0.12395297    11528.933     1000 
  872000   0.44700407   -2.0805061   0.66983559   -1.4106705   0.12456382    11476.263     1000 
  874000   0.42918721   -2.0914603   0.64313704   -1.4483233   0.13343426    11331.427     1000 
  876000   0.46349418   -2.0550608   0.69454603   -1.3605148   0.12962764    11412.142     1000 
  878000   0.43830566   -2.0646834   0.65680104   -1.4078824   0.11942588    11477.665     1000 
  880000   0.42219455   -2.0757451   0.63265854   -1.4430866   0.13307464    11395.098     1000 
  882000   0.43589638   -2.0147577   0.65319072   -1.3615669   0.12905067    11457.464     1000 
  884000   0.44427772   -2.0652399   0.66575016   -1.3994897   0.12895048    11351.995     1000 
  886000   0.44497737   -2.0795126   0.66679858   -1.4127141   0.12441344     11440.46     1000 
  888000   0.43497274   -2.0472643   0.65180665   -1.3954576    0.1245443    11298.622     1000 
  890000    0.4374708   -2.0421393      0.65555   -1.3865893    0.1414577    11200.355     1000 
  892000   0.43348447   -2.1194906   0.64957647   -1.4699141   0.13798763    11372.264     1000 
  894000   0.44311015    -2.056129   0.66400056   -1.3921285   0.12171567    11506.582     1000 
  896000    0.4301212    -2.107596   0.64453662   -1.4630594   0.12867686    11477.648     1000 
  898000   0.45365763   -2.0920881   0.67980596   -1.4122821   0.11982995    11480.906     1000 
  900000   0.44597443   -2.0698928   0.66829268   -1.4016002   0.14010211    11277.388     1000 
  902000   0.44072739   -2.0642377   0.66042999   -1.4038077   0.12463838    11366.658     1000 
  904000   0.44478529   -2.0775112   0.66651075   -1.4110004   0.13756278    11236.754     1000 
  906000   0.43715643   -2.0944141   0.65507891   -1.4393352    0.1200548    11503.557     1000 
  908000   0.44263154   -2.0660819   0.66328336   -1.4027986   0.12885896    11369.105     1000 
  910000   0.45573583   -2.0664048   0.68292014   -1.3834847   0.11991604      11490.2     1000 
  912000   0.45166625   -2.0703449   0.67682187    -1.393523   0.14578221    11259.637     1000 
  914000   0.44085254   -2.0907079   0.66061754   -1.4300904   0.11584087    11531.325     1000 
  916000   0.46705187   -2.0851222   0.69987723    -1.385245   0.13864048    11354.713     1000 
  918000   0.45660373   -2.0420446   0.68422069   -1.3578239   0.12011544     11382.46     1000 
  920000   0.44854375   -2.0736501   0.67214281   -1.4015073   0.12127246    11490.856     1000 
  922000   0.44632574   -2.0946991   0.66881912     -1.42588   0.12311894    11446.759     1000 
  924000   0.45458385   -2.0767869    0.6811939    -1.395593   0.11964153    11407.992     1000 
  926000   0.44733327   -2.1152152    0.6703289   -1.4448863   0.13889707    11382.456     1000 
  928000   0.45328011   -2.0742254   0.67924025   -1.3949851   0.14014287    11277.593     1000 
  930000   0.44888116   -2.0329768   0.67264842   -1.3603284   0.13034711    11384.024     1000 
  932000   0.43176045   -2.0441285   0.64699303   -1.3971355   0.13056704    11322.484     1000 
  934000    0.4500665   -2.0513029   0.67442465   -1.3768782   0.12905169    11304.309     1000 
  936000   0.43093305   -2.0486115   0.64575318   -1.4028584   0.11739263    11360.237     1000 
  938000   0.45864427   -2.0840335   0.68727843    -1.396755   0.14072009    11382.842     1000 
  940000   0.43841843   -2.0669931   0.65697002   -1.4100231   0.12998369    11283.747     1000 
  942000   0.44320699   -2.0932218   0.66414568   -1.4290761   0.13278236    11395.107     1000 
  944000   0.45108393   -2.1142208   0.67594927   -1.4382715   0.13048252    11470.835     1000 
  946000   0.46660257   -2.0954995   0.69920396   -1.3962955   0.12304373    11503.174     1000 
  948000   0.46693852   -1.9889441   0.69970737   -1.2892367     0.139878    11323.851     1000 
  950000   0.43359832   -2.0881231   0.64974708    -1.438376   0.13656873    11352.581     1000 
  952000   0.44613268   -2.0744804   0.66852982   -1.4059506   0.12213544    11478.395     1000 
  954000   0.44020714   -2.0352529    0.6596504   -1.3756025   0.13332259    11277.863     1000 
  956000   0.45290324   -2.1066643    0.6786755   -1.4279888   0.14171941    11280.076     1000 
  958000   0.44564554     -2.08193   0.66779984   -1.4141302   0.11755466    11492.063     1000 
  960000   0.45604613   -2.0705667   0.68338512   -1.3871816   0.13503241    11368.829     1000 
  962000   0.44470196   -2.0467915   0.66638589   -1.3804056   0.13162386    11281.152     1000 
  964000   0.42180711   -2.0409533   0.63207796   -1.4088754   0.13535844    11356.263     1000 
  966000   0.43799744   -2.0241983   0.65633916   -1.3678592   0.11755853    11400.074     1000 
  968000   0.44171796   -2.0820788   0.66191436   -1.4201644   0.11923732    11470.005     1000 
  970000   0.45454445   -2.0697341   0.68113487   -1.3885992   0.12621127    11493.927     1000 
  972000   0.43482253   -2.0489597   0.65158157   -1.3973781   0.13520267    11351.634     1000 
  974000   0.41008657   -2.0600019   0.61451473   -1.4454872   0.11771666    11479.169     1000 
  976000   0.45105556   -2.0713181   0.67590675   -1.3954114    0.1162861    11533.165     1000 
  978000   0.44077354   -2.0219929   0.66049914   -1.3614937   0.12431857    11366.994     1000 
  980000   0.48755956   -2.0776885   0.73060801   -1.3470805   0.15609493    11212.499     1000 
  982000    0.4490808   -2.0499545   0.67294759   -1.3770069   0.13184752    11360.872     1000 
  984000   0.44980636   -2.0716764   0.67403484   -1.3976416   0.11971844    11460.066     1000 
  986000   0.45964302   -2.0748908   0.68877506   -1.3861157   0.11887924    11436.189     1000 
  988000   0.47235782   -2.0812662    0.7078282    -1.373438   0.13767219    11348.363     1000 
  990000   0.44479862   -2.0942774   0.66653074   -1.4277467   0.12790707    11376.266     1000 
  992000   0.45544585   -2.0997955   0.68248561   -1.4173098   0.13114939    11511.731     1000 
  994000   0.45989216   -2.0402422    0.6891484   -1.3510938   0.13457267    11326.619     1000 
  996000   0.45806106   -2.1331997    0.6864045   -1.4467952   0.12201982    11441.497     1000 
  998000    0.4295246   -2.1076427   0.64364261   -1.4640001   0.12634785    11404.251     1000 
 1000000    0.4502945   -2.0657476   0.67476631   -1.3909813   0.12456675    11379.459     1000 
 1002000    0.4216677   -2.0663157   0.63186904   -1.4344466   0.13339741    11412.429     1000 
 1004000   0.44769784   -2.0598597   0.67087522   -1.3889844   0.13234924    11365.709     1000 
 1006000   0.44928904   -2.0761504   0.67325962   -1.4028908   0.13191539    11370.876     1000 
 1008000   0.44461735   -2.0661919    0.6662591   -1.3999328   0.12281333    11529.358     1000 
 1010000   0.44317908   -2.0342447   0.66410386   -1.3701408   0.12810121    11378.195     1000 
 1012000   0.44804899   -2.0664155   0.67140141   -1.3950141   0.11577943    11427.391     1000 
 1014000   0.45940674    -2.113187   0.68842101    -1.424766   0.13019965    11297.185     1000 
 1016000    0.4455868   -2.0844989   0.66771182   -1.4167871   0.12379629    11435.602     1000 
 1018000   0.47013017   -2.0627612   0.70449006   -1.3582711    0.1214085    11443.302     1000 
 1020000   0.46607922   -2.1028507   0.69841972    -1.404431   0.12389832    11378.732     1000 
 1022000   0.45999643   -2.1035597   0.68930465   -1.4142551   0.12618434    11459.045     1000 
 1024000   0.44920196   -2.0355894   0.67312914   -1.3624602   0.13490607    11342.854     1000 
 1026000   0.46192635   -2.0444008   0.69219663   -1.3522042   0.13167487    11369.666     1000 
 1028000    0.4476823   -2.1271532   0.67085192   -1.4563012   0.12939491    11444.605     1000 
 1030000   0.46047592   -2.0761104   0.69002316   -1.3860872   0.12019392    11343.058     1000 
 1032000   0.44919891    -2.084929   0.67312456   -1.4118044   0.13405489    11266.255     1000 
 1034000   0.44722829   -2.0359446    0.6701716    -1.365773   0.12901971     11358.86     1000 
 1036000   0.46157983   -2.1061141   0.69167737   -1.4144367   0.12715029    11417.396     1000 
 1038000   0.43933958   -2.0846318   0.65835036   -1.4262815   0.12478945    11425.804     1000 
 1040000   0.44710842   -2.0865131   0.66999196   -1.4165212   0.13999952    11324.998     1000 
 1042000   0.45929455   -2.0777371   0.68825289   -1.3894842   0.11965648    11283.825     1000 
 1044000   0.44789446   -2.0243652   0.67116986   -1.3531953   0.13089049    11289.479     1000 
 1046000   0.47454781   -2.0520779   0.71110989    -1.340968   0.13796468    11252.584     1000 
 1048000    0.4718489   -2.0425349   0.70706558   -1.3354693   0.13084793    11315.967     1000 
 1050000     0.449392   -2.1030521   0.67341391   -1.4296382   0.12064022    11547.009     1000 
 1052000   0.47586018   -2.0506292   0.71307648   -1.3375527   0.14031452    11230.299     1000 
 1054000   0.45353957   -2.0531229   0.67962904   -1.3734939   0.13064091    11506.586     1000 
 1056000   0.45355521   -2.0749609   0.67965248   -1.3953084   0.13671222    11341.104     1000 
 1058000    0.4405855   -2.0383741   0.66021737   -1.3781567   0.13686532    11301.402     1000 
 1060000   0.43320851   -2.0495961   0.64916295   -1.4004332   0.12859337     11430.67     1000 
 1062000    0.4564746    -2.062803   0.68402719   -1.3787758   0.14482161    11305.718     1000 
 1064000   0.45205613   -2.0810433    0.6774061   -1.4036372   0.13420696    11386.817     1000 
 1066000   0.45287073   -2.0471138   0.67862679    -1.368487   0.13998817    11328.198     1000 
 1068000    0.4660798   -2.0410076   0.69842058    -1.342587   0.12978622     11339.54     1000 
 1070000   0.43277523   -2.0704733   0.64851369   -1.4219596   0.11244874    11574.526     1000 
 1072000   0.45173186   -2.0425527   0.67692019   -1.3656325   0.13275975    11344.215     1000 
 1074000   0.44625623   -2.0659933   0.66871497   -1.3972783   0.12176537     11470.18     1000 
 1076000   0.45382923   -2.0810931   0.68006311     -1.40103   0.12146126    11358.326     1000 
 1078000   0.43450601   -2.0822411   0.65110725   -1.4311339   0.13576646    11277.504     1000 
 1080000   0.46144917   -2.0954095   0.69148158   -1.4039279   0.12451653    11493.293     1000 
 1082000   0.47053643   -2.0544291   0.70509885   -1.3493303   0.12880285    11470.444     1000 
 1084000   0.42972897   -1.9949937   0.64394886   -1.3510449    0.1295777    11347.714     1000 
 1086000   0.45219378   -2.0501004   0.67761238    -1.372488   0.12116216     11487.28     1000 
 1088000   0.45108874   -1.9833648   0.67595648   -1.3074083   0.12300081    11420.452     1000 
 1090000    0.4425683   -2.0515174    0.6631886   -1.3883288   0.13094651    11344.103     1000 
 1092000   0.43602919   -2.0773438   0.65338974    -1.423954   0.12672548    11471.584     1000 
 1094000   0.43974275   -2.0752938   0.65895452   -1.4163393   0.12836101    11320.607     1000 
 1096000   0.45980714   -2.0469537     0.689021   -1.3579327   0.13444498    11464.408     1000 
 1098000   0.44907737   -2.0363348   0.67294244   -1.3633924    0.1340608    11274.086     1000 
 1100000   0.43745554   -2.0922646   0.65552712   -1.4367374    0.1289561    11368.367     1000 
 1102000   0.43221212   -2.1223511   0.64766986   -1.4746812   0.12311752    11455.436     1000 
 1104000   0.45757744   -2.0857492    0.6856798   -1.4000694   0.12453145    11433.012     1000 
 1106000   0.45053507   -2.0748676    0.6751268   -1.3997408   0.13366454    11356.835     1000 
 1108000   0.43938708    -2.067397   0.65842154   -1.4089754   0.12384261    11476.196     1000 
 1110000   0.44709614   -2.0657325   0.66997356    -1.395759   0.13635653    11315.512     1000 
 1112000   0.44645641   -2.0766936   0.66901493   -1.4076787   0.14361867    11305.084     1000 
 1114000   0.46321888     -2.07526    0.6941335   -1.3811265   0.13744262    11436.562     1000 
 1116000   0.45613085   -2.0406592   0.68351208   -1.3571471    0.1307317    11334.951     1000 
 1118000   0.42560925   -2.0937223   0.63777546   -1.4559468   0.12919884    11319.738     1000 
 1120000   0.43169597   -2.0708721   0.64689641   -1.4239757   0.12190481    11419.928     1000 
 1122000   0.45136072   -2.0687216   0.67636404   -1.3923575   0.13595197    11385.696     1000 
 1124000    0.4470675   -2.0383654   0.66993064   -1.3684348     0.130422    11386.712     1000 
 1126000   0.42091814   -2.0813654   0.63074583   -1.4506196   0.12866567    11405.816     1000 
 1128000   0.40742439   -2.0590851   0.61052545   -1.4485596   0.11695608    11356.117     1000 
 1130000   0.45775243   -2.0429398   0.68594202   -1.3569978   0.13371205    11384.086     1000 
 1132000   0.43973979   -2.0954121   0.65895007   -1.4364621   0.13565875    11396.509     1000 
 1134000   0.44348103   -2.0815969   0.66455632   -1.4170405    0.1199722     11382.72     1000 
 1136000   0.44643062   -2.0538419   0.66897628   -1.3848656   0.13415947    11270.277     1000 
 1138000   0.44926044   -2.0314933   0.67321677   -1.3582765    0.1185918    11419.007     1000 
 1140000   0.45096191   -2.0683658   0.67576642   -1.3925994    0.1292698    11320.384     1000 
 1142000   0.45766619   -2.0547377   0.68581279   -1.3689249   0.14165396    11317.919     1000 
 1144000   0.45521577   -2.0567026   0.68214083   -1.3745618   0.14006701    11296.368     1000 
 1146000   0.45405293   -2.0370984   0.68039832   -1.3567001   0.12618737    11454.276     1000 
 1148000   0.45504267   -2.0764146   0.68188144   -1.3945331   0.14364098    11175.224     1000 
 1150000   0.44003905   -2.0480187   0.65939852   -1.3886202   0.12735191    11356.314     1000 
 1152000   0.43835755   -2.0626941   0.65687878   -1.4058154    0.1333615     11385.72     1000 
 1154000   0.45874089    -2.029082   0.68742322   -1.3416588   0.13525654    11241.241     1000 
 1156000   0.45679204   -2.0964003   0.68450287   -1.4118974   0.13665471    11390.282     1000 
 1158000   0.46528377   -2.0662165   0.69722772   -1.3689888   0.14167215    11211.138     1000 
 1160000   0.46115564   -2.0277691   0.69104173   -1.3367274   0.13318637    11392.367     1000 
 1162000   0.45378342   -2.1158299   0.67999445   -1.4358355   0.12482864    11521.884     1000 
 1164000   0.45250275     -2.04169   0.67807537   -1.3636146   0.13825129    11306.795     1000 
 1166000   0.46401104   -2.0808839   0.69532054   -1.3855634   0.12952082    11455.116     1000 
 1168000   0.44575688   -2.1032058   0.66796668   -1.4352391    0.1246386    11548.883     1000 
 1170000   0.45156186   -2.0164418   0.67666545   -1.3397764   0.12699685    11345.914     1000 
 1172000   0.45465335    -2.068414   0.68129804    -1.387116   0.14761149    11261.409     1000 
 1174000   0.43742119   -2.0596301   0.65547566   -1.4041545   0.14388184    11319.312     1000 
 1176000   0.42669209   -2.0715461   0.63939809    -1.432148    0.1353671    11449.635     1000 
 1178000    0.4289879   -2.0532183   0.64283836   -1.4103799   0.13599461     11230.12     1000 
 1180000   0.44583076   -2.0546274   0.66807739     -1.38655   0.12339942    11390.381     1000 
 1182000   0.46861766   -2.0711021   0.70222357   -1.3688785   0.12307026    11485.009     1000 
 1184000   0.45737123   -2.0887771   0.68537078   -1.4034063   0.11740846    11538.443     1000 
 1186000   0.44964708   -2.0229022   0.67379615    -1.349106   0.14584327    11248.445     1000 
 1188000    0.4568936   -2.0967728   0.68465506   -1.4121177   0.14401733     11337.95     1000 
 1190000   0.44060468   -2.0601019   0.66024611   -1.3998558   0.13056309    11376.558     1000 
 1192000   0.43820433    -2.019324   0.65664919   -1.3626748   0.12266666    11400.666     1000 
 1194000   0.44604863   -2.0505083   0.66840387   -1.3821045   0.12936849    11369.239     1000 
 1196000    0.4518505   -2.0911917   0.67709798   -1.4140937   0.12620972    11264.242     1000 
 1198000   0.44924496   -2.0827627   0.67319358   -1.4095692   0.12026796    11414.452     1000 
 1200000   0.45955015   -2.0246451    0.6886359   -1.3360092    0.1273431    11371.507     1000 
 1202000   0.45430507   -2.0656915   0.68077614   -1.3849154   0.13162811    11268.633     1000 
 1204000   0.44953299   -2.0260503   0.67362519   -1.3524251   0.12754297    11310.237     1000 
 1206000   0.45146784   -2.0191538   0.67652456   -1.3426292   0.13334475    11242.128     1000 
 1208000    0.4492941   -2.0886046   0.67326721   -1.4153374   0.12649313    11371.657     1000 
 1210000    0.4542415   -2.0180586   0.68068089   -1.3373777   0.13665149    11289.783     1000 
 1212000   0.44514185   -2.0500866   0.66704506   -1.3830415   0.14237157    11350.963     1000 
 1214000   0.44893451   -1.9900036   0.67272836   -1.3172752   0.12838161    11303.235     1000 
 1216000   0.47691643   -2.0406404   0.71465927   -1.3259812   0.12884107    11542.781     1000 
 1218000   0.43763488   -2.0796528   0.65579586    -1.423857   0.13337544    11288.049     1000 
 1220000   0.44982248   -2.1332292   0.67405898   -1.4591703   0.13605885    11460.731     1000 
 1222000   0.45274558   -2.0667699   0.67843925   -1.3883307   0.13224992    11306.852     1000 
 1224000   0.46414163   -2.0607889   0.69551623   -1.3652727   0.13816013     11295.27     1000 
 1226000   0.46876077   -2.0962176   0.70243802   -1.3937796   0.12705503    11484.501     1000 
 1228000   0.45804253   -2.0694406   0.68637674   -1.3830639   0.13140482    11379.576     1000 
 1230000   0.43516604   -2.0879587   0.65209631   -1.4358624   0.12682372    11450.475     1000 
 1232000   0.44981588   -2.0491048    0.6740491   -1.3750557   0.11868378    11568.293     1000 
 1234000   0.44891079   -2.0779246   0.67269282   -1.4052318   0.12495581    11447.044     1000 
 1236000   0.44780716   -2.0343631   0.67103903   -1.3633241   0.12666697    11414.121     1000 
 1238000   0.45712377   -2.1418218   0.68499996   -1.4568218   0.12133406    11469.904     1000 
 1240000   0.43314017   -2.0936878   0.64906054   -1.4446273   0.11896188    11508.362     1000 
 1242000   0.45157779   -2.0249502   0.67668932   -1.3482609    0.1162475    11524.522     1000 
 1244000   0.45952939   -2.0833234   0.68860479   -1.3947186   0.11968601    11537.329     1000 
 1246000   0.45055005   -2.1059169   0.67514924   -1.4307676   0.13131041    11408.051     1000 
 1248000    0.4664649   -2.0253371   0.69899765   -1.3263395   0.13036286    11341.963     1000 
 1250000   0.44998477    -2.035454   0.67430218   -1.3611519   0.13544031    11272.638     1000 
 1252000    0.4512623   -2.1205615   0.67621656   -1.4443449   0.13502834    11330.209     1000 
 1254000   0.42881016   -2.0284299   0.64257203   -1.3858579   0.12219186    11384.504     1000 
 1256000   0.45281862   -2.0989795    0.6785487   -1.4204308   0.12563779    11409.744     1000 
 1258000    0.4503383   -2.0020197   0.67483194   -1.3271877   0.14285259    11249.257     1000 
 1260000   0.46088575   -2.0643135   0.69063729   -1.3736762   0.13283694    11341.069     1000 
 1262000   0.45204319   -2.0727293   0.67738672   -1.3953426   0.12968257    11342.459     1000 
 1264000   0.42890031   -2.0156896   0.64270711   -1.3729825   0.12506549    11355.691     1000 
 1266000    0.4541756   -2.0463278   0.68058214   -1.3657456   0.14423749    11367.651     1000 
 1268000   0.45002462   -2.0996305   0.67436189   -1.4252686   0.14285338    11255.323     1000 
 1270000   0.43446185   -2.0459485   0.65104108   -1.3949074   0.13478448     11369.16     1000 
 1272000   0.43223033   -2.0640879   0.64769716   -1.4163908   0.13044682    11396.306     1000 
 1274000   0.45199009   -2.0233732   0.67730716    -1.346066   0.12923049    11410.773     1000 
 1276000   0.44110986   -2.0582721   0.66100313    -1.397269   0.14264151    11243.708     1000 
 1278000    0.4299047   -2.0795373   0.64421219   -1.4353251   0.12951501    11372.515     1000 
 1280000   0.45784274   -2.0355625   0.68607734   -1.3494852   0.12733468    11323.407     1000 
 1282000   0.45855307   -2.0479583   0.68714178   -1.3608166   0.12625511    11338.066     1000 
 1284000   0.45281624   -2.0514683   0.67854513   -1.3729232    0.1240087    11425.032     1000 
 1286000   0.44530169   -2.0801118   0.66728458   -1.4128272   0.11543862    11539.385     1000 
 1288000   0.46155616   -2.0849024   0.69164191   -1.3932604   0.13144204    11387.391     1000 
 1290000   0.44369719   -2.0724907   0.66488024   -1.4076104   0.13873678    11341.095     1000 
 1292000   0.46200804   -2.0997102   0.69231905   -1.4073912   0.13849392    11249.226     1000 
 1294000   0.41885974   -2.0286282   0.62766133   -1.4009669   0.11979922    11361.761     1000 
 1296000    0.4495092   -2.0462705   0.67358954   -1.3726809   0.13143745     11320.37     1000 
 1298000   0.43938674   -2.0729665   0.65842103   -1.4145455    0.1276936    11475.051     1000 
 1300000    0.4474563   -2.0284716   0.67051326   -1.3579584   0.13906317    11264.725     1000 
 1302000   0.45387417   -2.0836858   0.68013044   -1.4035553   0.11715829    11537.062     1000 
 1304000   0.45648707   -2.0826865   0.68404588   -1.3986406   0.14012943     11319.25     1000 
 1306000   0.46473016   -2.0697571   0.69639815   -1.3733589   0.13504648     11281.29     1000 
 1308000   0.44930797   -2.0511443     0.673288   -1.3778563   0.13163065    11417.027     1000 
 1310000   0.43888264    -2.054706   0.65766563   -1.3970404   0.11866377    11400.738     1000 
 1312000   0.45569107   -2.0863434   0.68285307   -1.4034903   0.12626408    11455.283     1000 
 1314000   0.44412111   -2.0290784   0.66551549   -1.3635629   0.13155334    11275.841     1000 
 1316000   0.46122326   -2.0692743   0.69114305   -1.3781313   0.13133473    11459.401     1000 
 1318000   0.44711687   -2.0732674   0.67000464   -1.4032628   0.11363054    11589.888     1000 
 1320000   0.48066081    -2.069957   0.72027022   -1.3496867   0.13256803    11373.155     1000 
 1322000    0.4595191   -2.1177317   0.68858938   -1.4291423   0.12594677    11400.037     1000 
 1324000   0.43567021   -2.0441029   0.65285181   -1.3912511   0.12213826    11313.675     1000 
 1326000   0.44521871   -2.0689302   0.66716023     -1.40177   0.12824148    11325.147     1000 
 1328000   0.44333461   -2.0752549   0.66433691    -1.410918   0.12599812    11464.544     1000 
 1330000   0.44553826   -2.1017744   0.66763909   -1.4341353   0.12850786      11441.6     1000 
 1332000   0.44506001   -2.0564607   0.66692242   -1.3895383   0.12103331    11420.831     1000 
 1334000    0.4687155   -2.0816659   0.70237018   -1.3792957   0.14081728    11324.623     1000 
 1336000   0.44889934   -2.0909701   0.67267566   -1.4182944   0.12279919     11445.78     1000 
 1338000   0.45768043   -2.0462281   0.68583412    -1.360394   0.13961401    11268.198     1000 
 1340000   0.45000558   -2.0718848   0.67433337   -1.3975515   0.12135802    11422.624     1000 
 1342000   0.44710083   -2.0493477   0.66998059   -1.3793671   0.13073262    11376.672     1000 
 1344000   0.45764076   -2.0713677   0.68577468    -1.385593   0.12362143    11456.863     1000 
 1346000   0.45470393   -2.0510777   0.68137383   -1.3697039   0.11784793    11554.058     1000 
 1348000   0.46643282   -2.0908812   0.69894959   -1.3919316   0.12758554    11311.275     1000 
 1350000    0.4448416   -2.1187937   0.66659514   -1.4521986   0.12542691    11418.173     1000 
 1352000   0.45837518   -2.0670999   0.68687521   -1.3802246   0.14196393    11385.858     1000 
 1354000   0.43996992   -2.0650272   0.65929493   -1.4057323   0.12260887    11429.844     1000 
 1356000   0.43265958   -2.0747307   0.64834038   -1.4263903   0.12943454    11338.638     1000 
 1358000    0.4674263   -2.0602013   0.70043831    -1.359763   0.12579982    11474.596     1000 
 1360000   0.45563008   -2.0626095   0.68276168   -1.3798479   0.13637925    11344.242     1000 
 1362000   0.44885233   -2.0763089   0.67260521   -1.4037037   0.12442454    11487.989     1000 
 1364000   0.44799714   -2.0600431   0.67132371   -1.3887193   0.12200286    11367.644     1000 
 1366000   0.44527709   -2.0577157   0.66724772    -1.390468   0.13013149     11342.49     1000 
 1368000   0.46646961   -2.0662173   0.69900471   -1.3672126   0.12698501      11424.3     1000 
 1370000   0.45597876   -2.0809957   0.68328418   -1.3977116   0.13680814    11348.135     1000 
 1372000   0.43975765   -2.0715674   0.65897684   -1.4125905   0.13607932    11353.057     1000 
 1374000   0.46276439   -2.0703993   0.69345245   -1.3769468   0.13237592    11391.027     1000 
 1376000   0.44113358    -1.992726   0.66103866   -1.3316874   0.13483875     11258.17     1000 
 1378000   0.45236615   -2.1000936   0.67787067   -1.4222229   0.11816588    11468.191     1000 
 1380000   0.44854029   -2.0627079   0.67213762   -1.3905702   0.12858671    11358.955     1000 
 1382000   0.44834671   -2.0864814   0.67184754   -1.4146338   0.13484436    11455.972     1000 
 1384000   0.44657714   -2.1057668   0.66919585    -1.436571   0.12830332    11399.894     1000 
 1386000   0.42128985   -2.0698552   0.63130283   -1.4385523   0.11605703    11497.597     1000 
 1388000   0.46607916   -2.0743016   0.69841963    -1.375882   0.12121931    11441.579     1000 
 1390000   0.43490732   -2.0539548   0.65170861   -1.4022462   0.12511957    11507.793     1000 
 1392000   0.43706285   -2.0583828   0.65493868   -1.4034441    0.1298298    11315.467     1000 
 1394000   0.43380259   -2.0733014   0.65005318   -1.4232482   0.12541702    11426.427     1000 
 1396000   0.46549698    -2.099373   0.69754723   -1.4018258   0.13261188    11332.396     1000 
 1398000   0.43384438   -2.1050589    0.6501158   -1.4549431   0.13766307    11322.212     1000 
 1400000   0.42412774   -2.0440139   0.63555542   -1.4084585   0.14153131    11172.087     1000 
 1402000   0.45426204    -2.050079   0.68071166   -1.3693673   0.11613998    11589.248     1000 
 1404000   0.46737015   -2.1148195   0.70035417   -1.4144653   0.12679833    11513.598     1000 
 1406000   0.43479957   -2.0546054   0.65154716   -1.4030583   0.13134903    11396.458     1000 
 1408000   0.43756854   -2.0931048   0.65569646   -1.4374083   0.13266826    11278.344     1000 
 1410000    0.4371415   -2.0909814   0.65505654   -1.4359249   0.13593823    11341.584     1000 
 1412000    0.4621182   -2.0982072   0.69248412   -1.4057231   0.12722742    11488.337     1000 
 1414000   0.45172777   -2.0728402   0.67691407   -1.3959262   0.13222015    11340.184     1000 
 1416000   0.45383882   -2.0735765   0.68007747    -1.393499   0.13072927        11306     1000 
 1418000   0.45440905   -2.0542096   0.68093196   -1.3732777   0.12130299    11471.227     1000 
 1420000    0.4396556   -2.0481767   0.65882391   -1.3893527   0.13652058    11295.693     1000 
 1422000   0.45232992   -2.1657782   0.67781639   -1.4879618   0.12203554    11608.992     1000 
 1424000   0.46741214   -2.0645088   0.70041708   -1.3640918   0.12324291     11405.88     1000 
 1426000   0.43451867   -2.0453238   0.65112622   -1.3941976   0.13491063    11329.262     1000 
 1428000    0.4391935   -2.0417789   0.65813147   -1.3836474   0.12456297    11422.247     1000 
 1430000   0.46119882   -2.0681816   0.69110643   -1.3770752    0.1205957    11588.818     1000 
 1432000   0.44836219   -2.0483406   0.67187074   -1.3764699   0.14177815    11282.336     1000 
 1434000   0.44316173   -2.0734237   0.66407785   -1.4093459    0.1282544    11286.066     1000 
 1436000   0.44774894   -2.0347336   0.67095178   -1.3637818   0.12501885    11502.665     1000 
 1438000   0.45101086   -2.0673667   0.67583977    -1.391527   0.11839548    11456.662     1000 
 1440000   0.44864723   -2.0409574   0.67229788   -1.3686596   0.13400311    11437.751     1000 
 1442000   0.46909368   -2.0782007   0.70293688   -1.3752639   0.12698083    11406.388     1000 
 1444000   0.46440376   -2.0758573   0.69590903   -1.3799482   0.13001575    11340.308     1000 
 1446000   0.43535011   -2.0457462   0.65237215   -1.3933741   0.13285918    11309.841     1000 
 1448000   0.44068734   -2.0328063   0.66036997   -1.3724363   0.13801966     11293.62     1000 
 1450000   0.46624577   -2.0601135   0.69866929   -1.3614442   0.12748852    11334.286     1000 
 1452000   0.45627552   -2.0067917   0.68372887   -1.3230629   0.13256993    11310.029     1000 
 1454000   0.44391671    -2.077106   0.66520919   -1.4118968   0.11958319     11448.44     1000 
 1456000   0.45186504   -2.0670047   0.67711976    -1.389885   0.13428223    11339.802     1000 
 1458000   0.45434749   -2.0474918   0.68083972   -1.3666521    0.1295976    11438.541     1000 
 1460000   0.46652831   -2.1016114   0.69909267   -1.4025187    0.1394034     11291.82     1000 
 1462000   0.46069694   -2.0364207   0.69035437   -1.3460663    0.1365129     11329.77     1000 
 1464000    0.4690908   -2.0806282   0.70293256   -1.3776957   0.13340219    11373.372     1000 
 1466000   0.46590009   -2.0366041   0.69815129   -1.3384528   0.14576514    11217.202     1000 
 1468000   0.42363566   -2.0521423   0.63481804   -1.4173242   0.12497362    11535.298     1000 
 1470000   0.43860336   -2.0566898   0.65724713   -1.3994427    0.1401528    11302.782     1000 
 1472000   0.46036585   -2.0845455   0.68985823   -1.3946873   0.13762936    11440.022     1000 
 1474000     0.452645   -2.1044905   0.67828853    -1.426202   0.13723463    11402.924     1000 
 1476000   0.46150703   -2.0754194   0.69156829   -1.3838511   0.12443355    11384.838     1000 
 1478000   0.45018621   -2.0164951   0.67460404   -1.3418911   0.13270966    11352.955     1000 
 1480000   0.43962481   -2.0595012   0.65877778   -1.4007235   0.12708988    11396.199     1000 
 1482000   0.45751606   -2.0798614   0.68558782   -1.3942736   0.11725226    11658.695     1000 
 1484000   0.46229885   -2.0560543   0.69275482   -1.3632995    0.1297827    11351.387     1000 
 1486000   0.45477486   -2.0824543   0.68148012   -1.4009741   0.13411352    11375.035     1000 
 1488000   0.44104267   -2.0539032   0.66090245   -1.3930007   0.13239345    11303.547     1000 
 1490000   0.45650553   -2.0716157   0.68407354   -1.3875421   0.13733523    11330.275     1000 
 1492000   0.45394084   -2.0237561   0.68023034   -1.3435258   0.12551484    11380.528     1000 
 1494000   0.47587282   -2.0254351   0.71309542   -1.3123396   0.13600872    11280.184     1000 
 1496000    0.4673883   -2.0525144   0.70038137   -1.3521331   0.13040561    11356.379     1000 
 1498000       0.4487   -2.1139105   0.67237695   -1.4415335   0.11744953    11572.058     1000 
 1500000   0.43080401   -2.0692115   0.64555981   -1.4236517   0.12965435    11408.532     1000 
 1502000   0.45693772   -2.0692532   0.68472118    -1.384532   0.12774451    11345.479     1000 
 1504000   0.44140017   -2.1320501   0.66143816   -1.4706119   0.12679892    11518.908     1000 
 1506000   0.45572237   -2.0647132   0.68289997   -1.3818132   0.12622145      11434.8     1000 
 1508000   0.44081201    -2.007449    0.6605568   -1.3468922   0.12924074    11280.538     1000 
 1510000   0.45240089   -2.0407178   0.67792273    -1.362795   0.13032745     11323.16     1000 
 1512000   0.44503831   -2.0648435   0.66688991   -1.3979536   0.13064503    11380.336     1000 
 1514000   0.44842012   -2.0932293   0.67195755   -1.4212717   0.14626622    11252.303     1000 
 1516000    0.4284495   -2.0203974   0.64203158   -1.3783658   0.12591194    11361.121     1000 
 1518000   0.43802893   -2.0778836   0.65638636   -1.4214972   0.11716486    11454.604     1000 
 1520000   0.44472493   -2.0760754   0.66642031   -1.4096551   0.12880088    11331.641     1000 
 1522000   0.44167523   -2.0339624   0.66185033   -1.3721121    0.1324833    11263.419     1000 
 1524000   0.43848373   -2.0449066   0.65706787   -1.3878387   0.12939538    11399.537     1000 
 1526000   0.45039579    -2.093786    0.6749181   -1.4188679   0.12207182    11379.854     1000 
 1528000   0.45006866   -2.0514636   0.67442789   -1.3770357   0.14377743    11283.719     1000 
 1530000    0.4528097   -2.0477316   0.67853534   -1.3691963   0.13455533    11324.196     1000 
 1532000   0.44641636   -2.0817418   0.66895492   -1.4127869    0.1355836    11322.959     1000 
 1534000   0.45387373   -2.0786188   0.68012979    -1.398489   0.12806861     11431.61     1000 
 1536000   0.45965122   -2.0711187   0.68878735   -1.3823313   0.13407291     11453.91     1000 
 1538000    0.4706979   -2.1013399    0.7053408   -1.3959991   0.10727983     11556.71     1000 
 1540000   0.46207824   -2.0903911   0.69242424   -1.3979669   0.15209527    11221.334     1000 
 1542000   0.43841522   -2.0385475   0.65696521   -1.3815822   0.12773187    11407.543     1000 
 1544000   0.42962719   -2.0255917   0.64379634   -1.3817954   0.12401274    11312.193     1000 
 1546000   0.44337443   -2.0577033   0.66439659   -1.3933067   0.12217573    11397.454     1000 
 1548000   0.45323381   -2.0662096   0.67917086   -1.3870388   0.12422229    11427.121     1000 
 1550000   0.44550173   -2.0179477   0.66758435   -1.3503634   0.13971358    11190.177     1000 
 1552000   0.45337551   -2.0332824   0.67938321   -1.3538992   0.11700107    11388.074     1000 
 1554000   0.46929819   -2.0796979   0.70324334   -1.3764545   0.13018078     11397.56     1000 
 1556000   0.46733433   -2.0552514    0.7003005   -1.3549509   0.13008752    11399.147     1000 
 1558000   0.47329912   -2.1294365   0.70923873   -1.4201977   0.13190376    11472.456     1000 
 1560000   0.43314712   -2.0889457   0.64907096   -1.4398747   0.13172479    11325.746     1000 
 1562000   0.44516184   -2.0388641   0.66707501   -1.3717891    0.1359941     11325.71     1000 
 1564000   0.43860025   -2.0749554   0.65724247    -1.417713   0.13279095    11308.303     1000 
 1566000   0.44933215    -2.046994   0.67332423   -1.3736698   0.13982666    11276.504     1000 
 1568000   0.44963984    -2.072053    0.6737853   -1.3982677   0.13093942    11488.715     1000 
 1570000   0.45620556   -2.1337702   0.68362403   -1.4501462   0.13425291    11450.784     1000 
 1572000   0.43223367   -2.0926149   0.64770216   -1.4449127   0.12176066    11386.246     1000 
 1574000   0.46015903   -2.0890317    0.6895483   -1.3994834     0.127066    11391.336     1000 
 1576000   0.44016201   -2.0336414   0.65958278   -1.3740586   0.13237666    11356.268     1000 
 1578000   0.44369015    -2.093748   0.66486969   -1.4288783   0.12056801    11434.382     1000 
 1580000    0.4405339   -2.1085781   0.66014005    -1.448438    0.1331607    11288.695     1000 
 1582000   0.45774164   -2.0632162   0.68592585   -1.3772904   0.12980553    11470.632     1000 
 1584000   0.47805347   -2.0613565   0.71636313   -1.3449934   0.12781673    11317.734     1000 
 1586000   0.42920547   -2.0789145    0.6431644   -1.4357501    0.1279652    11446.163     1000 
 1588000    0.4449126   -2.0805589   0.66670152   -1.4138574   0.12771741    11388.035     1000 
[...]
 2614000   0.45594112   -2.0549071   0.68322777   -1.3716794    0.1440276    11199.714     1000 
 2616000   0.44431372   -2.0271817   0.66580411   -1.3613776   0.13597246    11243.979     1000 
 2618000   0.47942903    -2.043523    0.7184244   -1.3250986   0.14071681    11318.178     1000 
 2620000   0.45341729   -2.0327707   0.67944581   -1.3533249    0.1300116    11333.635     1000 
 2622000   0.45682293   -2.0928753   0.68454916   -1.4083261   0.13878147     11346.33     1000 
 2624000   0.45998561   -2.0728909   0.68928843   -1.3836025   0.13230481    11270.036     1000 
 2626000    0.4386633   -2.0606636   0.65733696   -1.4033267    0.1243665    11404.589     1000 
 2628000   0.44395828   -2.0349932   0.66527149   -1.3697217   0.12440478     11455.76     1000 
 2630000   0.44531603   -2.0768207   0.66730608   -1.4095147   0.13827156    11291.153     1000 
 2632000   0.43894493   -2.0371451   0.65775897   -1.3793861   0.13134408    11420.283     1000 
 2634000   0.43300245    -2.041287   0.64885418   -1.3924328   0.12757191    11413.872     1000 
 2636000   0.45463596   -2.0864547   0.68127199   -1.4051827    0.1230868    11429.002     1000 
 2638000   0.45794072   -2.0512491   0.68622417   -1.3650249   0.13531883    11379.092     1000 
 2640000   0.45018847   -2.1190338   0.67460742   -1.4444264   0.12807655    11414.266     1000 
 2642000   0.45510395   -2.0256845   0.68197326   -1.3437112   0.13706076    11296.231     1000 
 2644000   0.45227524   -2.0733824   0.67773445    -1.395648   0.12863451    11433.607     1000 
 2646000   0.44804726   -2.0984759   0.67139882   -1.4270771   0.13963463    11358.947     1000 
 2648000   0.44103901   -2.0359695   0.66089696   -1.3750726   0.12897947    11431.541     1000 
 2650000   0.46200964   -2.0352028   0.69232144   -1.3428814   0.12657851    11373.905     1000 
 2652000   0.45766026   -2.1128426    0.6858039   -1.4270387   0.12503956    11387.176     1000 
 2654000   0.45878323   -2.0821221   0.68748666   -1.3946354   0.13061058    11464.985     1000 
 2656000   0.44998438   -2.0525814   0.67430159   -1.3782798   0.13414685    11407.174     1000 
 2658000   0.45802822   -2.0650203   0.68635529    -1.378665   0.13508273    11244.852     1000 
 2660000   0.43475198   -2.0254441   0.65147584   -1.3739682   0.11195556    11573.588     1000 
 2662000   0.45365825   -2.0755654   0.67980689   -1.3957585   0.13423504    11252.539     1000 
 2664000   0.45544214   -2.0616139   0.68248004   -1.3791338   0.12763354    11366.143     1000 
 2666000   0.45587023   -2.0571596   0.68312154   -1.3740381   0.13336904     11378.22     1000 
 2668000   0.46789481   -2.0561281   0.70114038   -1.3549878   0.12910348    11327.304     1000 
 2670000   0.45624477   -2.1035725    0.6836828   -1.4198898    0.1232234     11474.52     1000 
 2672000   0.45628158   -2.0450899   0.68373794    -1.361352   0.13970681    11218.065     1000 
 2674000   0.44429221    -2.025593   0.66577187   -1.3598211   0.13824716    11300.949     1000 
 2676000   0.45635851   -2.0456066   0.68385323   -1.3617534     0.145418    11198.758     1000 
 2678000   0.44073954     -2.00128    0.6604482   -1.3408318   0.12462681    11383.221     1000 
 2680000   0.44382447   -2.0681154   0.66507097   -1.4030444   0.12317881    11508.464     1000 
 2682000   0.45343007   -2.0765908   0.67946496   -1.3971259   0.13174276    11351.416     1000 
 2684000   0.43191617   -2.0761548   0.64722638   -1.4289284   0.12835233    11398.768     1000 
 2686000   0.45311293   -2.1066936   0.67898973   -1.4277039   0.13094223    11459.503     1000 
 2688000   0.46839393   -2.0447795   0.70188831   -1.3428912   0.13652351     11334.45     1000 
 2690000   0.45048903   -2.0659985   0.67505781   -1.3909407   0.12922959    11386.861     1000 
 2692000   0.43804486    -2.126561   0.65641022   -1.4701508   0.12195312    11545.079     1000 
 2694000   0.44238444   -2.0365512   0.66291308   -1.3736381   0.13509394    11315.619     1000 
 2696000   0.44026846   -2.0810441   0.65974229   -1.4213018   0.11070043    11522.085     1000 
 2698000   0.45825506   -2.0710297   0.68669521   -1.3843345   0.12490241     11331.21     1000 
 2700000   0.45524311   -2.0577502   0.68218179   -1.3755684   0.12512325    11433.305     1000 
 2702000   0.43909333   -2.0727397   0.65798136   -1.4147584   0.13327833    11400.208     1000 
 2704000   0.44279205   -2.1011451   0.66352388   -1.4376212   0.12810228    11447.908     1000 
 2706000   0.46554505    -2.063886   0.69761926   -1.3662667   0.13569736    11347.017     1000 
 2708000   0.44899373   -2.0451002   0.67281711    -1.372283    0.1353375    11440.755     1000 
 2710000   0.44389148   -2.0995547   0.66517138   -1.4343833   0.13328137    11252.585     1000 
 2712000   0.45966933   -2.1077832   0.68881449   -1.4189687   0.12930197    11436.272     1000 
 2714000   0.46983139   -2.0072294   0.70404234   -1.3031871   0.14600584     11222.77     1000 
 2716000   0.44028754   -2.0657391   0.65977087   -1.4059682   0.13115757    11333.228     1000 
 2718000   0.45065765   -2.0675825   0.67531049    -1.392272   0.13348057    11416.342     1000 
 2720000   0.44833793   -2.0368806   0.67183439   -1.3650462   0.13372119    11297.433     1000 
 2722000   0.46022457   -2.1073852   0.68964652   -1.4177387   0.13103532    11354.528     1000 
 2724000   0.45146029   -2.0699478   0.67651325   -1.3934346   0.13944177    11472.273     1000 
 2726000   0.45280483    -2.157771   0.67852804   -1.4792429   0.12613443    11500.996     1000 
 2728000   0.44640532   -2.0932447   0.66893837   -1.4243063   0.11584357    11573.202     1000 
 2730000   0.45160971   -2.0323572   0.67673715   -1.3556201   0.11931757    11430.489     1000 
 2732000   0.43840661   -2.0340357    0.6569523   -1.3770834   0.13877517    11309.658     1000 
 2734000   0.44866545   -2.0376534   0.67232518   -1.3653282   0.13858404    11307.221     1000 
 2736000   0.46256584   -2.0877316   0.69315491   -1.3945767   0.13137622    11443.094     1000 
 2738000   0.44420119   -2.1069068   0.66563548   -1.4412714   0.13005132    11352.775     1000 
 2740000   0.45505541   -2.0619965   0.68190054   -1.3800959   0.13050054    11480.635     1000 
 2742000   0.45094119   -2.0813048   0.67573537   -1.4055695   0.12485919    11321.017     1000 
 2744000   0.44299109     -2.06111   0.66382215   -1.3972878   0.13577597    11228.044     1000 
 2746000   0.46529439   -2.0816319   0.69724364   -1.3843883    0.1569682    11145.392     1000 
 2748000    0.4609057   -2.0617763    0.6906672   -1.3711091   0.13620405    11386.148     1000 
 2750000   0.45730744   -2.0517095    0.6852752   -1.3664343   0.13586889    11335.221     1000 
 2752000   0.44417601   -2.0190505   0.66559775   -1.3534528   0.13180998    11339.174     1000 
 2754000   0.46781356   -2.0501896   0.70101862    -1.349171   0.12696952    11407.183     1000 
 2756000   0.47838669   -2.0556441   0.71686246   -1.3387817   0.13807084    11306.019     1000 
 2758000   0.44520642   -2.1065737   0.66714182   -1.4394319   0.12153788    11474.714     1000 
 2760000   0.42525495    -2.077352   0.63724455   -1.4401075   0.12178161    11423.098     1000 
 2762000   0.45796009   -2.1102353   0.68625319   -1.4239821   0.12776459    11467.856     1000 
 2764000   0.45000237   -2.0443221   0.67432856   -1.3699936   0.11553564    11510.835     1000 
 2766000   0.44896389   -2.0906386   0.67277239   -1.4178662   0.13425153    11376.266     1000 
 2768000   0.45992136     -2.07649   0.68919215   -1.3872979   0.13195307    11392.202     1000 
 2770000   0.46664249    -2.064445   0.69926377   -1.3651812   0.12853383    11329.666     1000 
 2772000   0.44872499   -2.0833431   0.67241439   -1.4109287   0.12902928    11394.335     1000 
 2774000   0.42532051   -2.0699144   0.63734278   -1.4325716   0.13403348    11288.626     1000 
 2776000   0.44343653   -2.0312037   0.66448964   -1.3667141   0.12942762    11349.253     1000 
 2778000   0.46130381   -2.0217802   0.69126376   -1.3305165   0.12954551    11334.835     1000 
 2780000   0.43995813   -2.0742812   0.65927726    -1.415004   0.11229252    11587.371     1000 
 2782000   0.45604112   -2.0237634   0.68337762   -1.3403857   0.12864037    11355.623     1000 
 2784000   0.45091213   -2.0789005   0.67569182   -1.4032087   0.13621201     11369.23     1000 
 2786000   0.44769496   -2.0681485    0.6708709   -1.3972776   0.12970548    11448.333     1000 
 2788000   0.45044412   -2.0635475   0.67499051    -1.388557   0.13034299    11393.977     1000 
 2790000   0.45787691   -2.0405219   0.68612855   -1.3543934   0.11765882    11484.628     1000 
 2792000   0.44884802   -2.0501521   0.67259875   -1.3775533   0.12675955    11403.255     1000 
 2794000   0.44953817   -2.0696047   0.67363295   -1.3959718   0.11815935    11480.026     1000 
 2796000   0.44445121    -2.043135   0.66601014   -1.3771249   0.13355984    11331.151     1000 
 2798000   0.44382887   -2.0264394   0.66507756   -1.3613619   0.13871617    11249.477     1000 
 2800000    0.4338037   -2.0735852   0.65005484   -1.4235304   0.12631776    11479.517     1000 
 2802000   0.45657716   -2.0746949   0.68418087    -1.390514   0.12950732    11437.211     1000 
 2804000   0.42936433   -2.0679062   0.64340245   -1.4245037   0.13163889    11401.534     1000 
 2806000   0.45603979   -2.1243615   0.68337562   -1.4409859   0.13077033    11428.651     1000 
 2808000   0.44609408    -2.061202   0.66847198     -1.39273   0.12976502    11323.117     1000 
 2810000   0.44950411   -2.0203246    0.6735819   -1.3467427    0.1346744    11306.827     1000 
 2812000     0.442291   -2.0905651   0.66277306   -1.4277921   0.11866429    11460.161     1000 
 2814000    0.4413596   -2.0828795   0.66137736   -1.4215021   0.12341289    11451.255     1000 
 2816000   0.43800534   -2.0686046   0.65635101   -1.4122536   0.13330992    11324.063     1000 
 2818000   0.45550425   -2.0558884   0.68257312   -1.3733153   0.13619249     11340.43     1000 
 2820000   0.44432009   -2.0801924   0.66581365   -1.4143787   0.11747793    11494.794     1000 
 2822000   0.46263524   -2.1064541    0.6932589   -1.4131952   0.13019592    11418.728     1000 
 2824000   0.46410387   -2.0761152   0.69545965   -1.3806556   0.13668694    11345.745     1000 
 2826000   0.45845403    -2.093077   0.68699336   -1.4060837    0.1092788    11563.205     1000 
 2828000   0.46999057   -2.0435729   0.70428087   -1.3392921   0.14291091    11224.477     1000 
 2830000   0.45200469   -2.0328152   0.67732903   -1.3554861    0.1394349    11242.199     1000 
 2832000     0.463849   -2.0656168   0.69507772   -1.3705391   0.12296051    11359.787     1000 
 2834000    0.4301785   -2.0475024   0.64462248   -1.4028799   0.13038247    11341.807     1000 
 2836000   0.44708172   -2.0234769   0.66995196   -1.3535249   0.13633335    11435.243     1000 
 2838000   0.45806258   -2.0969765   0.68640678   -1.4105697   0.12721167    11416.238     1000 
 2840000   0.43582727   -2.0727903   0.65308716   -1.4197032   0.14153492    11201.145     1000 
 2842000   0.47012633    -2.027007    0.7044843   -1.3225227   0.13931045    11279.884     1000 
 2844000   0.45511827   -1.9846986   0.68199472   -1.3027038   0.14279302    11193.032     1000 
 2846000   0.44704068   -2.0549043   0.66989046   -1.3850138   0.14011147    11318.042     1000 
 2848000   0.44985298   -2.0370284   0.67410468   -1.3629238   0.12927464    11299.004     1000 
 2850000   0.43935279   -2.0709359   0.65837015   -1.4125658   0.12141786    11464.714     1000 
 2852000   0.46533595   -2.1040372   0.69730592   -1.4067313   0.13658939    11368.238     1000 
 2854000   0.45637017   -2.0599386    0.6838707   -1.3760679   0.12027762    11459.328     1000 
 2856000   0.43511751   -2.0742421   0.65202359   -1.4222185   0.12484276    11402.025     1000 
 2858000   0.44064767    -2.067334   0.66031053   -1.4070234    0.1179929    11448.924     1000 
 2860000   0.44360511   -2.0754564   0.66474226   -1.4107141    0.1295378    11416.931     1000 
 2862000   0.43829373   -2.0792416   0.65678315   -1.4224585   0.12713784    11333.313     1000 
 2864000   0.45904962   -2.0025505   0.68788585   -1.3146646   0.13218983     11311.13     1000 
 2866000   0.43978642   -2.0702252   0.65901995   -1.4112052   0.13729988    11323.659     1000 
 2868000   0.45122448   -2.0621116   0.67615989   -1.3859517   0.11888738    11419.611     1000 
 2870000   0.44175946   -2.0692497   0.66197656   -1.4072732   0.12446321    11364.454     1000 
 2872000    0.4397679   -2.0823036    0.6589922   -1.4233114   0.13694984    11388.446     1000 
 2874000   0.46171814   -2.0504164   0.69188463   -1.3585317   0.13563794    11417.704     1000 
 2876000    0.4669437    -2.020469   0.69971513   -1.3207539   0.12221394     11501.95     1000 
 2878000   0.45715062    -2.074805    0.6850402   -1.3897648   0.13431824     11338.06     1000 
 2880000   0.44663451   -2.0825711   0.66928181   -1.4132893   0.13768263    11315.555     1000 
 2882000   0.44912494   -2.0679841   0.67301372   -1.3949704   0.13159054    11368.044     1000 
 2884000   0.44636264   -2.1085318   0.66887442   -1.4396573   0.12158979    11462.442     1000 
 2886000   0.43992059   -2.0696806     0.659221   -1.4104596   0.13445145    11315.988     1000 
 2888000   0.45427575   -2.0388196   0.68073221   -1.3580874    0.1333917     11447.09     1000 
 2890000   0.46377912   -2.0738384     0.694973   -1.3788654   0.13941438    11290.813     1000 
 2892000   0.47224502   -2.0719825   0.70765916   -1.3643233   0.14575653    11210.703     1000 
 2894000   0.44785639   -2.0663736   0.67111281   -1.3952608   0.11786349    11492.352     1000 
 2896000   0.44601085   -2.0837107   0.66834725   -1.4153635   0.13101739    11344.916     1000 
 2898000   0.46580285   -2.0218134   0.69800557   -1.3238078   0.13463721    11336.698     1000 
 2900000   0.44887633   -2.0802876   0.67264118   -1.4076465   0.13586138    11217.353     1000 
 2902000   0.45049985   -2.0306026   0.67507403   -1.3555286   0.13455472    11364.258     1000 
 2904000   0.46062836   -2.0867727    0.6902516   -1.3965211    0.1273798    11319.572     1000 
 2906000   0.43529614   -2.0568757   0.65229127   -1.4045845   0.11803903    11489.933     1000 
 2908000   0.45744984   -2.0616287   0.68548858   -1.3761401   0.14489514     11212.85     1000 
 2910000    0.4496401   -2.1044785   0.67378569   -1.4306928   0.13302135    11319.229     1000 
 2912000   0.45242857   -2.0663747   0.67796421   -1.3884105   0.11700778    11395.377     1000 
 2914000   0.45481483   -2.0813191   0.68154003   -1.3997791   0.13424145    11389.325     1000 
 2916000   0.45389591   -2.0192086   0.68016302   -1.3390456   0.14028419     11314.09     1000 
 2918000   0.46571188   -2.0586165   0.69786926   -1.3607472   0.14498715    11329.161     1000 
 2920000   0.45456623   -2.0632681    0.6811675   -1.3821006    0.1366415    11269.262     1000 
 2922000   0.44499695   -2.0673158   0.66682794   -1.4004878   0.12378009    11522.136     1000 
 2924000   0.44431569   -2.0307183   0.66580707   -1.3649113   0.12533679    11356.626     1000 
 2926000   0.44349565   -2.0985099   0.66457824   -1.4339316   0.12789763    11461.675     1000 
 2928000    0.4377789   -2.0572092   0.65601168   -1.4011975   0.14145171    11304.234     1000 
 2930000   0.44065814    -2.063907   0.66032623   -1.4035808   0.14308622     11257.56     1000 
 2932000   0.46096339   -2.0340121   0.69075365   -1.3432585   0.11870298    11379.684     1000 
 2934000   0.43653782   -2.0643085   0.65415192   -1.4101566   0.12581475    11392.743     1000 
 2936000   0.44878476   -2.1709075   0.67250396   -1.4984035    0.1274097    11408.503     1000 
 2938000   0.43882265   -2.0700717   0.65757574    -1.412496    0.1233869    11401.631     1000 
 2940000   0.44424814   -2.0599902   0.66570584   -1.3942844   0.13267757    11324.437     1000 
 2942000   0.46483037   -2.0434474   0.69654832   -1.3468991   0.12384746    11358.142     1000 
 2944000   0.45534751   -2.0452161   0.68233824   -1.3628779   0.12777091    11346.195     1000 
 2946000   0.46408949   -2.0589929    0.6954381   -1.3635548    0.1275587    11470.751     1000 
 2948000   0.46193573   -2.1078182   0.69221069   -1.4156075   0.12006744    11552.558     1000 
 2950000   0.47056171   -2.0205482   0.70513672   -1.3154114   0.14148214    11378.571     1000 
 2952000   0.43616512   -2.0942935   0.65359343   -1.4407001   0.11801069    11531.857     1000 
 2954000   0.46512425   -2.1186067   0.69698869    -1.421618   0.12675912    11573.428     1000 
 2956000   0.44374984   -2.0980238   0.66495913   -1.4330647   0.13665037    11289.958     1000 
 2958000   0.43777844   -2.0530981   0.65601099   -1.3970871   0.14043552    11274.113     1000 
 2960000   0.45994965   -2.0324788   0.68923456   -1.3432442   0.14353604    11220.297     1000 
 2962000   0.45324246   -2.0814033   0.67918383   -1.4022195   0.12403106    11429.689     1000 
 2964000   0.44094533   -2.0928976   0.66075658    -1.432141   0.13552344    11335.327     1000 
 2966000   0.46423583   -2.0474911   0.69565739   -1.3518337   0.13007939    11382.834     1000 
 2968000   0.46847654   -2.0430475   0.70201209   -1.3410354   0.14098921    11259.003     1000 
 2970000   0.44366019   -2.0488898    0.6648248    -1.384065   0.13969084     11336.48     1000 
 2972000   0.43382746   -2.0873063   0.65009045   -1.4372158   0.12514072    11324.557     1000 
 2974000   0.44679787   -2.1074241    0.6695266   -1.4378975   0.12461153    11437.472     1000 
 2976000   0.44302339   -2.0303548   0.66387055   -1.3664842   0.13384882    11515.521     1000 
 2978000   0.44863765   -2.0230225   0.67228352    -1.350739   0.12419359    11374.361     1000 
 2980000   0.46394765   -2.0505994   0.69522556   -1.3553739   0.13097076    11356.529     1000 
 2982000   0.45796473    -2.066059   0.68626015   -1.3797988   0.13448688    11344.881     1000 
 2984000   0.45128635   -2.0618718    0.6762526   -1.3856192   0.12723564    11471.172     1000 
 2986000   0.45589396   -2.0611783    0.6831571   -1.3780212   0.13371577    11375.756     1000 
 2988000   0.46086949   -2.0520088   0.69061293   -1.3613958   0.12586804    11417.728     1000 
 2990000   0.45587555   -2.0537233   0.68312951   -1.3705938   0.13463003    11341.052     1000 
 2992000   0.45545925   -2.0410258   0.68250569   -1.3585201   0.13512189    11331.462     1000 
 2994000   0.48135688   -2.0524013   0.72131329    -1.331088   0.13082641    11418.114     1000 
 2996000   0.44549682   -2.0220836   0.66757698   -1.3545066   0.12804964    11308.206     1000 
 2998000     0.439092   -2.0609028   0.65797936   -1.4029235   0.13934099    11285.424     1000 
 3000000   0.44750759    -1.997306   0.67059012   -1.3267159   0.14453494    11169.533     1000 
Loop time of 1153.19 on 1 procs for 3000000 steps with 1000 atoms

Performance: 1123842.939 tau/day, 2601.488 timesteps/s
100.0% CPU use with 1 MPI tasks x 1 OpenMP threads

MPI task timing breakdown:
Section |  min time  |  avg time  |  max time  |%varavg| %total
---------------------------------------------------------------
Pair    | 907.12     | 907.12     | 907.12     |   0.0 | 78.66
Neigh   | 143.55     | 143.55     | 143.55     |   0.0 | 12.45
Comm    | 24.33      | 24.33      | 24.33      |   0.0 |  2.11
Output  | 0.017254   | 0.017254   | 0.017254   |   0.0 |  0.00
Modify  | 72.847     | 72.847     | 72.847     |   0.0 |  6.32
Other   |            | 5.32       |            |       |  0.46

Nlocal:        1000.00 ave        1000 max        1000 min
Histogram: 1 0 0 0 0 0 0 0 0 0
Nghost:        2191.00 ave        2191 max        2191 min
Histogram: 1 0 0 0 0 0 0 0 0 0
Neighs:        28084.0 ave       28084 max       28084 min
Histogram: 1 0 0 0 0 0 0 0 0 0

Total # of neighbors = 28084
Ave neighs/atom = 28.084000
Neighbor list builds = 150000
Dangerous builds not checked

Total wall time: 0:19:13
