LAMMPS (29 Sep 2021 - Update 2)
OMP_NUM_THREADS environment is not set. Defaulting to 1 thread. (src/comm.cpp:98)
  using 1 OpenMP thread(s) per MPI task
# ----------------------- Inicialização -----------------------

units			lj
atom_style 		atomic
dimension 		3
boundary 		p p p

# -------------------- Criação dos Átomos ---------------------

read_data 		topologia.txt
Reading data file ...
  orthogonal box = (0.0000000 0.0000000 0.0000000) to (21.540000 21.540000 21.540000)
  1 by 1 by 1 MPI processor grid
  reading atoms ...
  1000 atoms
  read_data CPU = 0.005 seconds

velocity 		all create ${temp} 87287 rot yes dist gaussian
velocity 		all create 0.38 87287 rot yes dist gaussian

# ------------------ Interação Interatômica -------------------

pair_style		table linear 1000
pair_coeff		1 1 force.table AA 5.0
WARNING: 2 of 1000 force values in table AA are inconsistent with -dE/dr.
WARNING:  Should only be flagged at inflection points (src/pair_table.cpp:465)
pair_coeff		1 2 force.table AB 5.0
WARNING: 1 of 1000 force values in table AB are inconsistent with -dE/dr.
WARNING:  Should only be flagged at inflection points (src/pair_table.cpp:465)
pair_coeff		2 2 force.table BB 5.0
pair_write		1 1 1000 r 0.008 5.0 table.check AA
Appending to table file table.check with DATE: 2023-06-15
Neighbor list info ...
  update every 1 steps, delay 10 steps, check yes
  max neighbors/atom: 2000, page size: 100000
  master list distance cutoff = 5.3
  ghost atom cutoff = 5.3
  binsize = 2.65, bins = 9 9 9
  1 neighbor lists, perpetual/occasional/extra = 1 0 0
  (1) pair table, perpetual
      attributes: half, newton on
      pair build: half/bin/atomonly/newton
      stencil: half/bin/3d
      bin: standard
pair_write		1 2 1000 r 0.008 5.0 table.check AB
Appending to table file table.check with DATE: 2023-06-15
pair_write		2 2 1000 r 0.008 5.0 table.check BB
Appending to table file table.check with DATE: 2023-06-15

neighbor 		0.3 bin
neigh_modify		every 20 delay 0 check no

# ------------------------- Ensemble --------------------------------------

fix 1			all npt temp ${temp} ${temp} 0.5 iso ${press} ${press} 5
fix 1			all npt temp 0.38 ${temp} 0.5 iso ${press} ${press} 5
fix 1			all npt temp 0.38 0.38 0.5 iso ${press} ${press} 5
fix 1			all npt temp 0.38 0.38 0.5 iso 0.13 ${press} 5
fix 1			all npt temp 0.38 0.38 0.5 iso 0.13 0.13 5

# ---------------------- Função de Distribuição Radial -----------------------

#compute RDF 		all rdf 2000 1 1 1 2 2 2
#fix 2 			all ave/time 1 2000 2000 c_RDF[*] file rdf.data mode vector

# ------------------------- Execução ---------------------------

timestep 		0.005
thermo_style		custom step temp pe ke etotal press vol atoms
thermo			2000
run			3000000
Per MPI rank memory allocation (min/avg/max) = 2.670 | 2.670 | 2.670 Mbytes
Step Temp PotEng KinEng TotEng Press Volume Atoms 
       0         0.38  -0.99052333      0.56943  -0.42109333    0.1070854    9993.9483     1000 
    2000   0.36873991   -2.2474961   0.55255676   -1.6949393   0.13414887    11270.632     1000 
    4000   0.38503989   -2.3121923   0.57698228     -1.73521   0.12178277    11452.749     1000 
    6000   0.37656737   -2.2735119   0.56428621   -1.7092257   0.14045219     11243.05     1000 
    8000   0.37597352   -2.3396804   0.56339632   -1.7762841   0.13727019    11357.616     1000 
   10000   0.37698943   -2.2925548   0.56491866   -1.7276361   0.13438767    11293.356     1000 
   12000   0.38823419   -2.2967024   0.58176893   -1.7149335   0.12713966    11441.124     1000 
   14000    0.3900204   -2.3213735   0.58444557   -1.7369279   0.12279648     11391.42     1000 
   16000   0.37319907   -2.3054616   0.55923881   -1.7462228   0.13625024    11342.992     1000 
   18000   0.38289433   -2.3495459   0.57376716   -1.7757787   0.12860335    11449.625     1000 
   20000   0.40147162      -2.2463   0.60160522   -1.6446948   0.12257484     11325.78     1000 
   22000   0.38169048    -2.299501   0.57196318   -1.7275379   0.12786617    11465.996     1000 
   24000   0.39360537   -2.3288432   0.58981765   -1.7390255   0.12812727     11403.67     1000 
   26000   0.37903837   -2.3441717     0.567989   -1.7761827   0.12261872    11447.368     1000 
   28000   0.38635582   -2.2743396    0.5789542   -1.6953854   0.13226649    11308.053     1000 
   30000   0.38085399   -2.2959058   0.57070971    -1.725196   0.13242295    11331.963     1000 
   32000   0.37937336   -2.3191927   0.56849098   -1.7507017   0.11425698    11544.061     1000 
   34000   0.38276812   -2.3115171   0.57357802    -1.737939    0.1254602    11442.216     1000 
   36000     0.378354   -2.2741239   0.56696347   -1.7071604   0.12137895    11435.878     1000 
   38000   0.37658953   -2.2418114   0.56431942    -1.677492   0.13661656    11313.341     1000 
   40000   0.38429953   -2.3115675   0.57587285   -1.7356946   0.12811856    11412.954     1000 
   42000    0.3833598   -2.2760689   0.57446466   -1.7016043   0.12910729    11380.544     1000 
   44000   0.37622657   -2.2762385   0.56377552   -1.7124629   0.14061963    11285.485     1000 
   46000   0.36779928   -2.3040706   0.55114723   -1.7529233   0.11760362    11426.117     1000 
   48000   0.37844875   -2.3195714   0.56710546    -1.752466   0.13983919     11307.82     1000 
   50000   0.37424379   -2.3011857   0.56080432   -1.7403814   0.12534148    11372.374     1000 
   52000   0.37621836   -2.3168586   0.56376321   -1.7530954   0.12952752    11419.337     1000 
   54000   0.37219197   -2.3256432   0.55772967   -1.7679135   0.12367395    11411.402     1000 
   56000   0.38945834   -2.2768752   0.58360332   -1.6932719   0.13752088    11361.608     1000 
   58000   0.39321907   -2.3190362   0.58923878   -1.7297974   0.13157658    11333.838     1000 
   60000   0.38528309   -2.3250613    0.5773467   -1.7477146   0.13274351    11391.425     1000 
   62000   0.37091197   -2.2840249   0.55581159   -1.7282133    0.1286427    11331.332     1000 
   64000   0.37549908   -2.3081898   0.56268538   -1.7455044   0.12712438    11457.783     1000 
   66000   0.36871437   -2.2934105   0.55251849    -1.740892   0.12681673    11355.055     1000 
   68000   0.39215883   -2.2904542      0.58765   -1.7028042   0.14445383    11265.045     1000 
   70000   0.38346032   -2.2672815   0.57461529   -1.6926662   0.12949898    11320.404     1000 
   72000   0.37016297   -2.3345327   0.55468921   -1.7798434   0.12386071    11393.857     1000 
   74000   0.40089832   -2.3458252   0.60074613    -1.745079   0.12374645    11514.043     1000 
   76000   0.38158717   -2.2768375   0.57180837   -1.7050291     0.130002    11359.958     1000 
   78000   0.36838981   -2.3008485   0.55203213   -1.7488164   0.13045294    11311.469     1000 
   80000   0.36501232   -2.3284679   0.54697096    -1.781497   0.11114189    11453.953     1000 
   82000   0.38990912   -2.2964845   0.58427882   -1.7122057   0.13271395    11331.405     1000 
   84000   0.38520883   -2.2377399   0.57723544   -1.6605045   0.13103504    11278.116     1000 
   86000    0.3872483   -2.2739832   0.58029158   -1.6936916   0.13245664     11310.35     1000 
   88000   0.38240626    -2.297704   0.57303578   -1.7246682   0.12186227    11493.721     1000 
   90000   0.37517837    -2.288081   0.56220479   -1.7258762    0.1385009    11333.197     1000 
   92000   0.38096172   -2.2696448   0.57087114   -1.6987737   0.12820476    11314.921     1000 
   94000   0.37670769   -2.3247914   0.56449648   -1.7602949   0.12455212    11423.812     1000 
   96000   0.38653345   -2.3135042   0.57922038   -1.7342838   0.12800422    11418.476     1000 
   98000   0.36710069   -2.2908274   0.55010039    -1.740727   0.13486224    11331.702     1000 
  100000   0.38884243    -2.352969   0.58268038   -1.7702886   0.13497449    11355.768     1000 
  102000   0.39749762   -2.3014782   0.59565018    -1.705828   0.11895655    11492.113     1000 
  104000   0.38208999   -2.3093142   0.57256186   -1.7367524   0.11970347    11505.898     1000 
  106000   0.38124178   -2.2698991    0.5712908   -1.6986083    0.1188215    11413.016     1000 
  108000   0.39366349   -2.2410788   0.58990474    -1.651174   0.13853363    11315.653     1000 
  110000   0.36632551   -2.2697185   0.54893877   -1.7207797   0.12424909    11350.282     1000 
  112000   0.37901836   -2.2900833   0.56795901   -1.7221243   0.13314659     11318.64     1000 
  114000   0.38747069   -2.2811945   0.58062482   -1.7005697   0.13054007    11328.001     1000 
  116000   0.35930815   -2.3013615   0.53842327   -1.7629382   0.12126398    11379.818     1000 
  118000   0.37530829   -2.3211788   0.56239947   -1.7587793   0.11973231    11447.504     1000 
  120000   0.37643472   -2.2657223   0.56408743   -1.7016348   0.14448613    11242.546     1000 
  122000   0.37221897   -2.2578714   0.55777013   -1.7001012   0.13359036    11289.312     1000 
  124000   0.39389874   -2.2933527   0.59025726   -1.7030954   0.12622994    11326.573     1000 
  126000   0.38842665   -2.3387737   0.58205733   -1.7567163   0.12814193    11455.621     1000 
  128000   0.37550111   -2.2794527   0.56268841   -1.7167643    0.1324724    11301.102     1000 
  130000   0.37994356   -2.2800877   0.56934542   -1.7107423   0.13284379    11318.547     1000 
  132000   0.37670353   -2.3230191   0.56449024   -1.7585289   0.13028851    11515.899     1000 
  134000   0.36743008   -2.3438702   0.55059397   -1.7932762    0.1379904    11325.238     1000 
  136000   0.37427745   -2.2853607   0.56085476   -1.7245059   0.14149733    11274.531     1000 
  138000   0.38645697   -2.3341329   0.57910576   -1.7550271   0.13064394    11336.428     1000 
  140000   0.38236059     -2.32185   0.57296734   -1.7488826   0.12044288    11457.886     1000 
  142000   0.37926558   -2.3690468   0.56832948   -1.8007173   0.12479431    11421.865     1000 
  144000   0.37165411   -2.2989099   0.55692369   -1.7419862   0.13843081    11271.318     1000 
  146000   0.38444772   -2.2956916   0.57609491   -1.7195967   0.13687766    11364.343     1000 
  148000   0.37111295   -2.2935142   0.55611275   -1.7374015   0.13174832    11359.582     1000 
  150000    0.3784771   -2.2422459   0.56714793    -1.675098   0.13893612    11257.754     1000 
  152000   0.38119321   -2.2970086   0.57121802   -1.7257906   0.12015896    11491.709     1000 
  154000    0.3808722   -2.2809203   0.57073699   -1.7101834   0.13469548    11357.121     1000 
  156000   0.38711409   -2.3239993   0.58009046   -1.7439088   0.14022482     11344.71     1000 
  158000   0.37926044   -2.3046284   0.56832176   -1.7363066    0.1404204     11338.82     1000 
  160000    0.3624545   -2.2869295   0.54313808   -1.7437914   0.13775637    11249.187     1000 
  162000    0.3834585   -2.2817106   0.57461256    -1.707098   0.14186674    11304.165     1000 
  164000   0.38908848   -2.2745718   0.58304909   -1.6915227   0.12237709    11495.106     1000 
  166000   0.37269288   -2.2907653   0.55848028    -1.732285   0.13690422    11401.571     1000 
  168000   0.36892837   -2.3005638   0.55283917   -1.7477246   0.12466323    11446.261     1000 
  170000   0.39100314   -2.2805995    0.5859182   -1.6946813   0.13354918    11395.218     1000 
  172000     0.371264   -2.3144483    0.5563391   -1.7581092   0.12642712    11420.303     1000 
  174000    0.3711405   -2.2790042   0.55615404   -1.7228501   0.12299508    11394.601     1000 
  176000   0.39897529   -2.2972608   0.59786447   -1.6993963   0.13569311    11346.147     1000 
  178000   0.39101583   -2.3031145   0.58593723   -1.7171773   0.12415145    11399.484     1000 
  180000   0.36477667     -2.28721   0.54661784   -1.7405922   0.12853544    11303.065     1000 
  182000   0.36807956   -2.3285806   0.55156723   -1.7770133    0.1195658    11563.499     1000 
  184000    0.3843027   -2.3168148   0.57587759   -1.7409372   0.12694447     11337.85     1000 
  186000   0.38406114   -2.3287005   0.57551562   -1.7531849   0.11613766      11451.7     1000 
  188000   0.35992964   -2.2853654   0.53935456   -1.7460109   0.13766059    11312.457     1000 
  190000   0.36354266   -2.3480836   0.54476867   -1.8033149   0.12808064     11441.48     1000 
  192000   0.39767349   -2.2968373   0.59591373   -1.7009236   0.12201666    11387.588     1000 
  194000   0.38085021   -2.2857506   0.57070404   -1.7150465    0.1251039     11386.71     1000 
  196000   0.37858859   -2.2643189     0.567315   -1.6970039      0.13138    11309.717     1000 
  198000    0.3897894   -2.2870764   0.58409941    -1.702977   0.13147931     11341.04     1000 
  200000   0.38489628   -2.2961203   0.57676707   -1.7193532   0.12747635    11418.092     1000 
  202000   0.36492834   -2.2780002   0.54684511   -1.7311551    0.1238009    11467.322     1000 
  204000   0.40321102   -2.2859891   0.60421171   -1.6817774   0.13448175    11315.688     1000 
  206000    0.3716426   -2.2834964   0.55690644     -1.72659   0.11572514     11462.86     1000 
  208000   0.37060627   -2.2955937    0.5553535   -1.7402402   0.13870111    11260.683     1000 
  210000   0.38585607   -2.2914501   0.57820532   -1.7132448   0.13685244    11316.778     1000 
  212000   0.38174628   -2.3038713   0.57204679   -1.7318245   0.13290027    11295.202     1000 
  214000   0.38589396   -2.2905432    0.5782621   -1.7122811   0.12405161    11410.881     1000 
  216000    0.3761234   -2.3196311   0.56362092   -1.7560102   0.12546801    11394.848     1000 
  218000   0.38046391   -2.2988723   0.57012516   -1.7287471   0.14003961    11341.955     1000 
  220000   0.38911662   -2.3053863   0.58309126   -1.7222951   0.13541291    11364.985     1000 
  222000   0.37846946   -2.2943585   0.56713649    -1.727222   0.12762988    11243.616     1000 
  224000   0.39048457      -2.3222   0.58514113   -1.7370589   0.11883514    11462.056     1000 
  226000   0.37642373   -2.2924264   0.56407096   -1.7283554   0.13301248    11288.008     1000 
  228000   0.37849601   -2.3206316   0.56717628   -1.7534553   0.12384591    11451.173     1000 
  230000    0.3783873   -2.2729057   0.56701336   -1.7058924   0.13153054    11403.743     1000 
  232000   0.36403199   -2.3190138   0.54550193   -1.7735118   0.13146105    11343.698     1000 
  234000   0.37439433   -2.3215587    0.5610299   -1.7605288   0.11909522    11389.401     1000 
  236000   0.37305063   -2.3413615   0.55901636   -1.7823451   0.14116006    11287.109     1000 
  238000   0.40197731   -2.3365703   0.60236299   -1.7342073   0.12903126    11395.946     1000 
  240000   0.39968273   -2.2994566   0.59892457    -1.700532   0.12099306    11423.899     1000 
  242000    0.3816945   -2.2975493    0.5719692   -1.7255801   0.13196794    11341.686     1000 
  244000   0.36017153   -2.3408402   0.53971704   -1.8011231   0.12053484     11448.32     1000 
  246000   0.38350252   -2.3101305   0.57467853   -1.7354519   0.14115255    11287.455     1000 
  248000    0.3626395    -2.299021    0.5434153   -1.7556057   0.12346929    11347.341     1000 
  250000   0.38673526   -2.2972015   0.57952278   -1.7176787   0.13347493    11380.978     1000 
  252000   0.37404595   -2.2451823   0.56050785   -1.6846744   0.13437601    11235.648     1000 
  254000   0.37516929   -2.2790929   0.56219118   -1.7169017   0.12375874    11474.083     1000 
  256000   0.38201919   -2.3351533   0.57245576   -1.7626976   0.13209984    11399.083     1000 
  258000   0.37424841   -2.3200651   0.56081125   -1.7592539   0.13762092    11390.852     1000 
  260000   0.36212597   -2.3263638   0.54264577    -1.783718   0.12637885    11368.449     1000 
  262000   0.39948216   -2.2890528   0.59862402   -1.6904287   0.12315029    11425.455     1000 
  264000   0.37056811   -2.2937984   0.55529631   -1.7385021   0.13053571    11415.999     1000 
  266000   0.36866662   -2.2677102   0.55244692   -1.7152633   0.14189911    11269.319     1000 
  268000   0.37620454   -2.3250599    0.5637425   -1.7613174   0.14055923    11281.575     1000 
  270000   0.38108988   -2.2711761   0.57106318   -1.7001129   0.13614449    11246.211     1000 
  272000   0.37380851   -2.2971123   0.56015205   -1.7369603   0.13262482    11318.609     1000 
  274000   0.37948626   -2.3275776   0.56866016   -1.7589174   0.13791396    11452.958     1000 
  276000   0.37855297   -2.3405625   0.56726162   -1.7733008   0.12258299    11490.585     1000 
  278000   0.37609142   -2.3218873   0.56357299   -1.7583143   0.13059866    11420.391     1000 
  280000   0.37701967    -2.267978   0.56496398   -1.7030141   0.12970037    11330.468     1000 
  282000    0.3720036   -2.3068267   0.55744739   -1.7493794       0.1273    11413.097     1000 
  284000    0.3739208   -2.2941658   0.56032033   -1.7338455   0.13054802    11352.673     1000 
  286000   0.38194668   -2.3014953    0.5723471   -1.7291482   0.12368852     11425.21     1000 
  288000   0.40123221   -2.2909187   0.60124647   -1.6896722   0.13825064    11475.854     1000 
  290000   0.36990479   -2.3068676   0.55430232   -1.7525652   0.12636582    11427.459     1000 
  292000   0.38784071    -2.274321    0.5811793   -1.6931417   0.13449293    11388.085     1000 
  294000    0.3851046   -2.3153438   0.57707924   -1.7382646   0.13386803    11396.424     1000 
  296000   0.38451949   -2.3183441   0.57620246   -1.7421417     0.115068    11495.293     1000 
  298000   0.37262717   -2.3177085   0.55838182   -1.7593267   0.12468263    11372.622     1000 
  300000   0.38427245   -2.3418996   0.57583227   -1.7660673   0.11720223    11509.677     1000 
  302000   0.39963082   -2.2656523   0.59884678   -1.6668055   0.13747392     11269.03     1000 
  304000   0.38198429   -2.3354747   0.57240346   -1.7630712   0.13291808    11353.739     1000 
  306000   0.38493884   -2.3125729   0.57683086    -1.735742   0.12809681    11460.193     1000 
  308000   0.37140278   -2.2870822   0.55654706   -1.7305352   0.12439242    11488.151     1000 
  310000   0.37148705   -2.3273165   0.55667334   -1.7706432   0.12371791    11405.205     1000 
  312000   0.35465628    -2.287531   0.53145243   -1.7560786   0.13275885    11411.387     1000 
  314000   0.39261174   -2.2845962   0.58832869   -1.6962675    0.1345364    11290.067     1000 
  316000   0.37612044   -2.2935842   0.56361648   -1.7299677   0.13367161    11298.399     1000 
  318000    0.3699726   -2.2855129   0.55440393    -1.731109   0.13114385    11400.314     1000 
  320000   0.38699985   -2.3017772   0.57991928   -1.7218579   0.13619512    11339.349     1000 
  322000   0.39161132    -2.305553   0.58682956   -1.7187235   0.13085391     11388.49     1000 
  324000   0.41207898   -2.3246184   0.61750035    -1.707118   0.13509554    11430.128     1000 
  326000   0.38492557   -2.2902014   0.57681097   -1.7133905   0.12208119    11448.221     1000 
  328000   0.40125657   -2.2535016   0.60128297   -1.6522187   0.13918998    11344.561     1000 
  330000   0.37373636   -2.2859807   0.56004393   -1.7259368   0.13586987    11292.213     1000 
  332000   0.36298925   -2.3208142   0.54393939   -1.7768748   0.12975678    11432.843     1000 
  334000   0.36930075   -2.2701103   0.55339717   -1.7167131   0.13002657    11279.218     1000 
  336000   0.38086904   -2.3459029   0.57073225   -1.7751707   0.12852224    11394.144     1000 
  338000   0.38748219   -2.3125014   0.58064206   -1.7318594    0.1342331    11377.514     1000 
  340000   0.39570701    -2.267009   0.59296695   -1.6740421   0.14052401    11377.196     1000 
  342000   0.37407074   -2.3287524     0.560545   -1.7682074   0.13022535    11299.975     1000 
  344000   0.39912149   -2.3497543   0.59808356   -1.7516707   0.11447622    11607.716     1000 
  346000   0.37124519   -2.3557631   0.55631092   -1.7994522   0.13196642    11358.885     1000 
  348000   0.37460596   -2.2967021   0.56134704    -1.735355   0.12818679    11332.999     1000 
  350000     0.386482   -2.2919608   0.57914327   -1.7128175   0.11970841    11452.662     1000 
  352000   0.38686822   -2.2991196   0.57972202   -1.7193976   0.12586236    11563.696     1000 
  354000   0.37668269    -2.300288   0.56445901    -1.735829   0.13399257    11388.639     1000 
  356000   0.39675521   -2.2770527   0.59453768    -1.682515    0.1355811    11329.518     1000 
  358000   0.37132214   -2.3185838   0.55642623   -1.7621576    0.1190826    11419.276     1000 
  360000   0.38805628   -2.3175868   0.58150234   -1.7360844   0.13437957    11383.934     1000 
  362000   0.37355785   -2.2953779   0.55977644   -1.7356015   0.12614616    11425.055     1000 
  364000     0.376117   -2.2761837   0.56361132   -1.7125723   0.12775404    11424.229     1000 
  366000   0.38206909   -2.2971557   0.57253053   -1.7246252    0.1355881    11320.961     1000 
  368000   0.36748656   -2.2972448   0.55067861   -1.7465662   0.12369192    11429.361     1000 
  370000   0.37717208   -2.3179609   0.56519236   -1.7527685   0.13699616    11259.002     1000 
  372000   0.37718131   -2.2800142   0.56520619    -1.714808   0.12876881    11419.786     1000 
  374000   0.38123125   -2.3057685   0.57127503   -1.7344935   0.13165459    11365.127     1000 
  376000   0.38395754   -2.2978345   0.57536038   -1.7224741   0.12279953    11471.858     1000 
  378000   0.39670381   -2.2844954   0.59446067   -1.6900347   0.12407814    11462.459     1000 
  380000   0.38185672   -2.2855935   0.57221229   -1.7133812   0.11682013    11506.429     1000 
  382000   0.37297948   -2.3054189   0.55890975   -1.7465092     0.130504    11333.097     1000 
  384000   0.36983099   -2.3158638   0.55419174    -1.761672    0.1353394    11331.656     1000 
  386000   0.37728249   -2.3125514   0.56535782   -1.7471936   0.13424875     11335.88     1000 
  388000   0.39881735   -2.2835764    0.5976278   -1.6859486   0.12577604    11450.751     1000 
  390000   0.37736169   -2.3006889   0.56547649   -1.7352124   0.13814615    11290.325     1000 
  392000   0.38507975   -2.2820846     0.577042   -1.7050426   0.12653792    11407.289     1000 
  394000   0.38434344    -2.340795   0.57593865   -1.7648564   0.13671598    11387.537     1000 
  396000   0.36980336   -2.3548572   0.55415033   -1.8007068   0.13436957    11369.542     1000 
  398000   0.37953614   -2.2695648   0.56873491   -1.7008299   0.14503186    11217.164     1000 
  400000   0.38705796   -2.2949705   0.58000636   -1.7149641   0.13642005    11352.653     1000 
  402000   0.38190585   -2.3079365   0.57228592   -1.7356506    0.1341737    11351.741     1000 
  404000   0.38410141   -2.3024883   0.57557596   -1.7269123   0.14116628     11281.46     1000 
  406000   0.38535765   -2.3493072   0.57745844   -1.7718487   0.12628729    11456.447     1000 
  408000   0.37110807   -2.3369895   0.55610544    -1.780884   0.12099381    11421.911     1000 
  410000   0.36983545   -2.2704424   0.55419842    -1.716244   0.13766164    11309.564     1000 
  412000   0.38715906   -2.3468218   0.58015786    -1.766664   0.12452039    11488.768     1000 
  414000   0.38783281   -2.3219784   0.58116747    -1.740811   0.13337977    11254.646     1000 
  416000   0.39553428   -2.3104565   0.59270812   -1.7177484    0.1370433    11272.204     1000 
  418000   0.38660546    -2.263817   0.57932828   -1.6844888   0.13628464    11396.298     1000 
  420000   0.37674668   -2.2852759    0.5645549    -1.720721   0.13103465    11393.465     1000 
  422000   0.37993179   -2.3017392   0.56932778   -1.7324114   0.12599601    11371.743     1000 
  424000   0.37693904   -2.2804025   0.56484315   -1.7155594   0.13429172    11369.916     1000 
  426000   0.37879113    -2.285466   0.56761852   -1.7178475   0.13116116    11352.058     1000 
  428000   0.38543579   -2.2625558   0.57757553   -1.6849803   0.13505561    11387.394     1000 
  430000   0.37806837   -2.2927567   0.56653545   -1.7262212   0.13306055    11365.102     1000 
  432000   0.38591157   -2.2863182   0.57828849   -1.7080297   0.13282518    11412.042     1000 
  434000   0.37334584   -2.2995265   0.55945874   -1.7400677   0.12802552     11335.28     1000 
  436000   0.39770341   -2.2819389   0.59595857   -1.6859804    0.1191069    11481.348     1000 
  438000   0.36017385   -2.3394168   0.53972051   -1.7996963   0.13287867    11333.198     1000 
  440000    0.3884659   -2.3246181   0.58211615   -1.7425019   0.12024997    11470.056     1000 
  442000   0.38595606   -2.2825847   0.57835515   -1.7042296   0.13079165    11331.856     1000 
  444000   0.36570079   -2.2799465   0.54800263   -1.7319439   0.14080974    11269.286     1000 
  446000   0.38281158   -2.3223345   0.57364315   -1.7486914   0.12096371    11453.668     1000 
  448000    0.3989804    -2.310946   0.59787213   -1.7130739   0.12652254    11453.448     1000 
  450000   0.35548167   -2.2715076   0.53268928   -1.7388184   0.13475339    11258.903     1000 
  452000   0.37534054   -2.2904095   0.56244781   -1.7279617   0.13893209    11247.958     1000 
  454000   0.37442442   -2.3010726     0.561075   -1.7399976   0.11234635    11474.564     1000 
  456000   0.38958258   -2.2745986   0.58378949   -1.6908091   0.14114916    11292.157     1000 
  458000   0.39107881   -2.3121525    0.5860316   -1.7261209   0.13641861    11324.104     1000 
  460000   0.37798277    -2.332745   0.56640718   -1.7663378   0.13023956    11391.398     1000 
  462000   0.37577816   -2.3077408   0.56310357   -1.7446373   0.13757775    11401.752     1000 
  464000   0.38416078   -2.3210832   0.57566492   -1.7454183   0.13407601    11490.264     1000 
  466000   0.39744771   -2.2874432    0.5955754   -1.6918678   0.13650444    11305.235     1000 
  468000   0.39779351   -2.2755527   0.59609357   -1.6794592   0.12749794    11398.137     1000 
  470000   0.38165849   -2.3361314   0.57191525   -1.7642162   0.13151615    11386.048     1000 
  472000   0.37578607   -2.2609055   0.56311543   -1.6977901   0.13102418    11346.505     1000 
  474000    0.3848533   -2.3333775   0.57670267   -1.7566748   0.12513341    11525.751     1000 
  476000   0.38896826   -2.3142725   0.58286893   -1.7314036   0.13866921    11330.821     1000 
  478000    0.3881269   -2.3030396   0.58160817   -1.7214315   0.13219765    11389.219     1000 
  480000   0.37718521   -2.3623751   0.56521203   -1.7971631    0.1281841    11496.251     1000 
  482000   0.36344715   -2.3350309   0.54462555   -1.7904054   0.14045077    11323.342     1000 
  484000   0.39164488   -2.3212064   0.58687985   -1.7343266   0.13473215    11412.387     1000 
  486000   0.37430273    -2.304477   0.56089264   -1.7435844   0.12940625    11349.104     1000 
  488000   0.36481571   -2.3370264   0.54667635     -1.79035    0.1353438    11372.462     1000 
  490000    0.3900171   -2.3021542   0.58444063   -1.7177135   0.13221586    11392.866     1000 
  492000   0.38394159   -2.2470396   0.57533648   -1.6717032   0.12764183    11264.131     1000 
  494000   0.37096912   -2.3114816   0.55589723   -1.7555844   0.13853274     11280.83     1000 
  496000   0.39259607   -2.2650206   0.58830521   -1.6767154   0.12890304    11335.876     1000 
  498000   0.38250872   -2.2757509   0.57318932   -1.7025615   0.11777041    11408.194     1000 
  500000   0.37159624   -2.2603167   0.55683697   -1.7034797      0.13356    11287.609     1000 
  502000   0.36832105   -2.3159888   0.55192909   -1.7640597   0.12023518    11530.735     1000 
  504000   0.37239522   -2.3119745   0.55803424   -1.7539403   0.12555597    11470.679     1000 
  506000   0.37845593   -2.3025069   0.56711621   -1.7353907    0.1173306    11511.907     1000 
  508000   0.38239746   -2.2549419   0.57302259   -1.6819193   0.13390747    11342.899     1000 
  510000   0.37355651    -2.299737   0.55977443   -1.7399626   0.13100285    11332.461     1000 
  512000   0.36274467   -2.3309006   0.54357289   -1.7873277   0.13062986    11315.495     1000 
  514000   0.37497842   -2.2716284   0.56190516   -1.7097232   0.12689193    11379.178     1000 
  516000   0.35515215   -2.2587245   0.53219549    -1.726529   0.14047475    11297.969     1000 
  518000   0.38519132   -2.3214056   0.57720919   -1.7441964   0.13006024    11288.193     1000 
  520000    0.3681184   -2.3355423   0.55162542   -1.7839169   0.12562744    11479.847     1000 
  522000    0.3820112   -2.3010818   0.57244378    -1.728638   0.11749094    11520.305     1000 
  524000   0.38972687   -2.3093063   0.58400571   -1.7253006   0.14214152    11355.016     1000 
  526000   0.37151719    -2.302489   0.55671851   -1.7457705   0.12027861    11410.358     1000 
  528000   0.37196321   -2.2900964   0.55738687   -1.7327096   0.14557715    11216.412     1000 
  530000   0.37800196   -2.3332412   0.56643593   -1.7668052   0.13240309    11397.007     1000 
  532000   0.36732173    -2.289702   0.55043162   -1.7392704   0.12701872    11374.808     1000 
  534000   0.38742688   -2.3185584   0.58055918   -1.7379992   0.13417418    11356.947     1000 
  536000   0.39699188    -2.352856   0.59489232   -1.7579637   0.13132694    11439.648     1000 
  538000   0.38767638    -2.279644   0.58093305    -1.698711    0.1341589    11269.684     1000 
  540000   0.38568666   -2.3064213   0.57795146   -1.7284699   0.14064507    11284.113     1000 
  542000   0.37279153   -2.2728903   0.55862811   -1.7142622   0.13435411    11356.285     1000 
  544000   0.36197185   -2.2223864   0.54241481   -1.6799716    0.1312446    11344.996     1000 
  546000   0.37097097   -2.3079472   0.55590001   -1.7520472   0.13344395     11360.15     1000 
  548000   0.38621801    -2.304932   0.57874769   -1.7261843   0.12873004    11367.838     1000 
  550000   0.36890492   -2.2471334   0.55280402   -1.6943293   0.13397974    11294.951     1000 
  552000   0.37774647    -2.322397   0.56605309   -1.7563439   0.14390755    11310.412     1000 
  554000   0.36790042   -2.2969634   0.55129878   -1.7456646   0.12146251    11470.808     1000 
  556000   0.36378359   -2.3015431   0.54512972   -1.7564134   0.12369325    11323.872     1000 
  558000   0.39109992   -2.2722938   0.58606322   -1.6862306   0.13219235    11429.502     1000 
  560000   0.39062177   -2.3080869   0.58534672   -1.7227402    0.1447161     11303.06     1000 
  562000   0.38891474   -2.2774818   0.58278874   -1.6946931   0.13848064    11280.974     1000 
  564000   0.37192519   -2.2744052    0.5573299   -1.7170753    0.1198684    11377.255     1000 
  566000   0.37890526   -2.2807152   0.56778954   -1.7129257   0.13417136    11353.398     1000 
  568000   0.37813316   -2.2588213   0.56663255   -1.6921888    0.1412248    11270.225     1000 
  570000   0.38353441   -2.2624012   0.57472632   -1.6876749    0.1328485    11351.542     1000 
  572000   0.35939512   -2.2521781   0.53855358   -1.7136245   0.13314009    11327.514     1000 
  574000   0.39240574   -2.2874526   0.58802001   -1.6994326   0.13059432    11388.809     1000 
  576000   0.38844064   -2.2647186   0.58207829   -1.6826403    0.1251869    11409.805     1000 
  578000   0.38550869   -2.3149987   0.57768477   -1.7373139   0.12594104    11447.857     1000 
  580000   0.36985655   -2.3616302   0.55423004   -1.8074002   0.12853041    11397.126     1000 
  582000    0.3739489   -2.2900991   0.56036243   -1.7297367   0.14166079    11265.301     1000 
  584000   0.39088699   -2.3192526   0.58574415   -1.7335085   0.13501371    11298.093     1000 
  586000   0.37590314   -2.3043876   0.56329085   -1.7410968   0.13155553    11350.316     1000 
  588000   0.36853732   -2.3153231   0.55225317   -1.7630699   0.12984438    11350.097     1000 
  590000   0.38142777   -2.2838406   0.57156951   -1.7122711   0.14147318    11260.824     1000 
  592000   0.38716067   -2.2567709   0.58016027   -1.6766106    0.1300494    11367.012     1000 
  594000   0.38582354   -2.3131288   0.57815658   -1.7349722   0.12778369    11522.519     1000 
  596000   0.38722439   -2.3193597   0.58025575   -1.7391039   0.13841941    11355.442     1000 
  598000   0.37330341   -2.3608479   0.55939516   -1.8014528   0.11264336    11514.608     1000 
  600000   0.38965636    -2.315348   0.58390005   -1.7314479   0.13982693    11325.112     1000 
  602000   0.37730202   -2.3058677   0.56538708   -1.7404806   0.12469659    11389.897     1000 
  604000   0.37220302   -2.3101928   0.55774623   -1.7524465   0.12746996    11425.894     1000 
  606000   0.37980393   -2.2838266   0.56913619   -1.7146904   0.12906374    11381.642     1000 
  608000   0.38980629   -2.2914881   0.58412473   -1.7073633   0.12949914     11383.05     1000 
  610000   0.36972273   -2.3013057   0.55402952   -1.7472762   0.12024059    11484.603     1000 
  612000   0.36819208   -2.2835846   0.55173582   -1.7318488   0.12679144    11397.844     1000 
  614000   0.37521982   -2.2974158    0.5622669   -1.7351489   0.13041677     11336.96     1000 
  616000   0.38180371     -2.27676   0.57213285   -1.7046271   0.13120399    11399.827     1000 
  618000   0.36698335   -2.2973832   0.54992454   -1.7474587   0.12915738     11380.57     1000 
  620000   0.37919257   -2.2580495   0.56822006   -1.6898294   0.13637726    11283.825     1000 
  622000   0.38907171   -2.3212174   0.58302396   -1.7381934   0.13467155    11324.677     1000 
  624000   0.38451469   -2.3036185   0.57619527   -1.7274232    0.1307195    11289.803     1000 
  626000   0.39381572   -2.3113649   0.59013286   -1.7212321   0.13980177     11382.91     1000 
  628000   0.37746183   -2.2508526   0.56562655    -1.685226   0.13054147    11290.526     1000 
  630000   0.39566264   -2.3418974   0.59290046    -1.748997   0.12639112    11400.019     1000 
  632000   0.38214537   -2.3010186   0.57264483   -1.7283738   0.11852604    11418.927     1000 
  634000   0.38311378   -2.2979679   0.57409599   -1.7238719   0.12582813    11321.726     1000 
  636000   0.37407311   -2.3116587   0.56054855   -1.7511102   0.13384048    11309.167     1000 
  638000   0.36761601   -2.2991421   0.55087259   -1.7482695   0.12526094     11390.68     1000 
  640000   0.38554277   -2.3358729   0.57773584   -1.7581371   0.12587271    11437.468     1000 
  642000   0.38442712   -2.2886462   0.57606404   -1.7125821   0.12969259    11491.787     1000 
  644000   0.38529476   -2.2869166    0.5773642   -1.7095524   0.12792699     11385.56     1000 
  646000   0.38849937   -2.3071034    0.5821663   -1.7249371   0.13201635    11335.926     1000 
  648000   0.38193638   -2.2977086   0.57233166   -1.7253769   0.13642111    11314.354     1000 
  650000   0.40396069    -2.292587   0.60533509   -1.6872519   0.11961885    11465.162     1000 
  652000   0.37964576   -2.3019106   0.56889918   -1.7330115   0.13064049    11325.692     1000 
  654000   0.38256277   -2.2676954   0.57327031   -1.6944251   0.13062784    11330.201     1000 
  656000   0.39809197   -2.2795508   0.59654082     -1.68301   0.13011843    11460.202     1000 
  658000   0.38136064   -2.3378034   0.57146892   -1.7663344   0.13117606    11386.024     1000 
  660000    0.3810632   -2.3080484    0.5710232   -1.7370252    0.1256313    11462.447     1000 
  662000   0.36717865   -2.2771607   0.55021721   -1.7269435   0.12988538    11315.649     1000 
  664000   0.35782316   -2.3340902   0.53619801   -1.7978922   0.12524966     11477.81     1000 
  666000   0.37713401   -2.2873874   0.56513532   -1.7222521   0.12405132    11365.757     1000 
  668000   0.37081416   -2.3246669   0.55566502   -1.7690019    0.1165745    11488.594     1000 
  670000   0.38169414   -2.3183787   0.57196868   -1.7464101   0.12501391    11393.623     1000 
  672000   0.35805405   -2.2879885   0.53654399   -1.7514445   0.12389457    11367.319     1000 
  674000   0.37230193    -2.301472   0.55789445   -1.7435776    0.1324036    11310.387     1000 
  676000   0.38274265   -2.2877487   0.57353986   -1.7142089   0.14012174    11290.854     1000 
  678000   0.39220923   -2.3283676   0.58772553   -1.7406421   0.12897574    11410.291     1000 
  680000   0.36556595   -2.3142247   0.54780058   -1.7664241   0.13349156    11354.185     1000 
  682000   0.40558679   -2.2628042   0.60777181   -1.6550324   0.13299858    11330.222     1000 
  684000   0.38170579   -2.2838476   0.57198612   -1.7118615   0.13844737    11322.868     1000 
  686000   0.36691296   -2.2778362   0.54981907   -1.7280171   0.13113669    11379.924     1000 
  688000   0.38407099   -2.2880451   0.57553038   -1.7125148   0.12157478    11408.733     1000 
  690000    0.3752153   -2.2894338   0.56226012   -1.7271737   0.13318233    11301.901     1000 
  692000   0.37421278   -2.2875556   0.56075784   -1.7267977   0.13747212    11288.735     1000 
  694000   0.37527632   -2.2690057   0.56235157   -1.7066542   0.12639415    11445.862     1000 
  696000   0.38572971   -2.2772893   0.57801598   -1.6992733   0.13464857    11295.602     1000 
  698000   0.38172216    -2.288677   0.57201066   -1.7166663   0.13582086    11301.663     1000 
  700000   0.39566036   -2.2800982   0.59289705   -1.6872011   0.13046987     11415.51     1000 
  702000   0.36941407   -2.2663517   0.55356698   -1.7127847   0.12229592    11292.955     1000 
  704000   0.38455718   -2.3141078   0.57625893   -1.7378488   0.12850713    11385.822     1000 
  706000   0.37972179   -2.2874099    0.5690131   -1.7183968   0.13094509     11229.97     1000 
  708000   0.39726241   -2.2967569   0.59529772   -1.7014592   0.13372846     11362.67     1000 
  710000   0.38282365   -2.3060855   0.57366123   -1.7324243   0.11585684    11524.887     1000 
  712000   0.38041098   -2.2880695   0.57004585   -1.7180236   0.11670255    11414.895     1000 
  714000   0.37326421   -2.2716402   0.55933642   -1.7123038   0.13470838     11388.45     1000 
  716000   0.38839749   -2.2828707   0.58201364   -1.7008571    0.1239736    11358.317     1000 
  718000   0.37570597   -2.2877544   0.56299539    -1.724759   0.12643768    11422.134     1000 
  720000   0.38518814   -2.2815023   0.57720443   -1.7042979   0.13005359    11356.335     1000 
  722000   0.38709771   -2.2878276   0.58006591   -1.7077617   0.12507173    11398.556     1000 
  724000   0.39068012   -2.3342036   0.58543416   -1.7487695    0.1183407    11468.634     1000 
  726000    0.3758526   -2.2821536   0.56321512   -1.7189385   0.12530559     11398.78     1000 
  728000   0.40062201    -2.307365   0.60033208   -1.7070329   0.13552377    11370.346     1000 
  730000   0.38252518   -2.3379835   0.57321398   -1.7647695   0.13146448    11395.977     1000 
  732000   0.39751443   -2.2838565   0.59567537   -1.6881811   0.14393774    11317.919     1000 
  734000   0.37919055   -2.3680567   0.56821705   -1.7998397   0.11165469    11575.843     1000 
  736000   0.37262169   -2.2763905    0.5583736   -1.7180169   0.12534179    11394.931     1000 
  738000   0.38264015    -2.279725   0.57338627   -1.7063388   0.12885987    11376.146     1000 
  740000   0.36963625   -2.3143721   0.55389992   -1.7604722   0.12700537    11429.695     1000 
  742000    0.3935964   -2.2808055   0.58980421   -1.6910013   0.14292004     11216.03     1000 
  744000   0.38098735    -2.311381   0.57090954   -1.7404715   0.13502625    11378.511     1000 
  746000    0.3918434    -2.338689   0.58717734   -1.7515117   0.12817107    11414.334     1000 
  748000   0.38156388   -2.3014831   0.57177347   -1.7297096   0.13691913    11320.981     1000 
  750000   0.36536986   -2.2858569   0.54750673   -1.7383502   0.12308692    11472.494     1000 
  752000   0.40899306   -2.3104782    0.6128761   -1.6976021   0.14129857    11408.638     1000 
  754000   0.38038619   -2.2922732    0.5700087   -1.7222645   0.13196478    11383.578     1000 
  756000   0.38051048     -2.32816   0.57019496   -1.7579651   0.11257262    11486.239     1000 
  758000   0.36694548   -2.2789783    0.5498678   -1.7291105   0.12639931     11428.03     1000 
  760000   0.36919068   -2.3165459   0.55323223   -1.7633137   0.12593078    11327.546     1000 
  762000   0.37557194   -2.3087179   0.56279455   -1.7459233   0.13210245     11372.52     1000 
  764000   0.38007105   -2.3408123   0.56953647   -1.7712759   0.12373695    11417.349     1000 
  766000   0.39697529   -2.2891609   0.59486748   -1.6942934   0.13582118    11306.639     1000 
  768000   0.38302573   -2.2786041   0.57396406   -1.7046401    0.1331029    11352.614     1000 
  770000   0.37052471   -2.2787207   0.55523127   -1.7234895   0.14125769    11311.812     1000 
  772000   0.37557485   -2.2314499   0.56279892    -1.668651    0.1314262    11326.984     1000 
  774000   0.38745236   -2.3009709   0.58059737   -1.7203736   0.12017821    11322.352     1000 
  776000   0.38549421   -2.2970745   0.57766307   -1.7194114   0.13070529    11293.761     1000 
  778000   0.38525625   -2.3219825   0.57730648    -1.744676   0.12747548    11401.226     1000 
  780000   0.40136369   -2.2806687   0.60144349   -1.6792252   0.12603199    11387.687     1000 
  782000   0.37073863   -2.2962515   0.55555184   -1.7406997   0.12130144    11418.796     1000 
  784000   0.37636694   -2.3483286   0.56398586   -1.7843428   0.13632033    11391.684     1000 
  786000   0.38150836   -2.2846874   0.57169028   -1.7129971   0.13490551    11256.592     1000 
  788000   0.39703235   -2.2967841   0.59495298   -1.7018311    0.1386563    11333.499     1000 
  790000   0.38302961   -2.3127371   0.57396987   -1.7387672   0.13720668    11365.511     1000 
  792000   0.37474265   -2.3298082   0.56155185   -1.7682563   0.11958697     11486.57     1000 
  794000   0.38802949   -2.2533368   0.58146219   -1.6718747   0.14121696    11235.762     1000 
  796000    0.3753739      -2.3142   0.56249779   -1.7517022     0.135659    11412.568     1000 
  798000   0.38647759   -2.3294779   0.57913666   -1.7503412   0.12293161    11459.956     1000 
  800000   0.36884286   -2.2752467   0.55271103   -1.7225357   0.13288762      11271.1     1000 
  802000   0.37470993   -2.2982902   0.56150283   -1.7367874   0.13019802    11351.445     1000 
  804000   0.37656449   -2.2868852   0.56428189   -1.7226034    0.1329088    11449.637     1000 
  806000   0.39215718   -2.2960383   0.58764754   -1.7083908   0.14138337     11366.98     1000 
  808000   0.38253427   -2.2408954    0.5732276   -1.6676678   0.13927556    11289.292     1000 
  810000     0.387019    -2.287789   0.57994797    -1.707841   0.14235136    11225.599     1000 
  812000   0.37346748   -2.3474714   0.55964102   -1.7878304   0.12861209    11443.658     1000 
  814000   0.37318796   -2.3437573   0.55922216   -1.7845352    0.1250502    11402.534     1000 
  816000   0.38110921   -2.2615244   0.57109215   -1.6904323   0.12404016    11346.407     1000 
  818000    0.3747505   -2.3121065   0.56156362   -1.7505429   0.13191825    11313.179     1000 
  820000   0.37772813   -2.3153984   0.56602561   -1.7493728   0.12944726    11340.408     1000 
  822000   0.38347309    -2.290259   0.57463443   -1.7156246   0.13172352    11341.458     1000 
  824000     0.377933   -2.2888808    0.5663326   -1.7225482   0.13285167    11301.296     1000 
  826000    0.4103973   -2.3261282   0.61498035   -1.7111478   0.13139075    11274.103     1000 
  828000   0.36860074   -2.3040796   0.55234822   -1.7517313   0.12785603    11425.184     1000 
  830000   0.38556213   -2.3297282   0.57776486   -1.7519634   0.12648874    11362.839     1000 
  832000   0.36732537    -2.314804   0.55043707   -1.7643669    0.1326773    11401.666     1000 
  834000    0.3736192   -2.3458551   0.55986838   -1.7859867   0.12954892    11372.169     1000 
  836000   0.39791209   -2.2745799   0.59627126   -1.6783086   0.12999528      11340.5     1000 
  838000   0.38169318   -2.2712983   0.57196723    -1.699331   0.13471041    11338.789     1000 
  840000   0.39155305   -2.3086321   0.58674225   -1.7218898   0.12913737    11428.957     1000 
  842000   0.39956639   -2.3061619   0.59875023   -1.7074117   0.13707388    11291.032     1000 
  844000   0.38093517   -2.2952339   0.57083135   -1.7244025   0.12664302    11329.697     1000 
  846000   0.37852304   -2.2878461   0.56721677   -1.7206293   0.13001771    11347.371     1000 
  848000   0.38820691   -2.2759124   0.58172805   -1.6941844   0.13893453     11379.32     1000 
  850000   0.37432306   -2.3104725   0.56092311   -1.7495494   0.13565494    11346.547     1000 
  852000   0.36729196   -2.3237955     0.550387   -1.7734085   0.13479138    11322.956     1000 
  854000   0.38090566   -2.2684129   0.57078712   -1.6976257   0.14171219    11289.085     1000 
  856000   0.38946962   -2.2784596   0.58362023   -1.6948393   0.13210564    11374.537     1000 
  858000   0.39305167   -2.2999555   0.58898793   -1.7109676   0.13678408    11341.718     1000 
  860000   0.39067219   -2.2515093   0.58542227    -1.666087   0.14261527      11195.5     1000 
  862000   0.37970386   -2.3037791   0.56898624   -1.7347928    0.1307465    11388.065     1000 
  864000   0.37845925   -2.2623766   0.56712118   -1.6952554   0.12724814    11378.723     1000 
  866000   0.38477597   -2.3186867   0.57658679   -1.7420999   0.13907604    11338.173     1000 
  868000   0.37232261    -2.314045   0.55792543   -1.7561196   0.13035918    11297.647     1000 
  870000   0.35848341   -2.3264563   0.53718739   -1.7892689   0.12703453    11386.972     1000 
  872000   0.38943329   -2.3180099   0.58356578   -1.7344441   0.13235845    11331.511     1000 
  874000      0.39173     -2.29695    0.5870074   -1.7099426   0.12596808    11426.267     1000 
  876000   0.39674876   -2.2566884   0.59452801   -1.6621604   0.13951061    11324.303     1000 
  878000   0.37446602   -2.3468096   0.56113733   -1.7856723   0.13180554    11418.613     1000 
  880000     0.383706   -2.3132686   0.57498343   -1.7382852   0.11858689    11456.483     1000 
  882000   0.38855959   -2.3105579   0.58225655   -1.7283013   0.13563052     11413.21     1000 
  884000   0.37359082   -2.3010589   0.55982584   -1.7412331   0.12631467    11371.916     1000 
  886000   0.37000152   -2.3018341   0.55444728   -1.7473868    0.1300102    11400.259     1000 
  888000   0.37871194   -2.2891042   0.56749985   -1.7216044   0.11640125    11487.322     1000 
  890000   0.37081023   -2.3112413   0.55565913   -1.7555821   0.12811292    11432.556     1000 
  892000   0.39402177   -2.3232978   0.59044162   -1.7328562    0.1288976    11341.457     1000 
  894000   0.36018562    -2.286567   0.53973815   -1.7468289   0.12633765    11400.949     1000 
  896000   0.38046782   -2.2348113   0.57013102   -1.6646802   0.13008858    11317.104     1000 
  898000    0.3701821   -2.3155257   0.55471788   -1.7608078   0.12402148    11422.699     1000 
  900000   0.38137427   -2.3089293   0.57148934   -1.7374399   0.11008212    11561.487     1000 
  902000   0.37159919   -2.3298936   0.55684138   -1.7730522   0.12575303    11412.181     1000 
  904000   0.37965235   -2.2863967   0.56890904   -1.7174876   0.12867735    11360.353     1000 
  906000   0.37698691   -2.3183098   0.56491489   -1.7533949   0.12558996    11383.016     1000 
  908000   0.37593872   -2.3182454   0.56334418   -1.7549013   0.13161422    11289.484     1000 
  910000   0.37998214   -2.3032576   0.56940323   -1.7338543   0.14585951    11276.004     1000 
  912000   0.38680815   -2.2562557   0.57963201   -1.6766237   0.14200079    11235.361     1000 
  914000   0.37700407   -2.3354933    0.5649406   -1.7705527    0.1314007    11411.016     1000 
  916000    0.4104634   -2.3124982    0.6150794   -1.6974188   0.13155495    11502.836     1000 
  918000   0.38732313   -2.3092428   0.58040371   -1.7288391   0.12556393    11437.756     1000 
  920000   0.38469571   -2.3036358   0.57646652   -1.7271693   0.11925161    11429.713     1000 
  922000   0.38522202   -2.3127023   0.57725519   -1.7354472   0.12585412    11434.995     1000 
  924000     0.396573   -2.3376796   0.59426464   -1.7434149   0.11340478    11533.334     1000 
  926000   0.37273234   -2.3012548   0.55853941   -1.7427154   0.12439435    11514.313     1000 
  928000   0.37030219   -2.2712676   0.55489783   -1.7163698   0.12359256    11507.209     1000 
  930000   0.37514812    -2.325449   0.56215946   -1.7632895   0.12909524    11431.875     1000 
  932000   0.37938721   -2.3091713   0.56851173   -1.7406595   0.12357582    11462.689     1000 
  934000   0.38044982   -2.2944356   0.57010406   -1.7243315   0.12513277     11363.02     1000 
  936000   0.37496238   -2.2857001   0.56188113    -1.723819   0.13737518    11255.626     1000 
  938000   0.38761126   -2.3047905   0.58083548   -1.7239551   0.12081248    11428.536     1000 
  940000   0.38041417   -2.2929905   0.57005063   -1.7229398   0.11898099    11461.351     1000 
  942000   0.36804721   -2.2427824   0.55151875   -1.6912637   0.14048603    11290.395     1000 
  944000   0.36915907   -2.2377621   0.55318487   -1.6845772   0.12717367     11347.67     1000 
  946000   0.35938637   -2.3245367   0.53854047   -1.7859962   0.11679457     11486.11     1000 
  948000   0.38689153   -2.2597194   0.57975695   -1.6799624   0.15193679    11181.344     1000 
  950000   0.37901815   -2.2773829    0.5679587   -1.7094242   0.12773597    11385.238     1000 
  952000   0.38596313    -2.326676   0.57836575   -1.7483102   0.12131513    11431.077     1000 
  954000     0.378301   -2.3157372   0.56688405   -1.7488532   0.12496194    11489.128     1000 
  956000   0.38902299   -2.3114525   0.58295095   -1.7285016   0.12673339    11447.888     1000 
  958000   0.37321115   -2.2888258   0.55925691   -1.7295689   0.12239774    11416.404     1000 
  960000   0.38197641     -2.32799   0.57239166   -1.7555983   0.12864111    11391.499     1000 
  962000   0.38210334    -2.309091   0.57258185   -1.7365091   0.13287967    11357.067     1000 
  964000     0.391824   -2.3228496   0.58714826   -1.7357013   0.12097394    11453.767     1000 
  966000   0.38062416   -2.2719934   0.57036531   -1.7016281   0.12750451    11368.342     1000 
  968000     0.381635    -2.261811   0.57188005    -1.689931   0.13857411    11270.977     1000 
  970000   0.37738557   -2.2754382   0.56551228    -1.709926   0.13119758    11356.547     1000 
  972000    0.3914139    -2.288366   0.58653373   -1.7018323   0.13350589    11383.986     1000 
  974000     0.366269   -2.2905234    0.5488541   -1.7416693   0.13359495    11326.803     1000 
  976000   0.36770517   -2.2799496    0.5510062   -1.7289434   0.12695126    11326.211     1000 
  978000   0.38653805   -2.3148982   0.57922726   -1.7356709   0.12361191    11465.285     1000 
  980000   0.36431788   -2.3168074   0.54593035    -1.770877   0.13208822    11331.918     1000 
  982000   0.39888033   -2.2984075   0.59772217   -1.7006853   0.11771712    11389.986     1000 
  984000   0.38395005   -2.2838412   0.57534915   -1.7084921   0.12769627    11347.115     1000 
  986000   0.38113633   -2.3351526   0.57113279   -1.7640198    0.1246222     11437.97     1000 
  988000    0.3980143   -2.3122006   0.59642442   -1.7157762   0.12363813    11456.366     1000 
  990000   0.37274046   -2.3607644   0.55855157   -1.8022129   0.13055207    11428.604     1000 
  992000   0.39489058   -2.3042076   0.59174353    -1.712464   0.14526369    11302.319     1000 
  994000   0.38159704    -2.305106   0.57182316   -1.7332828    0.1288939    11400.529     1000 
  996000   0.37385916    -2.289478   0.56022795     -1.72925   0.13750416    11258.313     1000 
  998000   0.37432969   -2.2935531   0.56093304     -1.73262   0.12249844    11432.904     1000 
 1000000   0.38264577    -2.286496   0.57339469   -1.7131013   0.12606628    11442.431     1000 
 1002000    0.3809113   -2.3140521   0.57079559   -1.7432565   0.14141092    11259.397     1000 
 1004000   0.37569802   -2.3344375   0.56298348    -1.771454   0.13550649     11361.75     1000 
 1006000   0.37326099   -2.3198731   0.55933159   -1.7605415   0.13984416    11338.689     1000 
 1008000   0.39246839   -2.2856897   0.58811388   -1.6975758   0.12702736    11394.462     1000 
 1010000   0.37578149   -2.3420336   0.56310856   -1.7789251   0.11820673    11559.498     1000 
 1012000   0.36483334   -2.2882861   0.54670276   -1.7415834   0.12391979    11445.409     1000 
 1014000   0.38406454   -2.3297937   0.57552071    -1.754273   0.11400868    11530.099     1000 
 1016000   0.36624909   -2.3143812   0.54882427   -1.7655569   0.13345464    11365.139     1000 
 1018000   0.36910394   -2.2861877   0.55310225   -1.7330854   0.13424965    11238.225     1000 
 1020000   0.37956639   -2.3095167   0.56878023   -1.7407365   0.12285286    11423.908     1000 
 1022000   0.37722477   -2.3043604   0.56527132   -1.7390891   0.12162222    11450.856     1000 
 1024000    0.3830529   -2.2859392   0.57400478   -1.7119344   0.14595463     11218.06     1000 
 1026000   0.37519892   -2.2887674   0.56223558   -1.7265318   0.13221491    11316.265     1000 
 1028000   0.38963447   -2.3062818   0.58386725   -1.7224145   0.13792316    11269.429     1000 
 1030000   0.38843619   -2.2891282   0.58207163   -1.7070566   0.13380256    11318.975     1000 
 1032000   0.38087592   -2.3220828   0.57074257   -1.7513403   0.13293857    11380.547     1000 
 1034000   0.36664795   -2.3115682   0.54942195   -1.7621462   0.14402136    11277.782     1000 
 1036000    0.3738297   -2.2534164   0.56018381   -1.6932326    0.1499477    11110.998     1000 
 1038000    0.3726522   -2.3030448   0.55841932   -1.7446254   0.12175406    11487.968     1000 
 1040000   0.38691331     -2.27006   0.57978959   -1.6902705   0.14718053    11236.909     1000 
 1042000   0.38733599   -2.2856676   0.58042297   -1.7052447   0.14100578    11340.332     1000 
 1044000   0.37917973   -2.3099403   0.56820083   -1.7417394   0.14087782    11303.311     1000 
 1046000   0.37383869    -2.292416   0.56019728   -1.7322187   0.12498168    11453.373     1000 
 1048000   0.38250843   -2.3190529   0.57318888    -1.745864   0.12329101    11436.554     1000 
 1050000   0.37940346   -2.2591132   0.56853608   -1.6905771   0.13391405    11354.305     1000 
 1052000   0.36684506   -2.2972112   0.54971732   -1.7474939   0.13044987     11343.98     1000 
 1054000   0.38907462   -2.2772104   0.58302833   -1.6941821    0.1264789     11325.18     1000 
 1056000   0.39490458   -2.3028998   0.59176451   -1.7111353   0.13830342    11393.656     1000 
 1058000   0.38178649   -2.3650332   0.57210706   -1.7929261     0.112221    11533.277     1000 
 1060000   0.40181541   -2.3576618    0.6021204   -1.7555414   0.12495913    11403.291     1000 
 1062000   0.38469178   -2.3112875   0.57646063   -1.7348268   0.13076914    11398.635     1000 
 1064000   0.37918237   -2.3141712   0.56820478   -1.7459664   0.12814754    11401.491     1000 
 1066000   0.38241613   -2.3052225   0.57305057   -1.7321719   0.13165302    11288.748     1000 
 1068000   0.38109698   -2.3472567   0.57107382   -1.7761829   0.13312472    11403.625     1000 
 1070000   0.38703508   -2.3294298   0.57997207   -1.7494577   0.12203851    11415.386     1000 
 1072000    0.3703468   -2.3258784   0.55496467   -1.7709137   0.12323288    11402.174     1000 
 1074000   0.37504346    -2.295287   0.56200263   -1.7332844   0.13038158    11276.362     1000 
 1076000   0.37129739   -2.2960692   0.55638914   -1.7396801   0.12126906    11362.136     1000 
 1078000   0.37387611   -2.2840705   0.56025336   -1.7238171   0.13350403    11351.737     1000 
 1080000   0.37250207   -2.2983394   0.55819435    -1.740145   0.13089412    11358.834     1000 
 1082000   0.39162393   -2.2820111   0.58684845   -1.6951626   0.13826681    11318.812     1000 
 1084000   0.36617172   -2.3068207   0.54870833   -1.7581124   0.12698289    11422.427     1000 
 1086000   0.38332903   -2.3050551   0.57441856   -1.7306365   0.13101906     11363.06     1000 
 1088000   0.36694945   -2.2903772   0.54987376   -1.7405034     0.133748    11294.072     1000 
 1090000    0.3651725   -2.3047584   0.54721099   -1.7575474   0.12507654    11398.669     1000 
 1092000   0.37249028   -2.2787743   0.55817669   -1.7205977    0.1268038    11273.888     1000 
 1094000    0.3971454   -2.3033405   0.59512238   -1.7082181   0.12255305    11454.157     1000 
 1096000   0.39473781   -2.2649937    0.5915146   -1.6734791   0.13449211    11309.887     1000 
 1098000   0.36131179   -2.2992577   0.54142572    -1.757832   0.13931441    11321.702     1000 
 1100000   0.39213428   -2.3123569   0.58761322   -1.7247437   0.12902504    11435.796     1000 
 1102000     0.375697   -2.3395605   0.56298195   -1.7765786   0.12606346    11442.558     1000 
 1104000   0.38869639   -2.2810557   0.58246154   -1.6985941   0.13798635    11386.013     1000 
 1106000   0.38848606    -2.333492   0.58214637   -1.7513456   0.11997826    11524.867     1000 
 1108000     0.395668   -2.3059448    0.5929085   -1.7130363   0.12624229    11457.867     1000 
 1110000   0.37685399   -2.2845394    0.5647157   -1.7198237   0.12802139    11333.639     1000 
 1112000   0.38246692   -2.3515455   0.57312668   -1.7784189    0.1359124     11392.27     1000 
 1114000   0.38034343   -2.3179707   0.56994463    -1.748026   0.13949107    11370.701     1000 
 1116000   0.38269961   -2.2775677   0.57347537   -1.7040923   0.13379581    11229.398     1000 
 1118000   0.38267894   -2.2465722    0.5734444   -1.6731278   0.12849771    11323.988     1000 
 1120000   0.37254745    -2.314233   0.55826236   -1.7559707   0.13434569     11248.14     1000 
 1122000   0.36984455   -2.3387752   0.55421206   -1.7845632   0.13972551    11381.143     1000 
 1124000   0.37166379   -2.3068179   0.55693819   -1.7498798   0.13083355    11354.424     1000 
 1126000   0.36770805   -2.3373539   0.55101051   -1.7863434   0.11894496    11502.025     1000 
 1128000   0.36827482   -2.3466472   0.55185982   -1.7947874   0.13239234    11303.434     1000 
 1130000   0.39574429   -2.3309216   0.59302282   -1.7378988   0.12054501    11517.309     1000 
 1132000   0.39098326   -2.3272484   0.58588841   -1.7413599   0.13096861    11416.784     1000 
 1134000   0.37989585   -2.3380008   0.56927393   -1.7687269   0.13347446    11445.822     1000 
 1136000   0.36676474   -2.3154969   0.54959696      -1.7659   0.12811641    11420.866     1000 
 1138000    0.3960307   -2.3079167     0.593452   -1.7144647   0.13675144    11330.228     1000 
 1140000   0.36870887   -2.2915708   0.55251025   -1.7390606   0.12740916    11361.098     1000 
 1142000   0.38948524   -2.2693933   0.58364363   -1.6857497   0.13689171    11288.788     1000 
 1144000   0.37891075    -2.310208   0.56779776   -1.7424103   0.13319367    11331.188     1000 
 1146000   0.36737955   -2.3278597   0.55051826   -1.7773415   0.13335738    11419.286     1000 
 1148000   0.39300343   -2.3142417   0.58891564   -1.7253261   0.12256371    11486.846     1000 
 1150000   0.37982222   -2.2644078   0.56916359   -1.6952442   0.12684261    11249.351     1000 
 1152000   0.37086935   -2.2797438   0.55574772    -1.723996   0.12631739    11316.447     1000 
 1154000   0.38457483   -2.3071621   0.57628539   -1.7308767   0.12496028    11396.434     1000 
 1156000    0.3673915   -2.3003973   0.55053616   -1.7498612   0.12845585    11393.331     1000 
 1158000   0.39638753   -2.3025453   0.59398671   -1.7085586   0.13152712    11405.346     1000 
 1160000   0.38051075     -2.27839   0.57019536   -1.7081946   0.12876164    11456.254     1000 
 1162000   0.37633943     -2.35047   0.56394463   -1.7865254   0.12573604    11431.514     1000 
 1164000   0.38395325   -2.3279296   0.57535395   -1.7525757   0.13239276     11397.47     1000 
 1166000   0.37296555   -2.2805491   0.55888888   -1.7216602   0.13409048      11342.6     1000 
 1168000   0.37938198   -2.2897149    0.5685039    -1.721211   0.12265323    11346.562     1000 
 1170000   0.37757097   -2.3038808    0.5657901   -1.7380907   0.13101836     11290.13     1000 
 1172000   0.37351282   -2.3099699   0.55970896    -1.750261   0.12848574    11430.811     1000 
 1174000   0.38802626   -2.3095267   0.58145735   -1.7280694   0.12783853     11385.54     1000 
 1176000   0.37214729   -2.2978417   0.55766272    -1.740179   0.12097462    11440.987     1000 
 1178000   0.38024248   -2.2662913   0.56979336    -1.696498   0.12498625    11322.847     1000 
 1180000   0.38694676   -2.2892121   0.57983972   -1.7093724   0.13395339    11282.612     1000 
 1182000   0.39464842    -2.298118   0.59138065   -1.7067373   0.14642093    11295.515     1000 
 1184000   0.38686638   -2.3111054   0.57971927   -1.7313861   0.13748711    11331.449     1000 
 1186000   0.37319506   -2.3218099    0.5592328   -1.7625771   0.12190714    11395.601     1000 
 1188000   0.37180754   -2.3619523    0.5571536   -1.8047987   0.12880953    11429.605     1000 
 1190000   0.38764258   -2.2718983    0.5808824   -1.6910159   0.11730977    11400.864     1000 
 1192000   0.40035422   -2.3250162    0.5999308   -1.7250854   0.13061138    11447.249     1000 
 1194000   0.37907852   -2.3083162   0.56804917    -1.740267   0.13614609    11382.932     1000 
 1196000   0.36988871   -2.3143139   0.55427823   -1.7600357   0.11669929    11432.742     1000 
 1198000    0.3905989   -2.3203322   0.58531245   -1.7350198   0.12554395    11402.139     1000 
 1200000   0.38531236     -2.29964   0.57739057   -1.7222494   0.13562096    11310.016     1000 
 1202000   0.37768783   -2.2917686   0.56596521   -1.7258034   0.13330661    11363.969     1000 
 1204000   0.37075662   -2.3072828   0.55557879    -1.751704   0.13417536    11378.268     1000 
 1206000    0.3720756   -2.2765582   0.55755529   -1.7190029   0.12207432    11395.573     1000 
 1208000   0.38883988   -2.3203359   0.58267657   -1.7376593   0.11821179    11432.262     1000 
 1210000   0.38026314   -2.2922642   0.56982431   -1.7224399   0.13517069    11350.285     1000 
 1212000   0.39083804   -2.3304038   0.58567081    -1.744733   0.12812371    11442.568     1000 
 1214000   0.36319638   -2.2839694   0.54424978   -1.7397196   0.12867489    11378.428     1000 
 1216000   0.38131771   -2.2940612   0.57140459   -1.7226566   0.13122088    11351.594     1000 
 1218000   0.37118216   -2.2932201   0.55621646   -1.7370036   0.11887253    11427.436     1000 
 1220000   0.38792279    -2.328345    0.5813023   -1.7470427   0.13258538    11438.853     1000 
 1222000   0.37357642   -2.3006535   0.55980426   -1.7408492   0.14015598    11324.596     1000 
 1224000   0.36936167   -2.2909925   0.55348846   -1.7375041   0.12747541    11421.895     1000 
 1226000   0.37779577   -2.2929065   0.56612696   -1.7267795   0.13199293    11361.355     1000 
 1228000   0.37610605   -2.3032352   0.56359491   -1.7396403   0.12112414    11410.643     1000 
 1230000   0.37618739   -2.3153482   0.56371681   -1.7516314   0.13366196    11381.173     1000 
 1232000   0.37070294   -2.2984404   0.55549836    -1.742942   0.12416886    11444.727     1000 
 1234000   0.37552046   -2.3191571   0.56271741   -1.7564397   0.14725895    11235.803     1000 
 1236000   0.38048381   -2.2919181   0.57015499   -1.7217632   0.12842201    11437.468     1000 
 1238000   0.37511909   -2.3119906   0.56211596   -1.7498747   0.11945011    11426.986     1000 
 1240000   0.37447257   -2.2604434   0.56114715   -1.6992962   0.14723497    11168.755     1000 
 1242000   0.37218536   -2.2605127   0.55771976    -1.702793   0.14364059    11230.808     1000 
 1244000   0.38293344   -2.2673041   0.57382576   -1.6934783    0.1323096    11346.223     1000 
 1246000   0.37760651   -2.2898073   0.56584336    -1.723964   0.13324887    11308.167     1000 
 1248000   0.36311497   -2.2864194   0.54412779   -1.7422917   0.12716931    11333.976     1000 
 1250000   0.37854647   -2.3075324   0.56725189   -1.7402805   0.13312599     11395.21     1000 
 1252000    0.3641877   -2.2927924   0.54573527   -1.7470571   0.14095722    11262.419     1000 
 1254000   0.38787756    -2.301117   0.58123452   -1.7198825   0.13307475    11402.907     1000 
 1256000   0.38699367   -2.3204152   0.57991001   -1.7405051   0.13088064    11394.259     1000 
 1258000   0.37084783   -2.2974423   0.55571548   -1.7417268   0.13158937    11333.203     1000 
 1260000   0.36601957   -2.3096968   0.54848032   -1.7612165   0.13864404     11319.82     1000 
 1262000   0.36115282   -2.3025507    0.5411875   -1.7613632   0.12240449    11432.485     1000 
 1264000   0.40551258   -2.2672414   0.60766059   -1.6595808   0.12950397    11376.326     1000 
 1266000   0.38595226   -2.3370354   0.57834946   -1.7586859   0.14151715    11364.593     1000 
 1268000   0.37572658   -2.3031886   0.56302629   -1.7401623   0.14282409    11290.634     1000 
 1270000   0.39454725   -2.2830203   0.59122905   -1.6917912   0.13158747    11329.393     1000 
 1272000   0.38197028   -2.2983165   0.57238246    -1.725934   0.12082522    11391.039     1000 
 1274000   0.37890466   -2.2668746   0.56778864    -1.699086   0.13801782    11337.129     1000 
 1276000   0.37032824   -2.2916348   0.55493687    -1.736698   0.12982938    11391.269     1000 
 1278000   0.38405883   -2.2956294   0.57551215   -1.7201173   0.13514081    11295.255     1000 
 1280000   0.38106544   -2.2908505   0.57102656   -1.7198239   0.12298233    11415.718     1000 
 1282000   0.38975442   -2.2804844     0.584047   -1.6964374    0.1269779    11436.303     1000 
 1284000   0.37658113   -2.3032382   0.56430683   -1.7389314   0.12576971    11363.788     1000 
 1286000   0.38442204   -2.2657226   0.57605643   -1.6896662   0.12654745    11318.748     1000 
 1288000   0.37967986   -2.3084605   0.56895028   -1.7395102   0.12612983    11420.715     1000 
 1290000   0.37573055   -2.2896044   0.56303223   -1.7265722   0.12440388    11373.532     1000 
 1292000   0.39407166   -2.3308971   0.59051638   -1.7403807   0.12768684    11418.214     1000 
 1294000   0.38317704   -2.2728014    0.5741908   -1.6986106   0.12126471    11389.482     1000 
 1296000   0.39309265   -2.3086556   0.58904933   -1.7196062   0.13850786    11354.117     1000 
 1298000   0.39055583   -2.3181301   0.58524791   -1.7328822   0.13010837    11356.007     1000 
 1300000   0.39496443   -2.3362296    0.5918542   -1.7443754   0.12407099     11485.79     1000 
 1302000   0.39048963    -2.300568   0.58514872   -1.7154193   0.12535501    11441.345     1000 
 1304000   0.39987752   -2.3090887   0.59921647   -1.7098722   0.12958309    11427.546     1000 
 1306000   0.37085154   -2.2874292   0.55572104   -1.7317081   0.12998324     11404.62     1000 
 1308000   0.38265427   -2.3076897   0.57340742   -1.7342823   0.13816313    11414.776     1000 
 1310000   0.38050711   -2.2656551    0.5701899   -1.6954652   0.13210645    11382.471     1000 
 1312000   0.36185209   -2.3429922   0.54223536   -1.8007568   0.13216806    11347.791     1000 
 1314000   0.39079324   -2.3290803   0.58560367   -1.7434767   0.12590775    11423.327     1000 
 1316000    0.3768295   -2.2921624   0.56467901   -1.7274834   0.12755006    11394.353     1000 
 1318000   0.38842375   -2.3248843   0.58205299   -1.7428314   0.11876154    11401.781     1000 
 1320000    0.3721699   -2.2878407   0.55769659   -1.7301441   0.12111726     11481.95     1000 
 1322000   0.39592424   -2.2996234   0.59329247   -1.7063309   0.13672439    11390.154     1000 
 1324000   0.37694164   -2.2577443   0.56484705   -1.6928973   0.13012485    11294.958     1000 
 1326000   0.37811173   -2.3164258   0.56660042   -1.7498254   0.13220744    11316.282     1000 
 1328000   0.36843656   -2.3053873   0.55210218   -1.7532851   0.13064875    11468.384     1000 
 1330000   0.38287746    -2.314045   0.57374187   -1.7403031   0.11540146     11505.64     1000 
 1332000   0.37870084   -2.3265094   0.56748321   -1.7590262   0.12324437    11405.747     1000 
 1334000   0.38870282   -2.3368692   0.58247118    -1.754398    0.1266188    11444.845     1000 
 1336000   0.36597538   -2.3004749   0.54841411   -1.7520608   0.14080547    11331.063     1000 
 1338000   0.37907219   -2.3003311   0.56803967   -1.7322914   0.12263497     11425.67     1000 
 1340000   0.39719073   -2.3126629   0.59519031   -1.7174725   0.13734949    11323.825     1000 
 1342000   0.38323487   -2.3356063   0.57427746   -1.7613288   0.13068316     11387.97     1000 
 1344000   0.36436835    -2.325029   0.54600597    -1.779023   0.13201583    11323.872     1000 
 1346000   0.38522472   -2.3080818   0.57725925   -1.7308226   0.13532294    11387.735     1000 
 1348000   0.38288018   -2.3176889   0.57374595    -1.743943   0.12253414     11458.28     1000 
 1350000   0.38653149   -2.2914774   0.57921744     -1.71226   0.13930543    11291.742     1000 
 1352000    0.3717926   -2.3112161   0.55713121   -1.7540849   0.13058753    11402.128     1000 
 1354000   0.37984228   -2.2976804   0.56919366   -1.7284867   0.13115563    11363.723     1000 
 1356000   0.39023605   -2.2613385   0.58476872   -1.6765698   0.13698206    11276.942     1000 
 1358000   0.37314984   -2.3012039   0.55916504   -1.7420389   0.13261046    11313.199     1000 
 1360000   0.37577165   -2.3135608   0.56309381    -1.750467   0.12684824    11407.327     1000 
 1362000    0.3845062   -2.2849384   0.57618254   -1.7087559   0.13789309    11386.448     1000 
 1364000   0.36089194    -2.351918   0.54079658   -1.8111214   0.13399639    11307.748     1000 
 1366000    0.3933879   -2.3014218   0.58949177   -1.7119301   0.13089985    11420.435     1000 
 1368000   0.39625596   -2.3462913   0.59378955   -1.7525018   0.13149199    11382.967     1000 
 1370000   0.38370802   -2.2574874   0.57498647   -1.6825009   0.12854518      11324.9     1000 
 1372000   0.39005822   -2.3000092   0.58450224    -1.715507   0.12986552    11406.335     1000 
 1374000   0.38997836   -2.2871345   0.58438257   -1.7027519   0.14963149    11233.765     1000 
 1376000   0.38409614   -2.3117485   0.57556807   -1.7361804   0.12462105    11456.045     1000 
 1378000    0.3806345   -2.3047014    0.5703808   -1.7343206   0.11896191    11430.535     1000 
 1380000   0.39896472   -2.2960485   0.59784864   -1.6981999   0.12553562    11340.419     1000 
 1382000   0.39179555   -2.2746816   0.58710563   -1.6875759   0.12542409    11454.146     1000 
 1384000   0.39574611   -2.3309566   0.59302555    -1.737931   0.12372665    11452.451     1000 
 1386000   0.38273774   -2.3061091    0.5735325   -1.7325766   0.12440967     11427.58     1000 
 1388000   0.37677225   -2.3534785   0.56459322   -1.7888852   0.12140801    11500.292     1000 
 1390000   0.39506763   -2.2025521   0.59200885   -1.6105433   0.13041092    11331.408     1000 
 1392000   0.38134402   -2.3149623   0.57144401   -1.7435183   0.13381526    11294.499     1000 
 1394000   0.37702213   -2.2685861   0.56496767   -1.7036184   0.14096012    11309.215     1000 
 1396000   0.36826122   -2.2961015   0.55183943   -1.7442621   0.14017199     11274.26     1000 
 1398000   0.39113727   -2.2913091    0.5861192   -1.7051899   0.13466995    11328.927     1000 
 1400000   0.38273141   -2.2734569   0.57352301   -1.6999339   0.13120982    11438.619     1000 
 1402000   0.37614301   -2.3345478   0.56365031   -1.7708975     0.123907     11388.26     1000 
 1404000   0.38704225   -2.3212898    0.5799828    -1.741307    0.1381389    11393.539     1000 
 1406000   0.38486684   -2.3207317   0.57672296   -1.7440087   0.12525823    11386.145     1000 
 1408000    0.3822398   -2.2952925   0.57278634   -1.7225062   0.13333025    11483.798     1000 
 1410000    0.3787622   -2.2811582   0.56757516    -1.713583   0.12187783    11383.918     1000 
 1412000   0.38661761   -2.2862185   0.57934649    -1.706872   0.13768434    11297.149     1000 
 1414000   0.37539529   -2.3262258   0.56252984    -1.763696   0.13235587    11406.524     1000 
 1416000   0.38817088   -2.2666656   0.58167406   -1.6849916   0.13697785    11313.836     1000 
 1418000   0.38463497   -2.3076821   0.57637551   -1.7313066   0.13121087    11333.584     1000 
 1420000   0.38543712   -2.3251806   0.57757753   -1.7476031    0.1258866    11424.269     1000 
 1422000   0.37201155   -2.2937394   0.55745931   -1.7362801   0.12353519    11410.249     1000 
 1424000   0.36743658   -2.3358728   0.55060372   -1.7852691   0.12993089    11322.396     1000 
 1426000   0.36534011   -2.2975897   0.54746215   -1.7501275   0.13405486    11333.894     1000 
 1428000   0.37331885   -2.2727802    0.5594183   -1.7133619   0.13754436      11369.4     1000 
 1430000   0.39335842   -2.3393577   0.58944759   -1.7499101   0.14096068     11297.53     1000 
 1432000   0.39653117   -2.3189532   0.59420195   -1.7247512   0.13388086    11330.055     1000 
 1434000   0.36773832    -2.285279   0.55105588   -1.7342231   0.12110316    11414.576     1000 
 1436000   0.38043881   -2.3029085   0.57008756    -1.732821   0.13212592    11368.128     1000 
 1438000    0.3666963   -2.2963467    0.5494944   -1.7468523   0.12865722    11328.674     1000 
 1440000   0.37683319   -2.3054498   0.56468453   -1.7407653   0.13452802    11348.452     1000 
 1442000   0.38087836   -2.2619868   0.57074623   -1.6912406   0.12617182    11373.576     1000 
 1444000   0.37909914   -2.3298537   0.56808006   -1.7617736   0.12229364    11384.551     1000 
 1446000   0.37868899   -2.3174179   0.56746545   -1.7499524   0.13554351    11376.546     1000 
 1448000   0.38065669   -2.3169297   0.57041405   -1.7465156   0.12842801     11396.94     1000 
 1450000   0.38747819   -2.2901956   0.58063606   -1.7095595   0.13449103    11330.081     1000 
 1452000   0.38815728   -2.3278169   0.58165368   -1.7461632   0.12598531    11395.651     1000 
 1454000   0.40134685   -2.2806125   0.60141825   -1.6791942   0.13346739    11359.618     1000 
 1456000    0.3754093   -2.3050954   0.56255083   -1.7425446   0.11548907    11465.624     1000 
 1458000   0.37305298    -2.332568   0.55901989   -1.7735481   0.12489036    11424.543     1000 
 1460000   0.38536786   -2.2881536   0.57747374   -1.7106799   0.12234889    11453.315     1000 
 1462000   0.38744842   -2.3199505   0.58059145    -1.739359   0.14033227    11284.581     1000 
 1464000   0.39114731   -2.3114763   0.58613425    -1.725342   0.13462866    11333.888     1000 
 1466000   0.38832529   -2.2437908   0.58190545   -1.6618853   0.13082721    11213.857     1000 
 1468000   0.38512751   -2.3397001   0.57711357   -1.7625866   0.12858049    11415.874     1000 
 1470000   0.37058257   -2.2735353   0.55531799   -1.7182173    0.1369425    11278.497     1000 
 1472000   0.37719097   -2.2600682   0.56522067   -1.6948475   0.13356357    11307.916     1000 
 1474000   0.37908521   -2.3172994   0.56805919   -1.7492402   0.13360577     11404.24     1000 
 1476000   0.36593102   -2.3128004   0.54834763   -1.7644528   0.12703788    11454.038     1000 
 1478000   0.38376768   -2.3265809   0.57507587    -1.751505   0.12527646    11419.148     1000 
 1480000   0.38518833   -2.2521025   0.57720471   -1.6748978   0.12979384      11317.8     1000 
 1482000   0.37103803   -2.3264777   0.55600049   -1.7704773   0.11666429    11547.799     1000 
 1484000   0.35452532   -2.2996792    0.5312562    -1.768423    0.1150837    11532.957     1000 
 1486000   0.37118625   -2.3285929   0.55622259   -1.7723703   0.12549528    11412.717     1000 
 1488000   0.36124642   -2.2883089   0.54132776   -1.7469811   0.13718867    11264.168     1000 
 1490000   0.39224435   -2.3205645   0.58777817   -1.7327864   0.13166619    11383.939     1000 
 1492000   0.37567896   -2.2912631   0.56295492   -1.7283082   0.13388169    11368.526     1000 
 1494000   0.40679117   -2.2800198   0.60957657   -1.6704433   0.11566505    11445.042     1000 
 1496000   0.37904886   -2.3091431   0.56800471   -1.7411384   0.12717271    11424.718     1000 
 1498000   0.37741596   -2.2909465   0.56555782   -1.7253887   0.13257118    11307.766     1000 
 1500000   0.37274154   -2.3446505    0.5585532   -1.7860973   0.12274507    11536.915     1000 
 1502000   0.36415575    -2.320242   0.54568739   -1.7745546   0.12184837    11414.857     1000 
 1504000   0.38851079   -2.2815366   0.58218342   -1.6993532   0.15310732    11133.868     1000 
 1506000    0.3772089   -2.2929862   0.56524753   -1.7277386   0.11671565    11458.844     1000 
 1508000   0.38096621   -2.2878203   0.57087786   -1.7169425   0.13738655    11379.805     1000 
 1510000   0.37307357   -2.3036749   0.55905074   -1.7446242   0.13364767     11354.98     1000 
 1512000    0.3653755   -2.3106106   0.54751519   -1.7630954   0.13230037    11403.825     1000 
 1514000   0.36597303   -2.3455776   0.54841059    -1.797167   0.11871244    11457.071     1000 
 1516000    0.3739928   -2.2876529   0.56042821   -1.7272247   0.15323174    11190.624     1000 
 1518000   0.37413265   -2.3238181   0.56063778   -1.7631804   0.14081094    11296.988     1000 
 1520000   0.37317363   -2.2944769   0.55920069   -1.7352762   0.12684962    11365.021     1000 
 1522000   0.35420011   -2.2755987   0.53076886   -1.7448298   0.13123895    11372.355     1000 
 1524000   0.38019286   -2.3075903   0.56971901   -1.7378713   0.13205057    11422.701     1000 
 1526000   0.39196231   -2.2966317   0.58735552   -1.7092762   0.13070411    11405.903     1000 
 1528000   0.38382849   -2.2670682   0.57516699   -1.6919012   0.15243677    11248.681     1000 
 1530000   0.39906214   -2.2844531   0.59799462   -1.6864585   0.13050428    11298.179     1000 
 1532000   0.39902794   -2.2964216   0.59794338   -1.6984783   0.12176801    11390.236     1000 
 1534000   0.38536055    -2.300702   0.57746278   -1.7232392   0.12962716    11416.341     1000 
 1536000     0.376444   -2.3027354   0.56410133   -1.7386341   0.13175008    11348.885     1000 
 1538000   0.36856454   -2.3388735   0.55229397   -1.7865795   0.13286757    11395.194     1000 
 1540000   0.37073046   -2.2935174    0.5555396   -1.7379778   0.12658048    11391.299     1000 
 1542000   0.36831219   -2.3211849   0.55191581   -1.7692691  0.098784974    11529.724     1000 
 1544000   0.36947053   -2.3167924    0.5536516   -1.7631408   0.12265252    11475.454     1000 
 1546000   0.38088565   -2.2516261   0.57075715   -1.6808689   0.12679773    11339.347     1000 
 1548000   0.39480013   -2.2664933     0.591608   -1.6748853   0.12088326    11412.683     1000 
 1550000   0.38524345    -2.322233    0.5772873   -1.7449457   0.11685708    11473.016     1000 
 1552000   0.38022539   -2.3248304   0.56976775   -1.7550626   0.11957412    11437.725     1000 
 1554000   0.38395834     -2.30611   0.57536157   -1.7307484   0.13167071    11381.068     1000 
 1556000   0.37923036   -2.2622405   0.56827669   -1.6939638   0.13152587     11333.51     1000 
 1558000   0.39086412   -2.2822365   0.58570989   -1.6965266   0.12949325    11407.008     1000 
 1560000   0.36532506   -2.2820568    0.5474396   -1.7346172    0.1198405    11463.967     1000 
 1562000   0.38386536   -2.3309424   0.57522224   -1.7557201   0.12132877    11456.899     1000 
 1564000   0.37761663    -2.294831   0.56585853   -1.7289724   0.13002565    11388.119     1000 
 1566000    0.3604881   -2.3043084   0.54019142    -1.764117   0.13202941    11438.245     1000 
 1568000   0.38448145   -2.3235971   0.57614546   -1.7474516   0.13864046    11283.782     1000 
 1570000   0.36700988   -2.2741699   0.54996431   -1.7242056   0.13035816    11367.298     1000 
 1572000   0.38252192   -2.2795139    0.5732091   -1.7063048   0.13399348    11386.488     1000 
 1574000   0.36610276    -2.254231   0.54860499   -1.7056261   0.12205553     11485.59     1000 
 1576000    0.3753747   -2.2758025   0.56249899   -1.7133035   0.13569776    11354.467     1000 
 1578000   0.36638498   -2.2929957   0.54902789   -1.7439678   0.12439087    11396.567     1000 
 1580000   0.38621579    -2.237801   0.57874435   -1.6590567   0.12198195    11423.309     1000 
 1582000   0.36421718    -2.354263   0.54577944   -1.8084835    0.1170429    11500.588     1000 
 1584000   0.37111194   -2.3265245   0.55611124   -1.7704133   0.13329451    11383.324     1000 
 1586000   0.38161184   -2.3058433   0.57184533    -1.733998   0.12169148    11372.607     1000 
 1588000   0.38619474   -2.3247942   0.57871282   -1.7460814   0.13581078    11305.094     1000 
[...]
 2614000   0.38259718   -2.3196257   0.57332187   -1.7463038   0.12923889    11385.125     1000 
 2616000   0.38257353   -2.3019099   0.57328643   -1.7286235    0.1422041    11295.187     1000 
 2618000   0.36865724   -2.2614177   0.55243287   -1.7089848   0.14121582    11311.926     1000 
 2620000   0.37465407   -2.3083634   0.56141912   -1.7469443   0.13734312    11407.541     1000 
 2622000   0.38259583   -2.3004313   0.57331985   -1.7271114   0.13783366    11308.463     1000 
 2624000   0.37323142   -2.2880867   0.55928729   -1.7287994   0.12052945    11421.358     1000 
 2626000   0.39842422   -2.2898619    0.5970387   -1.6928232     0.136959    11325.074     1000 
 2628000   0.36472426   -2.2773317   0.54653931   -1.7307924   0.12542957    11433.813     1000 
 2630000   0.39623588   -2.3285924   0.59375946   -1.7348329   0.12058737    11561.312     1000 
 2632000   0.37957122   -2.3108889   0.56878747   -1.7421015   0.12793321    11328.869     1000 
 2634000   0.37505577   -2.3171057   0.56202108   -1.7550846   0.12356174     11340.76     1000 
 2636000   0.35972635   -2.3271513   0.53904994   -1.7881014   0.13443121     11292.07     1000 
 2638000   0.37772357   -2.3057933   0.56601877   -1.7397745   0.12518885    11472.804     1000 
 2640000   0.38683352   -2.3088795   0.57967003   -1.7292095   0.14027874    11324.603     1000 
 2642000   0.38893354   -2.2807049   0.58281691   -1.6978879   0.13625721    11275.681     1000 
 2644000   0.37148273   -2.3122144   0.55666687   -1.7555475   0.11851692    11491.469     1000 
 2646000   0.35561384   -2.3277993   0.53288734   -1.7949119   0.12724493    11335.885     1000 
 2648000   0.38387997   -2.3231669   0.57524413   -1.7479228   0.13077573    11344.591     1000 
 2650000   0.38511656   -2.2831156   0.57709716   -1.7060184   0.13110028    11380.849     1000 
 2652000   0.38361228   -2.3023524     0.574843   -1.7275094   0.13713451    11317.921     1000 
 2654000   0.37865542   -2.3344913   0.56741515   -1.7670762   0.13045491    11387.121     1000 
 2656000   0.36890901   -2.3008246   0.55281015   -1.7480144   0.12334763     11388.69     1000 
 2658000    0.3894385    -2.236572   0.58357359   -1.6529984   0.14124341    11247.356     1000 
 2660000   0.38107344     -2.30907   0.57103854   -1.7380315   0.13800546    11376.791     1000 
 2662000   0.36761542   -2.2871624   0.55087171   -1.7362907   0.12342413    11522.171     1000 
 2664000    0.3931877   -2.2585311   0.58919176   -1.6693394   0.15419782    11216.432     1000 
 2666000     0.380026   -2.3275365   0.56946896   -1.7580675   0.12827541     11386.72     1000 
 2668000   0.38770228   -2.2809035   0.58097187   -1.6999316   0.13282379    11492.029     1000 
 2670000   0.37751397   -2.2865386   0.56570469   -1.7208339   0.12478759    11363.622     1000 
 2672000   0.38641287    -2.286228   0.57903969   -1.7071883   0.14366178    11236.221     1000 
 2674000   0.38146401   -2.2930914   0.57162383   -1.7214676   0.13340227    11381.961     1000 
 2676000    0.3788932   -2.2494677   0.56777146   -1.6816962    0.1305725    11319.341     1000 
 2678000   0.37889027   -2.3561171   0.56776706     -1.78835   0.12605956    11397.909     1000 
 2680000   0.38930105   -2.3012117   0.58336762   -1.7178441   0.13109022    11355.306     1000 
 2682000   0.37291198   -2.3155799    0.5588086   -1.7567713   0.13468108    11361.971     1000 
 2684000   0.37880149   -2.2422961   0.56763403   -1.6746621   0.12561948    11380.846     1000 
 2686000   0.37013327   -2.3139762    0.5546447   -1.7593315   0.12652725    11396.807     1000 
 2688000   0.37636103   -2.3523318     0.563977   -1.7883548   0.13326338    11430.435     1000 
 2690000     0.381166   -2.2716014   0.57117725   -1.7004242   0.13055574    11290.876     1000 
 2692000   0.35658901   -2.3319809   0.53434863   -1.7976323   0.12843083    11495.683     1000 
 2694000   0.37687829   -2.2880464   0.56475211   -1.7232943   0.12550619    11481.579     1000 
 2696000   0.38453912   -2.2859759   0.57623187    -1.709744   0.12529347    11512.673     1000 
 2698000   0.39995893   -2.2737444   0.59933845    -1.674406   0.13683597    11251.011     1000 
 2700000   0.37191169   -2.3337188   0.55730967   -1.7764091   0.12561574      11387.1     1000 
 2702000   0.38739319   -2.2603658    0.5805087   -1.6798571   0.13012272    11413.351     1000 
 2704000   0.38777592   -2.2881295   0.58108222   -1.7070473   0.12618768    11355.951     1000 
 2706000    0.3666971   -2.2962046    0.5494956    -1.746709   0.12658895    11332.773     1000 
 2708000    0.3711867   -2.2920721   0.55622327   -1.7358489   0.13105756    11353.577     1000 
 2710000    0.3688073   -2.2887674   0.55265775   -1.7361096   0.12421389    11361.384     1000 
 2712000   0.39574379   -2.3152941   0.59302207   -1.7222721   0.14575503    11280.762     1000 
 2714000   0.38266845   -2.3186908   0.57342867   -1.7452621    0.1378204    11281.675     1000 
 2716000   0.38033773   -2.2912339   0.56993608   -1.7212978   0.12614994    11434.812     1000 
 2718000   0.38042191   -2.3141229   0.57006224   -1.7440607    0.1309131    11390.724     1000 
 2720000   0.37906405   -2.3326692   0.56802748   -1.7646417   0.12684904    11450.322     1000 
 2722000   0.38061573    -2.335812   0.57035268   -1.7654593   0.13241944    11369.658     1000 
 2724000   0.39084903   -2.2949631   0.58568727   -1.7092758   0.13000069    11390.728     1000 
 2726000    0.3825763   -2.3420775   0.57329058   -1.7687869   0.13090235      11392.9     1000 
 2728000   0.36876637   -2.3242527   0.55259641   -1.7716563   0.12052387    11415.177     1000 
 2730000    0.3621283    -2.324759   0.54264926   -1.7821097   0.14047008    11357.029     1000 
 2732000   0.38685194   -2.2976442   0.57969764   -1.7179465   0.13571609    11342.539     1000 
 2734000   0.38632451   -2.3200698   0.57890728   -1.7411626   0.12791357    11419.459     1000 
 2736000   0.37459416   -2.3100714   0.56132934   -1.7487421   0.14039952    11285.079     1000 
 2738000   0.39672414   -2.2965277   0.59449112   -1.7020366    0.1339053    11420.308     1000 
 2740000    0.3965873   -2.2907694   0.59428607   -1.6964834   0.13622256     11355.62     1000 
 2742000   0.38381687   -2.2572458   0.57514958   -1.6820963    0.1349233    11228.831     1000 
 2744000   0.36189561   -2.3132498   0.54230057   -1.7709493   0.13607367    11323.971     1000 
 2746000   0.36857703   -2.2388364   0.55231268   -1.6865237   0.13160013    11221.225     1000 
 2748000   0.38196218   -2.2826279   0.57237033   -1.7102576    0.1337444    11332.493     1000 
 2750000    0.3867364   -2.3141194   0.57952449    -1.734595   0.13178225    11364.163     1000 
 2752000   0.38661592   -2.2834325   0.57934396   -1.7040885   0.12358728    11447.444     1000 
 2754000   0.37909489   -2.2762234   0.56807369   -1.7081497   0.12726567    11365.989     1000 
 2756000    0.3827162   -2.3027582   0.57350022    -1.729258   0.12871302    11368.878     1000 
 2758000   0.36834706   -2.3223646   0.55196806   -1.7703965   0.12457601    11412.869     1000 
 2760000   0.38579018   -2.3105205   0.57810658   -1.7324139    0.1178005    11465.899     1000 
 2762000   0.39478659   -2.3080883   0.59158771   -1.7165006    0.1277225    11406.711     1000 
 2764000    0.3677077   -2.3246077   0.55100999   -1.7735977   0.13009749     11324.34     1000 
 2766000   0.39811724   -2.2741827   0.59657868    -1.677604   0.13046073    11301.523     1000 
 2768000   0.39400642   -2.2881341   0.59041863   -1.6977155   0.14692336    11279.468     1000 
 2770000   0.37963658   -2.2833712   0.56888542   -1.7144858   0.12794956    11391.894     1000 
 2772000   0.37648366   -2.2881361   0.56416076   -1.7239754   0.12881976    11335.548     1000 
 2774000   0.37510835   -2.2724664   0.56209986   -1.7103666   0.11941843    11437.975     1000 
 2776000    0.3682661   -2.2973068   0.55184675   -1.7454601   0.12877878     11405.85     1000 
 2778000   0.37564949   -2.3017067   0.56291076   -1.7387959   0.12148883    11407.879     1000 
 2780000   0.38008419   -2.3475211   0.56955617    -1.777965   0.12844451    11395.833     1000 
 2782000   0.38521731   -2.2850607   0.57724814   -1.7078126   0.11852136    11389.073     1000 
 2784000   0.36520479   -2.2853546   0.54725938   -1.7380952   0.12517134    11483.906     1000 
 2786000   0.37003338   -2.2631784   0.55449502   -1.7086834   0.13701024    11251.519     1000 
 2788000   0.36660799   -2.2731881   0.54936208    -1.723826   0.12805282    11463.766     1000 
 2790000   0.38596021   -2.2980019   0.57836138   -1.7196405   0.12551265    11399.681     1000 
 2792000   0.37798187   -2.2876735   0.56640583   -1.7212677   0.13220749    11340.322     1000 
 2794000   0.38979027   -2.2866211   0.58410073   -1.7025204   0.14084159    11267.171     1000 
 2796000   0.37412179   -2.2673216    0.5606215   -1.7067001   0.13351763    11361.109     1000 
 2798000   0.35834545   -2.3394309   0.53698065   -1.8024503   0.12399752    11400.841     1000 
 2800000   0.37788217   -2.2851579   0.56625644   -1.7189014    0.1100122    11547.857     1000 
 2802000   0.37713753   -2.3222726   0.56514059    -1.757132   0.13653215    11363.504     1000 
 2804000   0.38133662   -2.3028533   0.57143292   -1.7314204   0.12825964    11419.279     1000 
 2806000   0.38201612   -2.2697383   0.57245115   -1.6972871    0.1496872    11168.729     1000 
 2808000   0.39169048   -2.3389429   0.58694818   -1.7519947   0.13005729    11457.579     1000 
 2810000   0.38469111   -2.2829374   0.57645962   -1.7064778   0.12531914    11365.744     1000 
 2812000   0.39252069   -2.2744081   0.58819226   -1.6862158    0.1291965    11408.102     1000 
 2814000    0.3745342   -2.3475924   0.56123949    -1.786353   0.13363753    11389.956     1000 
 2816000   0.38312672   -2.2739776   0.57411539   -1.6998622    0.1248495    11338.628     1000 
 2818000   0.38175825   -2.3002808   0.57206474    -1.728216   0.12634422    11398.293     1000 
 2820000   0.39100985   -2.3066674   0.58592826   -1.7207391   0.12983221    11340.202     1000 
 2822000   0.38936551   -2.2781397   0.58346422   -1.6946755   0.13514964    11324.098     1000 
 2824000   0.36475857    -2.309746   0.54659072   -1.7631552   0.11604906    11406.197     1000 
 2826000   0.38325307   -2.3201529   0.57430473   -1.7458482   0.12141066    11416.425     1000 
 2828000   0.37694718   -2.3011907   0.56485535   -1.7363354   0.12745302    11394.596     1000 
 2830000   0.38580326   -2.3038478   0.57812619   -1.7257216   0.12443897     11424.68     1000 
 2832000   0.35845143    -2.276472   0.53713947   -1.7393325   0.13374574    11384.929     1000 
 2834000   0.38372161   -2.2965376   0.57500683   -1.7215307   0.12010847    11473.185     1000 
 2836000   0.36450671   -2.2953499    0.5462133   -1.7491366   0.12705598    11406.736     1000 
 2838000   0.38651971    -2.320928   0.57919978   -1.7417282   0.13524345     11366.16     1000 
 2840000   0.38823965   -2.3159451   0.58177711   -1.7341679    0.1380327     11372.79     1000 
 2842000   0.37429035   -2.2403654   0.56087408   -1.6794913   0.13211964    11320.807     1000 
 2844000   0.39280362    -2.317648   0.58861623   -1.7290317   0.12316426    11362.212     1000 
 2846000    0.3784689   -2.3243198   0.56713565   -1.7571841   0.12915758    11378.524     1000 
 2848000    0.3807573    -2.338329   0.57056482   -1.7677642   0.12501058     11506.53     1000 
 2850000   0.40614812   -2.2860493   0.60861296   -1.6774363   0.12862235    11382.543     1000 
 2852000   0.37144478    -2.310004      0.55661    -1.753394   0.13150863    11274.961     1000 
 2854000   0.38277236   -2.2952683   0.57358438   -1.7216839   0.14382492    11364.923     1000 
 2856000   0.38353954   -2.2582398   0.57473399   -1.6835058   0.12459689    11434.068     1000 
 2858000   0.37770958   -2.3209089    0.5659978   -1.7549111   0.11443998    11512.739     1000 
 2860000   0.38084138   -2.2727346    0.5706908   -1.7020438   0.13480848    11312.861     1000 
 2862000   0.36600147    -2.308284   0.54845321   -1.7598308   0.12772726    11448.026     1000 
 2864000   0.37161766   -2.3250957   0.55686906   -1.7682266   0.13565181    11376.056     1000 
 2866000   0.37999664   -2.2495551   0.56942496   -1.6801301   0.13571736    11243.503     1000 
 2868000   0.38921471   -2.3431109   0.58323825   -1.7598726   0.11020723    11560.077     1000 
 2870000   0.38157477   -2.3010721   0.57178979   -1.7292823    0.1224832    11382.816     1000 
 2872000   0.37613877   -2.2702535   0.56364394   -1.7066096   0.13176411     11398.06     1000 
 2874000   0.39647446   -2.2804234   0.59411698   -1.6863065    0.1395495    11334.157     1000 
 2876000   0.37634878   -2.2533403   0.56395865   -1.6893817   0.13364121    11365.042     1000 
 2878000   0.36823425   -2.2877254   0.55179903   -1.7359264   0.12831201    11317.501     1000 
 2880000   0.39585583   -2.2583614   0.59318997   -1.6651715   0.13397215    11365.316     1000 
 2882000   0.37627681   -2.3061652    0.5638508   -1.7423144   0.13322081    11375.453     1000 
 2884000   0.38337266   -2.3054511   0.57448393   -1.7309672   0.12779765    11386.305     1000 
 2886000   0.38691762   -2.2912148   0.57979605   -1.7114188   0.13704334    11324.635     1000 
 2888000   0.39614171   -2.2847871   0.59361835   -1.6911687   0.13137028    11449.563     1000 
 2890000   0.38348874   -2.2884636   0.57465787   -1.7138057   0.11327631    11474.274     1000 
 2892000   0.38093872   -2.2868378   0.57083667   -1.7160012   0.11380742    11508.505     1000 
 2894000   0.37867218   -2.3324478   0.56744026   -1.7650075   0.12593573    11413.748     1000 
 2896000   0.37671682   -2.3299748   0.56451016   -1.7654646   0.12286849    11465.769     1000 
 2898000    0.3806991   -2.2862083   0.57047761   -1.7157307   0.12761928    11352.731     1000 
 2900000   0.37201666    -2.323471   0.55746697    -1.766004   0.13994384    11292.043     1000 
 2902000   0.37140865   -2.2678928   0.55655586   -1.7113369   0.13553905    11258.234     1000 
 2904000     0.385715   -2.2758894   0.57799392   -1.6978955   0.14124705    11246.633     1000 
 2906000   0.38362023   -2.3048898   0.57485491   -1.7300349   0.12398207    11417.146     1000 
 2908000   0.37816405   -2.3354788   0.56667882      -1.7688   0.12354571    11416.458     1000 
 2910000   0.38673441   -2.3115893   0.57952152   -1.7320678   0.13760283    11249.289     1000 
 2912000   0.38645705   -2.3282063   0.57910589   -1.7491005   0.12477777    11488.114     1000 
 2914000   0.36906316   -2.3267964   0.55304115   -1.7737553   0.14121586     11311.82     1000 
 2916000   0.37981082   -2.2585171   0.56914651   -1.6893706   0.13861107    11332.646     1000 
 2918000   0.39800211   -2.3137198   0.59640616   -1.7173136   0.12961366    11437.023     1000 
 2920000   0.38088336   -2.3444982   0.57075372   -1.7737445   0.13086147    11330.398     1000 
 2922000   0.36330805   -2.2811166   0.54441711   -1.7366995   0.13063196    11370.272     1000 
 2924000   0.38534907   -2.3080583   0.57744558   -1.7306128   0.14192136     11351.16     1000 
 2926000   0.38293951   -2.2940866   0.57383485   -1.7202518   0.13376912    11327.102     1000 
 2928000   0.37420705   -2.3475523   0.56074926    -1.786803   0.11992943     11456.34     1000 
 2930000    0.3776482   -2.3296118   0.56590583   -1.7637059    0.1331889    11440.332     1000 
 2932000   0.38339798   -2.3037207   0.57452187   -1.7291989   0.13033997    11399.485     1000 
 2934000   0.38028225    -2.309932   0.56985295   -1.7400791   0.12349264    11364.443     1000 
 2936000   0.35996946   -2.3042172   0.53941424    -1.764803   0.12642089    11421.499     1000 
 2938000   0.37517113   -2.3138908   0.56219394   -1.7516969   0.12099708    11491.835     1000 
 2940000   0.39114124    -2.326935   0.58612515   -1.7408099   0.12656103    11422.508     1000 
 2942000   0.38398663   -2.2974936   0.57540396   -1.7220896   0.12806745    11369.548     1000 
 2944000   0.37266079   -2.2875008   0.55843219   -1.7290686   0.12746942    11475.458     1000 
 2946000   0.38448494   -2.2707247   0.57615068   -1.6945741    0.1251073    11409.907     1000 
 2948000   0.36222284   -2.3387474   0.54279093   -1.7959564   0.11554521    11502.577     1000 
 2950000    0.3695778   -2.2950969   0.55381233   -1.7412846    0.1246203    11414.667     1000 
 2952000   0.36869687   -2.2997338   0.55249226   -1.7472415   0.13169345    11349.106     1000 
 2954000   0.37267016   -2.2943417   0.55844624   -1.7358955   0.11808779    11521.826     1000 
 2956000   0.38095666   -2.2980954   0.57086355   -1.7272319   0.12932828    11393.162     1000 
 2958000   0.39673799   -2.3109797   0.59451188   -1.7164678   0.12860012    11468.503     1000 
 2960000   0.37930152   -2.3384658   0.56838333   -1.7700825    0.1236752     11384.38     1000 
 2962000   0.39080185   -2.3252591   0.58561657   -1.7396426   0.13333215    11401.287     1000 
 2964000   0.37149947     -2.31421   0.55669195    -1.757518   0.12468184    11449.983     1000 
 2966000   0.36779633    -2.339847   0.55114281   -1.7887042   0.12468371    11469.066     1000 
 2968000   0.35890219   -2.2746022   0.53781493   -1.7367872   0.14475001    11198.084     1000 
 2970000   0.37554956   -2.2563869   0.56276102   -1.6936259   0.11516442     11427.36     1000 
 2972000    0.3806233   -2.3332578   0.57036402   -1.7628938   0.12778012    11375.219     1000 
 2974000   0.38374546   -2.3066465   0.57504257   -1.7316039   0.13470941     11370.21     1000 
 2976000   0.37124747   -2.3205358   0.55631434   -1.7642214   0.13913416    11350.292     1000 
 2978000   0.39162578    -2.351951   0.58685123   -1.7650998   0.12567252    11398.898     1000 
 2980000   0.38017362     -2.26366   0.56969017   -1.6939698   0.12332179    11407.163     1000 
 2982000   0.38151962   -2.2988164   0.57170714   -1.7271092   0.13563502    11351.762     1000 
 2984000   0.38069538   -2.2958249   0.57047202   -1.7253529   0.13624349     11318.46     1000 
 2986000   0.37466454   -2.3137809   0.56143482   -1.7523461   0.12712392    11448.443     1000 
 2988000    0.3803758   -2.2624673   0.56999314   -1.6924742   0.13364336    11261.841     1000 
 2990000   0.37500198   -2.2760037   0.56194047   -1.7140632   0.13657569    11250.202     1000 
 2992000   0.38759787   -2.2613734    0.5808154    -1.680558   0.13719098    11341.323     1000 
 2994000   0.37923209   -2.3027383   0.56827929    -1.734459     0.136848    11346.824     1000 
 2996000   0.38600045   -2.2512261   0.57842168   -1.6728044   0.14152604    11268.317     1000 
 2998000   0.36657293    -2.302159   0.54930953   -1.7528494   0.13091974    11420.917     1000 
 3000000   0.38347721   -2.3681562    0.5746406   -1.7935156   0.12388197    11440.769     1000 
Loop time of 1153.96 on 1 procs for 3000000 steps with 1000 atoms

Performance: 1123089.719 tau/day, 2599.745 timesteps/s
100.0% CPU use with 1 MPI tasks x 1 OpenMP threads

MPI task timing breakdown:
Section |  min time  |  avg time  |  max time  |%varavg| %total
---------------------------------------------------------------
Pair    | 908.09     | 908.09     | 908.09     |   0.0 | 78.69
Neigh   | 143.25     | 143.25     | 143.25     |   0.0 | 12.41
Comm    | 24.554     | 24.554     | 24.554     |   0.0 |  2.13
Output  | 0.017311   | 0.017311   | 0.017311   |   0.0 |  0.00
Modify  | 72.583     | 72.583     | 72.583     |   0.0 |  6.29
Other   |            | 5.459      |            |       |  0.47

Nlocal:        1000.00 ave        1000 max        1000 min
Histogram: 1 0 0 0 0 0 0 0 0 0
Nghost:        2176.00 ave        2176 max        2176 min
Histogram: 1 0 0 0 0 0 0 0 0 0
Neighs:        27657.0 ave       27657 max       27657 min
Histogram: 1 0 0 0 0 0 0 0 0 0

Total # of neighbors = 27657
Ave neighs/atom = 27.657000
Neighbor list builds = 150000
Dangerous builds not checked

Total wall time: 0:19:13
