LAMMPS (29 Sep 2021 - Update 2)
OMP_NUM_THREADS environment is not set. Defaulting to 1 thread. (src/comm.cpp:98)
  using 1 OpenMP thread(s) per MPI task
# ----------------------- Inicialização -----------------------

units			lj
atom_style 		atomic
dimension 		3
boundary 		p p p

# -------------------- Criação dos Átomos ---------------------

read_data 		topologia.txt
Reading data file ...
  orthogonal box = (0.0000000 0.0000000 0.0000000) to (21.540000 21.540000 21.540000)
  1 by 1 by 1 MPI processor grid
  reading atoms ...
  1000 atoms
  read_data CPU = 0.005 seconds

velocity 		all create ${temp} 87287 rot yes dist gaussian
velocity 		all create 0.59 87287 rot yes dist gaussian

# ------------------ Interação Interatômica -------------------

pair_style		table linear 1000
pair_coeff		1 1 force.table AA 5.0
WARNING: 2 of 1000 force values in table AA are inconsistent with -dE/dr.
WARNING:  Should only be flagged at inflection points (src/pair_table.cpp:465)
pair_coeff		1 2 force.table AB 5.0
WARNING: 1 of 1000 force values in table AB are inconsistent with -dE/dr.
WARNING:  Should only be flagged at inflection points (src/pair_table.cpp:465)
pair_coeff		2 2 force.table BB 5.0
pair_write		1 1 1000 r 0.008 5.0 table.check AA
Appending to table file table.check with DATE: 2023-06-15
Neighbor list info ...
  update every 1 steps, delay 10 steps, check yes
  max neighbors/atom: 2000, page size: 100000
  master list distance cutoff = 5.3
  ghost atom cutoff = 5.3
  binsize = 2.65, bins = 9 9 9
  1 neighbor lists, perpetual/occasional/extra = 1 0 0
  (1) pair table, perpetual
      attributes: half, newton on
      pair build: half/bin/atomonly/newton
      stencil: half/bin/3d
      bin: standard
pair_write		1 2 1000 r 0.008 5.0 table.check AB
Appending to table file table.check with DATE: 2023-06-15
pair_write		2 2 1000 r 0.008 5.0 table.check BB
Appending to table file table.check with DATE: 2023-06-15

neighbor 		0.3 bin
neigh_modify		every 20 delay 0 check no

# ------------------------- Ensemble --------------------------------------

fix 1			all npt temp ${temp} ${temp} 0.5 iso ${press} ${press} 5
fix 1			all npt temp 0.59 ${temp} 0.5 iso ${press} ${press} 5
fix 1			all npt temp 0.59 0.59 0.5 iso ${press} ${press} 5
fix 1			all npt temp 0.59 0.59 0.5 iso 0.13 ${press} 5
fix 1			all npt temp 0.59 0.59 0.5 iso 0.13 0.13 5

# ---------------------- Função de Distribuição Radial -----------------------

#compute RDF 		all rdf 2000 1 1 1 2 2 2
#fix 2 			all ave/time 1 2000 2000 c_RDF[*] file rdf.data mode vector

# ------------------------- Execução ---------------------------

timestep 		0.005
thermo_style		custom step temp pe ke etotal press vol atoms
thermo			2000
run			3000000
Per MPI rank memory allocation (min/avg/max) = 2.670 | 2.670 | 2.670 Mbytes
Step Temp PotEng KinEng TotEng Press Volume Atoms 
       0         0.59  -0.99052333     0.884115  -0.10640833    0.1280771    9993.9483     1000 
    2000   0.57826021   -1.6811483   0.86652292  -0.81462536   0.13495021    11379.034     1000 
    4000   0.58856603   -1.6944092   0.88196619  -0.81244301   0.12958092    11446.421     1000 
    6000   0.58782523   -1.6921621   0.88085611  -0.81130601   0.13628576     11421.57     1000 
    8000   0.60211572   -1.6592542    0.9022704  -0.75698382   0.12197724    11455.994     1000 
   10000   0.60038317   -1.6757414   0.89967418  -0.77606725   0.12941032     11429.35     1000 
   12000   0.59833038   -1.6840015   0.89659808  -0.78740342   0.12773224    11506.653     1000 
   14000   0.57019948   -1.6441475   0.85444392  -0.78970362   0.12195353    11540.895     1000 
   16000   0.56566954   -1.6768206    0.8476558  -0.82916484   0.11491187    11637.864     1000 
   18000   0.59274039   -1.6848476   0.88822147  -0.79662614   0.12476091     11653.19     1000 
   20000   0.59694065   -1.7170202   0.89451557  -0.82250459   0.12833831    11573.836     1000 
   22000   0.61853711   -1.6398488   0.92687786  -0.71297098   0.13673319    11546.785     1000 
   24000   0.57785338   -1.6918983   0.86591328  -0.82598501   0.13540583    11373.227     1000 
   26000   0.57584785   -1.6929362     0.862908  -0.83002824   0.12280527    11599.061     1000 
   28000   0.54323013   -1.6951658   0.81403036  -0.88113543    0.1383298    11323.939     1000 
   30000   0.58473656   -1.7137904   0.87622774  -0.83756267   0.13466971    11539.103     1000 
   32000   0.60764955   -1.6209393   0.91056284  -0.71037645   0.13301162    11474.457     1000 
   34000   0.59837335    -1.696293   0.89666247  -0.79963051   0.12487905    11542.967     1000 
   36000   0.59443026   -1.6981063   0.89075375  -0.80735256   0.13304925    11521.732     1000 
   38000   0.61136046   -1.6532473   0.91612365   -0.7371237   0.13002126     11488.88     1000 
   40000   0.58868273   -1.7095293   0.88214107  -0.82738824   0.12429603    11469.965     1000 
   42000     0.585553   -1.6802906   0.87745117  -0.80283942   0.12588287    11625.777     1000 
   44000   0.58949341   -1.7055483   0.88335588  -0.82219246   0.12598373    11538.605     1000 
   46000   0.60534184   -1.7112863   0.90710475  -0.80418152   0.11670378    11640.258     1000 
   48000   0.58993705   -1.6781616   0.88402067  -0.79414094    0.1352648    11582.165     1000 
   50000   0.59125746   -1.7346236   0.88599931  -0.84862431   0.11687999    11679.341     1000 
   52000   0.54625206   -1.6880086   0.81855871  -0.86944991   0.11628521    11590.476     1000 
   54000   0.58791818   -1.6577467    0.8809954  -0.77675128   0.12899866    11415.648     1000 
   56000   0.58409787    -1.657193   0.87527065  -0.78192233   0.12434796    11638.732     1000 
   58000   0.57518727   -1.7392116   0.86191812  -0.87729344   0.12320158    11498.261     1000 
   60000   0.58128577   -1.6572976   0.87105673  -0.78624087   0.12309063    11684.313     1000 
   62000   0.58172896   -1.6803138   0.87172085  -0.80859294   0.12314949    11539.491     1000 
   64000   0.62019957   -1.6635702   0.92936906  -0.73420117   0.13851315    11378.983     1000 
   66000   0.60504939   -1.6810952   0.90666651  -0.77442873   0.13716212    11416.966     1000 
   68000   0.58322378   -1.6748135   0.87396083  -0.80085271   0.11936813    11752.826     1000 
   70000   0.55880244   -1.6728852   0.83736545  -0.83551972   0.11580481    11508.088     1000 
   72000   0.61814545    -1.666755   0.92629095  -0.74046402   0.14058687    11396.407     1000 
   74000   0.58583397   -1.7524765   0.87787221  -0.87460433   0.12806508     11425.76     1000 
   76000   0.60434981   -1.7257348   0.90561818  -0.82011663   0.13072851    11551.118     1000 
   78000   0.57175752   -1.6682423   0.85677865  -0.81146365   0.12280355     11584.56     1000 
   80000   0.62446754   -1.6839645   0.93576461  -0.74819984   0.13519509    11533.197     1000 
   82000   0.58217194   -1.6855406   0.87238465  -0.81315592   0.13801723    11349.033     1000 
   84000    0.6006029   -1.7161758   0.90000344  -0.81617236   0.12531159    11563.782     1000 
   86000   0.59364177   -1.7223709   0.88957219  -0.83279866   0.13782273    11580.446     1000 
   88000   0.58315332   -1.7021202   0.87385525  -0.82826499   0.13239826    11547.567     1000 
   90000     0.575753   -1.6695435   0.86276587  -0.80677763   0.13397561    11425.077     1000 
   92000   0.59411627    -1.733448   0.89028324  -0.84316474   0.12867466    11479.028     1000 
   94000   0.57931723    -1.711996   0.86810687   -0.8438891   0.13197055     11555.53     1000 
   96000   0.57712548   -1.6873935   0.86482253  -0.82257101   0.12938017    11490.823     1000 
   98000   0.57989425   -1.6724416   0.86897154  -0.80347008   0.13281327     11481.05     1000 
  100000   0.61756724   -1.6458274   0.92542451  -0.72040292   0.13998319    11338.607     1000 
  102000   0.59017428     -1.70581   0.88437616  -0.82143383   0.12653225    11634.638     1000 
  104000   0.59035197   -1.6970028   0.88464242  -0.81236036   0.12388956    11613.374     1000 
  106000   0.59416331   -1.6713523   0.89035371   -0.7809986   0.12323866    11654.156     1000 
  108000   0.59810885   -1.6732629   0.89626611  -0.77699682   0.12355843    11774.821     1000 
  110000   0.58668833   -1.6340998   0.87915246  -0.75494739   0.13856737    11508.907     1000 
  112000   0.61367207   -1.6541553   0.91958759  -0.73456774   0.13920952    11458.583     1000 
  114000   0.59871752   -1.6619175   0.89717821  -0.76473931   0.13520491    11448.053     1000 
  116000   0.59840789   -1.6945905   0.89671423  -0.79787625   0.13583582      11478.9     1000 
  118000    0.5807488   -1.7242034   0.87025208  -0.85395132   0.13433385    11447.275     1000 
  120000   0.56520584    -1.679436   0.84696095  -0.83247502   0.12049623    11556.883     1000 
  122000    0.5975439   -1.7107744   0.89541954  -0.81535482   0.13760207    11459.333     1000 
  124000   0.59537208   -1.6591192   0.89216506  -0.76695416   0.12036241     11731.21     1000 
  126000   0.58195278   -1.7037779   0.87205625  -0.83172168   0.12592009    11597.442     1000 
  128000   0.59079359   -1.7614508   0.88530419  -0.87614658   0.14085024    11265.168     1000 
  130000   0.62658654   -1.6623405   0.93893992  -0.72340053   0.10959829    11675.793     1000 
  132000   0.60497986   -1.6574233   0.90656233  -0.75086093   0.13911035    11524.213     1000 
  134000   0.58777134   -1.7003072   0.88077535  -0.81953188   0.12210229    11619.727     1000 
  136000   0.55554173   -1.6527769   0.83247928  -0.82029757   0.13356272    11490.861     1000 
  138000    0.6038791   -1.6401973   0.90491284  -0.73528448    0.1262361    11384.595     1000 
  140000   0.59881871   -1.6720401   0.89732984  -0.77471025   0.12645794    11576.898     1000 
  142000   0.58795917   -1.6743892   0.88105682  -0.79333234   0.13723231    11549.195     1000 
  144000   0.59718967   -1.6631502   0.89488871  -0.76826151   0.12838515    11377.646     1000 
  146000   0.57015087   -1.6740903   0.85437108   -0.8197192   0.13889445    11540.688     1000 
  148000   0.58898404   -1.6401091   0.88259258   -0.7575165   0.13593133    11446.239     1000 
  150000   0.60561401   -1.6555024   0.90751259  -0.74798981   0.12766419    11394.326     1000 
  152000   0.61754991   -1.6705897   0.92539854  -0.74519117   0.13273805     11590.65     1000 
  154000   0.59025095   -1.6965171   0.88449105  -0.81202601   0.12350044    11549.107     1000 
  156000   0.58983609   -1.6767187   0.88386938  -0.79284936   0.12704258    11620.083     1000 
  158000   0.55363464   -1.6482511   0.82962151  -0.81862957   0.12845532    11570.602     1000 
  160000   0.58767576   -1.7175131   0.88063212  -0.83688094    0.1450898    11364.791     1000 
  162000   0.58009604   -1.7168404   0.86927391  -0.84756646   0.14352354    11447.494     1000 
  164000   0.58205865    -1.701861   0.87221488  -0.82964614    0.1222951    11428.715     1000 
  166000   0.59014016   -1.6541579   0.88432503  -0.76983286   0.14168672    11341.985     1000 
  168000   0.60189797   -1.6796999   0.90194411  -0.77775579    0.1263902    11505.008     1000 
  170000   0.61821567   -1.7572607   0.92639618  -0.83086453   0.13391007    11593.218     1000 
  172000   0.61813931   -1.6388319   0.92628176  -0.71255014   0.12527422    11504.985     1000 
  174000   0.60858549   -1.6950648   0.91196535  -0.78309949   0.13557498    11487.526     1000 
  176000    0.6141308   -1.6533209     0.920275  -0.73304589   0.13004787    11361.126     1000 
  178000    0.6014977   -1.7007366   0.90134431  -0.79939228   0.13367923     11397.07     1000 
  180000   0.59845248   -1.7115514   0.89678105  -0.81477031   0.13440217    11439.244     1000 
  182000   0.60393447   -1.6745474    0.9049958  -0.76955162   0.12738815    11641.408     1000 
  184000   0.57570162   -1.6958917   0.86268888  -0.83320285   0.12839686    11521.518     1000 
  186000   0.58540541     -1.70806   0.87723001  -0.83083001   0.12853215    11478.778     1000 
  188000   0.57381918   -1.7003244   0.85986804   -0.8404564   0.11984492    11670.631     1000 
  190000   0.58708134   -1.6619685   0.87974138  -0.78222715   0.14358835     11339.19     1000 
  192000   0.60136351    -1.674291   0.90114322  -0.77314775   0.13987673    11391.866     1000 
  194000   0.57859359   -1.7136242    0.8670225  -0.84660166   0.11923888    11681.004     1000 
  196000   0.60452101   -1.6633088   0.90587473   -0.7574341   0.12802556    11566.756     1000 
  198000   0.56843624   -1.6690702   0.85180171   -0.8172685   0.14175287    11282.227     1000 
  200000    0.6130752   -1.7305757   0.91869319  -0.81188254    0.1267905    11452.995     1000 
  202000   0.59122402   -1.7066099    0.8859492  -0.82066074    0.1258114    11505.153     1000 
  204000   0.57292187   -1.6924326   0.85852343  -0.83390914   0.13165164    11410.457     1000 
  206000   0.57860877   -1.6839584   0.86704524  -0.81691315   0.11568895    11672.668     1000 
  208000   0.59764799     -1.67517   0.89557552  -0.77959445   0.13829394    11562.294     1000 
  210000    0.5743728   -1.6838097   0.86069765  -0.82311208   0.12419482    11614.357     1000 
  212000   0.59984819   -1.6138822   0.89887251  -0.71500972   0.12948363    11429.282     1000 
  214000   0.59495502   -1.6458862    0.8915401  -0.75434611   0.12698367    11407.357     1000 
  216000   0.58037109   -1.6821016   0.86968608  -0.81241555   0.12168004    11643.076     1000 
  218000   0.61432339   -1.7063175    0.9205636  -0.78575393   0.13116289    11492.417     1000 
  220000   0.59461586   -1.6454951   0.89103186  -0.75446327   0.13691459    11348.789     1000 
  222000   0.58806999   -1.7138464   0.88122289  -0.83262347   0.11627407    11577.685     1000 
  224000   0.58174873   -1.6977566   0.87175047  -0.82600617   0.11754441    11545.723     1000 
  226000   0.59356265    -1.690493   0.88945363  -0.80103934   0.13579529    11505.452     1000 
  228000   0.59929352   -1.6829491   0.89804134  -0.78490776   0.11965676    11627.888     1000 
  230000   0.59934638   -1.6500195   0.89812055  -0.75189894   0.14358201    11418.223     1000 
  232000   0.58452891   -1.6751573   0.87591657  -0.79924075   0.13039984    11517.445     1000 
  234000   0.58503555   -1.7423663   0.87667577  -0.86569057   0.12473182    11623.363     1000 
  236000   0.57652709    -1.702643   0.86392584  -0.83871718   0.12371564    11622.689     1000 
  238000   0.57016703   -1.6982763    0.8543953  -0.84388104   0.13171734      11441.9     1000 
  240000    0.5896778   -1.6925432   0.88363218  -0.80891097   0.13328604    11482.761     1000 
  242000   0.58643892   -1.6381995   0.87877872  -0.75942078   0.12913294    11500.313     1000 
  244000   0.59820999   -1.6654446   0.89641766   -0.7690269   0.12989723    11476.677     1000 
  246000   0.58853621   -1.6566743   0.88192152  -0.77475274   0.14556236        11279     1000 
  248000   0.58721764   -1.7101037   0.87994564  -0.83015811   0.13117585    11418.268     1000 
  250000    0.5771951   -1.6838687   0.86492686  -0.81894186   0.12557588    11544.994     1000 
  252000   0.59450465   -1.7046069   0.89086522  -0.81374171     0.131341    11598.389     1000 
  254000    0.5882489   -1.6623164   0.88149097  -0.78082543   0.12360086    11633.256     1000 
  256000   0.58744047   -1.6470018   0.88027955  -0.76672223   0.13269802    11281.807     1000 
  258000   0.58859249    -1.713359   0.88200585  -0.83135313   0.12953676    11498.482     1000 
  260000    0.5769022   -1.6862834   0.86448794  -0.82179543   0.12046903    11539.687     1000 
  262000   0.57809032   -1.7108732   0.86626835  -0.84460481   0.12013367    11585.824     1000 
  264000   0.58420454   -1.6817976    0.8754305  -0.80636708   0.12198587      11649.5     1000 
  266000   0.60637354   -1.6777742   0.90865075   -0.7691235   0.13549211    11537.098     1000 
  268000   0.56835084   -1.7166318   0.85167373  -0.86495811   0.12904856    11583.538     1000 
  270000   0.59120552    -1.673514   0.88592148  -0.78759249   0.12325815    11395.683     1000 
  272000   0.59823451   -1.7317024   0.89645441    -0.835248   0.11847928    11639.412     1000 
  274000   0.59183418   -1.6350023   0.88686351  -0.74813881   0.13729292    11317.372     1000 
  276000   0.57426819   -1.6622732   0.86054089  -0.80173231   0.12774969    11507.503     1000 
  278000   0.61461456   -1.6931617   0.92099992   -0.7721618   0.12256999    11545.529     1000 
  280000   0.61476401   -1.6898223   0.92122387  -0.76859843   0.12213451      11451.3     1000 
  282000   0.61767762   -1.6446436   0.92558992  -0.71905372   0.13698504    11398.926     1000 
  284000   0.57988945    -1.677034   0.86896435  -0.80806964   0.13542856     11431.51     1000 
  286000   0.58245728   -1.6983768   0.87281223  -0.82556461   0.13922289    11352.872     1000 
  288000   0.59413815   -1.6824898   0.89031602  -0.79217375   0.12688346    11547.181     1000 
  290000   0.57195541   -1.6909386   0.85707519  -0.83386341   0.12551149    11550.218     1000 
  292000   0.59325494   -1.7156366   0.88899252  -0.82664405   0.13029426    11533.953     1000 
  294000   0.56019376   -1.7318222   0.83945035  -0.89237188   0.12829111    11560.005     1000 
  296000   0.58170175   -1.6462504   0.87168008  -0.77457036   0.13669771    11332.568     1000 
  298000   0.60381319   -1.7326136   0.90481407  -0.82779954   0.13194105    11734.921     1000 
  300000   0.57757767   -1.6704563   0.86550013  -0.80495614   0.12787841    11644.917     1000 
  302000   0.61480976   -1.6704975   0.92129243  -0.74920508    0.1375374    11398.388     1000 
  304000   0.57773957   -1.6663458   0.86574275  -0.80060302   0.12132443    11557.599     1000 
  306000   0.59436333   -1.6785481   0.89065346  -0.78789466    0.1300961     11434.69     1000 
  308000   0.57381061   -1.6707536   0.85985521  -0.81089835   0.12618785    11584.674     1000 
  310000   0.58783056   -1.6600527   0.88086409   -0.7791886   0.13348811    11447.874     1000 
  312000   0.59692555   -1.7048564   0.89449293  -0.81036347    0.1211795    11488.314     1000 
  314000   0.60808638    -1.740301   0.91121743  -0.82908356    0.1300146    11346.847     1000 
  316000   0.61039403   -1.7069827   0.91467546  -0.79230722   0.13992862    11483.679     1000 
  318000   0.61834801   -1.6851848    0.9265945  -0.75859029   0.13567748    11578.865     1000 
  320000   0.58494708   -1.7098693   0.87654319   -0.8333261   0.13501038    11568.768     1000 
  322000   0.56380502   -1.7553803   0.84486182  -0.91051851   0.12828342    11630.652     1000 
  324000   0.62203124   -1.7219758   0.93211382  -0.78986197   0.14258753    11459.258     1000 
  326000   0.56435443    -1.688716   0.84568511  -0.84303089   0.13058197     11405.82     1000 
  328000   0.55281275   -1.7324044   0.82838991  -0.90401446   0.12749528     11503.66     1000 
  330000   0.58446356   -1.6826243   0.87581864  -0.80680568   0.13340492    11480.607     1000 
  332000   0.59355307   -1.6641492   0.88943928  -0.77470995   0.13753847    11369.871     1000 
  334000   0.59964902   -1.6590384   0.89857406  -0.76046436   0.12884049    11374.097     1000 
  336000   0.58447806   -1.7094948   0.87584037  -0.83365438   0.13505195    11363.799     1000 
  338000   0.57262862   -1.6667032   0.85808399  -0.80861919   0.13317798    11454.664     1000 
  340000   0.60774922   -1.7271024    0.9107122  -0.81639023   0.12993286    11582.381     1000 
  342000   0.58449524   -1.6797784   0.87586612  -0.80391224   0.14041832    11288.314     1000 
  344000    0.5984445    -1.681044   0.89676908  -0.78427491   0.13786518    11342.707     1000 
  346000   0.57892817   -1.7305309   0.86752387  -0.86300706   0.12842236    11593.846     1000 
  348000   0.59801555   -1.7216529    0.8961263  -0.82552661    0.1144464    11652.733     1000 
  350000   0.57999929    -1.700938   0.86912893  -0.83180905   0.13122294    11571.692     1000 
  352000   0.58794118   -1.7019296   0.88102986  -0.82089978   0.12989683     11524.97     1000 
  354000   0.59231547   -1.6970278   0.88758473  -0.80944305   0.12465261      11526.2     1000 
  356000   0.59254958   -1.6863875   0.88793554  -0.79845196   0.13497631     11587.76     1000 
  358000   0.58948881   -1.6679374   0.88334898  -0.78458839   0.12895186    11576.166     1000 
  360000   0.60374114   -1.6410541    0.9047061  -0.73634799   0.13627947    11590.728     1000 
  362000   0.58390501    -1.682567   0.87498165  -0.80758537   0.12698344    11437.579     1000 
  364000   0.61108447   -1.6728041   0.91571008  -0.75709399   0.12462572    11662.679     1000 
  366000   0.59808054   -1.6817032   0.89622369  -0.78547955   0.13250483    11398.919     1000 
  368000   0.59913219   -1.6463455   0.89779958  -0.74854589   0.13010515    11480.007     1000 
  370000    0.5900478   -1.6998212   0.88418662  -0.81563462   0.12623651    11481.074     1000 
  372000   0.58569199   -1.6624071   0.87765945  -0.78474767   0.12795612    11505.751     1000 
  374000   0.59735408   -1.6750265   0.89513509  -0.77989141   0.14806557    11252.314     1000 
  376000   0.59166058    -1.699065   0.88660339  -0.81246162   0.13595805    11560.825     1000 
  378000   0.60398154    -1.690402   0.90506633  -0.78533567   0.12288422    11652.309     1000 
  380000    0.5584053   -1.6987645   0.83677034  -0.86199415   0.13414039    11488.001     1000 
  382000   0.59317526   -1.6826865   0.88887313  -0.79381335   0.13711482    11408.141     1000 
  384000   0.58032336   -1.6415242   0.86961456  -0.77190961   0.11682988    11508.498     1000 
  386000   0.60603259    -1.666807   0.90813984  -0.75866719   0.12969301     11597.24     1000 
  388000   0.56827105   -1.7144745   0.85155416  -0.86292033   0.12482866    11526.994     1000 
  390000   0.60786819   -1.7175471   0.91089049  -0.80665659   0.13197054    11433.022     1000 
  392000   0.58220528   -1.6905789   0.87243461  -0.81814425   0.12816499    11592.311     1000 
  394000   0.59768101   -1.7052421   0.89562499  -0.80961711   0.13171697    11525.373     1000 
  396000   0.58886094   -1.6471659   0.88240812  -0.76475774   0.13136173    11613.934     1000 
  398000   0.57217353   -1.6542699   0.85740204  -0.79686783   0.13272374    11455.224     1000 
  400000   0.55997569   -1.6775661   0.83912357  -0.83844254   0.12793174    11523.562     1000 
  402000   0.58592535   -1.6578982   0.87800914  -0.77988906   0.12187875    11525.328     1000 
  404000   0.56236299   -1.6920092   0.84270094  -0.84930823   0.12788269    11488.883     1000 
  406000   0.61073067   -1.6019523   0.91517991  -0.68677238   0.12015561    11500.291     1000 
  408000   0.56720861   -1.6528878   0.84996211  -0.80292566   0.13280739    11423.647     1000 
  410000   0.59015862   -1.6294007   0.88435269  -0.74504798   0.12890003     11437.38     1000 
  412000   0.58361864   -1.6310925   0.87455253  -0.75653993   0.11911022    11467.537     1000 
  414000   0.61599146   -1.6780104   0.92306321  -0.75494721   0.12649966    11426.178     1000 
  416000   0.57493001   -1.7051046   0.86153263  -0.84357201   0.11217759    11655.509     1000 
  418000   0.60309194   -1.6291759   0.90373327  -0.72544268   0.12914989    11479.046     1000 
  420000   0.56331717   -1.6864187   0.84413078   -0.8422879   0.12052201    11568.395     1000 
  422000   0.57634654   -1.6766505   0.86365529   -0.8129952   0.13730087    11531.873     1000 
  424000   0.60890362   -1.6469176   0.91244207  -0.73447551   0.13313651    11285.772     1000 
  426000   0.59326293   -1.7312893   0.88900451   -0.8422848   0.13082428    11705.876     1000 
  428000   0.61408185   -1.6936357   0.92020165  -0.77343403   0.11873211    11565.796     1000 
  430000   0.58056084   -1.6887882   0.86997042  -0.81881776   0.13582482    11335.124     1000 
  432000   0.61916737    -1.707306    0.9278223  -0.77948373   0.14115231    11404.486     1000 
  434000   0.58898401   -1.6918958   0.88259254  -0.80930331   0.13903682    11402.918     1000 
  436000    0.5908348   -1.7297196   0.88536595  -0.84435363   0.13247186    11449.903     1000 
  438000   0.59230321   -1.7455508   0.88756636  -0.85798444   0.12258658    11564.262     1000 
  440000   0.60910419   -1.7274481   0.91274263  -0.81470546   0.12210526    11610.116     1000 
  442000    0.5700726   -1.6964368    0.8542538  -0.84218299   0.13127914    11549.413     1000 
  444000   0.59414718   -1.6576475   0.89032955  -0.76731798   0.14762682    11233.561     1000 
  446000   0.56905591   -1.6959613   0.85273028  -0.84323105   0.14183718    11465.253     1000 
  448000   0.57556392   -1.6577875   0.86248254  -0.79530493   0.13436864    11500.335     1000 
  450000   0.58674925   -1.7074134   0.87924375  -0.82816964   0.11939935    11485.147     1000 
  452000    0.5732817   -1.7515572   0.85906262   -0.8924946   0.11391827     11679.99     1000 
  454000   0.61705224   -1.6316947   0.92465278  -0.70704193   0.13172564    11411.927     1000 
  456000   0.58504945    -1.711594    0.8766966  -0.83489743   0.12880744    11479.053     1000 
  458000   0.61653327   -1.6999659   0.92387511  -0.77609079   0.12613136    11590.892     1000 
  460000   0.58809263    -1.691467    0.8812568  -0.81021018   0.11447685    11677.986     1000 
  462000   0.58500393    -1.686006   0.87662838  -0.80937763   0.13510345    11609.519     1000 
  464000    0.5946619   -1.6779339   0.89110086  -0.78683302   0.14232467    11366.739     1000 
  466000   0.55250869   -1.6923425   0.82793428  -0.86440821   0.12414673    11633.942     1000 
  468000   0.59284631   -1.6799818    0.8883802  -0.79160157   0.13098647    11412.819     1000 
  470000   0.61549877   -1.6594173   0.92232491  -0.73709241   0.13297948    11602.762     1000 
  472000   0.58668355   -1.6979903    0.8791453  -0.81884504   0.12424583    11533.786     1000 
  474000   0.59310085   -1.6569761   0.88876162  -0.76821452   0.13007127    11548.161     1000 
  476000   0.56300946    -1.711004   0.84366968  -0.86733428   0.11690611    11649.398     1000 
  478000   0.58099311   -1.6511509   0.87061818  -0.78053276    0.1317134     11499.43     1000 
  480000   0.59668468   -1.7064505   0.89413199  -0.81231854    0.1139003    11744.267     1000 
  482000   0.58046751   -1.6847083   0.86983056  -0.81487777   0.13367076    11449.546     1000 
  484000    0.5716842   -1.7201373   0.85666877  -0.86346855   0.12412383     11568.45     1000 
  486000   0.58242481   -1.6810275   0.87276357  -0.80826392   0.12843814    11445.914     1000 
  488000   0.57127729   -1.7038626   0.85605902  -0.84780362   0.11588933     11531.46     1000 
  490000   0.58964263   -1.6504237   0.88357948  -0.76684425   0.12880018    11470.332     1000 
  492000   0.61873957   -1.6583512   0.92718125  -0.73116999   0.13140567    11451.663     1000 
  494000   0.57079027   -1.6082944   0.85532922  -0.75296518   0.14292593    11467.456     1000 
  496000   0.57061079   -1.6343256   0.85506026  -0.77926529    0.1258456    11288.958     1000 
  498000   0.59322192   -1.6579894   0.88894304  -0.76904635   0.13155088    11535.507     1000 
  500000   0.60866532   -1.6594896   0.91208499  -0.74740463   0.12770424    11462.358     1000 
  502000   0.60580646   -1.6870742   0.90780098  -0.77927324   0.14008219     11290.53     1000 
  504000   0.56865414   -1.7211115   0.85212823  -0.86898324   0.13456937     11376.28     1000 
  506000   0.60262668    -1.676721   0.90303608  -0.77368495   0.12113373    11564.249     1000 
  508000   0.59080036   -1.7163797   0.88531434   -0.8310654   0.12072229    11718.461     1000 
  510000   0.56688916   -1.6343022    0.8494834  -0.78481878   0.13492281    11538.524     1000 
  512000   0.57353079   -1.7067657   0.85943589  -0.84732981   0.13169687    11575.869     1000 
  514000   0.60683364   -1.6681357   0.90934021  -0.75879548   0.12394499    11575.813     1000 
  516000   0.56102102   -1.7167865      0.84069  -0.87609654   0.12995847    11434.996     1000 
  518000   0.57069126   -1.7160335   0.85518086  -0.86085263   0.13231295    11640.846     1000 
  520000    0.6080121   -1.6667836   0.91110613  -0.75567747   0.13304072    11452.076     1000 
  522000   0.57023012    -1.710423   0.85448983  -0.85593321   0.12347766    11582.989     1000 
  524000   0.56363231   -1.6892818   0.84460302  -0.84467878   0.11896996    11513.879     1000 
  526000    0.5733936   -1.7367538   0.85923031  -0.87752351   0.12526289    11505.414     1000 
  528000   0.59842668   -1.7255371   0.89674238  -0.82879475   0.13332924    11526.327     1000 
  530000   0.57555336   -1.7273399   0.86246671  -0.86487315   0.12140946    11692.346     1000 
  532000    0.5635101   -1.6565859   0.84441989  -0.81216605   0.11169284    11579.165     1000 
  534000   0.56553326   -1.7174117   0.84745159  -0.86996008   0.12887368    11576.411     1000 
  536000    0.5740967   -1.6910042   0.86028391  -0.83072033   0.13752577    11450.601     1000 
  538000   0.60046689   -1.6834543   0.89979964  -0.78365464   0.12661595    11609.565     1000 
  540000   0.59030238   -1.6448234   0.88456811  -0.76025525   0.12227302    11478.174     1000 
  542000   0.55697882   -1.6997173   0.83463276  -0.86508456   0.11769811    11584.165     1000 
  544000   0.56226681    -1.706911   0.84255682  -0.86435418   0.12691809    11451.441     1000 
  546000   0.60617396   -1.6974727   0.90835168  -0.78912102   0.12201064    11455.938     1000 
  548000    0.5988531   -1.6565907   0.89738137  -0.75920935   0.12329277    11491.281     1000 
  550000    0.6091037   -1.6537793    0.9127419  -0.74103736    0.1418392    11408.489     1000 
  552000   0.58470273   -1.7192357   0.87617704  -0.84305871   0.13813641    11482.625     1000 
  554000   0.57977694   -1.6853944   0.86879574  -0.81659865   0.14004722    11497.689     1000 
  556000   0.58065992   -1.7411076    0.8701189  -0.87098875   0.10359403    11785.204     1000 
  558000   0.56845402   -1.7140525   0.85182835  -0.86222415   0.11851432    11583.691     1000 
  560000   0.60889641   -1.6951368   0.91243127  -0.78270553   0.12500878    11531.376     1000 
  562000    0.5959402    -1.617692   0.89301639  -0.72467564   0.13047726     11441.92     1000 
  564000   0.60577096   -1.6832844   0.90774778   -0.7755366    0.1302119    11399.248     1000 
  566000    0.5748655   -1.6263588   0.86143595  -0.76492285   0.14051339    11386.291     1000 
  568000   0.58394981    -1.662308   0.87504878  -0.78725923   0.11444301     11619.76     1000 
  570000   0.58863216   -1.7023394   0.88206528  -0.82027415   0.12675159    11577.016     1000 
  572000   0.60314151   -1.6498052   0.90380755   -0.7459977   0.13131468    11352.542     1000 
  574000   0.57163531   -1.7039172   0.85659551   -0.8473217   0.12413185    11572.933     1000 
  576000   0.57922032   -1.7145954   0.86796165   -0.8466337   0.11437382    11624.037     1000 
  578000   0.58525918   -1.6862084   0.87701088  -0.80919757   0.12182754    11544.108     1000 
  580000   0.58896801   -1.6791027   0.88256856  -0.79653414   0.14181973    11281.594     1000 
  582000   0.58278216   -1.6579571   0.87329907  -0.78465799    0.1353728    11441.509     1000 
  584000   0.58025379   -1.6984705   0.86951031  -0.82896021   0.13614708    11547.973     1000 
  586000   0.59793067    -1.687547   0.89599912  -0.79154792   0.13293081    11419.742     1000 
  588000   0.60310446   -1.6952208   0.90375204  -0.79146879   0.12905489    11539.383     1000 
  590000   0.58115383   -1.6309768   0.87085901  -0.76011784   0.11876663    11600.887     1000 
  592000   0.59652378   -1.7066873   0.89389088  -0.81279642   0.11797637    11614.732     1000 
  594000   0.59336512   -1.7049289   0.88915764  -0.81577129   0.14691678    11257.213     1000 
  596000   0.56512181   -1.7966671   0.84683503   -0.9498321   0.12308913     11715.37     1000 
  598000   0.58308516   -1.6920996   0.87375311  -0.81834648   0.12484744    11607.513     1000 
  600000    0.6046206   -1.6679132   0.90602397  -0.76188922    0.1408627    11428.431     1000 
  602000   0.61507681   -1.6659383   0.92169259   -0.7442457   0.13624359    11414.165     1000 
  604000    0.5678701   -1.7014303   0.85095335  -0.85047697   0.13871721    11453.992     1000 
  606000   0.57255702   -1.7015152   0.85797669  -0.84353849   0.13032103    11436.905     1000 
  608000   0.58303058   -1.7069358   0.87367132  -0.83326446   0.10802849     11722.17     1000 
  610000    0.5764328   -1.6669522   0.86378455  -0.80316767    0.1381877    11332.277     1000 
  612000   0.58504133   -1.6879109   0.87668443  -0.81122644   0.13158241    11419.313     1000 
  614000   0.59121975   -1.7221863   0.88594279  -0.83624353   0.12682516    11589.219     1000 
  616000   0.59390057   -1.7161589   0.88996001  -0.82619892   0.12076164        11649     1000 
  618000   0.58817281   -1.6901126   0.88137696  -0.80873564    0.1379734    11557.877     1000 
  620000   0.57794684   -1.6850018   0.86605334  -0.81894849   0.13601847    11558.949     1000 
  622000   0.59951239    -1.665155   0.89836932  -0.76678566   0.12857795     11403.42     1000 
  624000   0.61255499    -1.706349   0.91791365  -0.78843539   0.12367825    11626.487     1000 
  626000   0.58403321   -1.6440433   0.87517376  -0.76886955   0.14031872    11496.115     1000 
  628000    0.6292453   -1.6702328   0.94292409  -0.72730873   0.14667438    11436.782     1000 
  630000   0.60294219   -1.6309685   0.90350887  -0.72745963   0.14414649    11135.668     1000 
  632000   0.60001675    -1.679604   0.89912511  -0.78047885   0.12437765     11444.88     1000 
  634000   0.57060066     -1.69925   0.85504509  -0.84420491   0.13897315     11392.52     1000 
  636000   0.57501597   -1.6261027   0.86166142  -0.76444129   0.13391258    11166.792     1000 
  638000   0.61591449   -1.6445428   0.92294786  -0.72159496   0.14519111    11314.385     1000 
  640000   0.58272308   -1.6693032   0.87321054  -0.79609263   0.12677432     11409.98     1000 
  642000   0.55868025   -1.7079331   0.83718235  -0.87075079   0.12328091    11559.596     1000 
  644000   0.58551489   -1.6783344   0.87739407  -0.80094032   0.13012101    11570.028     1000 
  646000   0.57789572   -1.7090699   0.86597673  -0.84309321   0.13150943    11503.196     1000 
  648000   0.59255408   -1.7346857   0.88794229  -0.84674342   0.13058811    11494.549     1000 
  650000    0.6053385   -1.6955233   0.90709974  -0.78842359   0.13756602    11436.502     1000 
  652000   0.59050178   -1.7004993   0.88486692  -0.81563241   0.13084574      11537.8     1000 
  654000    0.6130118   -1.6692023   0.91859818  -0.75060411   0.12968519    11678.487     1000 
  656000   0.60514943   -1.7596718   0.90681642  -0.85285542   0.13234394    11379.898     1000 
  658000   0.57344448   -1.6977126   0.85930655  -0.83840606   0.12115621    11572.802     1000 
  660000   0.59208596   -1.7319678   0.88724081    -0.844727   0.12319509    11591.697     1000 
  662000   0.60028878   -1.6400657   0.89953274  -0.74053293   0.13156868    11558.254     1000 
  664000   0.55677905   -1.6834139    0.8343334  -0.84908054   0.13323258     11538.57     1000 
  666000   0.59750687   -1.7666415   0.89536404  -0.87127747   0.13239702    11716.762     1000 
  668000   0.60015931   -1.6750565   0.89933873   -0.7757178   0.13479439    11335.434     1000 
  670000   0.62685104   -1.6893701   0.93933629  -0.75003383   0.13037107    11513.211     1000 
  672000   0.61855406   -1.6987924   0.92690326  -0.77188909   0.12097947    11553.129     1000 
  674000   0.58403872   -1.7331456   0.87518202  -0.85796358   0.11941107    11655.324     1000 
  676000   0.58236336    -1.671931    0.8726715  -0.79925953   0.13405362    11352.202     1000 
  678000   0.60195824   -1.6807372   0.90203443   -0.7787028   0.13464976    11468.113     1000 
  680000   0.59190405    -1.675221   0.88696822  -0.78825278   0.13965808    11360.258     1000 
  682000   0.60277853   -1.6669046   0.90326363  -0.76364092   0.13836447    11531.336     1000 
  684000    0.5741607   -1.6471146   0.86037981  -0.78673483   0.13714231    11385.509     1000 
  686000   0.58428272   -1.6970397   0.87554765  -0.82149208   0.13837695    11451.825     1000 
  688000   0.58037203   -1.6912762   0.86968748   -0.8215887   0.12236482    11708.391     1000 
  690000   0.60449527   -1.7136784   0.90583616   -0.8078422    0.1335053    11509.638     1000 
  692000    0.5794763   -1.6715099   0.86834524  -0.80316462   0.12923044    11538.637     1000 
  694000   0.58583462   -1.6764204   0.87787317  -0.79854725   0.13431353    11392.227     1000 
  696000   0.57846879   -1.6874235   0.86683548  -0.82058806   0.12126653    11530.471     1000 
  698000   0.63675868   -1.6617648   0.95418289   -0.7075819   0.12712304     11408.72     1000 
  700000   0.59256263   -1.6573786    0.8879551  -0.76942349   0.13347479    11532.829     1000 
  702000   0.59866663   -1.6706243   0.89710195  -0.77352232   0.11840599    11551.262     1000 
  704000   0.58348955   -1.7531939   0.87435909   -0.8788348   0.14361599    11400.065     1000 
  706000   0.60706307   -1.6998952     0.909684  -0.79021115   0.13742901    11485.069     1000 
  708000    0.5880739   -1.6706308   0.88122874  -0.78940209   0.12027637    11484.747     1000 
  710000   0.59547301   -1.6910074    0.8923163  -0.79869108   0.12895374     11591.43     1000 
  712000   0.55040131   -1.7094977   0.82477636  -0.88472138   0.12598672    11625.466     1000 
  714000   0.61530482   -1.6458647   0.92203428  -0.72383044   0.12416077    11617.454     1000 
  716000   0.61701273   -1.6744957   0.92459357  -0.74990215   0.13775925    11430.242     1000 
  718000   0.58646221   -1.6448338   0.87881362  -0.76602015   0.14107541    11564.014     1000 
  720000   0.58277956   -1.7097765   0.87329517  -0.83648136   0.12116064    11672.685     1000 
  722000    0.6042676   -1.7071046     0.905495  -0.80160959   0.13746508    11379.162     1000 
  724000   0.60895314   -1.7113955   0.91251629  -0.79887922   0.13774658    11465.782     1000 
  726000    0.6036967    -1.726791   0.90463951  -0.82215153    0.1385761    11361.844     1000 
  728000   0.61270174   -1.7347826   0.91813355  -0.81664906    0.1221795    11682.641     1000 
  730000   0.62290387   -1.6355269   0.93342146  -0.70210546   0.14070146     11331.89     1000 
  732000   0.59545467   -1.7000144   0.89228883  -0.80772554   0.12949374    11443.138     1000 
  734000    0.5661348   -1.7065778   0.84835299  -0.85822478   0.12261283    11514.457     1000 
  736000   0.59305326   -1.6702847   0.88869031  -0.78159437   0.13209103    11521.986     1000 
  738000   0.59058967   -1.6649435   0.88499862  -0.77994484   0.12682489    11410.556     1000 
  740000   0.59091233   -1.7315139   0.88548212  -0.84603173   0.12699285    11621.365     1000 
  742000   0.60719849   -1.7316536   0.90988693  -0.82176665   0.12475959    11557.379     1000 
  744000   0.59434085   -1.6656883   0.89061977  -0.77506853   0.12769017    11572.587     1000 
  746000   0.62239091   -1.6418453   0.93265278  -0.70919253   0.13838859    11562.647     1000 
  748000   0.59326322   -1.7179173   0.88900494  -0.82891236   0.12431106    11601.576     1000 
  750000   0.58650978   -1.7034081   0.87888491  -0.82452323   0.12764731    11416.057     1000 
  752000    0.5828566   -1.6957116   0.87341061    -0.822301   0.12744825    11524.549     1000 
  754000   0.59603247   -1.6921748   0.89315466  -0.79902011   0.13151496    11418.574     1000 
  756000   0.58162639   -1.6491878   0.87156714  -0.77762063    0.1234418    11602.178     1000 
  758000   0.56482881   -1.6864571   0.84639598  -0.84006116   0.13662587    11417.095     1000 
  760000   0.57101042   -1.7128779   0.85565912  -0.85721876   0.13510046    11552.811     1000 
  762000   0.58022516   -1.7117136    0.8694674  -0.84224622   0.11868099    11533.893     1000 
  764000   0.59863739   -1.6602463   0.89705813  -0.76318816   0.13855032    11286.448     1000 
  766000   0.56498566   -1.6439817   0.84663101  -0.79735064   0.12732299    11558.936     1000 
  768000   0.57956008   -1.6965364   0.86847078  -0.82806563   0.13026121    11530.823     1000 
  770000   0.58431206   -1.6674414   0.87559163  -0.79184977   0.13345434    11533.538     1000 
  772000    0.5933073   -1.6712221   0.88907099  -0.78215109   0.12960214    11491.335     1000 
  774000   0.59488412   -1.6910098   0.89143386  -0.79957596   0.13178628    11377.191     1000 
  776000   0.62730124   -1.7330663   0.94001091  -0.79305535   0.11936346    11776.117     1000 
  778000   0.61204988   -1.7333164   0.91715674   -0.8161597   0.13761907    11438.565     1000 
  780000   0.61767415   -1.7011434   0.92558472  -0.77555866   0.13199466    11377.728     1000 
  782000   0.56076836   -1.6782091   0.84031139  -0.83789772   0.12337499    11387.763     1000 
  784000   0.58157811   -1.6862591   0.87149481  -0.81476427   0.13873897    11466.321     1000 
  786000    0.5970119   -1.6605565   0.89462233  -0.76593415   0.13260068    11435.799     1000 
  788000   0.56076109   -1.6597141    0.8403005  -0.81941362   0.12084321     11584.56     1000 
  790000   0.57433554   -1.6982013    0.8606418  -0.83755947   0.12333538    11572.426     1000 
  792000   0.57506746   -1.6853611   0.86173859   -0.8236225   0.13587713     11527.35     1000 
  794000   0.58858721    -1.706032   0.88199794  -0.82403404   0.12402109    11459.186     1000 
  796000   0.57487811   -1.6823647   0.86145484   -0.8209099   0.13425541    11453.329     1000 
  798000    0.5750012   -1.6384593    0.8616393  -0.77682001   0.14307014    11213.746     1000 
  800000   0.59854481   -1.6724996    0.8969194   -0.7755802    0.1411899    11359.089     1000 
  802000   0.61343955   -1.7078922   0.91923916    -0.788653   0.13001918    11645.451     1000 
  804000   0.59013531   -1.6893825   0.88431776  -0.80506472   0.12111674    11519.853     1000 
  806000    0.5804738   -1.7580837      0.86984  -0.88824372   0.12796112    11527.259     1000 
  808000   0.59981979   -1.7456406   0.89882995  -0.84681069   0.13168869    11569.953     1000 
  810000   0.56744614   -1.6829874   0.85031805  -0.83266931   0.12497465    11601.802     1000 
  812000   0.58684776   -1.6672547   0.87939137  -0.78786335   0.11614357    11563.719     1000 
  814000   0.60706822    -1.678526   0.90969172   -0.7688343    0.1310501    11497.495     1000 
  816000   0.59010037   -1.6769149    0.8842654  -0.79264949   0.13394471    11376.457     1000 
  818000   0.55693462    -1.670231   0.83456653  -0.83566446   0.13776261    11487.882     1000 
  820000   0.59822946   -1.6449733   0.89644685  -0.74852645   0.13176712    11395.664     1000 
  822000   0.57741186   -1.6561411   0.86525168   -0.7908894   0.13453028    11464.991     1000 
  824000   0.57259625   -1.6738626   0.85803547  -0.81582714   0.11917746    11450.077     1000 
  826000   0.56463199   -1.7366888   0.84610103   -0.8905878   0.11894611    11586.593     1000 
  828000   0.60735674   -1.7287845   0.91012407  -0.81866041   0.13304082    11568.316     1000 
  830000   0.61377338   -1.7077412   0.91973941  -0.78800182   0.13914811    11504.681     1000 
  832000   0.60112103   -1.6548583   0.90077986  -0.75407841   0.11325331     11719.36     1000 
  834000   0.58500931   -1.7280965   0.87663645  -0.85146003   0.11563266    11711.274     1000 
  836000   0.59776469   -1.7060256   0.89575038   -0.8102752   0.12623399    11645.931     1000 
  838000   0.59737276   -1.6440962   0.89516308  -0.74893309   0.13972911    11457.362     1000 
  840000   0.59436029   -1.6748228   0.89064889  -0.78417396   0.12932921    11480.524     1000 
  842000    0.6016308   -1.6879395   0.90154376  -0.78639576   0.12420087    11455.761     1000 
  844000   0.57511516   -1.6743964   0.86181006  -0.81258638   0.13117587     11406.96     1000 
  846000   0.61250539   -1.6550444   0.91783933  -0.73720503   0.14000038    11360.613     1000 
  848000   0.58808462   -1.7125175    0.8812448  -0.83127267   0.13208082    11456.806     1000 
  850000   0.56225777   -1.7355448   0.84254327  -0.89300153   0.12599797    11568.254     1000 
  852000   0.58137627   -1.6893127   0.87119235   -0.8181204    0.1290871      11590.3     1000 
  854000   0.59668439    -1.701231   0.89413155  -0.80709949   0.13056936    11443.837     1000 
  856000   0.60070783   -1.6419499   0.90016068  -0.74178922     0.141697    11420.226     1000 
  858000   0.57996644   -1.6703493   0.86907971  -0.80126958   0.13605166        11431     1000 
  860000   0.59227867   -1.7502689   0.88752959  -0.86273931   0.13076184    11655.802     1000 
  862000   0.62994876   -1.7165657   0.94397822  -0.77258743   0.12687639    11628.236     1000 
  864000    0.6072831   -1.6838998   0.91001373  -0.77388605   0.12736678    11534.512     1000 
  866000   0.61368394   -1.7278149   0.91960538   -0.8082095   0.12323345    11675.816     1000 
  868000   0.56708047   -1.6679431   0.84977008  -0.81817306   0.13544677    11466.777     1000 
  870000   0.59744094   -1.6560053   0.89526525  -0.76074006   0.13701026    11271.783     1000 
  872000   0.57273906   -1.6924371   0.85824947  -0.83418765   0.12328391    11523.034     1000 
  874000   0.60147812   -1.6795776   0.90131496  -0.77826261   0.13553056    11306.083     1000 
  876000   0.58933507   -1.7352547    0.8831186  -0.85213615   0.12169315     11592.26     1000 
  878000   0.57955691   -1.6754684   0.86846604  -0.80700235   0.14358981    11391.176     1000 
  880000    0.5832571   -1.7066077   0.87401076  -0.83259695   0.12741986     11607.15     1000 
  882000   0.57958883   -1.6897558   0.86851386   -0.8212419   0.12603393    11527.881     1000 
  884000    0.5850882   -1.6410708   0.87675467  -0.76431611   0.14052999    11245.082     1000 
  886000   0.59720059   -1.7124319   0.89490508  -0.81752687   0.14332434    11365.123     1000 
  888000   0.58644732   -1.6244995   0.87879131  -0.74570819   0.14009319    11411.336     1000 
  890000   0.58820716   -1.6847265   0.88142843  -0.80329806    0.1247358     11505.24     1000 
  892000    0.5919065   -1.6645397   0.88697189  -0.77756781   0.13776104    11313.544     1000 
  894000    0.5721805   -1.6740414   0.85741248  -0.81662894    0.1274752    11462.251     1000 
  896000   0.61032663   -1.6964317   0.91457445  -0.78185722   0.11364451    11781.299     1000 
  898000   0.58876906   -1.6594165   0.88227044  -0.77714608   0.13633887    11566.992     1000 
  900000   0.61108858   -1.7079986   0.91571624  -0.79228237   0.13421522     11544.54     1000 
  902000   0.60921507   -1.6814852   0.91290879  -0.76857639   0.13111508    11478.743     1000 
  904000   0.59636962   -1.6525003   0.89365988  -0.75884044    0.1288671    11475.895     1000 
  906000   0.59409685   -1.6867521   0.89025413  -0.79649798   0.13280716    11468.269     1000 
  908000   0.58990634   -1.7203629   0.88397465  -0.83638826    0.1185338    11725.364     1000 
  910000   0.58946501   -1.7242151   0.88331332  -0.84090175   0.13199917    11435.138     1000 
  912000   0.60534547   -1.7220163   0.90711018  -0.81490616   0.13712211    11464.947     1000 
  914000   0.58510508   -1.7020468   0.87677996  -0.82526682    0.1245282    11570.402     1000 
  916000   0.59014749    -1.706121   0.88433602  -0.82178495    0.1348394    11583.046     1000 
  918000   0.59578353    -1.674786   0.89278162  -0.78200441   0.13663384    11452.787     1000 
  920000   0.59782415   -1.6584339   0.89583948  -0.76259442   0.12941648    11322.722     1000 
  922000   0.58655614   -1.7082542   0.87895437  -0.82929979   0.12933319    11423.091     1000 
  924000    0.5993061   -1.7005926    0.8980602  -0.80253241   0.13409953    11404.501     1000 
  926000   0.62421516   -1.7031047   0.93538641  -0.76771833   0.13576776    11487.688     1000 
  928000   0.58519404   -1.7388501   0.87691327  -0.86193682   0.11686847     11638.77     1000 
  930000   0.60950861   -1.6825476   0.91334865   -0.7691989   0.13920713    11357.877     1000 
  932000   0.58781457   -1.6678166   0.88084013  -0.78697644   0.13492247    11332.532     1000 
  934000    0.5895094   -1.7348782   0.88337984  -0.85149835   0.12868759    11704.304     1000 
  936000   0.58317258   -1.7402574   0.87388412  -0.86637331   0.12907312    11681.835     1000 
  938000   0.62251961   -1.6804211   0.93284564  -0.74757543   0.13671944    11600.454     1000 
  940000   0.58317386   -1.6143954   0.87388603   -0.7405094   0.14550766    11347.402     1000 
  942000   0.62301852   -1.7113683   0.93359326  -0.77777504   0.13507159    11368.705     1000 
  944000   0.56798262   -1.6309098   0.85112195  -0.77978786   0.14142107    11451.205     1000 
  946000   0.60817312   -1.7049342   0.91134742   -0.7935868   0.11361494    11588.219     1000 
  948000   0.58476922   -1.6925516   0.87627667  -0.81627491   0.12811872    11573.751     1000 
  950000   0.61193135   -1.6117404   0.91697913  -0.69476131   0.14073098    11381.956     1000 
  952000   0.59852511   -1.7382166   0.89688987  -0.84132669   0.12879513     11445.36     1000 
  954000   0.58140859   -1.7152626   0.87124078  -0.84402186   0.14456874    11363.691     1000 
  956000   0.60938702   -1.6761322   0.91316644  -0.76296572   0.14309452    11330.546     1000 
  958000   0.61669399   -1.7374326   0.92411595   -0.8133166   0.15001037    11313.516     1000 
  960000   0.60845926   -1.6811787    0.9117762  -0.76940255   0.13317108    11434.061     1000 
  962000   0.58343861   -1.6923356   0.87428276  -0.81805281   0.13234035    11543.659     1000 
  964000   0.61752079   -1.7257315    0.9253549  -0.80037659   0.13430322    11428.637     1000 
  966000   0.61108434   -1.6862413   0.91570988  -0.77053143   0.13342302    11458.027     1000 
  968000   0.61479921    -1.704616   0.92127662   -0.7833394    0.1433332    11463.149     1000 
  970000   0.59870983   -1.6379771   0.89716668  -0.74081046   0.12910586    11451.711     1000 
  972000   0.62211584   -1.7146233   0.93224058  -0.78238269   0.11851328     11694.24     1000 
  974000   0.56583187   -1.6880692   0.84789905   -0.8401701   0.12616744    11419.665     1000 
  976000   0.59544991   -1.6774929   0.89228169  -0.78521123   0.12932571    11463.376     1000 
  978000   0.59325128   -1.6451901   0.88898704  -0.75620302   0.13847348    11364.633     1000 
  980000   0.60512451   -1.7235679   0.90677908  -0.81678887   0.12911042     11575.06     1000 
  982000   0.58931686   -1.6737708   0.88309132   -0.7906795   0.12280957    11664.877     1000 
  984000    0.5894858   -1.6583843   0.88334446   -0.7750398   0.12276666    11715.179     1000 
  986000   0.58336481   -1.7338039   0.87417217  -0.85963178    0.1299714     11540.77     1000 
  988000   0.59288964   -1.6835971   0.88844513  -0.79515202   0.13461007    11560.541     1000 
  990000   0.60691249   -1.6851132   0.90945837  -0.77565488   0.13381763    11458.228     1000 
  992000   0.58045494   -1.6454683   0.86981172  -0.77565662   0.12247988    11542.045     1000 
  994000   0.60072761   -1.7232362   0.90019033  -0.82304591   0.13167945    11430.613     1000 
  996000   0.57135745   -1.6512695   0.85617914  -0.79509031   0.12803193    11474.654     1000 
  998000   0.57989013   -1.6383027   0.86896536   -0.7693373   0.11972677    11642.269     1000 
 1000000   0.56778506   -1.6679192   0.85082591  -0.81709326   0.13174259    11465.407     1000 
 1002000   0.56380361   -1.7354353    0.8448597  -0.89057555   0.12638532    11498.677     1000 
 1004000    0.6078866   -1.6795681   0.91091807  -0.76865004    0.1376493    11317.501     1000 
 1006000    0.5880936   -1.6762936   0.88125827   -0.7950353    0.1437771     11397.62     1000 
 1008000    0.5941919   -1.7174938   0.89039656  -0.82709725   0.12147796    11557.077     1000 
 1010000   0.58565194   -1.6634702   0.87759943  -0.78587072   0.14385342    11395.288     1000 
 1012000   0.59295671   -1.6988072   0.88854563  -0.81026159   0.12973181    11501.215     1000 
 1014000   0.57232306   -1.6754874   0.85762611  -0.81786133   0.13673201    11494.237     1000 
 1016000   0.56932047   -1.6852885   0.85312673  -0.83216176   0.13715302    11334.602     1000 
 1018000   0.60075603   -1.7014267   0.90023291  -0.80119382   0.13561523    11589.939     1000 
 1020000   0.60220235   -1.6875724   0.90240022   -0.7851722   0.13149097    11361.636     1000 
 1022000   0.60100024   -1.6839539   0.90059886  -0.78335502   0.13560466    11419.098     1000 
 1024000   0.58002064    -1.674293   0.86916093  -0.80513206   0.12483763    11496.938     1000 
 1026000   0.58399937    -1.695835   0.87512306  -0.82071198   0.12397159    11606.892     1000 
 1028000   0.58323225   -1.7286402   0.87397353   -0.8546667   0.12758787    11486.105     1000 
 1030000   0.58219401   -1.6947825   0.87241773  -0.82236477   0.12276158    11438.394     1000 
 1032000   0.60412921   -1.6974947   0.90528762  -0.79220708   0.14140751     11275.49     1000 
 1034000   0.58650339   -1.7426596   0.87887533  -0.86378428   0.12399906    11578.607     1000 
 1036000   0.60804385   -1.7199746    0.9111537  -0.80882093   0.12572746    11636.171     1000 
 1038000   0.58632044   -1.6791178   0.87860117  -0.80051662   0.11847876    11602.765     1000 
 1040000   0.59922097   -1.6792689   0.89793262  -0.78133631   0.13244942    11459.006     1000 
 1042000   0.56557377   -1.6618429   0.84751229  -0.81433057   0.13465838    11452.319     1000 
 1044000   0.57297025   -1.7095299   0.85859593  -0.85093402   0.13205581     11524.35     1000 
 1046000   0.59220333   -1.6772221   0.88741669  -0.78980545   0.12147729    11550.611     1000 
 1048000   0.59051224   -1.6633555   0.88488259  -0.77847288   0.13827312    11387.309     1000 
 1050000   0.57262776   -1.6952445    0.8580827  -0.83716184    0.1239726     11608.66     1000 
 1052000   0.60169865    -1.669593   0.90164543  -0.76794754   0.13703265    11487.922     1000 
 1054000   0.59227852    -1.621356   0.88752936  -0.73382664   0.12816683    11401.661     1000 
 1056000   0.58676634   -1.6953845   0.87926937  -0.81611512   0.13857242    11540.267     1000 
 1058000   0.57582407   -1.6977763   0.86287237   -0.8349039   0.12664094    11484.342     1000 
 1060000    0.5781199   -1.6698288   0.86631268  -0.80351609   0.11912018    11507.978     1000 
 1062000   0.61167109   -1.7514876   0.91658913  -0.83489842   0.13124544    11566.888     1000 
 1064000   0.58303042   -1.7105457   0.87367108  -0.83687459    0.1242051    11725.592     1000 
 1066000   0.60205742   -1.6701816   0.90218304  -0.76799851    0.1378167    11351.558     1000 
 1068000   0.59105953   -1.6552811   0.88570271  -0.76957839   0.13232416    11541.385     1000 
 1070000   0.59515321   -1.6626079   0.89183708  -0.77077079   0.13125621      11641.4     1000 
 1072000   0.56561528   -1.6486722    0.8475745  -0.80109771   0.12344202    11554.102     1000 
 1074000   0.57988719   -1.6656798   0.86896096  -0.79671881   0.12054226    11451.463     1000 
 1076000    0.6132653   -1.7312547   0.91897805   -0.8122766   0.13612123    11508.897     1000 
 1078000   0.59037181    -1.710792   0.88467216  -0.82611987   0.11842776    11551.669     1000 
 1080000   0.56639451   -1.7142241   0.84874217  -0.86548195   0.12703167    11536.108     1000 
 1082000    0.5786766   -1.6948435   0.86714688  -0.82769658   0.13409505    11425.169     1000 
 1084000   0.58402927   -1.7389822   0.87516786  -0.86381434   0.12593722    11470.185     1000 
 1086000   0.60899284   -1.6823783   0.91257577  -0.76980251   0.13052477    11677.445     1000 
 1088000   0.61070959   -1.7414949   0.91514832  -0.82634657    0.1279262    11582.965     1000 
 1090000   0.57513966   -1.6787956   0.86184678  -0.81694882   0.11989018    11578.024     1000 
 1092000   0.60034727   -1.6924363   0.89962039  -0.79281592   0.14163993    11383.463     1000 
 1094000   0.57442738   -1.6661818   0.86077943  -0.80540235   0.12934991    11388.731     1000 
 1096000   0.59784916   -1.6770497   0.89587696   -0.7811727   0.14716874    11197.958     1000 
 1098000   0.58814023   -1.6443237   0.88132814  -0.76299553    0.1279001    11462.672     1000 
 1100000    0.5906633   -1.6772471   0.88510895  -0.79213817   0.13584759    11526.986     1000 
 1102000   0.60214254   -1.6699782   0.90231059  -0.76766762   0.14451953    11300.211     1000 
 1104000   0.59409114   -1.6764822   0.89024557  -0.78623666   0.13060238    11429.444     1000 
 1106000   0.59068747   -1.6901586   0.88514518  -0.80501341   0.13609753    11516.658     1000 
 1108000    0.6007134   -1.6570598   0.90016903  -0.75689081   0.14309945    11288.128     1000 
 1110000    0.6118117   -1.6485691   0.91679983  -0.73176924   0.12101242    11495.781     1000 
 1112000   0.59010058   -1.6948642   0.88426572  -0.81059847   0.12943936    11432.186     1000 
 1114000   0.59169824   -1.7420812   0.88665982   -0.8554214   0.12030875    11701.273     1000 
 1116000   0.60236805   -1.7534663   0.90264853  -0.85081778   0.13372844    11535.333     1000 
 1118000   0.60559119   -1.7153273    0.9074784  -0.80784888    0.1344879    11498.768     1000 
 1120000   0.56838055   -1.7246164   0.85171825  -0.87289815   0.12483067    11671.602     1000 
 1122000   0.59114976   -1.6739368   0.88583792  -0.78809888   0.13110944    11489.731     1000 
 1124000   0.59545129   -1.6659388   0.89228377  -0.77365502   0.13407331    11495.386     1000 
 1126000   0.56335578   -1.7615035   0.84418863  -0.91731485   0.12458899    11421.247     1000 
 1128000   0.58619357   -1.7010798   0.87841106   -0.8226687   0.13362815    11573.821     1000 
 1130000   0.58948389   -1.7031471    0.8833416  -0.81980546   0.12581884    11649.133     1000 
 1132000   0.60008736   -1.6663925   0.89923091  -0.76716163   0.13089201    11422.331     1000 
 1134000   0.60042923    -1.685193    0.8997432  -0.78544985   0.12947641    11441.497     1000 
 1136000   0.58215028   -1.6965544    0.8723522  -0.82420217   0.12720739    11496.012     1000 
 1138000   0.59153749   -1.7467757   0.88641893  -0.86035672   0.13785153    11437.002     1000 
 1140000   0.57816973   -1.6711458   0.86638733  -0.80475851   0.13806743    11419.158     1000 
 1142000    0.5848819   -1.6781209   0.87644553  -0.80167535   0.12849374      11411.3     1000 
 1144000   0.56998268   -1.7350822   0.85411904  -0.88096311   0.12182844    11630.154     1000 
 1146000   0.57018342   -1.6965861   0.85441986   -0.8421662   0.12981274    11465.923     1000 
 1148000    0.6019105   -1.6306353   0.90196288  -0.72867237   0.14062586    11473.794     1000 
 1150000   0.58603101   -1.6704121   0.87816748   -0.7922446   0.12889796    11328.005     1000 
 1152000   0.60370583   -1.6805008   0.90465319  -0.77584759   0.13621688    11373.393     1000 
 1154000   0.55222906    -1.691384   0.82751525  -0.86386874   0.12556761     11439.17     1000 
 1156000   0.59721872   -1.6780325   0.89493225  -0.78310021   0.13721431    11489.533     1000 
 1158000   0.58488742   -1.6550495    0.8764538  -0.77859573   0.11438298    11591.582     1000 
 1160000   0.56884252    -1.690865   0.85241052  -0.83845444   0.12266471    11639.023     1000 
 1162000   0.59066176   -1.6814663   0.88510665   -0.7963596   0.14390217    11399.865     1000 
 1164000   0.57703882   -1.6623024   0.86469267  -0.79760975   0.12837608      11496.3     1000 
 1166000   0.59916945   -1.6716226   0.89785542  -0.77376721   0.12402711    11506.271     1000 
 1168000    0.5927597   -1.7397849   0.88825041  -0.85153448   0.13352709    11345.051     1000 
 1170000   0.59306671   -1.6983649   0.88871046  -0.80965447   0.11772162    11473.281     1000 
 1172000   0.58555014    -1.691175   0.87744688  -0.81372807   0.13132796    11580.608     1000 
 1174000     0.602057   -1.6300311   0.90218242  -0.72784868   0.13123079    11667.883     1000 
 1176000   0.59730846   -1.7126527   0.89506673  -0.81758593   0.13016406    11512.723     1000 
 1178000   0.58629339   -1.7022884   0.87856065  -0.82372771   0.14101897    11481.325     1000 
 1180000   0.60842177   -1.6921397   0.91172002  -0.78041963   0.13869762    11321.094     1000 
 1182000    0.5791401   -1.6360014   0.86784145     -0.76816   0.12789624    11416.275     1000 
 1184000   0.58734899   -1.6789525   0.88014247  -0.79881006   0.12839392    11477.092     1000 
 1186000   0.58938101    -1.647049   0.88318745   -0.7638615   0.12585102    11670.575     1000 
 1188000   0.56552467   -1.6892142   0.84743871  -0.84177548   0.12470929    11459.464     1000 
 1190000   0.60742481   -1.6928858   0.91022608  -0.78265967   0.14626604    11354.248     1000 
 1192000   0.57765878   -1.6548608   0.86562168  -0.78923911   0.13564403    11501.303     1000 
 1194000   0.59612248   -1.7114043   0.89328954  -0.81811474   0.13708086    11540.704     1000 
 1196000    0.5949136   -1.7043214   0.89147803   -0.8128434    0.1189547    11579.264     1000 
 1198000   0.58384611   -1.6801328   0.87489339  -0.80523944   0.12666656    11593.026     1000 
 1200000   0.58949296   -1.6745816    0.8833552  -0.79122644   0.12650304    11583.748     1000 
 1202000   0.59926535   -1.6709304   0.89799913  -0.77293128   0.12977658     11463.97     1000 
 1204000   0.60831921   -1.6511174   0.91156634  -0.73955106   0.13549168     11499.66     1000 
 1206000   0.59636257   -1.6792611   0.89364931  -0.78561179    0.1195839    11520.897     1000 
 1208000   0.56541245   -1.6387901   0.84727056  -0.79151954   0.11291355    11541.276     1000 
 1210000   0.60088846   -1.6624021   0.90043135  -0.76197079   0.14078329      11340.2     1000 
 1212000   0.59355466    -1.633742   0.88944166  -0.74430038   0.13726435    11483.503     1000 
 1214000   0.58845783   -1.6567314   0.88180405   -0.7749273   0.13649784    11419.049     1000 
 1216000   0.60873881   -1.6966034    0.9121951  -0.78440826   0.13096672    11429.487     1000 
 1218000   0.61708035   -1.6738338   0.92469491  -0.74913894   0.13137405    11512.286     1000 
 1220000   0.57967838   -1.7261005   0.86864805  -0.85745246   0.12660286    11595.226     1000 
 1222000   0.58658859   -1.6914041   0.87900301  -0.81240114   0.12687061    11660.469     1000 
 1224000   0.59689301   -1.6923806   0.89444418  -0.79793639   0.13028196    11478.841     1000 
 1226000   0.61521079   -1.6887002   0.92189337  -0.76680681   0.13188408    11752.621     1000 
 1228000   0.58922172    -1.675451   0.88294875  -0.79250227     0.132575    11584.166     1000 
 1230000   0.59680509   -1.6730033   0.89431242  -0.77869086   0.13174774    11398.331     1000 
 1232000   0.60149298   -1.6341377   0.90133723  -0.73280044   0.12994711    11567.431     1000 
 1234000   0.59583496   -1.6346278   0.89285869  -0.74176913   0.13688214    11291.834     1000 
 1236000   0.58928174   -1.7199433   0.88303868  -0.83690465   0.13273143    11411.174     1000 
 1238000   0.59622007    -1.624035   0.89343577  -0.73059919   0.12450649    11497.792     1000 
 1240000   0.60516454   -1.6329536   0.90683906  -0.72611453   0.13203939      11560.7     1000 
 1242000   0.61227275   -1.6521303   0.91749071  -0.73463957   0.12641967    11456.255     1000 
 1244000   0.59392611   -1.6746454   0.88999828  -0.78464714   0.14659502     11364.84     1000 
 1246000   0.60196251   -1.7351523   0.90204082  -0.83311143   0.12503877    11563.424     1000 
 1248000   0.60214114   -1.7021422    0.9023085  -0.79983373   0.12242546    11587.351     1000 
 1250000    0.5799827   -1.6937986   0.86910408  -0.82469452   0.12831863    11444.733     1000 
 1252000   0.59567946   -1.7139899   0.89262568  -0.82136418   0.13027494    11618.461     1000 
 1254000    0.5952656   -1.6953341    0.8920055  -0.80332859   0.11801491    11592.181     1000 
 1256000   0.59059359   -1.7397254   0.88500449  -0.85472087   0.12613038    11578.168     1000 
 1258000   0.60789594     -1.72501   0.91093207  -0.81407796   0.12734364    11705.796     1000 
 1260000   0.59475347   -1.6722477   0.89123808  -0.78100959   0.12565882    11527.101     1000 
 1262000   0.57832127    -1.698223   0.86661442  -0.83160857   0.13557971    11410.512     1000 
 1264000   0.59083924   -1.7429731    0.8853726  -0.85760048   0.13322208    11508.703     1000 
 1266000   0.58536765   -1.7326414   0.87717343  -0.85546796    0.1205924    11660.752     1000 
 1268000   0.60195776   -1.7059914    0.9020337  -0.80395769    0.1396256    11542.994     1000 
 1270000   0.58382145   -1.6581281   0.87485644  -0.78327164   0.12834676    11529.439     1000 
 1272000   0.60670166   -1.7326562   0.90914243  -0.82351375   0.13792993    11466.066     1000 
 1274000    0.6155646    -1.647175   0.92242356   -0.7247514   0.14167614    11304.143     1000 
 1276000   0.57617194   -1.6882262   0.86339366  -0.82483251   0.13316334    11453.219     1000 
 1278000   0.57401506   -1.6736345   0.86016156  -0.81347299   0.13324157    11457.692     1000 
 1280000   0.60538275   -1.6981408   0.90716604  -0.79097477   0.12487766    11539.925     1000 
 1282000   0.58107716   -1.6837941   0.87074413  -0.81304995   0.12846656    11590.424     1000 
 1284000   0.57434891   -1.6845988   0.86066184  -0.82393691   0.14246961    11284.458     1000 
 1286000    0.5748535   -1.6789446   0.86141797  -0.81752665   0.13149757     11482.46     1000 
 1288000    0.5710832   -1.6449845   0.85576818  -0.78921634   0.13672212    11458.278     1000 
 1290000   0.58907588   -1.6751676    0.8827302  -0.79243737   0.12643883    11641.279     1000 
 1292000   0.61053153   -1.6982839    0.9148815  -0.78340237   0.12963734    11599.396     1000 
 1294000   0.57392703    -1.670051   0.86002965  -0.81002133   0.13083937    11465.474     1000 
 1296000   0.59600202   -1.7141683   0.89310903  -0.82105928   0.12071524    11576.224     1000 
 1298000   0.58238966   -1.6892416   0.87271091   -0.8165307   0.11818345    11480.458     1000 
 1300000   0.57106139   -1.6882079    0.8557355  -0.83247238   0.11390541    11700.604     1000 
 1302000   0.57826615   -1.6636836   0.86653182  -0.79715177   0.12734406    11492.986     1000 
 1304000   0.56700598   -1.6960853   0.84965846  -0.84642685   0.13473627    11527.817     1000 
 1306000   0.58175552   -1.6456608   0.87176064  -0.77390017   0.12792713    11542.171     1000 
 1308000   0.58513076   -1.6268203   0.87681844  -0.75000181   0.13287694    11494.988     1000 
 1310000   0.59905626   -1.7023171    0.8976858  -0.80463133   0.14184851    11292.694     1000 
 1312000   0.60079018   -1.6927381   0.90028409  -0.79245405   0.12665657    11532.176     1000 
 1314000   0.57008008   -1.6905948     0.854265  -0.83632976   0.13278246     11443.12     1000 
 1316000   0.58839856   -1.6720483   0.88171524  -0.79033309   0.13975785    11390.688     1000 
 1318000   0.58244518   -1.6805211   0.87279409  -0.80772705   0.12793862     11493.36     1000 
 1320000   0.56549481   -1.6679789   0.84739397  -0.82058488   0.12646929    11417.763     1000 
 1322000   0.56477756   -1.6801924   0.84631917   -0.8338732   0.14159706     11338.37     1000 
 1324000   0.59848872   -1.7112409   0.89683534  -0.81440558   0.13887695    11423.009     1000 
 1326000   0.59078959   -1.7114277    0.8852982  -0.82612955   0.12367279    11624.847     1000 
 1328000   0.60941806   -1.6598062   0.91321297  -0.74659321   0.12445116    11612.134     1000 
 1330000   0.57548569   -1.7204218   0.86236531  -0.85805648   0.12761272    11422.764     1000 
 1332000   0.60030971   -1.6329447    0.8995641   -0.7333806   0.13111187    11440.202     1000 
 1334000   0.58132322   -1.6768134   0.87111285   -0.8057006   0.13792958    11399.453     1000 
 1336000   0.61748284   -1.7025525   0.92529804  -0.77725449   0.14446022     11361.97     1000 
 1338000   0.56250253   -1.6956265   0.84291004  -0.85271642   0.13883351    11299.801     1000 
 1340000   0.60185421   -1.6711213   0.90187853  -0.76924276   0.14715055    11283.143     1000 
 1342000   0.60782298   -1.6757981   0.91082273  -0.76497533   0.12902243    11515.462     1000 
 1344000    0.6008467   -1.6348072   0.90036878  -0.73443842   0.12941447    11451.625     1000 
 1346000   0.58369061   -1.7182568   0.87466039  -0.84359639   0.14736148    11340.181     1000 
 1348000   0.58425612   -1.6945007   0.87550779   -0.8189929   0.12944867    11415.527     1000 
 1350000   0.59545197   -1.7197209   0.89228478  -0.82743608   0.13982102    11410.823     1000 
 1352000   0.59611462   -1.7576782   0.89327776  -0.86440043   0.14010163    11382.544     1000 
 1354000   0.59167099   -1.6766421   0.88661897  -0.79002311   0.13639436    11518.384     1000 
 1356000   0.56768977   -1.6471558   0.85068313  -0.79647271    0.1351975     11373.35     1000 
 1358000   0.58510351    -1.736321   0.87677762  -0.85954338   0.13285619    11476.651     1000 
 1360000    0.5924421   -1.6804235   0.88777449  -0.79264902   0.12892186    11453.368     1000 
 1362000   0.58798612   -1.7225601   0.88109721  -0.84146288   0.13314644    11469.036     1000 
 1364000   0.58974821   -1.6853715   0.88373769  -0.80163385   0.12213444    11600.679     1000 
 1366000   0.56184712   -1.7578578   0.84192791  -0.91592992   0.12815009    11576.987     1000 
 1368000   0.61355035   -1.6381294    0.9194052  -0.71872418   0.12828593    11626.679     1000 
 1370000    0.5924252   -1.6871997   0.88774916  -0.79945049   0.13396108    11627.864     1000 
 1372000    0.6098969    -1.702234    0.9139305  -0.78830346   0.11940076    11620.442     1000 
 1374000   0.59139249   -1.6664885   0.88620165  -0.78028681   0.12315318     11505.66     1000 
 1376000    0.5652815   -1.6537235   0.84707433  -0.80664913   0.12447579    11509.274     1000 
 1378000   0.62873797   -1.6573343   0.94216385  -0.71517049   0.12726807    11557.496     1000 
 1380000   0.59779012   -1.7269861   0.89578849  -0.83119764   0.12945408    11526.933     1000 
 1382000   0.56870202   -1.6715037   0.85219997   -0.8193037   0.12812927    11514.262     1000 
 1384000   0.60017913   -1.6835964   0.89936842  -0.78422797   0.13449179    11409.586     1000 
 1386000   0.57380594   -1.7151898   0.85984821  -0.85534161    0.1161674    11633.829     1000 
 1388000   0.57684365   -1.7048125    0.8644002  -0.84041228    0.1279048     11486.02     1000 
 1390000   0.58774803    -1.680967   0.88074042  -0.80022663   0.12906461    11498.997     1000 
 1392000   0.59090211   -1.7031563   0.88546681  -0.81768948   0.13932948    11450.593     1000 
 1394000   0.60008956   -1.6861259    0.8992342  -0.78689172   0.14049451    11401.469     1000 
 1396000   0.61238242    -1.648227   0.91765506  -0.73057198   0.13431887    11472.134     1000 
 1398000   0.57372479   -1.6777375    0.8597266   -0.8180109   0.12766221    11511.442     1000 
 1400000   0.59735448   -1.6819382   0.89513569  -0.78680246   0.13729937    11362.107     1000 
 1402000   0.59540265   -1.6592997   0.89221087  -0.76708884   0.14169156    11225.477     1000 
 1404000   0.59650853   -1.6757824   0.89386804  -0.78191436    0.1406427    11459.332     1000 
 1406000   0.61363313   -1.7274993   0.91952924  -0.80797009   0.13234138    11469.126     1000 
 1408000   0.61283985   -1.6552912   0.91834051  -0.73695066   0.14771416    11350.975     1000 
 1410000   0.59808743   -1.7058266   0.89623402  -0.80959256   0.13336896    11452.792     1000 
 1412000   0.58155006    -1.698771   0.87145277  -0.82731826    0.1259236    11546.855     1000 
 1414000    0.6046703   -1.6859708   0.90609844  -0.77987233   0.12060081    11493.842     1000 
 1416000   0.60797689   -1.6694658   0.91105338  -0.75841243   0.13046495    11503.446     1000 
 1418000    0.5870102   -1.7056612   0.87963479  -0.82602639   0.12605555    11448.724     1000 
 1420000   0.59476775   -1.7437118   0.89125948  -0.85245236   0.12216106    11569.104     1000 
 1422000    0.5968197    -1.742371   0.89433431  -0.84803669   0.13696282    11444.619     1000 
 1424000   0.59563749   -1.6547807   0.89256278  -0.76221793   0.13374886    11454.066     1000 
 1426000   0.59542067   -1.6880127   0.89223787   -0.7957748   0.13404705    11535.072     1000 
 1428000   0.58511499    -1.673032   0.87679481  -0.79623714   0.11034869    11754.602     1000 
 1430000   0.59632305   -1.6846954   0.89359009  -0.79110527   0.12217089    11532.317     1000 
 1432000   0.60498256   -1.6740095   0.90656637  -0.76744311   0.12639841    11689.959     1000 
 1434000   0.58363183   -1.7038725   0.87457229  -0.82930018   0.13250229    11660.857     1000 
 1436000   0.60366433   -1.7034673     0.904591  -0.79887627   0.12153567    11712.672     1000 
 1438000   0.58886503   -1.6646811   0.88241425  -0.78226683    0.1343252    11636.367     1000 
 1440000   0.59735398   -1.6715244   0.89513494  -0.77638942   0.13349373    11240.701     1000 
 1442000    0.6128668   -1.7095886   0.91838091  -0.79120773    0.1394879    11462.137     1000 
 1444000   0.59852453   -1.6440407   0.89688901  -0.74715172   0.12721507    11504.614     1000 
 1446000   0.59498475   -1.6391249   0.89158464  -0.74754026   0.12465312    11534.944     1000 
 1448000   0.55874022    -1.649245   0.83727222  -0.81197275   0.15183886    11256.192     1000 
 1450000   0.57794466   -1.6813759   0.86605008  -0.81532582   0.12678262    11416.281     1000 
 1452000   0.57761399   -1.7134793   0.86555456  -0.84792474   0.13391962    11509.739     1000 
 1454000   0.57540923   -1.7104239   0.86225073   -0.8481732   0.12869048    11512.981     1000 
 1456000   0.61284111   -1.7061415   0.91834241  -0.78779913   0.13177519    11502.149     1000 
 1458000   0.58528535   -1.7214619    0.8770501  -0.84441176   0.11931468    11440.934     1000 
 1460000    0.5791424   -1.7441694   0.86784489  -0.87632449   0.13351553     11497.32     1000 
 1462000   0.62310948   -1.7119786   0.93372956    -0.778249   0.12494658    11564.785     1000 
 1464000   0.58833229   -1.6808996   0.88161593   -0.7992837    0.1368226    11427.956     1000 
 1466000   0.58685175   -1.6922207   0.87939735  -0.81282335   0.12842676    11597.104     1000 
 1468000   0.58591023   -1.6518756   0.87798649  -0.77388913    0.1421591    11290.323     1000 
 1470000   0.60197201     -1.67345   0.90205506  -0.77139493   0.12900858     11476.61     1000 
 1472000   0.59274204   -1.7221309   0.88822395  -0.83390691   0.13623717    11525.812     1000 
 1474000   0.59033961   -1.6303424    0.8846239  -0.74571847   0.12922799    11546.885     1000 
 1476000   0.58506033   -1.7035133   0.87671291  -0.82680038   0.12950476     11619.79     1000 
 1478000   0.60501619   -1.7249774   0.90661676  -0.81836065   0.12715476    11612.751     1000 
 1480000   0.58748877   -1.6609555   0.88035193  -0.78060356   0.12453899    11425.942     1000 
 1482000   0.59145673   -1.7428842   0.88629791  -0.85658633   0.12701114    11646.928     1000 
 1484000   0.56180502   -1.7498799   0.84186483  -0.90801505   0.12288719    11718.406     1000 
 1486000   0.57592123   -1.6722262   0.86301796  -0.80920825   0.11569886    11768.808     1000 
 1488000   0.59208433   -1.6583654   0.88723837  -0.77112706   0.13198756    11520.366     1000 
 1490000   0.59337257   -1.6503478    0.8891688  -0.76117897   0.14086025    11278.714     1000 
 1492000   0.59313869   -1.7252791   0.88881832  -0.83646081   0.12483271    11626.433     1000 
 1494000   0.58246368   -1.6486059   0.87282183  -0.77578408   0.13345617    11337.146     1000 
 1496000   0.57719738   -1.6974959   0.86493028  -0.83256566   0.12488486     11610.59     1000 
 1498000   0.59051121   -1.6970559   0.88488105  -0.81217487   0.13277696    11416.009     1000 
 1500000    0.5882521   -1.7071412   0.88149577  -0.82564544    0.1192237    11568.748     1000 
 1502000   0.58836004   -1.6302259   0.88165752  -0.74856836   0.14213907    11289.548     1000 
 1504000   0.57815347   -1.7021913   0.86636297  -0.83582833   0.12950698    11382.581     1000 
 1506000   0.59686964   -1.6431691   0.89440916  -0.74875997   0.13166674    11572.029     1000 
 1508000   0.58749998   -1.6668368   0.88036873  -0.78646809   0.13909331    11351.019     1000 
 1510000   0.58760084   -1.6346467   0.88051985  -0.75412685   0.13368378    11429.025     1000 
 1512000    0.5956917   -1.6325693   0.89264402  -0.73992527   0.14562551    11293.193     1000 
 1514000   0.59954565   -1.6727505   0.89841916  -0.77433132   0.12900506    11337.649     1000 
 1516000   0.61981265   -1.6858205   0.92878925  -0.75703127   0.13463831     11543.81     1000 
 1518000   0.59386073   -1.7365755    0.8899003   -0.8466752   0.12595074    11585.025     1000 
 1520000   0.59812644   -1.6879508   0.89629246  -0.79165835   0.12732118    11555.081     1000 
 1522000   0.58586044   -1.7078495   0.87791187  -0.82993765   0.13679097    11429.661     1000 
 1524000   0.60418989   -1.7315453   0.90537855  -0.82616674   0.13498306    11378.519     1000 
 1526000   0.60188998   -1.6780571   0.90193213    -0.776125   0.13548305    11486.863     1000 
 1528000   0.58976862   -1.6726607   0.88376827  -0.78889244   0.13570703    11385.151     1000 
 1530000    0.6119986   -1.7019753    0.9170799  -0.78489536   0.12198343    11418.312     1000 
 1532000   0.58108777   -1.7145809   0.87076002  -0.84382085   0.13303062    11324.847     1000 
 1534000   0.58991687   -1.6635365   0.88399042  -0.77954609   0.13267866    11431.441     1000 
 1536000   0.57664968   -1.6763901   0.86410954   -0.8122806   0.12290695    11507.014     1000 
 1538000   0.60606154   -1.6642923   0.90818322  -0.75610912   0.12984974    11381.466     1000 
 1540000   0.60995833   -1.6080543   0.91402256  -0.69403177   0.13545921    11368.675     1000 
 1542000   0.58071724     -1.70132   0.87020479   -0.8311152   0.13716076    11438.592     1000 
 1544000   0.59587779   -1.6541427   0.89292287  -0.76121981   0.13211637    11358.085     1000 
 1546000   0.62522382   -1.6940134    0.9368979  -0.75711548   0.13020639    11549.984     1000 
 1548000   0.60349592   -1.6687133   0.90433864   -0.7643747   0.13651446    11405.254     1000 
 1550000   0.59872129   -1.7182205   0.89718385  -0.82103665   0.12926318    11625.659     1000 
 1552000   0.57511113    -1.667466   0.86180402  -0.80566194   0.13709154    11322.147     1000 
 1554000   0.57672912   -1.6818266   0.86422859  -0.81759805   0.12369554      11574.2     1000 
 1556000   0.57963175    -1.680757   0.86857818  -0.81217879   0.12219011    11538.925     1000 
 1558000   0.57873771     -1.68997   0.86723847  -0.82273156   0.13736973    11464.204     1000 
 1560000   0.57989504   -1.6935171   0.86897271  -0.82454441   0.13987353    11395.966     1000 
 1562000   0.57978152   -1.6854358   0.86880261  -0.81663322   0.13152778    11444.064     1000 
 1564000   0.59051218   -1.6621786   0.88488249  -0.77729609   0.13265135    11472.087     1000 
 1566000   0.59568648   -1.6971869   0.89263619   -0.8045507   0.12849424    11420.643     1000 
 1568000   0.58058801   -1.7121656   0.87001114  -0.84215442   0.12561455    11584.535     1000 
 1570000   0.62021199   -1.7109614   0.92938766  -0.78157376   0.12945501    11536.759     1000 
 1572000   0.58598182   -1.6956201   0.87809376  -0.81752631   0.13460181    11452.217     1000 
 1574000   0.57528994   -1.7014446   0.86207198  -0.83937267   0.14185753    11464.239     1000 
 1576000   0.58066312   -1.7069965   0.87012368  -0.83687283   0.10900534    11653.005     1000 
 1578000   0.59057431   -1.6538805    0.8849756  -0.76890493   0.12534273    11343.096     1000 
 1580000   0.59866455   -1.6745913   0.89709882  -0.77749251     0.134154     11458.77     1000 
 1582000   0.58579901   -1.6336323   0.87781981  -0.75581247   0.11831015    11598.925     1000 
 1584000    0.5844201   -1.6702427   0.87575351   -0.7944892   0.12437172    11546.961     1000 
 1586000   0.60298863    -1.658207   0.90357847  -0.75462848   0.15051431    11214.412     1000 
 1588000   0.60334714    -1.675684   0.90411569  -0.77156832   0.13342433    11503.797     1000 
[...]
 2614000   0.60571138   -1.6817058    0.9076585  -0.77404725      0.12915    11368.811     1000 
 2616000   0.61905819   -1.7050193    0.9276587  -0.77736059   0.13288113    11486.881     1000 
 2618000   0.60674533   -1.6854878   0.90920788  -0.77627988   0.11860913    11601.681     1000 
 2620000   0.59877655   -1.6765735   0.89726667  -0.77930686   0.13103632    11471.766     1000 
 2622000   0.58856891   -1.7369611   0.88197051  -0.85499062   0.11713975    11766.245     1000 
 2624000   0.60527316   -1.6698869   0.90700183  -0.76288506   0.12609725    11556.084     1000 
 2626000   0.59274125   -1.6858712   0.88822276  -0.79764843   0.12376786    11535.995     1000 
 2628000   0.59190964   -1.6615671    0.8869766  -0.77459046   0.12833236    11276.238     1000 
 2630000   0.59404394   -1.7136194   0.89017484  -0.82344458   0.12636928     11582.71     1000 
 2632000   0.61115023   -1.6816503   0.91580862  -0.76584167   0.13650522    11563.647     1000 
 2634000   0.60643613   -1.6657953   0.90874454  -0.75705081   0.13131162     11398.69     1000 
 2636000   0.56949784   -1.7020166   0.85339252  -0.84862405   0.12475941    11618.231     1000 
 2638000   0.58267082   -1.7427677   0.87313222  -0.86963552   0.12558748    11608.422     1000 
 2640000   0.57476748   -1.7493003   0.86128907  -0.88801124   0.12552545    11687.153     1000 
 2642000   0.59014779   -1.6958452   0.88433646   -0.8115087    0.1227846    11532.244     1000 
 2644000   0.55229599   -1.6387372   0.82761554  -0.81112163    0.1347409    11306.417     1000 
 2646000   0.57005211   -1.6761349   0.85422308  -0.82191177   0.11801806    11497.447     1000 
 2648000   0.57755665   -1.6866685   0.86546864   -0.8211999   0.13641187    11556.377     1000 
 2650000   0.60257727   -1.6982844   0.90296204   -0.7953224   0.12832691    11559.798     1000 
 2652000   0.59333093    -1.667105   0.88910639  -0.77799865   0.12878443    11310.618     1000 
 2654000   0.60087773   -1.7016542   0.90041528  -0.80123892    0.1183713    11570.216     1000 
 2656000    0.5783685   -1.6806367   0.86668519  -0.81395146   0.13528255     11596.35     1000 
 2658000   0.59362836   -1.6764801    0.8895521  -0.78692798   0.13364612    11451.411     1000 
 2660000   0.61872449    -1.735959   0.92715864  -0.80880039   0.12151662    11479.558     1000 
 2662000   0.60705848   -1.6898278   0.90967714  -0.78015069   0.12313239    11515.183     1000 
 2664000   0.59400009   -1.6818888   0.89010913  -0.79177968   0.12501797    11467.075     1000 
 2666000   0.58692242   -1.6847517   0.87950324  -0.80524849   0.13060983    11447.263     1000 
 2668000    0.5799865   -1.7164514   0.86910976  -0.84734162   0.13341292    11575.476     1000 
 2670000   0.60236248   -1.6721352   0.90264018  -0.76949503   0.12540443    11467.409     1000 
 2672000   0.56274105   -1.7253315   0.84326747  -0.88206404   0.10909823    11891.138     1000 
 2674000   0.60721258   -1.6480331   0.90990805  -0.73812507   0.13206921    11558.477     1000 
 2676000   0.58124899   -1.7107746   0.87100162  -0.83977296   0.12827077    11408.124     1000 
 2678000   0.57987482     -1.64405   0.86894242  -0.77510759   0.14407402    11276.075     1000 
 2680000   0.58780468    -1.654628   0.88082532  -0.77380264   0.13658939    11508.207     1000 
 2682000   0.58567869   -1.6768766   0.87763952  -0.79923705    0.1179331    11668.799     1000 
 2684000    0.5791316    -1.648524    0.8678287  -0.78069527   0.13198789    11418.064     1000 
 2686000   0.59643768   -1.6653834   0.89376186  -0.77162153   0.13921183     11296.63     1000 
 2688000   0.58165513   -1.7026181   0.87161021  -0.83100794   0.12843768    11600.202     1000 
 2690000   0.59076798   -1.7278929   0.88526582  -0.84262704   0.11416311    11646.618     1000 
 2692000   0.56639969   -1.6781803   0.84874994  -0.82943032   0.11520961    11576.349     1000 
 2694000   0.57498854   -1.7235907   0.86162033  -0.86197036   0.12795763    11460.754     1000 
 2696000   0.63349668   -1.6724436   0.94929478  -0.72314886   0.13487667    11468.589     1000 
 2698000   0.58781073    -1.654555   0.88083438  -0.77372061   0.12753371    11398.873     1000 
 2700000   0.57936548   -1.6210492   0.86817917  -0.75287008   0.12913948    11410.204     1000 
 2702000   0.58557576   -1.7165614   0.87748527  -0.83907617   0.12449657      11616.5     1000 
 2704000   0.58367015   -1.6589215   0.87462972  -0.78429181   0.13304035    11407.938     1000 
 2706000   0.58435974   -1.6856215   0.87566306  -0.80995843    0.1247383    11551.892     1000 
 2708000   0.59696217   -1.6993602   0.89454781  -0.80481244   0.12182664    11537.925     1000 
 2710000   0.58027421   -1.6427211    0.8695409  -0.77318025   0.13827998    11450.308     1000 
 2712000   0.60434097    -1.679768   0.90560495  -0.77416307   0.13065931    11405.963     1000 
 2714000   0.58872761   -1.7227387   0.88220832  -0.84053036   0.14752692    11264.208     1000 
 2716000   0.59942812   -1.7088447   0.89824304  -0.81060167   0.11871827    11560.784     1000 
 2718000   0.58487474   -1.6541702    0.8764348  -0.77773545   0.13014205    11585.882     1000 
 2720000   0.60669214   -1.7047793   0.90912817  -0.79565114   0.12115576     11535.89     1000 
 2722000   0.59513683   -1.6835765   0.89181255  -0.79176397   0.14522736    11388.705     1000 
 2724000    0.5942173   -1.7248612   0.89043463  -0.83442662   0.12649608    11586.714     1000 
 2726000   0.61556724   -1.7042851   0.92242752  -0.78185755   0.12539529    11573.382     1000 
 2728000    0.5971397   -1.6912421   0.89481384  -0.79642828   0.13774846    11425.559     1000 
 2730000   0.59534974    -1.740786   0.89213158  -0.84865437    0.1311189    11598.329     1000 
 2732000   0.57739951   -1.6925618   0.86523316  -0.82732863   0.12257966    11544.036     1000 
 2734000   0.61112028   -1.7451114   0.91576374  -0.82934763   0.12279165     11529.27     1000 
 2736000   0.58399328    -1.646777   0.87511392  -0.77166303   0.13677644    11392.534     1000 
 2738000    0.5758561   -1.6933766   0.86292036  -0.83045628   0.11921065    11678.565     1000 
 2740000    0.5960956   -1.6718534   0.89324926  -0.77860416   0.13384785    11468.249     1000 
 2742000   0.57660978   -1.6435787   0.86404976  -0.77952896   0.13179846    11363.675     1000 
 2744000    0.5992292   -1.7266906   0.89794495  -0.82874567   0.13114206    11447.541     1000 
 2746000     0.599504    -1.658343   0.89835674  -0.75998629   0.12935335    11705.761     1000 
 2748000   0.59428506   -1.6801725   0.89053616  -0.78963638   0.12261016    11667.605     1000 
 2750000   0.59799714   -1.6962002   0.89609872  -0.80010146   0.13451278    11519.909     1000 
 2752000   0.60900064     -1.64307   0.91258746  -0.73048259    0.1328855    11347.871     1000 
 2754000   0.56806309   -1.6973546   0.85124254  -0.84611209   0.11833039    11574.233     1000 
 2756000   0.55285142   -1.7144088   0.82844786  -0.88596099   0.12659668    11566.312     1000 
 2758000   0.59368242   -1.6827101   0.88963311  -0.79307696   0.13264796    11383.638     1000 
 2760000   0.58080052   -1.6744014   0.87032958  -0.80407185    0.1214421    11656.421     1000 
 2762000   0.60483326   -1.6258919   0.90634264  -0.71954927   0.14313457    11499.114     1000 
 2764000    0.5785125   -1.6281823   0.86690098  -0.76128136    0.1435118    11339.162     1000 
 2766000   0.58331117   -1.7158053   0.87409179  -0.84171355     0.136561    11420.345     1000 
 2768000   0.59751228   -1.7168275   0.89537216  -0.82145536   0.11820955    11700.695     1000 
 2770000   0.59085278    -1.651862   0.88539289  -0.76646909   0.14527285    11401.177     1000 
 2772000    0.5905959   -1.6995361   0.88500795  -0.81452814   0.12305288    11530.277     1000 
 2774000   0.57976656   -1.6679046   0.86878019  -0.79912441   0.13904564    11445.854     1000 
 2776000   0.60316707   -1.6973265   0.90384585  -0.79348062    0.1173307    11604.637     1000 
 2778000   0.58722999   -1.6379515   0.87996413  -0.75798736   0.12857928    11577.047     1000 
 2780000    0.5720183   -1.7113861   0.85716942  -0.85421673   0.12058072    11518.374     1000 
 2782000   0.60168397    -1.656983   0.90162343  -0.75535952   0.13395898    11392.784     1000 
 2784000    0.5920644   -1.6735475    0.8872085  -0.78633901    0.1308856    11468.827     1000 
 2786000   0.56592157    -1.654353   0.84803348  -0.80631953   0.13714407    11341.813     1000 
 2788000   0.59059873   -1.6728451    0.8850122  -0.78783288    0.1271273     11605.36     1000 
 2790000   0.60078787   -1.7013703   0.90028062   -0.8010897   0.14058068    11360.399     1000 
 2792000   0.58420992   -1.7026741   0.87543857  -0.82723551   0.12398293    11474.641     1000 
 2794000   0.59396225   -1.6676596   0.89005244  -0.77760713   0.13378247    11464.337     1000 
 2796000   0.59833299   -1.7147801   0.89660199  -0.81817809   0.13720589    11340.698     1000 
 2798000   0.55966963   -1.6953189   0.83866494  -0.85665398   0.12050472    11552.994     1000 
 2800000   0.57521451   -1.6773136   0.86195895  -0.81535463     0.123621    11639.013     1000 
 2802000    0.6159579   -1.6984559   0.92301292  -0.77544303   0.13267692    11578.345     1000 
 2804000   0.58607871   -1.6999548   0.87823895  -0.82171586   0.12108682    11641.152     1000 
 2806000   0.61093022   -1.6615114   0.91547893  -0.74603245   0.12288523    11654.117     1000 
 2808000   0.57460516   -1.6887518   0.86104583  -0.82770593   0.12634046    11561.201     1000 
 2810000   0.58446141   -1.7373431   0.87581543  -0.86152765   0.13055553    11416.048     1000 
 2812000   0.57804989   -1.6897442   0.86620776  -0.82353642   0.12007702    11611.452     1000 
 2814000   0.59118439   -1.7125872   0.88588981  -0.82669742   0.13604912    11573.423     1000 
 2816000   0.62210628   -1.7178195   0.93222627  -0.78559324   0.12924559     11584.71     1000 
 2818000   0.62347698   -1.6850803   0.93428025  -0.75080002   0.13558337    11423.591     1000 
 2820000   0.57972555   -1.6864545   0.86871874  -0.81773575   0.13421955    11349.378     1000 
 2822000    0.6054556   -1.6966924   0.90727522  -0.78941716   0.12361155    11653.679     1000 
 2824000   0.58027236   -1.6390245   0.86953813  -0.76948632   0.12647254    11519.592     1000 
 2826000   0.59852205   -1.6660749   0.89688529  -0.76918957    0.1275809    11500.668     1000 
 2828000   0.57723312   -1.6553746   0.86498383  -0.79039073   0.11759829    11477.424     1000 
 2830000   0.55881384   -1.6772301   0.83738254  -0.83984758   0.12997784    11468.445     1000 
 2832000   0.60820315   -1.7148362   0.91139242  -0.80344379   0.12304339    11454.824     1000 
 2834000   0.58347146   -1.7246926   0.87433198  -0.85036063   0.12217275    11657.781     1000 
 2836000   0.59232273   -1.7454152   0.88759562  -0.85781957   0.11750207     11573.57     1000 
 2838000   0.60310888   -1.7281399   0.90375866  -0.82438122   0.13100937    11588.814     1000 
 2840000   0.60072468   -1.7417259   0.90018593     -0.84154   0.13178809    11546.084     1000 
 2842000   0.58138252   -1.6826633   0.87120171  -0.81146163   0.12899086    11667.884     1000 
 2844000   0.58199001   -1.6716304   0.87211203  -0.79951838   0.11831367    11809.702     1000 
 2846000   0.61748332   -1.6987447   0.92529875  -0.77344599   0.13608775    11495.067     1000 
 2848000   0.60355202   -1.7151262    0.9044227  -0.81070347   0.12790732    11685.138     1000 
 2850000   0.60721602   -1.6720356   0.90991321  -0.76212235   0.14062575    11254.392     1000 
 2852000   0.58473491   -1.7208177   0.87622527  -0.84459241   0.12864382    11364.477     1000 
 2854000   0.56548212   -1.6768635   0.84737496  -0.82948858   0.12223131    11476.449     1000 
 2856000   0.56893534   -1.7169647   0.85254961  -0.86441506   0.13356111    11346.545     1000 
 2858000   0.59199275    -1.619166   0.88710114  -0.73206482   0.12436195    11596.705     1000 
 2860000   0.59106692   -1.6988289   0.88571378  -0.81311515   0.12921395    11354.455     1000 
 2862000    0.5633412   -1.7027011   0.84416679  -0.85853436   0.13024741    11557.895     1000 
 2864000   0.59909624   -1.6126186   0.89774572  -0.71487291   0.12084578    11391.121     1000 
 2866000   0.61624108   -1.7545136   0.92343725  -0.83107636   0.13258646    11551.984     1000 
 2868000   0.60340358   -1.7317427   0.90420026  -0.82754239   0.11613177    11623.939     1000 
 2870000   0.58779572   -1.7064606   0.88081189  -0.82564873   0.13717521    11470.825     1000 
 2872000   0.58235219   -1.6738933   0.87265476  -0.80123851     0.145416    11276.988     1000 
 2874000    0.5781535   -1.7116945   0.86636302  -0.84533145   0.12993333    11450.292     1000 
 2876000   0.62857127   -1.6949071   0.94191405  -0.75299308   0.13622943    11459.065     1000 
 2878000     0.596647   -1.7348378   0.89407553  -0.84076224   0.11892509    11615.106     1000 
 2880000   0.61773694   -1.6441658   0.92567881  -0.71848698   0.13674961    11545.984     1000 
 2882000    0.5626752   -1.7274988   0.84316878  -0.88433005   0.12672429    11590.806     1000 
 2884000    0.6205439    -1.664493   0.92988503  -0.73460795   0.12672309    11486.942     1000 
 2886000   0.59862596   -1.6956237   0.89704101  -0.79858266   0.14619965    11410.799     1000 
 2888000   0.58831091   -1.6891748    0.8815839  -0.80759092    0.1316961    11467.226     1000 
 2890000   0.59022056   -1.6797227   0.88444551  -0.79527719   0.14272305    11330.611     1000 
 2892000   0.59480016   -1.6854979   0.89130803  -0.79418988   0.13233453    11631.503     1000 
 2894000   0.57008281   -1.6573442   0.85426909  -0.80307515   0.14634412     11366.12     1000 
 2896000   0.58656868   -1.6952827   0.87897316   -0.8163095   0.12090452    11625.988     1000 
 2898000   0.61150486   -1.7272701   0.91634003  -0.81093006   0.12768097    11666.852     1000 
 2900000    0.5843115   -1.6696335   0.87559078  -0.79404268   0.12605773    11404.367     1000 
 2902000   0.59822276   -1.6736178    0.8964368  -0.77718097   0.12418271    11456.831     1000 
 2904000   0.58460157   -1.6906904   0.87602545    -0.814665   0.13797821    11382.515     1000 
 2906000   0.58700232   -1.6766214   0.87962298   -0.7969984   0.12039774    11544.754     1000 
 2908000   0.60394764     -1.66652   0.90501553  -0.76150443    0.1342886    11411.005     1000 
 2910000   0.57676226   -1.6721014   0.86427825  -0.80782315    0.1351335    11410.065     1000 
 2912000   0.60369037   -1.7048495   0.90463002  -0.80021951   0.12553831    11626.753     1000 
 2914000   0.58408862   -1.6891819   0.87525679  -0.81392512   0.12752401    11427.693     1000 
 2916000   0.57549338   -1.6742262   0.86237684  -0.81184931   0.12915856    11548.235     1000 
 2918000   0.58272638    -1.633305   0.87321548  -0.76008948   0.13152586    11369.851     1000 
 2920000   0.58360929   -1.6566759   0.87453852  -0.78213736   0.12728482    11419.378     1000 
 2922000   0.58252927   -1.6615319   0.87292012  -0.78861175   0.14137536    11351.156     1000 
 2924000    0.5938242   -1.6633064   0.88984557  -0.77346082      0.13391    11550.253     1000 
 2926000   0.59520373   -1.7380024   0.89191279  -0.84608965   0.13365238     11559.16     1000 
 2928000   0.58650423     -1.65383   0.87887659  -0.77495344   0.14368708    11300.809     1000 
 2930000   0.58262827   -1.6437526   0.87306846  -0.77068419   0.14203264    11353.213     1000 
 2932000   0.61510377    -1.704504   0.92173299  -0.78277104   0.11981063    11489.432     1000 
 2934000   0.58559987   -1.7019212   0.87752141  -0.82439975   0.13406928    11533.968     1000 
 2936000   0.59282554   -1.7279733   0.88834908  -0.83962425   0.13301236    11425.776     1000 
 2938000   0.59275183   -1.7165762   0.88823862  -0.82833758   0.13701665    11462.478     1000 
 2940000   0.57425685   -1.7075752   0.86052389  -0.84705128   0.11772784    11696.406     1000 
 2942000    0.5984019   -1.7229566   0.89670524  -0.82625133   0.12036587    11637.394     1000 
 2944000   0.57825364   -1.7365717   0.86651308  -0.87005864   0.12478173    11553.871     1000 
 2946000   0.58336479   -1.7047971   0.87417214  -0.83062497   0.13955363    11352.737     1000 
 2948000   0.60251226     -1.65534   0.90286462  -0.75247539   0.12965109    11461.973     1000 
 2950000   0.58739743   -1.6901106   0.88021505  -0.80989556   0.12072011    11675.055     1000 
 2952000   0.58777286   -1.6904377   0.88077763  -0.80966006   0.12223326    11673.013     1000 
 2954000    0.5439971   -1.6981644   0.81517966  -0.88298474   0.11463707    11480.077     1000 
 2956000   0.60472767   -1.6611047   0.90618442  -0.75492024   0.13338172    11385.218     1000 
 2958000   0.58433297   -1.6623005   0.87562296  -0.78667756   0.12339466    11409.136     1000 
 2960000   0.57431853   -1.7244348   0.86061632  -0.86381845   0.13023722    11434.924     1000 
 2962000   0.56751739   -1.7122306   0.85042481  -0.86180582   0.12401863    11577.327     1000 
 2964000   0.61540073   -1.7242355   0.92217799  -0.80205752   0.12744564     11617.06     1000 
 2966000   0.58998064   -1.7066896   0.88408599  -0.82260361   0.12575598    11440.966     1000 
 2968000   0.58984059   -1.6927587   0.88387612  -0.80888257   0.12296261    11579.906     1000 
 2970000   0.60465746   -1.6849519    0.9060792  -0.77887274   0.13339029    11510.372     1000 
 2972000   0.57010929   -1.7175667   0.85430877  -0.86325796   0.13381432     11306.81     1000 
 2974000    0.5709457   -1.6606976   0.85556214  -0.80513548    0.1357314    11472.503     1000 
 2976000   0.59680935   -1.6867764   0.89431881  -0.79245756   0.12623988     11507.24     1000 
 2978000   0.61415087   -1.6686921   0.92030508  -0.74838703   0.13853995    11475.225     1000 
 2980000   0.59831059   -1.6573916   0.89656842  -0.76082317   0.11828887        11520     1000 
 2982000   0.59221202   -1.6810872   0.88742971  -0.79365747    0.1297731    11509.185     1000 
 2984000   0.56213247   -1.6531856    0.8423555  -0.81083011   0.12503282    11482.983     1000 
 2986000    0.5835084   -1.7265975   0.87438734  -0.85221012   0.13817155    11499.918     1000 
 2988000   0.57546053   -1.7081337    0.8623276  -0.84580607   0.12718994     11497.79     1000 
 2990000   0.57423972   -1.6584935   0.86049822  -0.79799525   0.13942713    11501.527     1000 
 2992000    0.5460906   -1.6861286   0.81831677  -0.86781188   0.13093248    11416.162     1000 
 2994000   0.59215495     -1.70694   0.88734419  -0.81959585   0.13332678    11529.204     1000 
 2996000   0.59102544   -1.6460697   0.88565162  -0.76041809   0.12661759    11609.957     1000 
 2998000   0.59262879   -1.7299446   0.88805425  -0.84189038   0.11625832    11575.479     1000 
 3000000   0.58456944   -1.6668132    0.8759773  -0.79083587      0.14398    11331.456     1000 
Loop time of 1157.26 on 1 procs for 3000000 steps with 1000 atoms

Performance: 1119885.476 tau/day, 2592.327 timesteps/s
100.0% CPU use with 1 MPI tasks x 1 OpenMP threads

MPI task timing breakdown:
Section |  min time  |  avg time  |  max time  |%varavg| %total
---------------------------------------------------------------
Pair    | 909.75     | 909.75     | 909.75     |   0.0 | 78.61
Neigh   | 144.48     | 144.48     | 144.48     |   0.0 | 12.48
Comm    | 25.115     | 25.115     | 25.115     |   0.0 |  2.17
Output  | 0.017129   | 0.017129   | 0.017129   |   0.0 |  0.00
Modify  | 72.591     | 72.591     | 72.591     |   0.0 |  6.27
Other   |            | 5.312      |            |       |  0.46

Nlocal:        1000.00 ave        1000 max        1000 min
Histogram: 1 0 0 0 0 0 0 0 0 0
Nghost:        2151.00 ave        2151 max        2151 min
Histogram: 1 0 0 0 0 0 0 0 0 0
Neighs:        27538.0 ave       27538 max       27538 min
Histogram: 1 0 0 0 0 0 0 0 0 0

Total # of neighbors = 27538
Ave neighs/atom = 27.538000
Neighbor list builds = 150000
Dangerous builds not checked

Total wall time: 0:19:17
