LAMMPS (29 Sep 2021 - Update 2)
OMP_NUM_THREADS environment is not set. Defaulting to 1 thread. (src/comm.cpp:98)
  using 1 OpenMP thread(s) per MPI task
# ----------------------- Inicialização -----------------------

units			lj
atom_style 		atomic
dimension 		3
boundary 		p p p

# -------------------- Criação dos Átomos ---------------------

read_data 		topologia.txt
Reading data file ...
  orthogonal box = (0.0000000 0.0000000 0.0000000) to (21.540000 21.540000 21.540000)
  1 by 2 by 2 MPI processor grid
  reading atoms ...
  1000 atoms
  read_data CPU = 0.003 seconds

velocity 		all create ${temp} 87287 rot yes dist gaussian
velocity 		all create 0.59 87287 rot yes dist gaussian

# ------------------ Interação Interatômica -------------------

pair_style		table linear 1600
pair_coeff		1 1 force.table AA 8.0
WARNING: 3 of 1600 force values in table AA are inconsistent with -dE/dr.
WARNING:  Should only be flagged at inflection points (src/pair_table.cpp:465)
pair_coeff		1 2 force.table AB 8.0
WARNING: 1 of 1600 force values in table AB are inconsistent with -dE/dr.
WARNING:  Should only be flagged at inflection points (src/pair_table.cpp:465)
pair_coeff		2 2 force.table BB 8.0
pair_write		1 1 1600 r 0.008 8.0 table.check AA
Appending to table file table.check with DATE: 2023-08-08
Neighbor list info ...
  update every 1 steps, delay 10 steps, check yes
  max neighbors/atom: 2000, page size: 100000
  master list distance cutoff = 8.3
  ghost atom cutoff = 8.3
  binsize = 4.15, bins = 6 6 6
  1 neighbor lists, perpetual/occasional/extra = 1 0 0
  (1) pair table, perpetual
      attributes: half, newton on
      pair build: half/bin/atomonly/newton
      stencil: half/bin/3d
      bin: standard
pair_write		1 2 1600 r 0.008 8.0 table.check AB
Appending to table file table.check with DATE: 2023-08-08
pair_write		2 2 1600 r 0.008 8.0 table.check BB
Appending to table file table.check with DATE: 2023-08-08

neighbor 		0.3 bin
neigh_modify		every 20 delay 0 check no

# ------------------------- Ensemble --------------------------------------

fix 1			all npt temp ${temp} ${temp} 0.5 iso ${press} ${press} 5
fix 1			all npt temp 0.59 ${temp} 0.5 iso ${press} ${press} 5
fix 1			all npt temp 0.59 0.59 0.5 iso ${press} ${press} 5
fix 1			all npt temp 0.59 0.59 0.5 iso 0.13 ${press} 5
fix 1			all npt temp 0.59 0.59 0.5 iso 0.13 0.13 5

# ---------------------- Função de Distribuição Radial -----------------------

#compute RDF 		all rdf 2000 1 1 1 2 2 2
#fix 2 			all ave/time 1 2000 2000 c_RDF[*] file rdf.data mode vector

# ------------------------- Execução ---------------------------

timestep 		0.005
thermo_style		custom step temp pe ke etotal press vol atoms
thermo			2000
run			3000000
Per MPI rank memory allocation (min/avg/max) = 2.675 | 2.675 | 2.675 Mbytes
Step Temp PotEng KinEng TotEng Press Volume Atoms 
       0         0.59    0.5285193     0.884115    1.4126343    1.0260012    9993.9483     1000 
    2000   0.58911242   -1.8653835   0.88278496  -0.98259857   0.12787319    11686.621     1000 
    4000   0.59222443   -1.9411773   0.88744832    -1.053729   0.12855763    11710.708     1000 
    6000   0.59959436   -1.8786095   0.89849216   -0.9801173   0.12964354     11759.39     1000 
    8000    0.5882144    -1.933392   0.88143928   -1.0519527   0.12068612    11698.987     1000 
   10000   0.57955527   -1.9673656   0.86846357   -1.0989021   0.13195468    11748.686     1000 
   12000    0.5800414   -1.8580706   0.86919204  -0.98887856   0.12368144    11716.393     1000 
   14000   0.58702164   -1.9410378   0.87965193   -1.0613859   0.13822242    11722.454     1000 
   16000   0.59326458   -1.9294367   0.88900698   -1.0404297   0.12202022    11606.002     1000 
   18000   0.58033608   -1.9917697   0.86963361   -1.1221361   0.13407919    11694.448     1000 
   20000   0.60530507   -1.9147928   0.90704965   -1.0077432   0.13398849     11593.77     1000 
   22000   0.57054068   -1.9322117   0.85495521   -1.0772565   0.14573137    11376.402     1000 
   24000   0.61191209   -1.9066701   0.91695026  -0.98971985   0.14305614    11543.609     1000 
   26000   0.57903695   -1.9611046   0.86768686   -1.0934177   0.12763008    11669.402     1000 
   28000   0.59999675   -1.9710101   0.89909513    -1.071915   0.13659631    11605.618     1000 
   30000   0.59650681   -1.8645473   0.89386546  -0.97068187   0.12829029    11760.637     1000 
   32000   0.58427122   -1.9413453   0.87553042   -1.0658149   0.13923078    11767.171     1000 
   34000    0.5635598   -1.9222817   0.84449436   -1.0777873   0.13506401    11489.666     1000 
   36000    0.6152482   -1.9094378   0.92194942  -0.98748837   0.11914485    11679.608     1000 
   38000   0.59833397   -1.9519874   0.89660345    -1.055384   0.13335517     11644.73     1000 
   40000   0.58588407   -1.9104097   0.87794727   -1.0324625   0.12901539    11607.259     1000 
   42000   0.58957818   -1.8907593   0.88348291   -1.0072764    0.1364421    11716.838     1000 
   44000   0.59757894   -1.9002917   0.89547205   -1.0048196   0.13845898    11462.649     1000 
   46000   0.57860961    -1.930584   0.86704651   -1.0635375   0.11634109    11580.571     1000 
   48000    0.5851591   -1.9109628   0.87686092   -1.0341018   0.12557017    11767.248     1000 
   50000      0.59369   -1.9489388   0.88964447   -1.0592944    0.1370881    11666.738     1000 
   52000   0.58639449   -1.9381547   0.87871215   -1.0594426    0.1272118    11762.978     1000 
   54000   0.57551749   -1.9354713   0.86241296   -1.0730583   0.14367067    11512.331     1000 
   56000   0.59154386   -1.9429576   0.88642847   -1.0565291    0.1331286    11695.846     1000 
   58000   0.59392401   -1.9138343   0.88999512   -1.0238392   0.13524806    11648.643     1000 
   60000   0.57998674   -1.9502675   0.86911013   -1.0811574   0.13772837    11563.587     1000 
   62000   0.59602262   -1.9321056    0.8931399   -1.0389657     0.130746    11705.671     1000 
   64000   0.58976579   -1.8827666   0.88376403  -0.99900257   0.13010512    11593.909     1000 
   66000   0.59082236   -1.9088566   0.88534731   -1.0235093   0.12798042    11755.008     1000 
   68000   0.59226438   -1.9172213   0.88750817   -1.0297131   0.13376076    11666.098     1000 
   70000   0.57902042    -1.944905   0.86766209   -1.0772429   0.12508509    11613.844     1000 
   72000   0.57901033   -1.9410986   0.86764698   -1.0734516   0.14362594    11550.649     1000 
   74000   0.59662939   -1.9324687   0.89404914   -1.0384195   0.12315362    11539.634     1000 
   76000   0.58707497   -1.9622268   0.87973184   -1.0824949   0.12766966    11609.592     1000 
   78000   0.59003304   -1.9542195    0.8841645    -1.070055   0.12666506    11677.776     1000 
   80000   0.58112821   -1.9179468   0.87082063   -1.0471261   0.13454445    11627.764     1000 
   82000   0.59122173   -1.9255844   0.88594576   -1.0396387   0.12621625    11755.543     1000 
   84000   0.59806775   -1.9819208   0.89620453   -1.0857163   0.13206411    11599.286     1000 
   86000   0.57816995   -1.9524202   0.86638768   -1.0860325   0.13046678    11557.225     1000 
   88000   0.59677123     -1.88963   0.89426169  -0.99536829   0.13119392    11653.708     1000 
   90000   0.59863808   -1.9121238   0.89705916   -1.0150646   0.13622907    11509.587     1000 
   92000   0.56687617    -1.905794   0.84946393     -1.05633   0.12104063    11635.691     1000 
   94000   0.58346079   -1.9622827     0.874316   -1.0879667   0.10820664    11957.637     1000 
   96000   0.57733842   -1.9523353   0.86514163   -1.0871937   0.11289825    11662.362     1000 
   98000   0.59070896   -1.9233184   0.88517738    -1.038141   0.13348181    11534.511     1000 
  100000   0.58327388   -1.9337033   0.87403591   -1.0596674    0.1289324     11816.45     1000 
  102000   0.59663571   -1.9304844    0.8940586   -1.0364258   0.13611182    11678.809     1000 
  104000   0.59470396   -2.0039538   0.89116389   -1.1127899   0.13424258    11655.578     1000 
  106000   0.60322171   -1.9141954   0.90392773   -1.0102677    0.1336934    11662.642     1000 
  108000   0.58759096   -1.9204521   0.88050505    -1.039947   0.13767734    11566.877     1000 
  110000   0.59704243    -1.893428   0.89466808  -0.99875991   0.12188726    11763.427     1000 
  112000   0.59378031   -1.9217142   0.88977979   -1.0319344   0.12880147    11642.197     1000 
  114000   0.57270926   -1.9712353   0.85820482   -1.1130305   0.13206081    11753.025     1000 
  116000    0.5893727   -1.9223759   0.88317499   -1.0392009   0.14350361    11586.949     1000 
  118000   0.58148737    -1.916078   0.87135883   -1.0447191   0.13001019    11735.075     1000 
  120000   0.59197635   -1.9768525   0.88707655    -1.089776    0.1115917    11923.649     1000 
  122000   0.62511846   -1.9379116   0.93674002   -1.0011716   0.13300407    11606.639     1000 
  124000   0.61125107   -1.8879811   0.91595973  -0.97202136   0.12537797    11591.031     1000 
  126000   0.58835306   -1.8748998   0.88164706  -0.99325278   0.13352674    11585.884     1000 
  128000   0.57050301   -1.9540133   0.85489876   -1.0991145   0.13058325    11625.803     1000 
  130000   0.58131992   -1.9356073   0.87110791   -1.0644993   0.12958255    11688.886     1000 
  132000   0.58956855   -1.8919881   0.88346847   -1.0085197    0.1348676    11670.249     1000 
  134000   0.61012671   -1.9118941   0.91427487  -0.99761923   0.12226359    11762.582     1000 
  136000   0.60044694   -1.9478573   0.89976975   -1.0480875   0.13662537    11659.703     1000 
  138000   0.58344654   -1.8340665   0.87429464  -0.95977189   0.13923551    11578.945     1000 
  140000   0.59077833   -1.8906175   0.88528133   -1.0053362   0.13950068    11520.468     1000 
  142000   0.58603236   -1.9780426    0.8781695   -1.0998731   0.12896975    11682.283     1000 
  144000   0.58492331   -1.9492459   0.87650758   -1.0727383    0.1306767     11695.17     1000 
  146000   0.57407653   -1.9227251   0.86025367   -1.0624714   0.13701123    11530.753     1000 
  148000   0.59247478   -1.9494156   0.88782346   -1.0615921   0.12908174     11767.32     1000 
  150000   0.59084456   -1.9116719   0.88538057   -1.0262913   0.12879857    11628.363     1000 
  152000   0.60256935   -1.9071675   0.90295017   -1.0042174   0.12323468    11762.475     1000 
  154000   0.60498472   -1.9546298   0.90656961   -1.0480602   0.12792408    11776.933     1000 
  156000   0.56867881   -1.9242679    0.8521652   -1.0721027   0.12997907    11665.738     1000 
  158000   0.59032468   -1.9015292   0.88460153   -1.0169276   0.13095557    11586.185     1000 
  160000    0.5728103   -1.9590594   0.85835623   -1.1007031    0.1349811    11634.239     1000 
  162000   0.58742448   -1.8975726   0.88025559   -1.0173171   0.13544881     11548.36     1000 
  164000   0.59458247   -1.9635607   0.89098183   -1.0725788   0.12518379    11747.629     1000 
  166000   0.60130531   -1.9382734   0.90105601   -1.0372174   0.14657724    11584.129     1000 
  168000   0.58616114   -1.9280329   0.87836246   -1.0496705   0.13110377    11759.184     1000 
  170000   0.56453239   -1.9450175   0.84595179   -1.0990658   0.12590447    11578.997     1000 
  172000   0.59018205   -1.9624627    0.8843878    -1.078075   0.12414642    11906.427     1000 
  174000    0.5871117   -1.9671645   0.87978688   -1.0873776   0.13630026    11689.827     1000 
  176000   0.60084662   -1.9242998   0.90036867   -1.0239311   0.13333013    11576.125     1000 
  178000   0.60073031   -1.8932048   0.90019437  -0.99301045   0.12758397    11675.508     1000 
  180000   0.59711962   -1.9390788   0.89478375    -1.044295   0.12983913    11513.641     1000 
  182000   0.59556403   -1.9753125    0.8924527   -1.0828598   0.12111399    11712.699     1000 
  184000   0.59848146   -1.9655588   0.89682446   -1.0687344   0.11713976    11712.714     1000 
  186000   0.57316589   -1.9525105   0.85888908   -1.0936214   0.11330394    11898.419     1000 
  188000   0.59094925   -1.9181695   0.88553746   -1.0326321   0.12032721    11711.705     1000 
  190000   0.58058984   -1.9264466   0.87001388   -1.0564327   0.13051001    11616.426     1000 
  192000     0.615339   -1.9126889    0.9220855  -0.99060345   0.14426982     11736.14     1000 
  194000   0.60594909   -1.9307677   0.90801471    -1.022753   0.13510957    11611.512     1000 
  196000   0.58394531   -1.9407443   0.87504204   -1.0657023   0.12848778    11736.647     1000 
  198000   0.58741209   -1.9274818   0.88023702   -1.0472448   0.11829034    11786.655     1000 
  200000   0.60806582   -1.9150893   0.91118663   -1.0039027   0.14228168    11606.093     1000 
  202000   0.58244081   -1.9231235   0.87278755   -1.0503359   0.12017974    11671.037     1000 
  204000   0.58648116   -1.9510955   0.87884201   -1.0722535   0.11887483     11762.93     1000 
  206000   0.57745516   -1.9537219   0.86531656   -1.0884054   0.12492987    11647.663     1000 
  208000   0.60247815   -1.9464556   0.90281351   -1.0436421   0.12531221    11684.425     1000 
  210000   0.58247714   -1.9258275     0.872842   -1.0529855     0.127825    11665.862     1000 
  212000   0.58755352    -1.926058   0.88044895    -1.045609   0.13538839    11622.536     1000 
  214000    0.5797208   -1.9311689   0.86871161   -1.0624573   0.12227742    11736.795     1000 
  216000   0.57638882   -1.9451796   0.86371864    -1.081461   0.12001409    11705.546     1000 
  218000   0.59180621   -1.9560019   0.88682161   -1.0691803   0.12459647    11721.715     1000 
  220000   0.59468061   -1.8824199   0.89112889  -0.99129103   0.12600792    11646.405     1000 
  222000   0.57247346   -1.8941145   0.85785147   -1.0362631   0.12785783     11512.16     1000 
  224000   0.58339707   -1.9689487   0.87422051   -1.0947282   0.12985642    11684.945     1000 
  226000   0.59356673   -1.9254586   0.88945975   -1.0359989   0.12977066     11559.13     1000 
  228000   0.58198533   -1.9304286   0.87210502   -1.0583236   0.13299826    11613.587     1000 
  230000   0.58770951   -1.9506974   0.88068269   -1.0700147   0.13104657    11653.384     1000 
  232000   0.60813088   -1.9516782   0.91128412   -1.0403941   0.12989085    11840.717     1000 
  234000   0.58708068   -1.9054969    0.8797404   -1.0257565   0.12537407    11658.934     1000 
  236000    0.5805888   -1.9302151   0.87001231   -1.0602027   0.12695904    11511.883     1000 
  238000   0.58976861   -1.9739914   0.88376827   -1.0902231     0.132117    11556.078     1000 
  240000   0.58278781   -1.9146971   0.87330753   -1.0413896   0.12224748    11785.468     1000 
  242000   0.59788369   -1.9055145   0.89592871   -1.0095858   0.12194582    11761.986     1000 
  244000   0.57300189   -1.9530692   0.85864333   -1.0944259   0.13225041    11582.407     1000 
  246000   0.60259385   -1.8922285   0.90298689   -0.9892416   0.13636532    11638.707     1000 
  248000   0.59124876   -1.8710819   0.88598627  -0.98509563   0.13501097    11550.468     1000 
  250000   0.58953626   -1.9594747   0.88342009   -1.0760546   0.13285308     11714.36     1000 
  252000   0.58428175   -1.9468589    0.8755462   -1.0713127   0.12502186     11662.92     1000 
  254000   0.60247031   -1.9414432   0.90280175   -1.0386415   0.12705153    11584.548     1000 
  256000   0.59061424   -1.9620046   0.88503544   -1.0769692   0.12329837    11536.141     1000 
  258000   0.58609442   -1.9949798   0.87826248   -1.1167173   0.11984302    11944.568     1000 
  260000   0.58681375   -1.8924536    0.8793404   -1.0131132   0.12360538    11721.705     1000 
  262000   0.61088667   -1.9891844   0.91541368   -1.0737707   0.12085667    11660.611     1000 
  264000   0.60806043   -1.9271059   0.91117855   -1.0159273   0.13074932    11576.493     1000 
  266000   0.57015468   -1.9100443   0.85437679   -1.0556675   0.12608337    11776.731     1000 
  268000   0.61032292   -1.9359223    0.9145689   -1.0213534   0.12838439    11687.018     1000 
  270000   0.60393544   -1.9229676   0.90499725   -1.0179704   0.13406597    11634.846     1000 
  272000   0.59942636   -1.9543174   0.89824041    -1.056077    0.1443054    11499.681     1000 
  274000    0.5865337    -1.885041   0.87892074   -1.0061203   0.13092215    11543.317     1000 
  276000   0.59354025   -1.9307154   0.88942007   -1.0412954   0.13084828    11573.771     1000 
  278000   0.60052776   -1.8877579   0.89989084  -0.98786709   0.12036851    11722.305     1000 
  280000   0.59371535   -1.9349469   0.88968245   -1.0452644   0.12753274    11575.003     1000 
  282000   0.59198608   -1.8681513   0.88709114  -0.98106015   0.14384524    11463.881     1000 
  284000   0.60296199   -1.9442714   0.90353854   -1.0407328   0.13522139    11500.939     1000 
  286000   0.61192077   -1.8888703   0.91696328  -0.97190701   0.13825079    11570.915     1000 
  288000   0.62444731   -1.9262315    0.9357343  -0.99049716   0.13307335    11707.037     1000 
  290000    0.6040789   -1.9692353   0.90521224    -1.064023   0.13173013    11535.216     1000 
  292000   0.60199449   -1.9554801   0.90208874   -1.0533914   0.12080239    11767.202     1000 
  294000   0.60166821   -1.8901205   0.90159981  -0.98852073   0.14095288    11462.925     1000 
  296000   0.59621942   -1.8923167    0.8934348  -0.99888192   0.14957259    11467.925     1000 
  298000    0.6090129   -1.8862977   0.91260583  -0.97369192   0.12073056    11674.988     1000 
  300000    0.5896798   -1.9266911   0.88363518   -1.0430559   0.12985987    11686.888     1000 
  302000   0.61410406   -1.9071401   0.92023493  -0.98690519   0.12108119    11782.162     1000 
  304000   0.57489672   -1.9344748   0.86148274   -1.0729921   0.13095051    11525.716     1000 
  306000   0.57148975   -1.9294088   0.85637739   -1.0730314   0.12986592    11657.525     1000 
  308000   0.57755229   -1.9375399    0.8654621   -1.0720778   0.12783572    11666.902     1000 
  310000   0.60760988   -1.9086723    0.9105034  -0.99816891   0.14129086    11380.535     1000 
  312000   0.58759547   -1.9144323   0.88051181   -1.0339205   0.13064283    11648.552     1000 
  314000   0.58342234   -1.9282609   0.87425838   -1.0540025   0.13711977    11463.639     1000 
  316000   0.58442488   -1.9338031   0.87576068   -1.0580424   0.11692158    11629.974     1000 
  318000   0.55934794   -1.9159322   0.83818288   -1.0777493   0.12937545    11637.242     1000 
  320000   0.57226897   -1.9140367   0.85754506   -1.0564916   0.13532928    11547.419     1000 
  322000   0.60335976    -1.923078   0.90413461   -1.0189434   0.14540869    11496.751     1000 
  324000   0.58820056   -1.9135158   0.88141854   -1.0320973   0.12899649    11704.494     1000 
  326000   0.60142202    -2.001286    0.9012309   -1.1000551   0.12688777    11723.882     1000 
  328000    0.5900444   -1.9928764   0.88418154   -1.1086949   0.12275021    11803.509     1000 
  330000   0.60938743   -1.9390184   0.91316707   -1.0258513   0.13782614    11647.446     1000 
  332000   0.60696445   -1.9428691   0.90953623   -1.0333329   0.12909361    11794.313     1000 
  334000   0.60513125   -1.9354543   0.90678917   -1.0286651   0.12843918    11731.929     1000 
  336000   0.57746947   -1.9212573   0.86533801   -1.0559193   0.12396994    11783.548     1000 
  338000   0.60737363   -2.0002418   0.91014939   -1.0900924   0.13152465    11679.895     1000 
  340000   0.61896432   -1.8862855   0.92751804  -0.95876751   0.13492919    11607.208     1000 
  342000   0.60644839   -1.9845752   0.90876291   -1.0758123   0.12270311    11615.379     1000 
  344000   0.60611818   -1.9350808   0.90826809   -1.0268127   0.12030163    11627.208     1000 
  346000   0.59460434   -1.9244196   0.89101461    -1.033405   0.14013989    11601.279     1000 
  348000   0.58263678   -1.9377994   0.87308122   -1.0647182   0.13586345    11535.635     1000 
  350000   0.58588626    -1.920465   0.87795056   -1.0425144   0.12725579    11641.213     1000 
  352000   0.59245053   -1.9656947   0.88778712   -1.0779076   0.11808082     11584.88     1000 
  354000   0.56877456   -1.8994329   0.85230867   -1.0471242   0.12606693    11730.379     1000 
  356000   0.59189375   -1.9613096   0.88695279   -1.0743568   0.12461689    11697.465     1000 
  358000     0.595033   -1.9503595   0.89165694   -1.0587026   0.13417332    11655.132     1000 
  360000   0.57246271   -1.9261058   0.85783537   -1.0682705   0.12666393    11588.733     1000 
  362000   0.58424245   -1.9271319   0.87548731   -1.0516445   0.13376832    11805.522     1000 
  364000   0.56980224   -1.9564484   0.85384866   -1.1025998    0.1358273    11605.573     1000 
  366000   0.59948928   -1.9581388   0.89833468   -1.0598041   0.13160227    11582.561     1000 
  368000   0.60312491    -1.908241   0.90378268   -1.0044583   0.14425165    11484.233     1000 
  370000   0.60831606   -1.8838237   0.91156161  -0.97226214   0.13784839    11692.817     1000 
  372000    0.5893428   -1.8870537   0.88313018   -1.0039236   0.13062881    11777.918     1000 
  374000   0.57474448   -1.9186546    0.8612546      -1.0574   0.13670541    11511.338     1000 
  376000   0.60164542   -1.9132081   0.90156567   -1.0116425    0.1366028    11566.481     1000 
  378000   0.59749941   -1.8998394   0.89535287   -1.0044866    0.1263235    11658.084     1000 
  380000    0.6023852   -1.9093905   0.90267422   -1.0067163   0.13922065    11429.139     1000 
  382000   0.59859268   -1.9251454   0.89699113   -1.0281543   0.12513808    11800.521     1000 
  384000   0.59017895   -1.9110703   0.88438316   -1.0266871   0.12636188    11827.442     1000 
  386000   0.59245088   -1.9076256   0.88778765    -1.019838   0.13135194    11621.883     1000 
  388000    0.5980515   -1.9900263   0.89618018   -1.0938462   0.12963489    11797.648     1000 
  390000   0.60070619   -1.9559328   0.90015823   -1.0557746   0.12587408    11673.086     1000 
  392000   0.58209647   -1.9675797   0.87227156   -1.0953082   0.12570428    11600.058     1000 
  394000   0.58528648    -1.910494   0.87705179   -1.0334422   0.13910807    11647.552     1000 
  396000    0.5582273   -1.9609903    0.8365036   -1.1244867   0.12586487    11655.901     1000 
  398000   0.60430582   -1.9606248   0.90555227   -1.0550726   0.13893263     11644.15     1000 
  400000   0.57596204   -1.9167708   0.86307911   -1.0536917   0.12140843    11646.016     1000 
  402000   0.60993338   -1.9990562   0.91398517   -1.0850711   0.12376775    11687.744     1000 
  404000   0.57313522   -1.9610969   0.85884313   -1.1022538   0.12412225    11713.605     1000 
  406000   0.56896356   -1.9098444    0.8525919   -1.0572526   0.14026356    11516.138     1000 
  408000   0.60501867   -1.9349407   0.90662048   -1.0283202    0.1433987    11477.608     1000 
  410000    0.6067931   -1.9047101   0.90927947  -0.99543066   0.12827758    11683.661     1000 
  412000   0.59268325   -1.9276263   0.88813585   -1.0394905   0.13472929    11575.881     1000 
  414000   0.57409476   -1.9351057   0.86028099   -1.0748247   0.12111034    11662.918     1000 
  416000    0.6020185   -1.9621429   0.90212472   -1.0600182   0.13948124    11565.524     1000 
  418000   0.55738933   -1.9504549   0.83524791    -1.115207   0.12889442    11670.495     1000 
  420000   0.60521069   -1.9683531   0.90690821   -1.0614449   0.12436812    11749.051     1000 
  422000   0.59463966   -1.8967444   0.89106753   -1.0056769   0.13483309    11514.637     1000 
  424000    0.5749996    -1.934131   0.86163691   -1.0724941   0.13046255    11740.009     1000 
  426000   0.57516735    -1.907501   0.86188827   -1.0456128   0.14293645    11444.315     1000 
  428000   0.60037362   -1.9138778   0.89965987   -1.0142179   0.12947933    11726.673     1000 
  430000   0.59931704   -1.9195145   0.89807658   -1.0214379   0.13040813    11668.104     1000 
  432000    0.6005039   -1.9077653   0.89985509   -1.0079102   0.13499297    11593.516     1000 
  434000    0.5900897   -1.9215265   0.88424942   -1.0372771   0.13233009    11734.791     1000 
  436000   0.59698127   -1.9325551   0.89457644   -1.0379787   0.13219209    11646.878     1000 
  438000   0.60740868   -1.9347654   0.91020191   -1.0245635   0.13132903    11551.292     1000 
  440000   0.56878266   -1.9160298   0.85232081    -1.063709   0.13258846    11615.443     1000 
  442000   0.58228721   -1.9727779   0.87255739   -1.1002205    0.1165136    11851.764     1000 
  444000   0.60434161   -1.9393687    0.9056059   -1.0337628   0.14049436     11505.64     1000 
  446000   0.59192725   -1.9772594   0.88700298   -1.0902565   0.12205997    11580.505     1000 
  448000   0.61056333   -1.9107074   0.91492915  -0.99577824   0.14268193    11399.682     1000 
  450000    0.5893132   -1.8881355   0.88308584   -1.0050497   0.13781488    11679.128     1000 
  452000   0.58166738   -1.9518537   0.87162857   -1.0802251   0.12232006    11748.168     1000 
  454000   0.57812927   -1.8976882   0.86632671   -1.0313615   0.12577948     11854.13     1000 
  456000   0.60665542   -1.9224043   0.90907315   -1.0133312   0.13026018    11654.962     1000 
  458000   0.58729721   -1.9031744   0.88006486   -1.0231095   0.12401509    11686.648     1000 
  460000   0.61034563   -1.9255099   0.91460292   -1.0109069   0.12621499    11639.682     1000 
  462000   0.58927128   -1.8905497   0.88302302   -1.0075267   0.11366305    11777.957     1000 
  464000   0.59289951   -1.9197926   0.88845991   -1.0313327   0.13387124    11641.966     1000 
  466000    0.6112027   -1.9468958   0.91588725   -1.0310085   0.13782683     11736.54     1000 
  468000   0.58628977   -1.9764261   0.87855522   -1.0978709   0.13558613    11664.155     1000 
  470000   0.57309799   -1.9676413   0.85878734    -1.108854   0.11463167     11795.45     1000 
  472000   0.55810384   -1.9441005    0.8363186   -1.1077819   0.12931341    11653.956     1000 
  474000    0.5923838   -1.9088845   0.88768713   -1.0211974   0.13365985    11613.931     1000 
  476000   0.59544828   -1.9291614   0.89227925   -1.0368822   0.12905697    11606.316     1000 
  478000   0.58627444    -1.920417   0.87853225   -1.0418848   0.13039468     11595.09     1000 
  480000   0.60401309   -1.9013063   0.90511361  -0.99619269   0.13395274    11571.911     1000 
  482000   0.58283051    -1.938107   0.87337151   -1.0647355   0.13375404    11695.462     1000 
  484000   0.58195705   -1.9174182   0.87206264   -1.0453556   0.13639138    11525.063     1000 
  486000   0.56981923   -1.9607544   0.85387412   -1.1068803   0.13223571    11493.137     1000 
  488000   0.60172363   -1.9334156   0.90168286   -1.0317327   0.12398011    11847.993     1000 
  490000   0.58833579   -1.9061226   0.88162118   -1.0245014   0.12212201    11710.843     1000 
  492000    0.6079194   -1.9461643   0.91096722   -1.0351971   0.11712503    11820.502     1000 
  494000   0.59510873   -1.9339577   0.89177043   -1.0421873   0.14368419    11613.033     1000 
  496000   0.58975127   -1.9417596   0.88374228   -1.0580173   0.13327596    11746.804     1000 
  498000   0.58584803   -1.9110496   0.87789328   -1.0331563   0.12203918    11829.094     1000 
  500000   0.60289664   -1.9506783   0.90344061   -1.0472377   0.13060223    11699.345     1000 
  502000   0.58228853   -1.8838411   0.87255937   -1.0112817   0.13340326    11634.084     1000 
  504000   0.56128429   -1.9140598   0.84108451   -1.0729752   0.13731537    11562.229     1000 
  506000   0.58799154   -1.9358771   0.88110532   -1.0547718   0.12116299    11750.924     1000 
  508000   0.57968975   -1.9632974   0.86866508   -1.0946324   0.12043019    11657.351     1000 
  510000   0.57960607   -1.9572866   0.86853969   -1.0887469    0.1296284    11714.973     1000 
  512000   0.59466543   -1.8939594   0.89110615   -1.0028533   0.13539335    11587.893     1000 
  514000   0.58493531   -1.9948113   0.87652556   -1.1182858   0.13109091    11741.169     1000 
  516000   0.61153009   -1.9281371   0.91637784   -1.0117593   0.14392206    11443.486     1000 
  518000   0.60695874   -1.8827928   0.90952767  -0.97326508   0.13225861    11574.005     1000 
  520000   0.59682313   -1.9393542   0.89433946   -1.0450147   0.13766788    11573.883     1000 
  522000   0.58427101   -1.9295085   0.87553011   -1.0539784   0.13164307    11592.056     1000 
  524000   0.58714996   -1.9470001   0.87984421   -1.0671559   0.13175458    11448.915     1000 
  526000   0.60078704   -1.9672122   0.90027938   -1.0669328   0.11849328    11734.849     1000 
  528000   0.60748952    -1.920935   0.91032305    -1.010612   0.12992283    11634.999     1000 
  530000   0.59591523   -1.9318047   0.89297896   -1.0388257   0.12432024    11682.137     1000 
  532000    0.6063575   -2.0023118   0.90862671   -1.0936851   0.12019939     11831.39     1000 
  534000   0.56867559     -1.93559   0.85216037   -1.0834296   0.12239972    11653.713     1000 
  536000   0.60494545   -1.9398924   0.90651076   -1.0333816   0.14301007    11538.013     1000 
  538000   0.56300961   -1.9242159    0.8436699    -1.080546   0.11769014    11700.552     1000 
  540000   0.59921849   -1.9032921   0.89792891   -1.0053632   0.12154446    11574.075     1000 
  542000   0.58209552   -1.9403472   0.87227014   -1.0680771   0.13406778    11737.325     1000 
  544000   0.57252505   -1.9283451   0.85792879   -1.0704163   0.13175945    11627.173     1000 
  546000   0.58487601   -1.8980756    0.8764367   -1.0216389   0.15000762    11535.261     1000 
  548000   0.59694167   -1.9145227   0.89451709   -1.0200056   0.13057598    11850.676     1000 
  550000   0.58514345   -1.9729277   0.87683746   -1.0960902   0.11592886    11582.683     1000 
  552000   0.59188734   -1.8845207   0.88694318  -0.99757747   0.13641084    11569.924     1000 
  554000   0.57055397   -1.8570486   0.85497513   -1.0020735   0.13417755    11537.522     1000 
  556000   0.57273216   -1.9625581   0.85823914    -1.104319   0.13971108    11559.408     1000 
  558000   0.57611538   -1.9004404    0.8633089   -1.0371315   0.11840415    11849.505     1000 
  560000   0.56794546   -1.9215162   0.85106627   -1.0704499   0.12383154    11590.007     1000 
  562000   0.58591723   -1.9240823   0.87799698   -1.0460853   0.12251617    11640.496     1000 
  564000     0.558285   -1.9541381   0.83659008   -1.1175481   0.12692403    11495.039     1000 
  566000   0.55579803   -1.9473912   0.83286334   -1.1145279   0.12359923     11633.24     1000 
  568000   0.56593697   -1.9528397   0.84805655   -1.1047831   0.13377915    11569.072     1000 
  570000   0.56276654   -1.9082223   0.84330566   -1.0649167   0.12305043     11611.34     1000 
  572000   0.59634519   -1.9041269   0.89362327   -1.0105036   0.13501166    11563.711     1000 
  574000   0.56553559   -1.9119726   0.84745508   -1.0645175    0.1272045    11625.806     1000 
  576000   0.57421158   -1.9356203   0.86045605   -1.0751643   0.14391326    11631.349     1000 
  578000   0.56423683    -1.895162   0.84550889   -1.0496531   0.13724483    11485.326     1000 
  580000   0.61776332   -1.8987413   0.92571833  -0.97302295   0.13013293    11682.512     1000 
  582000   0.55270361   -1.9001507   0.82822636   -1.0719243   0.11665623    11542.949     1000 
  584000   0.57498193   -1.9163768   0.86161042   -1.0547663     0.132636    11705.594     1000 
  586000   0.56935896   -1.9173017   0.85318439   -1.0641173   0.12523362    11561.375     1000 
  588000   0.58166547   -1.9146281   0.87162571   -1.0430024   0.12667284    11648.783     1000 
  590000    0.5846168   -1.9297594   0.87604827   -1.0537111   0.12800973    11739.421     1000 
  592000   0.57661638   -1.9062398   0.86405965   -1.0421802   0.12324058    11656.063     1000 
  594000   0.61760472   -1.8959737   0.92548068  -0.97049305   0.13487391    11483.291     1000 
  596000   0.58052057   -1.9481892   0.86991008   -1.0782791   0.12641392    11716.661     1000 
  598000   0.58564309   -1.9655414   0.87758617   -1.0879553   0.13513333    11727.133     1000 
  600000   0.61485513   -1.8720051   0.92136041   -0.9506447   0.14382685    11476.829     1000 
  602000   0.59338203   -1.9306318   0.88918297   -1.0414488   0.12515377    11799.482     1000 
  604000   0.59796869   -1.9760682   0.89605608   -1.0800121   0.13196882    11626.948     1000 
  606000   0.57177551   -1.9040802   0.85680561   -1.0472746   0.13141313     11553.88     1000 
  608000   0.59630611   -1.9520896    0.8935647   -1.0585249   0.11868895     11851.42     1000 
  610000   0.59287877   -1.9301933   0.88842884   -1.0417644   0.13412976    11604.579     1000 
  612000    0.5881934   -1.9195337    0.8814078   -1.0381259   0.13362929    11544.791     1000 
  614000   0.59944963   -1.9257994   0.89827527   -1.0275241   0.13095223     11484.21     1000 
  616000   0.60684146   -1.9757982   0.90935193   -1.0664463   0.11012268    11771.975     1000 
  618000   0.60834233   -1.9357569   0.91160098   -1.0241559   0.13911897    11489.644     1000 
  620000   0.60679087   -1.9268607   0.90927611   -1.0175846   0.13800681    11484.009     1000 
  622000   0.56199692   -1.9445077   0.84215239   -1.1023553   0.12057545    11698.984     1000 
  624000   0.58220824   -1.9059821   0.87243905    -1.033543   0.11735296    11774.751     1000 
  626000    0.5680504   -1.9221705   0.85122353    -1.070947   0.13125498    11642.306     1000 
  628000   0.61122841   -1.9810357   0.91592577   -1.0651099   0.13317044    11746.312     1000 
  630000   0.59485455   -1.8591912   0.89138954  -0.96780166   0.11490277    11837.382     1000 
  632000   0.57735603   -1.9015391     0.865168   -1.0363711   0.12891751    11712.981     1000 
  634000   0.58044578   -1.9266195     0.869798   -1.0568215   0.12231369     11797.03     1000 
  636000   0.58333856   -1.9669829   0.87413283   -1.0928501   0.12958232    11707.045     1000 
  638000   0.60748903   -1.9423767   0.91032232   -1.0320544   0.13694605    11569.927     1000 
  640000    0.5605913   -1.9295707   0.84004607   -1.0895246   0.11789897    11767.893     1000 
  642000   0.57022203    -1.953357   0.85447771   -1.0988793    0.1180871    11687.877     1000 
  644000   0.56998516    -1.964338   0.85412276   -1.1102152   0.12106933    11566.659     1000 
  646000   0.59171272   -1.9493459    0.8866815   -1.0626644   0.13539482    11547.619     1000 
  648000    0.5949323   -1.9728049   0.89150605   -1.0812988   0.12616508    11662.082     1000 
  650000   0.54348585   -1.9792622   0.81441355   -1.1648487   0.12139781    11512.135     1000 
  652000   0.60441812   -1.9203542   0.90572056   -1.0146336    0.1316879    11695.385     1000 
  654000   0.59044675   -1.9683145   0.88478446   -1.0835301   0.12292282    11692.361     1000 
  656000   0.58360059   -1.9714986   0.87452548   -1.0969731   0.12838695     11685.58     1000 
  658000   0.57464429   -1.9338067   0.86110447   -1.0727022   0.12532544    11617.378     1000 
  660000   0.58562874   -1.9491018   0.87756466   -1.0715371   0.12071285    11702.016     1000 
  662000    0.5911079   -1.9063169   0.88577519   -1.0205418   0.13280059    11526.236     1000 
  664000   0.59792506   -1.8692615   0.89599071  -0.97327075   0.13056586    11742.899     1000 
  666000   0.56055157   -1.9262888   0.83998653   -1.0863023   0.12895067    11522.017     1000 
  668000   0.59229231   -1.8703647   0.88755003   -0.9828147    0.1374194    11508.202     1000 
  670000   0.57432313   -1.9255796   0.86062321   -1.0649564   0.12972016    11671.315     1000 
  672000   0.60273933   -1.9489126   0.90320488   -1.0457077    0.1341742    11489.181     1000 
  674000   0.59789266   -1.8994155   0.89594214   -1.0034734   0.12684475    11602.844     1000 
  676000   0.58897148     -1.86552   0.88257376  -0.98294624   0.15959577    11298.358     1000 
  678000   0.58314259    -1.916817   0.87383916   -1.0429778    0.1336466    11620.187     1000 
  680000   0.60290047   -1.9249108   0.90344636   -1.0214644   0.14352762    11401.628     1000 
  682000   0.59897471   -1.8927306    0.8975636  -0.99516696    0.1462554    11337.799     1000 
  684000   0.58678194   -1.8733254   0.87929274   -0.9940327   0.14314505    11538.375     1000 
  686000   0.58041647   -1.9701278   0.86975409   -1.1003737   0.12463124    11679.754     1000 
  688000   0.58702141    -1.924423   0.87965158   -1.0447714   0.13131586    11571.937     1000 
  690000    0.5788952   -1.9747718   0.86747445   -1.1072974   0.13182539    11819.937     1000 
  692000   0.58477188   -1.9196484   0.87628067   -1.0433678   0.13362384    11645.885     1000 
  694000   0.57658566   -1.9054978   0.86401362   -1.0414842   0.14827915     11303.97     1000 
  696000   0.57784124   -1.9120474   0.86589509   -1.0461523   0.13436277    11540.063     1000 
  698000   0.58881234   -1.9672609   0.88233528   -1.0849256   0.11528451    11867.172     1000 
  700000    0.5899299   -1.9393968   0.88400996   -1.0553868   0.12985393    11692.263     1000 
  702000   0.59030109   -1.8737812   0.88456618  -0.98921501    0.1408866    11506.665     1000 
  704000   0.60037221   -1.9597364   0.89965776   -1.0600786   0.12442827    11804.387     1000 
  706000   0.58782989   -1.9689417   0.88086309   -1.0880786   0.12791699    11593.893     1000 
  708000   0.57849961   -1.8744029   0.86688166   -1.0075213   0.13800012    11527.189     1000 
  710000    0.5794581   -1.9222803   0.86831797   -1.0539623   0.13034012    11640.387     1000 
  712000   0.58155992   -2.0006511   0.87146754   -1.1291835   0.12654925    11644.174     1000 
  714000   0.58165166   -1.9516164   0.87160501   -1.0800114   0.12806645    11655.554     1000 
  716000   0.61808553   -1.9531844   0.92620117   -1.0269833   0.12852078    11771.114     1000 
  718000   0.59054637   -1.9949485   0.88493374   -1.1100147   0.12389061    11821.094     1000 
  720000   0.60954768   -1.9527204    0.9134072   -1.0393132   0.12154936    11842.257     1000 
  722000   0.59314532   -1.9541056   0.88882826   -1.0652774   0.12198492    11684.884     1000 
  724000   0.56492119   -1.9001628    0.8465344   -1.0536284   0.12124867    11631.217     1000 
  726000   0.58798143   -1.9403129   0.88109017   -1.0592227   0.11475483    11848.265     1000 
  728000    0.5813881   -1.9289907   0.87121007   -1.0577807   0.12457662    11707.794     1000 
  730000   0.59797325   -1.9472147   0.89606292   -1.0511517   0.12866611    11644.217     1000 
  732000   0.58484271   -1.9683505    0.8763868   -1.0919637   0.11877407    11843.615     1000 
  734000   0.57751923   -1.9454186   0.86541256    -1.080006   0.13180428    11618.002     1000 
  736000    0.5988186   -1.9482914   0.89732967   -1.0509618   0.13549521    11730.405     1000 
  738000   0.59438459   -1.9525168   0.89068531   -1.0618314     0.118845    11772.185     1000 
  740000   0.60758689   -1.9279169   0.91046895    -1.017448   0.13451509    11482.164     1000 
  742000   0.59316855   -1.9333594   0.88886308   -1.0444963   0.13059165    11695.271     1000 
  744000   0.57164735   -1.9259446   0.85661355   -1.0693311   0.12032888    11771.904     1000 
  746000   0.58151647   -1.9119562   0.87140243   -1.0405537   0.11230873    11704.219     1000 
  748000    0.5973552   -1.9538396   0.89513677   -1.0587028   0.12871821     11702.47     1000 
  750000   0.58013094    -1.895739   0.86932622   -1.0264128   0.13335103    11622.391     1000 
  752000   0.57641298   -1.9234974   0.86375485   -1.0597426   0.13192878    11696.887     1000 
  754000   0.59160343   -1.9288432   0.88651773   -1.0423254   0.12576425    11781.668     1000 
  756000    0.5915588   -1.8941247   0.88645086   -1.0076738   0.11991639    11743.248     1000 
  758000   0.58586143   -1.8983168   0.87791336   -1.0204034   0.11938227    11727.395     1000 
  760000    0.5957518   -1.9110963   0.89273407   -1.0183623   0.13680358    11465.801     1000 
  762000   0.58340334   -1.8896939    0.8742299    -1.015464    0.1340235    11501.138     1000 
  764000   0.59391697   -1.9590492   0.88998458   -1.0690646   0.12192199    11796.593     1000 
  766000   0.58227334   -1.9500236    0.8725366    -1.077487   0.11974207    11748.125     1000 
  768000   0.62862861   -1.9104832   0.94199997   -0.9684832   0.13014889    11818.083     1000 
  770000   0.57808521   -1.8711294   0.86626069   -1.0048687   0.12659188    11609.983     1000 
  772000   0.59903614   -1.9196638   0.89765565   -1.0220082    0.1209896    11564.519     1000 
  774000   0.60149732   -1.9029322   0.90134374   -1.0015884   0.13324219    11534.702     1000 
  776000   0.61118173   -1.9404389   0.91585582    -1.024583   0.13441968    11632.426     1000 
  778000   0.58737375   -1.8851547   0.88017956   -1.0049751    0.1279585     11577.98     1000 
  780000   0.59421569    -1.924132   0.89043221   -1.0336998   0.14090452    11514.145     1000 
  782000    0.5699576   -1.9164325   0.85408146    -1.062351    0.1363471    11564.035     1000 
  784000   0.60979968   -1.9273873   0.91378483   -1.0136025    0.1348164    11542.655     1000 
  786000   0.58795164     -1.94541   0.88104553   -1.0643645   0.13165507    11735.153     1000 
  788000   0.58922815   -1.9291119   0.88295838   -1.0461535   0.13846833    11656.574     1000 
  790000   0.57926451   -1.9785659   0.86802787    -1.110538   0.11937059    11683.969     1000 
  792000   0.58135444   -1.9173125   0.87115963   -1.0461529   0.12640492    11683.844     1000 
  794000   0.59438609    -1.864479   0.89068755  -0.97379145   0.12512144    11654.116     1000 
  796000   0.54415881   -2.0118109   0.81542197   -1.1963889   0.13121996    11646.854     1000 
  798000   0.57981423   -1.9187626   0.86885163    -1.049911   0.13375106    11664.226     1000 
  800000   0.59978996   -1.9105059   0.89878526   -1.0117207   0.13428689    11442.048     1000 
  802000   0.58689465   -1.9562549   0.87946163   -1.0767933   0.14024533    11691.034     1000 
  804000   0.56882471   -1.9846052   0.85238383   -1.1322213   0.12074226    11697.471     1000 
  806000   0.58402263   -1.9751289   0.87515791    -1.099971    0.1479165    11478.592     1000 
  808000   0.59252852   -1.9198265   0.88790398   -1.0319226   0.12515814    11660.945     1000 
  810000   0.59199254   -1.8846041   0.88710083  -0.99750324   0.12140839    11554.791     1000 
  812000   0.60781597   -1.9107791   0.91081223  -0.99996691   0.13905165    11557.785     1000 
  814000   0.60829817   -1.9445496   0.91153481   -1.0330148   0.12541691    11713.644     1000 
  816000   0.58951679   -1.9159267   0.88339091   -1.0325358   0.14049945    11509.688     1000 
  818000   0.59992751   -1.9199797   0.89899137   -1.0209884   0.12661105    11624.077     1000 
  820000   0.56503181   -1.8830012   0.84670017    -1.036301   0.12051064    11579.156     1000 
  822000   0.59749835   -1.9290193   0.89535128    -1.033668   0.13076687    11738.797     1000 
  824000   0.57131803   -1.9021157   0.85612007   -1.0459957   0.12145569    11716.167     1000 
  826000   0.60123976   -1.9297566   0.90095777   -1.0287988   0.14414093    11620.092     1000 
  828000   0.58935017   -1.8815649   0.88314123  -0.99842364   0.12663275    11587.015     1000 
  830000   0.59930039   -1.9080973   0.89805163   -1.0100456   0.13643323     11586.22     1000 
  832000   0.57072516   -1.9630192   0.85523166   -1.1077875   0.13339352    11585.209     1000 
  834000   0.62584848   -1.9280708   0.93783395  -0.99023686    0.1329736     11586.68     1000 
  836000   0.58200117   -1.9783034   0.87212876   -1.1061746   0.13298159    11567.943     1000 
  838000   0.58847909   -1.9601014   0.88183591   -1.0782654   0.11590139    11722.524     1000 
  840000   0.60960483   -1.8951472   0.91349284  -0.98165439    0.1546444    11368.374     1000 
  842000    0.5744568   -1.8669623   0.86082351   -1.0061388      0.11384    11540.302     1000 
  844000   0.57972546   -1.9477643    0.8687186   -1.0790457   0.14374918    11443.855     1000 
  846000   0.58352713   -1.9366092   0.87441541   -1.0621938   0.12188281    11705.265     1000 
  848000   0.59338697   -1.9752946   0.88919038   -1.0861042   0.12863915    11674.791     1000 
  850000    0.5608644   -1.9054798    0.8404553   -1.0650245   0.12970338    11627.419     1000 
  852000   0.60148937   -1.9374336   0.90133182   -1.0361017   0.11941311    11698.374     1000 
  854000   0.59505688    -1.938478   0.89169273   -1.0467853   0.14025519    11623.546     1000 
  856000   0.60605383   -1.9510135   0.90817167   -1.0428418   0.11898395    11957.706     1000 
  858000   0.57760177   -2.0113239   0.86553626   -1.1457876    0.1325392    11716.264     1000 
  860000   0.55711403   -1.9315032   0.83483537   -1.0966679     0.121622    11677.137     1000 
  862000   0.59314281    -1.954187   0.88882449   -1.0653625   0.12814381    11676.077     1000 
  864000   0.58429346   -1.9621415   0.87556375   -1.0865777   0.11177282    11943.845     1000 
  866000   0.60175805   -1.9227117   0.90173444   -1.0209772   0.12059565    11801.546     1000 
  868000   0.54586621   -1.9256245   0.81798052    -1.107644   0.12158611    11593.172     1000 
  870000   0.58351858   -1.9058501   0.87440259   -1.0314475   0.12823193    11745.112     1000 
  872000   0.61109645   -1.9281786   0.91572802   -1.0124505   0.12514104    11830.844     1000 
  874000   0.60607085   -1.9269942   0.90819717   -1.0187971   0.13464125    11698.383     1000 
  876000   0.57604104   -1.9513117    0.8631975   -1.0881142   0.13732034     11769.86     1000 
  878000   0.57534743   -1.9633707   0.86215812   -1.1012126   0.12629138    11680.212     1000 
  880000   0.59241979   -1.8529499   0.88774106  -0.96520882   0.13704645    11600.905     1000 
  882000    0.5991463   -1.9584271   0.89782073   -1.0606063   0.13721853    11496.428     1000 
  884000   0.59730568   -1.9174606   0.89506256   -1.0223981   0.12669045    11578.054     1000 
  886000   0.58916546   -1.9440796   0.88286445   -1.0612151   0.13754367    11731.774     1000 
  888000   0.55569115   -1.8836532    0.8327032     -1.05095   0.13235915    11488.311     1000 
  890000    0.5914538     -1.92046   0.88629353   -1.0341665   0.13750413    11748.756     1000 
  892000   0.57261615   -1.9444655    0.8580653   -1.0864002   0.13954578    11648.756     1000 
  894000    0.5828046   -1.9150793   0.87333269   -1.0417466   0.13016616    11724.933     1000 
  896000   0.59205423   -1.9346476   0.88719326   -1.0474544   0.13069802    11615.328     1000 
  898000   0.58833174    -1.924703   0.88161511   -1.0430878   0.13205057    11689.864     1000 
  900000   0.58215566   -1.9661281   0.87236025   -1.0937678   0.12785733     11697.25     1000 
  902000   0.60137573   -1.9082867   0.90116154   -1.0071251   0.13307355    11557.415     1000 
  904000   0.60432053   -1.8619146   0.90557431  -0.95634034   0.15001593    11365.622     1000 
  906000   0.59944712   -1.9310128   0.89827151   -1.0327413   0.12603759    11623.438     1000 
  908000   0.59434402   -1.9132211   0.89062451   -1.0225966   0.13533762     11503.67     1000 
  910000   0.57240744   -1.9512173   0.85775255   -1.0934648   0.13500963    11688.063     1000 
  912000   0.61024656   -1.9680539   0.91445448   -1.0535995   0.13566019    11703.922     1000 
  914000   0.58545179   -1.9157285   0.87729951    -1.038429   0.12633821    11686.813     1000 
  916000   0.60607955   -1.9763764   0.90821021   -1.0681662    0.1313183    11560.395     1000 
  918000   0.58632875    -1.920419   0.87861363   -1.0418054   0.13523628    11605.009     1000 
  920000   0.59395264   -2.0225859   0.89003803   -1.1325478   0.13298853    11561.565     1000 
  922000   0.60124118   -1.9173455    0.9009599   -1.0163856   0.13825495    11662.938     1000 
  924000   0.58251136   -2.0146788   0.87289327   -1.1417855    0.1323636    11691.353     1000 
  926000   0.62368386   -1.9430578   0.93459027   -1.0084675    0.1347017    11850.186     1000 
  928000   0.59681441   -1.9360939   0.89432639   -1.0417675   0.13219049    11528.653     1000 
  930000   0.58897857   -1.9674809   0.88258438   -1.0848965   0.12582351    11791.391     1000 
  932000   0.58448841   -1.9090563   0.87585588   -1.0332004   0.13078454    11576.596     1000 
  934000   0.60182199   -1.8818279   0.90183025  -0.97999768   0.13234153    11718.859     1000 
  936000   0.58092051   -1.9318289   0.87050939   -1.0613195   0.13907676    11625.231     1000 
  938000   0.58505843    -1.946728   0.87671005    -1.070018   0.13413329     11745.61     1000 
  940000   0.59472382   -1.9313412   0.89119364   -1.0401475   0.13533263    11671.744     1000 
  942000   0.57024883   -1.9448224   0.85451787   -1.0903045   0.12985002    11634.336     1000 
  944000   0.58493843   -1.9721373   0.87653024    -1.095607   0.12715482    11749.943     1000 
  946000   0.63281957   -1.8917103   0.94828012  -0.94343019   0.12221007    11797.077     1000 
  948000   0.58165971   -1.9461962   0.87161707   -1.0745791   0.13615754    11556.649     1000 
  950000   0.60614594   -1.9528314   0.90830969   -1.0445217   0.11877742    11883.544     1000 
  952000    0.5947157   -1.9373119   0.89118148   -1.0461304   0.12642947    11701.357     1000 
  954000   0.59601471   -1.9880544   0.89312805   -1.0949263   0.12493568    11750.194     1000 
  956000   0.56714454   -1.9788443   0.84986609   -1.1289782   0.12273852    11690.512     1000 
  958000   0.57270029   -1.9453262   0.85819139   -1.0871348   0.13578111    11494.899     1000 
  960000   0.59562819   -1.9204436   0.89254884   -1.0278947      0.14614     11474.55     1000 
  962000   0.61777538   -1.8888917   0.92573641  -0.96315533   0.12699098    11662.963     1000 
  964000   0.59226539   -1.9023942   0.88750969   -1.0148845   0.13184743    11616.264     1000 
  966000   0.61012776   -1.9605469   0.91427645   -1.0462704    0.1312988    11712.047     1000 
  968000   0.54539387   -1.9147598   0.81727272    -1.097487   0.12642546    11721.951     1000 
  970000   0.56372221   -1.9402358   0.84473773   -1.0954981     0.119495    11606.573     1000 
  972000   0.58623676   -1.9641558   0.87847579     -1.08568   0.12494828     11776.22     1000 
  974000   0.58385267   -1.9472895   0.87490323   -1.0723863   0.12738213    11751.742     1000 
  976000   0.62828409   -1.9760208   0.94148371   -1.0345371    0.1227784    11892.649     1000 
  978000   0.59340325   -1.9376454   0.88921477   -1.0484306    0.1286499    11591.908     1000 
  980000   0.56811446   -1.9386006   0.85131952   -1.0872811    0.1276132    11641.742     1000 
  982000    0.6038915   -1.9549523   0.90493141   -1.0500209   0.12547515     11642.11     1000 
  984000    0.5833764   -1.9220883   0.87418954   -1.0478988    0.1347999    11573.183     1000 
  986000   0.58591763   -1.9424702   0.87799757   -1.0644727   0.12814382    11733.196     1000 
  988000   0.61123242   -1.9478914   0.91593179   -1.0319596   0.13677617    11664.442     1000 
  990000   0.57741525    -1.967085   0.86525675   -1.1018282   0.12470207    11679.569     1000 
  992000    0.5828009   -1.9808752   0.87332714    -1.107548   0.12199852    11756.827     1000 
  994000    0.6092126   -1.9304221   0.91290508    -1.017517   0.13170647      11515.3     1000 
  996000   0.60361584   -1.9222881   0.90451833   -1.0177698   0.14075541    11622.901     1000 
  998000   0.60216326   -1.9040964   0.90234165   -1.0017547   0.13713518    11527.004     1000 
 1000000   0.59512678   -1.9655221   0.89179748   -1.0737246   0.12927579    11605.818     1000 
 1002000   0.57429725   -1.8971013   0.86058443   -1.0365169   0.13245872      11614.4     1000 
 1004000   0.55682993   -1.9546575   0.83440965   -1.1202479   0.12657181    11673.299     1000 
 1006000   0.61503917   -1.9227441    0.9216362   -1.0011079   0.13451837      11854.6     1000 
 1008000   0.61547389   -1.9236215   0.92228762   -1.0013338   0.12241209      11629.3     1000 
 1010000    0.5807161   -1.9470569   0.87020308   -1.0768538   0.11239014    11754.479     1000 
 1012000   0.58385644   -1.8755594   0.87490887   -1.0006505   0.13292292    11582.059     1000 
 1014000   0.59686084    -1.946527   0.89439597    -1.052131   0.13652241    11620.827     1000 
 1016000    0.5891008   -1.9624056   0.88276755    -1.079638   0.14437189    11505.278     1000 
 1018000   0.59545609   -1.9723516   0.89229095   -1.0800607   0.13600788    11573.811     1000 
 1020000   0.60105912   -1.9109276   0.90068709   -1.0102405   0.12130433    11687.431     1000 
 1022000   0.60329848   -1.9589832   0.90404277   -1.0549405   0.13124267    11635.341     1000 
 1024000   0.62076891   -1.9118301   0.93022221  -0.98160786   0.11897274    11659.519     1000 
 1026000   0.59794165   -1.9975945   0.89601556   -1.1015789   0.12220826    11696.505     1000 
 1028000   0.59138348   -1.9216015   0.88618815   -1.0354134   0.12044162    11682.253     1000 
 1030000   0.58990295   -1.9652337   0.88396957   -1.0812641   0.12645042    11501.804     1000 
 1032000    0.5862057   -1.9150428   0.87842925   -1.0366136   0.14018371    11498.125     1000 
 1034000   0.60281321   -1.9420772    0.9033156   -1.0387616   0.12670246    11847.198     1000 
 1036000   0.57657637   -1.8898386   0.86399969   -1.0258389   0.12601492     11548.35     1000 
 1038000   0.58719353   -1.9558336    0.8799095   -1.0759241   0.13589782    11728.217     1000 
 1040000    0.5859248   -1.9643801   0.87800832   -1.0863718   0.13126793    11656.111     1000 
 1042000    0.5941739   -1.9478749   0.89036959   -1.0575053   0.11078452    11700.835     1000 
 1044000    0.6004168   -1.9539676   0.89972457    -1.054243   0.13268617    11591.159     1000 
 1046000   0.58645432   -1.9151818    0.8788018   -1.0363799   0.13537938    11656.637     1000 
 1048000   0.59440776   -1.9407648   0.89072002   -1.0500448   0.14266068    11504.706     1000 
 1050000   0.58519208   -1.9402217   0.87691033   -1.0633114   0.11530779    11776.063     1000 
 1052000   0.58430292   -1.9140078   0.87557793   -1.0384299   0.12609791    11613.272     1000 
 1054000   0.59781062    -1.985068   0.89581922   -1.0892488   0.13603294    11640.105     1000 
 1056000    0.5883112   -1.9747792   0.88158433   -1.0931949   0.13104797    11491.863     1000 
 1058000    0.6063112   -1.9341588   0.90855733   -1.0256014   0.12302341    11773.129     1000 
 1060000   0.62186451   -1.9410604   0.93186397   -1.0091964   0.13770824     11519.81     1000 
 1062000   0.59298988    -1.931376   0.88859534   -1.0427807   0.11516888    11828.054     1000 
 1064000   0.60457406   -1.9337229   0.90595423   -1.0277687   0.13249013    11637.533     1000 
 1066000   0.58895052   -1.9131556   0.88254236   -1.0306132   0.12657188     11700.91     1000 
 1068000   0.59451933   -1.9059535   0.89088722   -1.0150663   0.11981631    11859.343     1000 
 1070000   0.58088065   -1.9562181   0.87044965   -1.0857685   0.12272368    11778.765     1000 
 1072000   0.56948177   -1.9100698   0.85336843   -1.0567014   0.12238356    11531.842     1000 
 1074000   0.58867191   -1.9250632   0.88212485   -1.0429384   0.15394232    11365.142     1000 
 1076000   0.60567114   -1.9006749   0.90759821  -0.99307669   0.12626466    11563.267     1000 
 1078000   0.58328734   -1.9518838   0.87405608   -1.0778277   0.12826028    11552.508     1000 
 1080000   0.57945069   -1.9998587   0.86830685   -1.1315519   0.11933416    11687.536     1000 
 1082000   0.58776356   -1.9006317   0.88076369    -1.019868   0.12279417    11641.064     1000 
 1084000   0.59151277   -1.9274461   0.88638189   -1.0410642    0.1293993    11759.264     1000 
 1086000   0.60366293   -1.9625233   0.90458891   -1.0579344    0.1199481    11673.788     1000 
 1088000    0.5793177   -1.9384962   0.86810757   -1.0703886   0.12487083    11820.262     1000 
 1090000   0.57185473   -1.9068776   0.85692432   -1.0499533   0.13326666    11504.606     1000 
 1092000   0.58413879   -1.9050913   0.87533198   -1.0297594   0.12855727    11613.735     1000 
 1094000   0.58741686   -1.9056356   0.88024416   -1.0253914   0.13549065    11514.088     1000 
 1096000   0.61093928   -1.9607484   0.91549251   -1.0452559   0.12996377    11645.336     1000 
 1098000   0.57935033    -1.946051   0.86815647   -1.0778946   0.12510619    11594.881     1000 
 1100000   0.59199966   -1.8787614   0.88711149   -0.9916499   0.13089105    11617.883     1000 
 1102000    0.5895331   -1.9791348   0.88341536   -1.0957194   0.13019523    11565.407     1000 
 1104000   0.58068649   -1.9966195   0.87015871   -1.1264608   0.11722657     11798.63     1000 
 1106000   0.59728457   -1.9536699   0.89503093    -1.058639   0.12838103    11641.746     1000 
 1108000   0.58594766   -1.9400632   0.87804256   -1.0620206   0.13547806    11482.594     1000 
 1110000   0.61451185   -1.8952253   0.92084601  -0.97437927   0.13283791    11649.649     1000 
 1112000   0.58990463    -1.931162   0.88397208     -1.04719   0.12486261    11480.677     1000 
 1114000   0.59672865   -1.9748735   0.89419788   -1.0806756   0.12851213     11750.64     1000 
 1116000   0.59591434   -1.9240329   0.89297764   -1.0310552   0.14179109    11481.428     1000 
 1118000   0.58548823   -1.9056973   0.87735411   -1.0283432   0.12978497    11430.346     1000 
 1120000   0.56103709   -1.9619104   0.84071408   -1.1211963   0.13347606    11715.772     1000 
 1122000   0.58249313   -1.9282327   0.87286595   -1.0553667   0.12646792    11809.107     1000 
 1124000   0.57907412   -1.8695002   0.86774256   -1.0017576     0.144492    11371.746     1000 
 1126000    0.5837377   -1.9450288   0.87473094   -1.0702978   0.14080643    11616.514     1000 
 1128000   0.57626313   -1.9642492   0.86353031   -1.1007189   0.12167535     11816.52     1000 
 1130000   0.61655113   -1.9469902   0.92390187   -1.0230883   0.13346444    11604.484     1000 
 1132000   0.58161796   -1.9132139   0.87155451   -1.0416594   0.14127294    11486.878     1000 
 1134000   0.59177096   -1.9100839   0.88676878   -1.0233151   0.13519998    11716.424     1000 
 1136000   0.60352238   -1.9135471   0.90437829   -1.0091688   0.14205292    11624.267     1000 
 1138000   0.58023066   -1.9848116   0.86947564    -1.115336      0.12873    11700.975     1000 
 1140000   0.60607329    -1.932994   0.90820083   -1.0247931   0.12376025    11665.857     1000 
 1142000    0.6166822   -1.8996961   0.92409828  -0.97559784   0.13438603     11580.98     1000 
 1144000   0.56196802   -1.8976746   0.84210908   -1.0555655   0.13461589    11572.476     1000 
 1146000   0.58417954   -1.9340655   0.87539305   -1.0586724   0.14149482    11533.368     1000 
 1148000   0.59612243   -1.9831807   0.89328945   -1.0898912   0.12675507    11668.051     1000 
 1150000   0.58631177   -1.9750923   0.87858818   -1.0965041   0.12004579    11830.662     1000 
 1152000   0.57081861   -1.9042328   0.85537169   -1.0488611   0.13487288    11524.049     1000 
 1154000    0.5863224   -1.9633043   0.87860412   -1.0847002   0.13170886    11833.568     1000 
 1156000   0.61188196   -1.8794461   0.91690512  -0.96254098   0.12558836     11704.22     1000 
 1158000   0.57823877   -1.9905577    0.8664908   -1.1240669   0.11863796    11743.101     1000 
 1160000   0.59199354    -1.911395   0.88710232   -1.0242927   0.14121217    11426.895     1000 
 1162000   0.58616216    -1.907755   0.87836399    -1.029391   0.14109857     11496.08     1000 
 1164000   0.58010488   -1.9624454   0.86928717   -1.0931582   0.11955189    11780.296     1000 
 1166000   0.60604699   -1.9504843   0.90816142   -1.0423229   0.13603374    11628.438     1000 
 1168000   0.59350757   -1.9608189    0.8893711   -1.0714478   0.12921752    11656.202     1000 
 1170000   0.59418701   -1.8815311   0.89038924  -0.99114188   0.13902344     11492.56     1000 
 1172000   0.56416311   -1.9285378   0.84539842   -1.0831393   0.13196012     11787.27     1000 
 1174000    0.6031446    -1.953403   0.90381219   -1.0495908   0.12920376    11701.527     1000 
 1176000   0.57323353   -1.9038418   0.85899044   -1.0448514   0.12758758    11673.195     1000 
 1178000   0.60300325   -1.9338182   0.90360038   -1.0302178   0.13321819    11644.703     1000 
 1180000    0.6102078   -1.9173236   0.91439638   -1.0029272   0.13201693    11506.613     1000 
 1182000   0.57415952   -1.9226912   0.86037804   -1.0623132   0.11585471    11815.243     1000 
 1184000   0.57927271   -1.9371388   0.86804016   -1.0690986   0.13435869    11678.687     1000 
 1186000   0.61769928   -1.8974167   0.92562237  -0.97179436   0.12477992     11759.44     1000 
 1188000   0.58571599   -1.9244742   0.87769541   -1.0467787    0.1307721    11620.248     1000 
 1190000   0.58285844    -1.927088   0.87341337   -1.0536747   0.12881188    11607.914     1000 
 1192000   0.56991248   -1.9935749   0.85401385    -1.139561   0.12628482    11632.606     1000 
 1194000   0.54634277   -1.9108482   0.81869465   -1.0921536   0.13091936    11589.398     1000 
 1196000   0.57610637   -1.9305616   0.86329539   -1.0672662   0.12540744    11709.415     1000 
 1198000   0.59143723   -1.9297027   0.88626869    -1.043434   0.13583871    11451.195     1000 
 1200000   0.58999898   -1.9218942   0.88411348   -1.0377807   0.13350128    11567.115     1000 
 1202000   0.57643077   -1.9441773   0.86378151   -1.0803957   0.11341748    11719.958     1000 
 1204000   0.58871729   -1.8939647   0.88219286   -1.0117718   0.12730843    11608.972     1000 
 1206000   0.59169466    -1.924844   0.88665444   -1.0381896    0.1370937    11638.828     1000 
 1208000   0.57803155   -1.9550924   0.86618027   -1.0889121    0.1218393    11632.741     1000 
 1210000   0.59893137   -1.9719654   0.89749866   -1.0744668   0.13320645    11753.306     1000 
 1212000   0.58713504   -1.9302009   0.87982185    -1.050379   0.14189416    11419.265     1000 
 1214000   0.60455536   -1.9349688    0.9059262   -1.0290426    0.1270751    11786.437     1000 
 1216000   0.60651089   -1.9029025   0.90885656  -0.99404597   0.13886908    11475.686     1000 
 1218000   0.56958036   -1.9248483   0.85351616   -1.0713321   0.12237248    11515.826     1000 
 1220000   0.60693444   -1.9179684   0.90949126   -1.0084771    0.1280377    11669.211     1000 
 1222000   0.60940245   -1.9622841   0.91318957   -1.0490945   0.12191207    11772.827     1000 
 1224000   0.57078878   -1.9213711   0.85532699   -1.0660441   0.13304277    11642.685     1000 
 1226000   0.59772514   -1.9163872   0.89569112   -1.0206961   0.12427388    11554.223     1000 
 1228000   0.62007937   -1.9131677   0.92918893  -0.98397878    0.1264942    11683.005     1000 
 1230000   0.60129755   -1.9341494   0.90104438   -1.0331051   0.13723171    11523.742     1000 
 1232000   0.60000313   -1.9433243   0.89910468   -1.0442196   0.12977383    11557.425     1000 
 1234000   0.56438786   -1.8978002   0.84573521    -1.052065    0.1225654    11639.859     1000 
 1236000   0.61048868   -1.9346066   0.91481728   -1.0197894   0.12980917    11776.153     1000 
 1238000   0.61129118   -1.9794597   0.91601983   -1.0634399   0.12816839    11632.789     1000 
 1240000   0.59577678   -1.9395374   0.89277151   -1.0467659   0.13876406    11482.852     1000 
 1242000    0.6063128   -1.8983858   0.90855973  -0.98982605   0.12440337    11660.783     1000 
 1244000    0.5945421   -1.8927246   0.89092134   -1.0018033   0.13533929    11485.856     1000 
 1246000   0.60092666   -1.9935624    0.9004886   -1.0930738   0.13585233    11738.308     1000 
 1248000   0.58334372   -1.9014259   0.87414057   -1.0272853   0.13585952    11444.344     1000 
 1250000   0.59127781   -1.9251577    0.8860298   -1.0391279   0.13580794    11656.909     1000 
 1252000   0.58585889   -1.9681472   0.87790954   -1.0902377   0.13237388    11668.901     1000 
 1254000   0.56237274   -1.9924831   0.84271555   -1.1497676   0.11390006     11931.54     1000 
 1256000   0.57919081   -1.9857662   0.86791743   -1.1178487   0.12378086    11876.579     1000 
 1258000   0.58566869   -1.9226847   0.87762454   -1.0450601   0.11622048    11758.337     1000 
 1260000   0.60159885   -1.9192359   0.90149588     -1.01774   0.13167607    11680.481     1000 
 1262000   0.61201279   -1.9721524   0.91710116   -1.0550512   0.12705342    11568.269     1000 
 1264000   0.62019046   -1.9593576   0.92935541   -1.0300021   0.12303721    11877.065     1000 
 1266000   0.59877966   -1.9201233   0.89727132    -1.022852   0.13030324    11641.971     1000 
 1268000    0.5657446   -1.8999859   0.84776828   -1.0522176    0.1362486    11475.156     1000 
 1270000   0.60902016   -1.9510794   0.91261671   -1.0384627   0.13491929    11553.732     1000 
 1272000   0.59356173   -1.9379593   0.88945226   -1.0485071   0.12426603    11714.087     1000 
 1274000   0.60198586   -1.9361251   0.90207581   -1.0340493   0.12113592    11714.828     1000 
 1276000   0.58378435   -1.9643062   0.87480085   -1.0895054   0.14157602    11574.208     1000 
 1278000   0.60114278   -1.9691509   0.90081245   -1.0683384   0.12432563    11878.666     1000 
 1280000   0.57699448   -1.9298089   0.86462622   -1.0651826   0.12710107    11741.371     1000 
 1282000   0.56779449   -1.9665813   0.85084004   -1.1157412   0.12800677    11553.474     1000 
 1284000   0.56838028   -1.8651258   0.85171784   -1.0134079   0.13494736    11558.675     1000 
 1286000   0.56091913   -1.9420417   0.84053732   -1.1015044   0.11820643    11754.855     1000 
 1288000   0.59995974   -1.9101641   0.89903967   -1.0111244   0.13520237    11467.311     1000 
 1290000   0.58845066   -1.9125572   0.88179332   -1.0307638   0.14309533     11484.45     1000 
 1292000   0.61127125   -1.8926246   0.91598996  -0.97663462   0.13327343    11627.828     1000 
 1294000   0.58678725   -1.9302608   0.87930069   -1.0509601    0.1308964    11519.395     1000 
 1296000   0.55819137   -1.8981982   0.83644977   -1.0617484   0.13135361     11718.14     1000 
 1298000     0.599741   -1.9310932   0.89871188   -1.0323814   0.14165992    11607.029     1000 
 1300000   0.59287936   -1.9759572   0.88842973   -1.0875275   0.12766788    11707.109     1000 
 1302000    0.5672113   -1.9375251   0.84996613   -1.0875589   0.13786335    11588.487     1000 
 1304000   0.60418021    -1.926881   0.90536404    -1.021517   0.13306278    11707.189     1000 
 1306000   0.56933707   -1.9061819   0.85315161   -1.0530303    0.1327418    11547.811     1000 
 1308000   0.58431966    -1.864408   0.87560301  -0.98880501   0.13279445    11552.009     1000 
 1310000   0.58642968   -1.9434871   0.87876488   -1.0647223   0.12361093    11626.397     1000 
 1312000   0.60243627   -1.9758823   0.90275076   -1.0731316   0.12749759    11765.872     1000 
 1314000   0.57304557   -1.9671195   0.85870879   -1.1084108   0.12870188    11674.186     1000 
 1316000   0.61267791   -1.9569173   0.91809785   -1.0388194   0.12774014    11809.593     1000 
 1318000    0.5891493    -1.944599   0.88284022   -1.0617587    0.1309353    11603.076     1000 
 1320000   0.60364328   -1.9260993   0.90455946   -1.0215399   0.13461097     11698.68     1000 
 1322000   0.60848405   -1.9675928   0.91181336   -1.0557795   0.12739764    11750.059     1000 
 1324000   0.58189078   -1.9287456   0.87196333   -1.0567822   0.11859912    11712.203     1000 
 1326000   0.58108439   -1.9617486   0.87075496   -1.0909936   0.12573032    11674.171     1000 
 1328000   0.57369478   -1.8952696   0.85968163    -1.035588   0.13266605      11598.4     1000 
 1330000   0.59334836   -1.9345521   0.88913251   -1.0454196   0.11682348     11698.53     1000 
 1332000   0.60977625   -1.9622839   0.91374972   -1.0485342   0.12647165    11629.653     1000 
 1334000   0.58939041   -1.9195159   0.88320153   -1.0363144   0.12192355      11601.7     1000 
 1336000   0.55708259   -1.9261044   0.83478826   -1.0913161   0.13347294    11564.368     1000 
 1338000   0.58428101   -1.8838161    0.8755451    -1.008271    0.1384109    11493.873     1000 
 1340000   0.58743303   -1.9381271   0.88026839   -1.0578587   0.13077182    11477.326     1000 
 1342000    0.5841032   -1.9056857   0.87527864    -1.030407    0.1429532    11404.612     1000 
 1344000   0.58788085   -1.8779775   0.88093945  -0.99703804   0.13080638     11427.35     1000 
 1346000   0.57261512   -1.9045326   0.85806376   -1.0464689   0.12381907    11682.231     1000 
 1348000   0.59380332   -1.9414511   0.88981427   -1.0516368   0.12602856    11782.318     1000 
 1350000    0.6101537   -1.9429646   0.91431532   -1.0286493   0.13991826    11748.023     1000 
 1352000   0.54553763   -1.9439771   0.81748813   -1.1264889   0.11297315    11933.142     1000 
 1354000   0.62313861   -1.9777292    0.9337732    -1.043956   0.14225968    11688.681     1000 
 1356000   0.57938113   -1.9303954   0.86820262   -1.0621928   0.12155264    11779.391     1000 
 1358000   0.58628895   -1.9679913   0.87855399   -1.0894373   0.12907671    11747.477     1000 
 1360000   0.58376057   -1.9344818   0.87476521   -1.0597166   0.12507492    11730.782     1000 
 1362000   0.59366388   -1.8971817   0.88960533   -1.0075763   0.14215238    11410.531     1000 
 1364000   0.60150508   -1.9747756   0.90135536   -1.0734203   0.12546897    11724.975     1000 
 1366000   0.59674679   -1.9296753   0.89422506   -1.0354503   0.12299034    11798.885     1000 
 1368000   0.58482496   -1.9464097   0.87636021   -1.0700494   0.12760833    11567.303     1000 
 1370000   0.60179914   -1.9216382   0.90179601   -1.0198421   0.13486182    11676.225     1000 
 1372000   0.60333073   -2.0014842   0.90409111   -1.0973931    0.1294259    11595.457     1000 
 1374000    0.5771354    -1.982187    0.8648374   -1.1173496   0.12384998    11705.206     1000 
 1376000   0.60005008   -1.8878971   0.89917505  -0.98872206   0.12898328    11500.819     1000 
 1378000    0.6235419   -1.9236251   0.93437754  -0.98924755   0.13442783    11836.874     1000 
 1380000   0.56157705   -1.9468176   0.84152322   -1.1052944   0.11395217    11989.522     1000 
 1382000   0.59589299   -1.9615135   0.89294564   -1.0685678   0.12092972    11734.389     1000 
 1384000   0.61565431   -1.8481054   0.92255798   -0.9255474    0.1230856    11722.412     1000 
 1386000   0.58751995   -1.9245838   0.88039865   -1.0441852   0.12846586    11795.253     1000 
 1388000   0.60525021   -1.9791636   0.90696744   -1.0721962   0.13306879    11640.002     1000 
 1390000   0.62154309    -1.900302   0.93138232  -0.96891965   0.13497677    11492.477     1000 
 1392000   0.58596727   -1.9143628   0.87807195   -1.0362908   0.12225909    11486.844     1000 
 1394000   0.56694206   -1.9514517   0.84956267    -1.101889   0.12667881    11741.678     1000 
 1396000   0.60223971   -1.9663864    0.9024562   -1.0639302   0.12060265    11909.354     1000 
 1398000   0.58968131   -1.9852515   0.88363745   -1.1016141   0.13017103     11691.96     1000 
 1400000   0.58179044   -1.9498917   0.87181297   -1.0780787    0.1413377    11457.436     1000 
 1402000    0.5809409   -1.9151728   0.87053994   -1.0446329   0.11619066    11718.783     1000 
 1404000   0.59769666   -1.9009436   0.89564844   -1.0052951   0.13405667     11722.12     1000 
 1406000   0.60109853   -1.9796153   0.90074615   -1.0788692   0.14023922    11580.877     1000 
 1408000   0.57601043   -1.9631257   0.86315163    -1.099974   0.11464483    11844.578     1000 
 1410000   0.58427378   -1.9411019   0.87553426   -1.0655676   0.11149927    11853.519     1000 
 1412000   0.60075141   -1.9232868   0.90022599   -1.0230608   0.13343837    11711.065     1000 
 1414000   0.61979667   -1.9203773    0.9287653  -0.99161195   0.13300605    11564.803     1000 
 1416000   0.57608503   -1.9177708   0.86326342   -1.0545074   0.12568173    11718.456     1000 
 1418000   0.56969426   -1.9206517   0.85368684   -1.0669648   0.13326114    11547.028     1000 
 1420000   0.59032286    -1.917518   0.88459881   -1.0329192    0.1282663    11596.177     1000 
 1422000   0.57360935   -1.9127218   0.85955361   -1.0531682   0.13253754    11650.739     1000 
 1424000   0.58335468   -1.9286571   0.87415698   -1.0545001   0.12825912    11697.463     1000 
 1426000    0.5916738   -1.9135119   0.88662319   -1.0268888    0.1250198    11703.006     1000 
 1428000   0.59599462   -1.9450565   0.89309793   -1.0519586   0.11667388    11762.414     1000 
 1430000   0.60705174   -1.8990703   0.90966703  -0.98940326   0.12737254    11644.811     1000 
 1432000   0.58828046   -1.9101259   0.88153827   -1.0285876   0.12205137     11650.76     1000 
 1434000   0.60489703   -1.8835457    0.9064382  -0.97710751   0.13153467    11462.761     1000 
 1436000   0.57969515   -1.8359543   0.86867318  -0.96728112   0.11896637    11616.705     1000 
 1438000   0.58113879   -1.9509095   0.87083648    -1.080073   0.13475644    11692.401     1000 
 1440000   0.59389924   -1.8564288   0.88995801  -0.96647082   0.12267644    11802.338     1000 
 1442000   0.58358252    -1.936392   0.87449841   -1.0618936    0.1242235    11758.641     1000 
 1444000   0.58817728   -1.9778607   0.88138365   -1.0964771   0.12799035    11478.497     1000 
 1446000   0.61496743   -1.9473815    0.9215287   -1.0258528   0.13888038    11635.894     1000 
 1448000   0.56191778   -1.9121113   0.84203379   -1.0700775   0.13941667    11550.297     1000 
 1450000   0.60224439   -1.9056058   0.90246322   -1.0031426   0.14433048    11504.552     1000 
 1452000   0.59329044   -1.9469741   0.88904572   -1.0579283   0.11837259    11624.599     1000 
 1454000   0.57362299   -1.8725976   0.85957406   -1.0130235   0.13851763    11549.949     1000 
 1456000   0.63476639   -1.8981397   0.95119744  -0.94694224   0.13005132    11583.883     1000 
 1458000   0.60378218   -1.9401969    0.9047676   -1.0354293   0.13459839    11554.713     1000 
 1460000    0.6043477   -1.9134154   0.90561503   -1.0078003   0.12377636    11663.481     1000 
 1462000   0.56757195   -1.9105329   0.85050656   -1.0600263   0.15269298    11435.904     1000 
 1464000    0.5796676   -1.9939661   0.86863189   -1.1253342   0.13694488    11474.075     1000 
 1466000   0.60803887   -1.9902608   0.91114625   -1.0791145    0.1296454    11696.297     1000 
 1468000   0.58517497   -1.9115861    0.8768847   -1.0347014   0.13569421    11659.992     1000 
 1470000    0.5715063   -1.9669399    0.8564022   -1.1105377   0.13574469    11524.038     1000 
 1472000   0.56870186   -1.9552383   0.85219973   -1.1030386    0.1352416    11597.364     1000 
 1474000   0.58673668   -1.9880092   0.87922491   -1.1087843   0.11790497    11895.305     1000 
 1476000   0.60408939   -1.9883301   0.90522795   -1.0831021   0.12884727    11646.046     1000 
 1478000   0.59806815   -1.9738308   0.89620512   -1.0776257   0.13107142    11658.098     1000 
 1480000   0.57049912   -1.9214988   0.85489293   -1.0666058   0.12939893    11581.601     1000 
 1482000   0.58283732    -1.884014   0.87338173   -1.0106322   0.12196244    11669.784     1000 
 1484000   0.60502409   -1.9331028    0.9066286   -1.0264742   0.13429444    11564.851     1000 
 1486000   0.60452364   -1.8972196   0.90587868  -0.99134088   0.13303155    11610.548     1000 
 1488000   0.59157973   -1.8926544   0.88648223   -1.0061722   0.14110756    11505.911     1000 
 1490000   0.58388592   -1.9184255   0.87495304   -1.0434725   0.14232519    11483.986     1000 
 1492000   0.58359903   -1.9393166   0.87452314   -1.0647935   0.13487408    11515.715     1000 
 1494000   0.59382054   -1.9094549   0.88984008   -1.0196148   0.14120131    11537.618     1000 
 1496000   0.56124149   -1.9122058   0.84102038   -1.0711855    0.1298572    11585.878     1000 
 1498000   0.60915576   -1.8994521    0.9128199  -0.98663225   0.14173356    11642.295     1000 
 1500000   0.59162265     -1.92876   0.88654654   -1.0422135   0.13710745    11447.915     1000 
 1502000   0.59854214   -1.9729633    0.8969154   -1.0760479   0.13383285    11736.245     1000 
 1504000   0.58887568   -1.9741382   0.88243021    -1.091708   0.12778969      11614.1     1000 
 1506000   0.58373665    -1.977734   0.87472937   -1.1030046   0.12032459    11718.136     1000 
 1508000   0.59553862   -1.8786731   0.89241463  -0.98625844   0.13477588    11613.504     1000 
 1510000   0.62313435   -1.9191283   0.93376682  -0.98536143   0.14546933    11438.692     1000 
 1512000   0.56544466   -1.9317773   0.84731882   -1.0844585    0.1394549    11656.776     1000 
 1514000   0.60342044   -1.9565482   0.90422553   -1.0523227   0.13589261    11690.198     1000 
 1516000   0.58945172   -1.9280284    0.8832934    -1.044735   0.12644583    11656.085     1000 
 1518000   0.57436151    -1.933952   0.86068072   -1.0732713   0.13575696    11557.825     1000 
 1520000   0.60547471   -1.9761222   0.90730385   -1.0688184   0.13107006    11583.387     1000 
 1522000   0.58134497   -1.9047219   0.87114543   -1.0335764   0.11635163    11892.605     1000 
 1524000   0.58583364   -1.9203949    0.8778717   -1.0425232   0.12234855    11713.023     1000 
 1526000   0.61005938   -1.9496744   0.91417399   -1.0355004   0.13087889    11816.616     1000 
 1528000   0.60795127    -1.912071   0.91101498    -1.001056   0.13237551     11650.17     1000 
 1530000   0.58262512   -1.8678791   0.87306374  -0.99481532   0.12898331    11590.613     1000 
 1532000   0.58863959   -1.9385811   0.88207642   -1.0565046    0.1226307    11716.334     1000 
 1534000   0.62884018   -1.9979174     0.942317   -1.0556004   0.12451045    11686.571     1000 
 1536000   0.59513312    -1.904799   0.89180698    -1.012992   0.13784086    11775.902     1000 
 1538000   0.62879273    -1.880263    0.9422459  -0.93801711   0.13347032    11705.087     1000 
 1540000   0.59934152    -1.934889   0.89811327   -1.0367757   0.13102722    11669.589     1000 
 1542000   0.57729585   -1.9357938   0.86507784    -1.070716   0.11925497    11685.857     1000 
 1544000   0.58090985   -1.9274487   0.87049342   -1.0569553   0.13706169    11655.143     1000 
 1546000   0.57813063   -1.8788769   0.86632874   -1.0125482   0.13278109     11424.78     1000 
 1548000   0.58165937   -1.9575098   0.87161656   -1.0858932   0.12429418    11811.924     1000 
 1550000   0.59526808   -1.9143174   0.89200921   -1.0223081    0.1223543    11617.735     1000 
 1552000   0.58526404   -1.8894981   0.87701817   -1.0124799   0.13484367    11531.077     1000 
 1554000   0.58268573   -1.9081937   0.87315457   -1.0350391    0.1398567    11594.216     1000 
 1556000   0.59018836   -1.9457278   0.88439726   -1.0613305   0.13539584    11440.354     1000 
 1558000   0.59464716    -1.961665   0.89107877   -1.0705862   0.13462186    11683.631     1000 
 1560000   0.58525624   -1.9267448   0.87700648   -1.0497383   0.13123297    11709.213     1000 
 1562000   0.59596917   -1.8956277    0.8930598   -1.0025679   0.13483345     11402.41     1000 
 1564000   0.61031742   -1.9464638   0.91456065   -1.0319031   0.12598795    11655.746     1000 
 1566000   0.59745217   -1.8621416   0.89528208  -0.96685949   0.14065907    11402.106     1000 
 1568000   0.56146726   -1.9099329   0.84135869   -1.0685742   0.13163145    11643.929     1000 
 1570000   0.56681669    -1.893775   0.84937482   -1.0444002   0.13614179    11422.128     1000 
 1572000    0.5988285   -1.9406416   0.89734451   -1.0432971   0.14019922    11649.521     1000 
 1574000   0.58319771   -1.9797815   0.87392177   -1.1058597   0.13932283     11565.09     1000 
 1576000   0.59280463   -1.9201313   0.88831774   -1.0318136   0.13698913     11574.58     1000 
 1578000   0.57587378   -1.9544225   0.86294686   -1.0914756   0.12068732    11705.343     1000 
 1580000    0.5771518    -1.938843   0.86486198    -1.073981   0.11408776    11709.558     1000 
 1582000   0.60870839   -1.9323175   0.91214952    -1.020168   0.12254336    11716.783     1000 
 1584000   0.56501007   -1.9302937   0.84666759   -1.0836261   0.12519919    11559.298     1000 
 1586000   0.62335699   -1.9275095   0.93410046  -0.99340908    0.1359473    11645.741     1000 
 1588000   0.58332999     -1.91314   0.87411998     -1.03902   0.12682798    11750.781     1000 
[...]
 2614000   0.57205777   -1.9642914   0.85722857   -1.1070629   0.13019594    11614.494     1000 
 2616000   0.59117858   -1.8824141    0.8858811  -0.99653302   0.11799193    11745.338     1000 
 2618000   0.58433581   -1.9634656   0.87562722   -1.0878384   0.11949396    11902.063     1000 
 2620000   0.61291317   -1.9938438   0.91845039   -1.0753934   0.12123336     11770.58     1000 
 2622000   0.61170464   -1.9111096    0.9166394  -0.99447023   0.13766595    11575.238     1000 
 2624000   0.59301647   -1.9333398   0.88863518   -1.0447046   0.13488419    11607.551     1000 
 2626000   0.58626427   -1.9586102   0.87851701   -1.0800931   0.11895549    11673.244     1000 
 2628000   0.60386693   -1.9287389    0.9048946   -1.0238443   0.13824667    11543.482     1000 
 2630000   0.58433381   -1.9234583   0.87562421   -1.0478341   0.11174987    11851.871     1000 
 2632000   0.57035919    -1.965104   0.85468324   -1.1104208    0.1187454    11866.832     1000 
 2634000   0.56184298   -1.8768244   0.84192171   -1.0349027   0.12491411    11706.538     1000 
 2636000    0.5882048   -1.9253996   0.88142489   -1.0439747   0.12319074    11637.324     1000 
 2638000   0.56493827   -1.9585662      0.84656   -1.1120062   0.12128763    11690.578     1000 
 2640000   0.58739852   -1.9772872   0.88021668   -1.0970705   0.13036733    11706.835     1000 
 2642000   0.61301736   -1.9265293   0.91860651   -1.0079228   0.12248571    11842.741     1000 
 2644000   0.59886941   -1.9643151   0.89740581   -1.0669093   0.11799716    11755.017     1000 
 2646000     0.592965   -1.9201606   0.88855806   -1.0316026   0.13212609    11795.775     1000 
 2648000   0.59234052   -1.9575851   0.88762227   -1.0699628     0.116655    11732.467     1000 
 2650000   0.58957892   -1.9357958   0.88348402   -1.0523118   0.12774954    11711.522     1000 
 2652000   0.56109927   -1.9481892   0.84080725   -1.1073819   0.13409862    11674.134     1000 
 2654000   0.57911144    -1.890523    0.8677985   -1.0227245   0.12956983    11530.694     1000 
 2656000    0.5880894   -1.8964371   0.88125197   -1.0151851   0.12517405    11872.658     1000 
 2658000   0.59007684   -1.8939191   0.88423015    -1.009689    0.1326979    11671.948     1000 
 2660000   0.57951277   -1.9141938   0.86839988    -1.045794   0.13619753    11557.957     1000 
 2662000   0.60521855   -1.9065708      0.90692   -0.9996508   0.13493172    11504.996     1000 
 2664000   0.58641953   -1.9568455   0.87874967   -1.0780959   0.11780726    11697.879     1000 
 2666000    0.5859237   -1.9000625   0.87800666   -1.0220558   0.14159318    11543.221     1000 
 2668000   0.59753228   -1.8919214   0.89540212  -0.99651924    0.1330209    11475.747     1000 
 2670000    0.6044439   -1.9072304   0.90575919   -1.0014712   0.14073426     11497.01     1000 
 2672000   0.59258474   -1.9341444   0.88798824   -1.0461561    0.1421419    11554.247     1000 
 2674000   0.58076399   -1.9908088   0.87027484   -1.1205339    0.1228706    11872.939     1000 
 2676000   0.58904552   -1.8932934   0.88268471   -1.0106087   0.13086912    11511.954     1000 
 2678000   0.61621367    -1.916173   0.92339618  -0.99277682   0.14300117    11651.492     1000 
 2680000   0.61043343   -1.9004522   0.91473449  -0.98571775   0.13819817    11676.248     1000 
 2682000   0.62436986   -1.9501141   0.93561823   -1.0144959   0.13686148    11553.409     1000 
 2684000   0.58174621   -1.9561485   0.87174669   -1.0844018   0.12219564    11623.122     1000 
 2686000   0.59097614   -1.9186051   0.88557774   -1.0330274   0.12985183    11700.199     1000 
 2688000   0.57284488    -1.939058   0.85840806   -1.0806499   0.12835169    11580.824     1000 
 2690000   0.58302235   -1.8755877     0.873659   -1.0019287   0.13133824    11631.005     1000 
 2692000    0.5777526   -1.9294796   0.86576227   -1.0637173      0.12992    11554.773     1000 
 2694000   0.62455146   -1.9454585   0.93589036   -1.0095682   0.13314498    11758.641     1000 
 2696000   0.58097115   -1.9644691   0.87058527   -1.0938838   0.12833377    11589.832     1000 
 2698000   0.59262486   -1.9371977   0.88804836   -1.0491493   0.13461499    11480.447     1000 
 2700000   0.60868655   -1.9387767   0.91211679   -1.0266599   0.13390087    11671.711     1000 
 2702000   0.59410864   -1.9328126    0.8902718   -1.0425408   0.14637306    11520.527     1000 
 2704000   0.57139187    -1.916725   0.85623072   -1.0604943    0.1345675    11581.937     1000 
 2706000   0.58771234   -1.9359381   0.88068693   -1.0552512   0.12828594    11555.217     1000 
 2708000   0.60986387   -1.9262024   0.91388102   -1.0123214    0.1331313    11524.047     1000 
 2710000   0.58481879   -1.9209998   0.87635096   -1.0446489   0.13095845    11595.602     1000 
 2712000   0.59816937    -1.918727   0.89635681   -1.0223702   0.13044875    11581.747     1000 
 2714000   0.59890006    -1.886752   0.89745174  -0.98930021   0.12086006     11585.81     1000 
 2716000   0.59495629    -1.949951   0.89154201    -1.058409   0.13934357    11534.527     1000 
 2718000   0.58993607   -1.9534913    0.8840192   -1.0694721   0.13834166    11661.386     1000 
 2720000   0.58694876   -1.8977623   0.87954271   -1.0182196   0.13905506    11467.257     1000 
 2722000   0.58471512   -1.8980261   0.87619561   -1.0218305   0.12372258    11787.447     1000 
 2724000   0.60914316   -1.9233868   0.91280102   -1.0105858   0.13463504    11669.811     1000 
 2726000   0.58679648   -1.9787437   0.87931453   -1.0994291   0.12776298    11811.011     1000 
 2728000    0.5931413   -1.9054019   0.88882224   -1.0165796   0.13218699    11552.483     1000 
 2730000   0.61613886   -1.9328536   0.92328407   -1.0095695   0.11929275    11742.013     1000 
 2732000   0.59772571   -1.9259888   0.89569198   -1.0302968   0.13147317     11633.91     1000 
 2734000   0.58068298   -1.9111314   0.87015344    -1.040978   0.13004798    11567.534     1000 
 2736000   0.56399526    -1.970765    0.8451469   -1.1256181   0.12817335    11663.368     1000 
 2738000   0.60189886   -1.9307451   0.90194545   -1.0287996   0.12440428    11748.153     1000 
 2740000   0.58511629   -1.9201608   0.87679677    -1.043364   0.13775239    11713.578     1000 
 2742000   0.59549885    -1.933062   0.89235503    -1.040707   0.13248108    11582.849     1000 
 2744000   0.60404949   -1.9744106   0.90516816   -1.0692424   0.13700128     11602.02     1000 
 2746000    0.5564602   -1.9178577   0.83385561   -1.0840021   0.11697375    11619.407     1000 
 2748000   0.62129573   -1.9437891   0.93101166   -1.0127775   0.12269966    11721.364     1000 
 2750000   0.59691498   -1.9282803    0.8944771   -1.0338032   0.13913654    11694.231     1000 
 2752000   0.56382971   -1.9177535   0.84489881   -1.0728547   0.13507153    11554.414     1000 
 2754000    0.5830033   -1.9302564   0.87363044    -1.056626   0.12888742    11627.015     1000 
 2756000   0.59987514   -1.9318531    0.8989129   -1.0329402   0.12808605    11606.178     1000 
 2758000   0.57347373      -1.9606   0.85935038   -1.1012496   0.12769611    11656.838     1000 
 2760000   0.60466651   -1.8907869   0.90609277  -0.98469409   0.11661888    11740.884     1000 
 2762000   0.60841618   -1.9225611   0.91171164   -1.0108495   0.12155372    11671.781     1000 
 2764000   0.59745534   -1.9355981   0.89528683   -1.0403113   0.13708944    11605.903     1000 
 2766000   0.60019344   -1.9263927   0.89938987   -1.0270029   0.12266831    11709.565     1000 
 2768000   0.59254755   -1.9366236   0.88793251   -1.0486911   0.12695978    11769.522     1000 
 2770000   0.58216362   -1.9774271   0.87237219   -1.1050549   0.11401656    11941.855     1000 
 2772000   0.60529156   -1.9428632   0.90702941   -1.0358338   0.13575346    11771.658     1000 
 2774000   0.58306536   -1.9132982   0.87372345   -1.0395748   0.12478136     11672.12     1000 
 2776000   0.60516554   -1.9311173   0.90684056   -1.0242767   0.12386359    11790.263     1000 
 2778000   0.56666141    -1.978009   0.84914213   -1.1288669   0.12735531    11637.887     1000 
 2780000   0.58495575   -1.9291479    0.8765562   -1.0525917   0.13353881    11575.293     1000 
 2782000   0.58216606   -1.9297335   0.87237584   -1.0573577   0.12708542    11714.322     1000 
 2784000   0.62070774   -1.9477687   0.93013054   -1.0176382     0.128889    11843.897     1000 
 2786000   0.58127891   -1.8929358   0.87104644   -1.0218894   0.13544204    11538.889     1000 
 2788000   0.60340609   -1.9482059   0.90420402   -1.0440019   0.12911502    11659.815     1000 
 2790000   0.57128516     -1.90944   0.85607081   -1.0533692   0.12452243    11721.207     1000 
 2792000   0.57768852    -1.913927   0.86566625   -1.0482607    0.1315114    11614.375     1000 
 2794000   0.60550204   -1.9333808   0.90734481    -1.026036   0.13209871    11656.856     1000 
 2796000   0.59427373   -1.9271983   0.89051919   -1.0366791   0.13266603    11503.532     1000 
 2798000   0.55263295   -1.9127275   0.82812047    -1.084607   0.12908728    11661.148     1000 
 2800000   0.61251042   -1.9479903   0.91784686   -1.0301434   0.12977706     11651.56     1000 
 2802000   0.57931274   -1.9099396   0.86810014   -1.0418394   0.12351668    11631.329     1000 
 2804000   0.57570857   -1.9362177   0.86269929   -1.0735184   0.13762467     11693.09     1000 
 2806000   0.60696199   -1.9101801   0.90953254   -1.0006475   0.13412505    11621.521     1000 
 2808000   0.58292717   -1.9745739   0.87351636   -1.1010575    0.1184124    11863.638     1000 
 2810000   0.57764896   -1.9150568   0.86560697   -1.0494498    0.1264385    11705.013     1000 
 2812000   0.56922098   -1.9738286   0.85297763    -1.120851   0.13574487    11690.425     1000 
 2814000   0.61313879   -1.9204665   0.91878847    -1.001678   0.13191723    11705.229     1000 
 2816000   0.57703802   -1.9392853   0.86469148   -1.0745939   0.12586035    11856.648     1000 
 2818000   0.59048545   -1.9234404   0.88484245    -1.038598   0.12095628    11658.375     1000 
 2820000   0.59663441   -1.9082821   0.89405666   -1.0142254   0.14046252    11540.557     1000 
 2822000   0.59461852   -1.9380057   0.89103586   -1.0469699   0.12306481    11665.327     1000 
 2824000   0.59149936   -1.9131189    0.8863618   -1.0267571   0.13995419    11348.662     1000 
 2826000   0.58487785   -1.9208031   0.87643946   -1.0443636   0.13724578    11538.866     1000 
 2828000   0.58418917   -1.9465543   0.87540748   -1.0711468   0.14638337    11333.966     1000 
 2830000   0.59231871   -1.9245621   0.88758958   -1.0369725   0.13809124    11504.299     1000 
 2832000   0.58796965   -1.9262783   0.88107252   -1.0452057   0.12991591    11836.589     1000 
 2834000   0.61450305   -1.9326726   0.92083282   -1.0118398   0.13284947    11596.779     1000 
 2836000   0.59520604    -1.927435   0.89191625   -1.0355188    0.1336312    11567.229     1000 
 2838000   0.58009843   -1.9654096   0.86927749   -1.0961321   0.13441882    11698.465     1000 
 2840000   0.57881376   -1.9177384   0.86735242    -1.050386   0.15149177    11495.985     1000 
 2842000   0.60004627    -1.882538   0.89916933  -0.98336868     0.130538    11626.782     1000 
 2844000   0.62894328   -1.9086219    0.9424715  -0.96615035   0.14436418    11394.048     1000 
 2846000   0.60264116   -1.8663958   0.90305778  -0.96333804   0.14122141    11486.978     1000 
 2848000   0.59412271   -1.9949194   0.89029288   -1.1046266   0.14205157    11645.671     1000 
 2850000   0.57372643   -1.9224312   0.85972905   -1.0627022   0.14085007    11587.313     1000 
 2852000   0.59679995   -1.9251854   0.89430472   -1.0308806   0.14035025    11692.427     1000 
 2854000   0.57658635   -1.9537482   0.86401465   -1.0897335   0.11454112    11876.561     1000 
 2856000    0.5926592    -1.906138   0.88809981   -1.0180382   0.12962217    11590.584     1000 
 2858000    0.6123445   -1.9584148   0.91759823   -1.0408165   0.12901001    11723.426     1000 
 2860000   0.60379093   -1.8853095   0.90478071   -0.9805288   0.13604591    11545.751     1000 
 2862000   0.57962328   -1.9112803   0.86856548   -1.0427149   0.13099798    11507.005     1000 
 2864000   0.57735652   -1.9537829   0.86516875   -1.0886141   0.13214584    11698.965     1000 
 2866000   0.56423031   -1.9167405   0.84549912   -1.0712414   0.13420221    11609.459     1000 
 2868000   0.60448381   -1.8930523   0.90581898   -0.9872333    0.1402488    11627.106     1000 
 2870000   0.60223737   -1.9348689    0.9024527   -1.0324162   0.13597713    11649.225     1000 
 2872000    0.5922552   -1.9320779   0.88749442   -1.0445835   0.14027143    11589.013     1000 
 2874000   0.58682424   -1.9119369   0.87935613   -1.0325808    0.1317311     11619.09     1000 
 2876000   0.59296811   -1.9817892   0.88856271   -1.0932265   0.12593858    11793.493     1000 
 2878000   0.59198421   -1.9604973   0.88708834    -1.073409   0.13586203    11502.072     1000 
 2880000   0.56587659   -1.9595299   0.84796607   -1.1115638   0.12757502    11494.843     1000 
 2882000    0.6092957   -1.9158897    0.9130296   -1.0028601   0.14530112    11675.333     1000 
 2884000   0.57520394   -1.8992672   0.86194311    -1.037324   0.13656959    11635.097     1000 
 2886000   0.58131576   -1.9264542   0.87110167   -1.0553526   0.11895106    11800.555     1000 
 2888000   0.59967757   -1.9100669   0.89861684   -1.0114501   0.12877509    11791.957     1000 
 2890000   0.60358955   -1.9637454   0.90447894   -1.0592665   0.13229872    11545.755     1000 
 2892000   0.61439022   -1.8998102   0.92066374  -0.97914648   0.12120729    11755.837     1000 
 2894000   0.61212539   -1.9596163    0.9172699   -1.0423464   0.14081331    11546.742     1000 
 2896000   0.59631038   -1.9157629    0.8935711   -1.0221918   0.12733576    11687.389     1000 
 2898000   0.56374338   -1.9226195   0.84476946     -1.07785   0.12690795    11833.064     1000 
 2900000   0.57876432   -1.9516713   0.86727834    -1.084393   0.12843055    11603.044     1000 
 2902000   0.61141738   -1.9030195   0.91620894  -0.98681053    0.1360047    11514.427     1000 
 2904000    0.5722847   -1.9133931   0.85756862   -1.0558244   0.13448181    11678.737     1000 
 2906000   0.58534911   -1.9183876   0.87714565   -1.0412419    0.1470796    11472.025     1000 
 2908000   0.59408694   -1.8935833   0.89023928    -1.003344   0.13544419    11462.022     1000 
 2910000   0.57978581   -1.8721205   0.86880904   -1.0033115   0.13756459    11375.271     1000 
 2912000   0.59747949   -1.9603178   0.89532302   -1.0649948   0.12391587    11713.842     1000 
 2914000   0.58817961     -1.94098   0.88138715   -1.0595929    0.1430811    11489.193     1000 
 2916000   0.57725331   -1.9638873   0.86501409   -1.0988732   0.13234144    11853.108     1000 
 2918000    0.5968482   -1.9276115   0.89437702   -1.0332344   0.12967006    11509.443     1000 
 2920000   0.57390164   -1.9096507   0.85999161   -1.0496591   0.12819842    11613.077     1000 
 2922000   0.61533303   -1.9612217   0.92207654   -1.0391451   0.13347159    11543.262     1000 
 2924000   0.63040445   -1.9519503   0.94466107   -1.0072892   0.14228978    11589.822     1000 
 2926000   0.58317963   -2.0135087   0.87389468    -1.139614   0.13287209    11785.489     1000 
 2928000   0.58601699   -1.9230693   0.87814646   -1.0449229   0.12062563    11873.796     1000 
 2930000   0.60609679    -1.927927   0.90823604   -1.0196909   0.13221864    11618.038     1000 
 2932000   0.60672651   -1.8886271   0.90917967  -0.97944744    0.1292741    11668.111     1000 
 2934000   0.58558971   -1.9162318   0.87750618   -1.0387256   0.13048482     11606.74     1000 
 2936000   0.58909311   -1.9198667   0.88275603   -1.0371107    0.1261323    11625.526     1000 
 2938000   0.57415216   -1.9480984   0.86036701   -1.0877314   0.13198366    11635.833     1000 
 2940000   0.59897021   -1.9533472   0.89755686   -1.0557903    0.1351567    11803.704     1000 
 2942000   0.59675247    -1.978814   0.89423357   -1.0845805   0.12224827    11778.869     1000 
 2944000   0.57027795   -1.8939377   0.85456151   -1.0393762    0.1202446    11698.769     1000 
 2946000   0.59201504   -1.9344018   0.88713454   -1.0472672    0.1226101    11702.376     1000 
 2948000   0.56191428   -1.9251783   0.84202854   -1.0831497    0.1370498    11549.787     1000 
 2950000   0.58046329   -1.9792835   0.86982424   -1.1094592   0.13808344    11536.462     1000 
 2952000   0.59682054   -1.9870293   0.89433557   -1.0926937   0.12714814    11890.124     1000 
 2954000   0.57506221    -1.954901   0.86173073   -1.0931703   0.13510946     11717.67     1000 
 2956000   0.59142139   -1.9086548   0.88624495   -1.0224099   0.13090043    11580.018     1000 
 2958000   0.59403787   -2.0000012   0.89016575   -1.1098355   0.13043487    11643.619     1000 
 2960000   0.62262612   -1.9166902   0.93300524  -0.98368496   0.12605549    11678.313     1000 
 2962000   0.59143306   -1.9608742   0.88626244   -1.0746118   0.13809598    11553.023     1000 
 2964000   0.61977501   -1.8922221   0.92873285  -0.96348922   0.13227246    11823.569     1000 
 2966000   0.59268279   -1.9458701   0.88813516    -1.057735   0.13557627    11612.754     1000 
 2968000   0.61501297   -1.9587169   0.92159694     -1.03712   0.13144119    11710.974     1000 
 2970000   0.59287638   -1.9240253   0.88842525   -1.0356001   0.13186788     11642.09     1000 
 2972000   0.57620178   -1.9272034   0.86343837    -1.063765   0.15672252    11415.504     1000 
 2974000   0.59529035   -1.9410816   0.89204259    -1.049039   0.13120005    11651.362     1000 
 2976000    0.5879247   -1.9529059   0.88100517   -1.0719007   0.13451903    11622.176     1000 
 2978000   0.58286612   -1.8907305   0.87342488   -1.0173056   0.12624311    11630.547     1000 
 2980000   0.60396287   -1.9633825   0.90503837   -1.0583441   0.12348639    11715.145     1000 
 2982000   0.59415256   -1.9453987   0.89033761   -1.0550611   0.12354909    11855.864     1000 
 2984000   0.57615737   -1.9551594   0.86337182   -1.0917876   0.14037817    11352.153     1000 
 2986000   0.60735676   -1.9412838   0.91012411   -1.0311597   0.12007462    11629.455     1000 
 2988000   0.59756422   -1.9593594   0.89544998   -1.0639094   0.14187504     11533.49     1000 
 2990000   0.59742576   -1.9254976    0.8952425   -1.0302551   0.13801887    11713.713     1000 
 2992000   0.59020479   -1.9347249   0.88442188    -1.050303   0.13541916    11591.244     1000 
 2994000   0.58853148   -1.9943943   0.88191442   -1.1124799   0.12267852    11761.915     1000 
 2996000   0.58986453   -1.9207689   0.88391199   -1.0368569   0.11661222    11658.198     1000 
 2998000   0.56655882   -1.9338361   0.84898839   -1.0848477   0.13113802    11564.125     1000 
 3000000   0.60202962   -1.8405978   0.90214138  -0.93845639   0.14187942    11290.223     1000 
Loop time of 2952.69 on 4 procs for 3000000 steps with 1000 atoms

Performance: 438921.139 tau/day, 1016.021 timesteps/s
95.9% CPU use with 4 MPI tasks x 1 OpenMP threads

MPI task timing breakdown:
Section |  min time  |  avg time  |  max time  |%varavg| %total
---------------------------------------------------------------
Pair    | 2099.5     | 2225.5     | 2368.4     | 211.1 | 75.37
Neigh   | 158.29     | 163.06     | 174.54     |  52.3 |  5.52
Comm    | 309.41     | 464.55     | 596.59     | 494.1 | 15.73
Output  | 0.033739   | 0.038467   | 0.052519   |   4.1 |  0.00
Modify  | 75.476     | 76.77      | 77.932     |  12.5 |  2.60
Other   |            | 22.73      |            |       |  0.77

Nlocal:        250.000 ave         260 max         242 min
Histogram: 1 0 0 2 0 0 0 0 0 1
Nghost:        2432.00 ave        2451 max        2401 min
Histogram: 1 0 0 0 0 0 1 0 1 1
Neighs:        26329.0 ave       27363 max       24177 min
Histogram: 1 0 0 0 0 0 0 1 0 2

Total # of neighbors = 105316
Ave neighs/atom = 105.31600
Neighbor list builds = 150000
Dangerous builds not checked

Total wall time: 0:49:12
