LAMMPS (29 Sep 2021 - Update 2)
OMP_NUM_THREADS environment is not set. Defaulting to 1 thread. (src/comm.cpp:98)
  using 1 OpenMP thread(s) per MPI task
# ----------------------- Inicialização -----------------------

units			lj
atom_style 		atomic
dimension 		3
boundary 		p p p

# -------------------- Criação dos Átomos ---------------------

read_data 		topologia.txt
Reading data file ...
  orthogonal box = (0.0000000 0.0000000 0.0000000) to (21.540000 21.540000 21.540000)
  1 by 1 by 1 MPI processor grid
  reading atoms ...
  1000 atoms
  read_data CPU = 0.005 seconds

velocity 		all create ${temp} 87287 rot yes dist gaussian
velocity 		all create 0.48 87287 rot yes dist gaussian

# ------------------ Interação Interatômica -------------------

pair_style		table linear 1000
pair_coeff		1 1 force.table AA 5.0
WARNING: 2 of 1000 force values in table AA are inconsistent with -dE/dr.
WARNING:  Should only be flagged at inflection points (src/pair_table.cpp:465)
pair_coeff		1 2 force.table AB 5.0
WARNING: 1 of 1000 force values in table AB are inconsistent with -dE/dr.
WARNING:  Should only be flagged at inflection points (src/pair_table.cpp:465)
pair_coeff		2 2 force.table BB 5.0
pair_write		1 1 1000 r 0.008 5.0 table.check AA
Appending to table file table.check with DATE: 2023-07-05
Neighbor list info ...
  update every 1 steps, delay 10 steps, check yes
  max neighbors/atom: 2000, page size: 100000
  master list distance cutoff = 5.3
  ghost atom cutoff = 5.3
  binsize = 2.65, bins = 9 9 9
  1 neighbor lists, perpetual/occasional/extra = 1 0 0
  (1) pair table, perpetual
      attributes: half, newton on
      pair build: half/bin/atomonly/newton
      stencil: half/bin/3d
      bin: standard
pair_write		1 2 1000 r 0.008 5.0 table.check AB
Appending to table file table.check with DATE: 2023-07-05
pair_write		2 2 1000 r 0.008 5.0 table.check BB
Appending to table file table.check with DATE: 2023-07-05

neighbor 		0.3 bin
neigh_modify		every 20 delay 0 check no

# ------------------------- Ensemble --------------------------------------

fix 1			all npt temp ${temp} ${temp} 0.5 iso ${press} ${press} 5
fix 1			all npt temp 0.48 ${temp} 0.5 iso ${press} ${press} 5
fix 1			all npt temp 0.48 0.48 0.5 iso ${press} ${press} 5
fix 1			all npt temp 0.48 0.48 0.5 iso 0.13 ${press} 5
fix 1			all npt temp 0.48 0.48 0.5 iso 0.13 0.13 5

# ---------------------- Função de Distribuição Radial -----------------------

#compute RDF 		all rdf 2000 1 1 1 2 2 2
#fix 2 			all ave/time 1 2000 2000 c_RDF[*] file rdf.data mode vector

# ------------------------- Execução ---------------------------

timestep 		0.005
thermo_style		custom step temp pe ke etotal press vol atoms
thermo			2000
run			3000000
Per MPI rank memory allocation (min/avg/max) = 2.670 | 2.670 | 2.670 Mbytes
Step Temp PotEng KinEng TotEng Press Volume Atoms 
       0         0.48    0.9688386      0.71928    1.6881186    1.3077133    9993.9483     1000 
    2000    0.4882468   -2.3859749   0.73163782   -1.6543371   0.13670956    11351.319     1000 
    4000   0.47924082   -2.3584758   0.71814236   -1.6403334   0.15437968    11189.931     1000 
    6000   0.48076996   -2.4268646   0.72043378   -1.7064308    0.1192881    11460.116     1000 
    8000   0.49393619     -2.42747   0.74016338   -1.6873067   0.12514786    11547.793     1000 
   10000   0.45820462   -2.4093959   0.68661962   -1.7227762   0.12969451    11342.832     1000 
   12000    0.4750712   -2.3287898   0.71189419   -1.6168956   0.14838149    11277.841     1000 
   14000   0.47032166   -2.4593027   0.70477701   -1.7545257    0.1282477    11474.902     1000 
   16000   0.46533769   -2.4284271   0.69730853   -1.7311186   0.13414989    11351.336     1000 
   18000   0.50646572   -2.4317289   0.75893888     -1.67279   0.12444988    11446.164     1000 
   20000   0.50101983   -2.4038222   0.75077822    -1.653044   0.12755445     11347.08     1000 
   22000   0.48823305   -2.3884733   0.73161723   -1.6568561   0.12630588     11357.15     1000 
   24000    0.4841368   -2.4799441     0.725479   -1.7544651   0.13334314    11394.741     1000 
   26000    0.4811744   -2.4407316   0.72103983   -1.7196918   0.12658964    11321.215     1000 
   28000   0.46188161    -2.429446   0.69212959   -1.7373164   0.12553967    11288.763     1000 
   30000   0.48522621   -2.4010742   0.72711148   -1.6739627   0.12833667    11259.871     1000 
   32000   0.49181289   -2.4421808   0.73698162   -1.7051992   0.14538382    11364.084     1000 
   34000   0.46992453   -2.4266349    0.7041819    -1.722453   0.13315663    11469.343     1000 
   36000   0.47740283   -2.4137968   0.71538815   -1.6984087    0.1380578    11326.844     1000 
   38000   0.51304077   -2.4090272    0.7687916   -1.6402356   0.13252173    11422.009     1000 
   40000   0.48743105   -2.3653171   0.73041543   -1.6349017   0.12497934    11360.906     1000 
   42000   0.46001271   -2.4720158   0.68932905   -1.7826867    0.1206025    11457.875     1000 
   44000   0.48373485   -2.4613143   0.72487667   -1.7364377   0.12367705    11493.327     1000 
   46000   0.47527558   -2.4337563   0.71220046   -1.7215558   0.12929463    11507.067     1000 
   48000   0.48402452   -2.4244691   0.72531074   -1.6991584   0.12788749    11435.728     1000 
   50000   0.47813014   -2.4212725   0.71647801   -1.7047945   0.13834813     11268.97     1000 
   52000   0.47106072   -2.3943436   0.70588449   -1.6884592   0.12665251    11374.064     1000 
   54000   0.47525594   -2.3955022   0.71217102   -1.6833312   0.13615619    11220.673     1000 
   56000   0.47877281   -2.4680894   0.71744106   -1.7506483   0.12995022    11498.007     1000 
   58000   0.48246975   -2.4085532   0.72298091   -1.6855723   0.14079329     11384.35     1000 
   60000   0.48128818   -2.4034404   0.72121034     -1.68223   0.12648496    11399.746     1000 
   62000   0.46890277   -2.4566339    0.7026508   -1.7539831   0.12354362    11408.069     1000 
   64000   0.48427268   -2.4278183   0.72568261   -1.7021357   0.12485115    11404.249     1000 
   66000   0.46517869   -2.4162354   0.69707027   -1.7191652   0.12223992    11441.819     1000 
   68000   0.47524575   -2.4419655   0.71215576   -1.7298098    0.1264516    11545.311     1000 
   70000   0.46928214    -2.444641   0.70321929   -1.7414217   0.13303036    11557.945     1000 
   72000    0.4734237   -2.4157865   0.70942541    -1.706361   0.12417233    11504.523     1000 
   74000   0.49398665   -2.4404268   0.74023899   -1.7001878   0.14318007    11218.075     1000 
   76000   0.50484704    -2.386207   0.75651329   -1.6296937   0.14504295    11261.507     1000 
   78000   0.45735323   -2.4231083   0.68534382   -1.7377645   0.13668017    11228.375     1000 
   80000   0.48053883   -2.4523383   0.72008744   -1.7322509   0.13357032     11338.41     1000 
   82000   0.47423597   -2.4176916   0.71064261    -1.707049   0.12480987    11432.325     1000 
   84000   0.48769846   -2.3792113   0.73081615   -1.6483951   0.12533351    11333.079     1000 
   86000   0.48576839   -2.4267263   0.72792394   -1.6988023   0.13962392    11217.363     1000 
   88000   0.48462727   -2.4359025   0.72621396   -1.7096885   0.12785832     11431.01     1000 
   90000   0.47597141   -2.4275542   0.71324316   -1.7143111   0.12466224    11360.223     1000 
   92000   0.47986209    -2.430489   0.71907334   -1.7114157   0.11764072    11502.218     1000 
   94000   0.46459109   -2.4158882   0.69618975   -1.7196984   0.13177109    11305.127     1000 
   96000   0.47636326   -2.3749184   0.71383035   -1.6610881    0.1346019    11341.315     1000 
   98000   0.49620593   -2.4534572   0.74356459   -1.7098926   0.14225612     11308.83     1000 
  100000   0.48216683    -2.404324     0.722527    -1.681797   0.14031186    11396.813     1000 
  102000   0.46790256   -2.4154032   0.70115198   -1.7142512   0.12541565    11443.528     1000 
  104000   0.47872418   -2.4507797   0.71736818   -1.7334116   0.12288135    11447.422     1000 
  106000   0.47970281   -2.3771631   0.71883467   -1.6583284   0.13418278    11259.357     1000 
  108000   0.46947291   -2.4277587   0.70350516   -1.7242535   0.12151635    11456.481     1000 
  110000   0.50074507   -2.4400028   0.75036649   -1.6896363   0.12872836    11366.591     1000 
  112000   0.48806062   -2.4499996   0.73135885   -1.7186408   0.13200748    11337.105     1000 
  114000   0.46099282   -2.4343254   0.69079773   -1.7435276   0.13106983    11515.182     1000 
  116000   0.47405256   -2.4019674   0.71036776   -1.6915997   0.12780083    11526.014     1000 
  118000   0.46694967   -2.3456026   0.69972409   -1.6458785   0.12550564      11313.7     1000 
  120000   0.49160912   -2.4462125   0.73667626   -1.7095362   0.12266653     11487.16     1000 
  122000   0.50827906   -2.4102809   0.76165617   -1.6486247   0.14417074    11302.625     1000 
  124000   0.48085956   -2.4092066   0.72056805   -1.6886386   0.13227481    11256.659     1000 
  126000   0.49640046   -2.4313198   0.74385608   -1.6874637   0.13568887    11544.058     1000 
  128000   0.47436435   -2.3903368   0.71083497   -1.6795018   0.13605596    11271.567     1000 
  130000   0.48525095   -2.4279304   0.72714855   -1.7007819   0.13254985    11326.025     1000 
  132000   0.47335953   -2.4072922   0.70932926   -1.6979629   0.12258082    11450.835     1000 
  134000   0.45836425   -2.3807051   0.68685884   -1.6938462    0.1258725    11363.891     1000 
  136000   0.48288372   -2.4646766   0.72360126   -1.7410753   0.12802304    11513.553     1000 
  138000   0.49028764   -2.3996917   0.73469603   -1.6649956    0.1289628    11295.159     1000 
  140000   0.47423544   -2.3592776    0.7106418   -1.6486358   0.12996608    11265.429     1000 
  142000   0.49374427   -2.4196431   0.73987578   -1.6797674   0.12493068    11443.554     1000 
  144000   0.51060653   -2.4187264   0.76514389   -1.6535825   0.12836859    11452.003     1000 
  146000   0.47347204   -2.4259868   0.70949786    -1.716489    0.1303933    11435.172     1000 
  148000   0.49495054   -2.4224156   0.74168338   -1.6807322   0.14361524     11349.91     1000 
  150000   0.47126775   -2.4175067   0.70619472    -1.711312   0.13593531    11302.808     1000 
  152000   0.47022976   -2.4556692   0.70463929   -1.7510299    0.1283478    11466.891     1000 
  154000   0.49802708   -2.3636129   0.74629358   -1.6173193   0.12273292    11287.061     1000 
  156000   0.45839566   -2.4112139   0.68690589    -1.724308   0.12684952    11385.467     1000 
  158000   0.46449444   -2.4330103   0.69604492   -1.7369654    0.1088431    11385.135     1000 
  160000    0.4699753   -2.4310951   0.70425798   -1.7268371   0.11824582    11589.512     1000 
  162000   0.45721662   -2.4378463   0.68513911   -1.7527072    0.1333736    11370.179     1000 
  164000    0.5021091   -2.4307117   0.75241048   -1.6783012   0.13715255    11364.862     1000 
  166000   0.48482858   -2.3774561   0.72651563   -1.6509405    0.1383024    11211.171     1000 
  168000   0.47893518   -2.3933743   0.71768436   -1.6756899   0.14174672    11366.311     1000 
  170000   0.45633849    -2.451621   0.68382323   -1.7677978   0.13760909    11356.517     1000 
  172000   0.47556484   -2.4534017   0.71263392   -1.7407678    0.1348104    11428.862     1000 
  174000   0.46772256   -2.3967081   0.70088226   -1.6958258   0.12738813    11361.736     1000 
  176000    0.4735166   -2.4325148   0.70956463   -1.7229502   0.14431403    11248.226     1000 
  178000   0.46360344   -2.4198463   0.69470976   -1.7251365   0.12267826    11458.375     1000 
  180000   0.46721783   -2.4131981   0.70012592   -1.7130722   0.12859605    11384.651     1000 
  182000   0.48995945   -2.4268851   0.73420423   -1.6926808   0.14526017    11252.958     1000 
  184000   0.46201471   -2.4035354   0.69232904   -1.7112064   0.13118585    11467.051     1000 
  186000   0.48867211   -2.4213583   0.73227516   -1.6890832   0.14006621    11404.891     1000 
  188000   0.49323214   -2.4534782   0.73910836   -1.7143698   0.12687929    11460.276     1000 
  190000   0.48340612   -2.4568677   0.72438407   -1.7324836   0.11864859    11593.542     1000 
  192000   0.48689334   -2.4748839   0.72960967   -1.7452743   0.12554193    11553.696     1000 
  194000    0.4726777   -2.4522867   0.70830753   -1.7439791   0.12925845    11507.542     1000 
  196000   0.47724502   -2.4455698   0.71515166   -1.7304182   0.12816002    11396.166     1000 
  198000   0.47778812   -2.4459476    0.7159655   -1.7299821   0.14106114    11364.802     1000 
  200000   0.50132288   -2.4066221   0.75123234   -1.6553898   0.14120093    11248.785     1000 
  202000   0.46574609   -2.3996051   0.69792052   -1.7016846   0.11508389    11470.507     1000 
  204000   0.48252654   -2.3896652   0.72306602   -1.6665992   0.12952295    11379.699     1000 
  206000   0.47801086    -2.443957   0.71629927   -1.7276577   0.12926812    11499.585     1000 
  208000   0.47287363   -2.3916646   0.70860113   -1.6830634   0.13205052    11396.269     1000 
  210000   0.49353205   -2.3712662   0.73955778   -1.6317084   0.12753203    11427.642     1000 
  212000   0.46123659   -2.4661624   0.69116302   -1.7749994   0.11741843    11503.951     1000 
  214000   0.50211122   -2.4303339   0.75241367   -1.6779202   0.14184292    11322.271     1000 
  216000   0.49182137   -2.4703094   0.73699432   -1.7333151    0.1345079    11345.861     1000 
  218000   0.48336575   -2.4992083   0.72432357   -1.7748847    0.1257556    11530.981     1000 
  220000   0.48338707   -2.4305922   0.72435552   -1.7062367   0.13085527    11370.435     1000 
  222000    0.4978783   -2.4107341   0.74607063   -1.6646634   0.13592249      11393.1     1000 
  224000   0.46758778   -2.4201366   0.70068029   -1.7194563   0.12446274    11333.611     1000 
  226000   0.50134288   -2.4021588    0.7512623   -1.6508965   0.11903703    11576.124     1000 
  228000   0.47296877   -2.4172262   0.70874371   -1.7084825   0.14078338    11224.672     1000 
  230000   0.48726502    -2.470859   0.73016663   -1.7406924    0.1354498    11381.723     1000 
  232000   0.47838744   -2.3665539   0.71686358   -1.6496903   0.13752125    11267.548     1000 
  234000   0.48555296   -2.4173783   0.72760111   -1.6897772   0.12794878    11484.634     1000 
  236000   0.49119361   -2.3967989   0.73605362   -1.6607453   0.13265041    11300.098     1000 
  238000   0.49842038   -2.4568484   0.74688294   -1.7099654   0.12730439    11434.266     1000 
  240000   0.45974252    -2.448491   0.68892416   -1.7595668    0.1191012    11525.213     1000 
  242000   0.48258829   -2.4380945   0.72315856    -1.714936   0.12396029    11406.657     1000 
  244000   0.47264473   -2.4352477   0.70825813   -1.7269896   0.14386524    11305.345     1000 
  246000   0.46494186     -2.41905   0.69671537   -1.7223346   0.12218405    11388.194     1000 
  248000   0.48269464   -2.4749714   0.72331791   -1.7516535   0.11263899    11497.952     1000 
  250000   0.47036592   -2.3961872   0.70484333   -1.6913439   0.12489633    11352.857     1000 
  252000     0.479866   -2.4481875    0.7190792   -1.7291083   0.13017726    11338.836     1000 
  254000   0.49521445   -2.4142101   0.74207885   -1.6721313   0.13448223    11429.171     1000 
  256000   0.47883455   -2.4940928   0.71753358   -1.7765592   0.13181791    11397.395     1000 
  258000   0.48853676   -2.4227066   0.73207233   -1.6906342   0.12713364    11394.264     1000 
  260000   0.49489015   -2.4195057    0.7415929   -1.6779128   0.12502819     11479.61     1000 
  262000   0.46775673   -2.4429647   0.70093345   -1.7420312   0.13402332    11339.389     1000 
  264000   0.47168909    -2.421695    0.7068261   -1.7148689   0.11283534    11490.302     1000 
  266000   0.48587708    -2.449397   0.72808681   -1.7213102   0.15473107    11130.132     1000 
  268000   0.48774621   -2.4217484    0.7308877   -1.6908607   0.12852586    11460.509     1000 
  270000   0.47790795   -2.4081433   0.71614506   -1.6919982   0.14335304    11226.028     1000 
  272000   0.47079573   -2.4250782    0.7054874   -1.7195908   0.14012767     11400.41     1000 
  274000   0.46605707   -2.4113197   0.69838652   -1.7129332   0.14151244    11348.209     1000 
  276000   0.48412091    -2.447212   0.72545519   -1.7217568   0.12507929    11474.768     1000 
  278000   0.50532366   -2.4368891   0.75722751   -1.6796616   0.13712754    11318.491     1000 
  280000   0.46164113   -2.4767777   0.69176924   -1.7850085   0.11976604    11527.393     1000 
  282000   0.49299409   -2.4534024   0.73875165   -1.7146507   0.13322506    11451.982     1000 
  284000   0.48942244   -2.4332451   0.73339953   -1.6998455   0.13113913    11324.942     1000 
  286000   0.47250411   -2.4726781   0.70804742   -1.7646307   0.12055235    11489.407     1000 
  288000   0.50259419   -2.4777096    0.7531374   -1.7245722   0.13561727    11311.136     1000 
  290000   0.47639422   -2.4077963   0.71387674   -1.6939196    0.1227566     11390.55     1000 
  292000   0.48307197   -2.4338726   0.72388335   -1.7099893    0.1179662    11280.785     1000 
  294000   0.47852012   -2.4427207    0.7170624   -1.7256583   0.13912649    11411.453     1000 
  296000   0.47363872   -2.4057459   0.70974763   -1.6959983   0.13427551    11289.621     1000 
  298000   0.47243695   -2.4375433   0.70794678   -1.7295965   0.12078451    11437.768     1000 
  300000    0.4891874   -2.4359889   0.73304733   -1.7029416   0.14185727    11299.815     1000 
  302000    0.4740532    -2.446966   0.71036873   -1.7365973   0.12529839    11393.604     1000 
  304000   0.48571884   -2.4452109   0.72784967   -1.7173612   0.12571628    11461.192     1000 
  306000    0.4912709   -2.4379046   0.73616945   -1.7017351   0.13359121    11466.641     1000 
  308000    0.4996518   -2.4852775   0.74872822   -1.7365493   0.12112696    11567.174     1000 
  310000   0.47092388   -2.4125887   0.70567944   -1.7069092   0.12418196    11468.209     1000 
  312000   0.46179057   -2.4075783   0.69199317   -1.7155852   0.12279305      11552.8     1000 
  314000   0.48160595   -2.4104659   0.72168652   -1.6887794   0.13308203    11398.153     1000 
  316000   0.50206605   -2.3937693   0.75234597   -1.6414234   0.12636519    11546.664     1000 
  318000   0.48495619   -2.4121674   0.72670685   -1.6854606   0.12980043    11298.377     1000 
  320000   0.47011199   -2.4324712   0.70446282   -1.7280083   0.13062469    11396.196     1000 
  322000   0.49637525   -2.4388291   0.74381831   -1.6950108   0.12756908    11486.815     1000 
  324000    0.4830743   -2.4288825   0.72388684   -1.7049956   0.13537751    11437.316     1000 
  326000   0.47798519   -2.3506875    0.7162608   -1.6344267   0.12878976     11415.68     1000 
  328000   0.48663326   -2.4259188   0.72921994   -1.6966989   0.13133873    11271.492     1000 
  330000   0.46280352   -2.4054158   0.69351107   -1.7119048   0.13367342    11353.381     1000 
  332000   0.47594399   -2.4057561   0.71320207    -1.692554   0.13069125    11421.595     1000 
  334000   0.49503544   -2.4118314    0.7418106   -1.6700208   0.13093509    11360.084     1000 
  336000   0.50034571   -2.4124665   0.74976805   -1.6626985   0.14364565    11395.775     1000 
  338000   0.47901916   -2.4395463   0.71781022    -1.721736   0.13885374    11376.772     1000 
  340000   0.48521666   -2.4278006   0.72709717   -1.7007035   0.14514611    11384.747     1000 
  342000   0.50160399   -2.4220087   0.75165357   -1.6703551   0.12509789    11400.185     1000 
  344000   0.47002737   -2.4629093   0.70433602   -1.7585733   0.13253127    11381.063     1000 
  346000   0.48837084   -2.4101953    0.7318237   -1.6783716   0.11340372    11416.729     1000 
  348000   0.50173858    -2.449461   0.75185526   -1.6976057   0.12641281    11432.801     1000 
  350000   0.45827437   -2.3714958   0.68672414   -1.6847716   0.11749886    11237.892     1000 
  352000   0.48489524   -2.4395983   0.72661552   -1.7129828   0.13059607    11510.936     1000 
  354000   0.47531337   -2.3104703   0.71225708   -1.5982132   0.13414037    11211.624     1000 
  356000   0.46354882   -2.4150983    0.6946279   -1.7204704   0.13320564    11312.715     1000 
  358000   0.48983039   -2.4130027   0.73401084   -1.6789918   0.13307604    11295.644     1000 
  360000   0.48993006   -2.4660843   0.73416019   -1.7319241   0.11747947    11406.339     1000 
  362000   0.47765712   -2.4722878   0.71576919   -1.7565186   0.13751136     11291.15     1000 
  364000   0.48607751   -2.4556807   0.72838715   -1.7272935   0.13700233    11379.989     1000 
  366000   0.47983021   -2.4402839   0.71902556   -1.7212584   0.11968786    11497.184     1000 
  368000   0.47865426   -2.3898911   0.71726341   -1.6726277   0.12627316    11378.362     1000 
  370000   0.48021514   -2.4369487   0.71960238   -1.7173463    0.1170573    11465.223     1000 
  372000   0.48407677   -2.4146546   0.72538904   -1.6892656   0.14483806    11196.788     1000 
  374000   0.47921364   -2.4553001   0.71810163   -1.7371985   0.13161289    11330.982     1000 
  376000   0.48751445   -2.4068207    0.7305404   -1.6762803   0.13226535    11384.323     1000 
  378000   0.45758294   -2.4107215   0.68568804   -1.7250334   0.12148626    11430.107     1000 
  380000   0.47313894   -2.3740713    0.7089987   -1.6650726   0.14209178    11326.281     1000 
  382000   0.48036276    -2.384899   0.71982359   -1.6650754   0.13101908    11345.956     1000 
  384000   0.48470058   -2.3746524   0.72632382   -1.6483286   0.11893145    11506.214     1000 
  386000   0.49996856   -2.3900585   0.74920289   -1.6408556   0.12687836    11441.695     1000 
  388000   0.48128535   -2.4074449    0.7212061   -1.6862388   0.11841255    11442.539     1000 
  390000   0.49984584   -2.4257472   0.74901899   -1.6767282   0.11881709    11529.694     1000 
  392000   0.46726994    -2.377006   0.70020401    -1.676802   0.13161407    11459.991     1000 
  394000   0.46098957   -2.4091795   0.69079286   -1.7183866   0.13235415    11409.218     1000 
  396000   0.48736148   -2.4083867   0.73031117   -1.6780756   0.12888388    11367.513     1000 
  398000   0.49946449   -2.4014859   0.74844753   -1.6530384   0.13713349    11323.706     1000 
  400000   0.47979666   -2.4385461   0.71897529   -1.7195708   0.12698776    11261.663     1000 
  402000   0.45590148   -2.4572496   0.68316837   -1.7740812   0.12376298    11570.066     1000 
  404000   0.46624542   -2.3792017   0.69866876    -1.680533   0.14119316    11272.163     1000 
  406000   0.44311723   -2.4053007   0.66401117   -1.7412896   0.13453455    11401.158     1000 
  408000   0.46188091   -2.3873033   0.69212855   -1.6951748   0.12699241    11315.958     1000 
  410000   0.47432745   -2.4889757   0.71077968    -1.778196   0.10468353    11584.879     1000 
  412000   0.47791868   -2.4596793   0.71616115   -1.7435181   0.12145458    11494.475     1000 
  414000   0.49416882   -2.4076472   0.74051198   -1.6671352   0.12905521    11298.073     1000 
  416000   0.48691187   -2.4232305   0.72963744   -1.6935931   0.12268689    11410.359     1000 
  418000   0.46216002   -2.3927661    0.6925468   -1.7002193   0.11954518    11492.528     1000 
  420000      0.46837   -2.4168001   0.70185244   -1.7149477   0.13638349    11319.484     1000 
  422000   0.47212555   -2.4059176   0.70748014   -1.6984375   0.14325378    11349.473     1000 
  424000    0.4494822   -2.4817072   0.67354908   -1.8081581   0.12472124    11332.416     1000 
  426000   0.46158157   -2.4004089   0.69167998   -1.7087289   0.12167131    11478.815     1000 
  428000   0.47538219   -2.4040231   0.71236021   -1.6916629   0.14336225      11343.8     1000 
  430000   0.48105083   -2.4705259   0.72085467   -1.7496712   0.12602469     11465.02     1000 
  432000   0.48622912   -2.4422767   0.72861434   -1.7136623   0.12633291    11550.648     1000 
  434000   0.48309617   -2.4481191    0.7239196   -1.7241995   0.12206469    11518.739     1000 
  436000   0.47833936   -2.3884816   0.71679153   -1.6716901   0.12763888     11339.21     1000 
  438000   0.48489039   -2.4282865   0.72660826   -1.7016782    0.1179607    11462.508     1000 
  440000   0.49160225    -2.428007   0.73666597    -1.691341   0.12966937    11367.482     1000 
  442000   0.49958534   -2.3960087   0.74862863   -1.6473801   0.12159834    11426.121     1000 
  444000   0.51164667   -2.4133435   0.76670253    -1.646641   0.14506455    11278.618     1000 
  446000   0.46190836   -2.4380422   0.69216968   -1.7458725   0.13208801    11450.006     1000 
  448000   0.50445285   -2.4034729   0.75592259   -1.6475503   0.12580886    11371.383     1000 
  450000   0.47903965   -2.4216098   0.71784092   -1.7037689   0.12952658    11399.923     1000 
  452000   0.46717547   -2.4580947   0.70006244   -1.7580323   0.12698702    11477.322     1000 
  454000   0.48665587   -2.4910014   0.72925382   -1.7617476   0.12835588    11427.933     1000 
  456000   0.46563832   -2.4282978   0.69775903   -1.7305387   0.11998789     11336.47     1000 
  458000   0.48756616   -2.4254626   0.73061788   -1.6948447   0.12821403     11385.89     1000 
  460000   0.48485784   -2.3577809   0.72655947   -1.6312214   0.13962252    11345.437     1000 
  462000   0.46821198   -2.3891834   0.70161565   -1.6875678   0.12694591     11331.88     1000 
  464000   0.48056036   -2.4096029    0.7201197   -1.6894832   0.12410527    11386.926     1000 
  466000   0.48723005   -2.4396549   0.73011423   -1.7095407   0.12508442    11465.839     1000 
  468000   0.46706707   -2.4749527   0.69990001   -1.7750527   0.12815384    11413.376     1000 
  470000   0.47366048   -2.4275408   0.70978023   -1.7177605   0.13046691    11367.867     1000 
  472000   0.49102825   -2.4201375   0.73580583   -1.6843317   0.13210228     11590.47     1000 
  474000   0.48739578   -2.4063301   0.73036258   -1.6759675   0.12699067    11274.678     1000 
  476000   0.48231387   -2.4045189   0.72274733   -1.6817715   0.13233665    11395.648     1000 
  478000   0.47240481   -2.4101826    0.7078986    -1.702284     0.117839     11547.58     1000 
  480000   0.50629225   -2.4270324   0.75867893   -1.6683535   0.14094767     11463.05     1000 
  482000   0.48424672   -2.4409421   0.72564371   -1.7152983    0.1302645    11537.523     1000 
  484000   0.46956183   -2.4037491   0.70363841   -1.7001107   0.13227205    11304.948     1000 
  486000   0.47999655   -2.4001343   0.71927484   -1.6808594    0.1412696    11225.949     1000 
  488000   0.47047876   -2.4281454   0.70501242    -1.723133   0.13081231    11303.511     1000 
  490000   0.47769754   -2.4516621   0.71582977   -1.7358323   0.12944339    11422.154     1000 
  492000   0.48874182   -2.4210792   0.73237962   -1.6886995    0.1328824    11362.003     1000 
  494000   0.47321395   -2.4550226    0.7091111   -1.7459115   0.12016107    11410.728     1000 
  496000   0.48410449   -2.4596158   0.72543058   -1.7341852   0.12650864    11442.349     1000 
  498000   0.48486184   -2.4671931   0.72656547   -1.7406276    0.1295915    11460.064     1000 
  500000   0.49668255   -2.4225802    0.7442788   -1.6783014   0.13210275     11335.53     1000 
  502000    0.4756082   -2.4894488   0.71269888   -1.7767499   0.12160694    11472.344     1000 
  504000   0.48416881   -2.4145086   0.72552696   -1.6889817   0.12875151    11311.771     1000 
  506000   0.47569323   -2.4011718    0.7128263   -1.6883454   0.12325154    11202.797     1000 
  508000   0.45462491   -2.4817612   0.68125543   -1.8005058    0.1200406    11493.838     1000 
  510000   0.47213836   -2.4026205   0.70749933   -1.6951212   0.13410534    11193.752     1000 
  512000   0.48995996   -2.4110764   0.73420499   -1.6768714   0.11876665    11424.057     1000 
  514000   0.47393476    -2.388267   0.71019123   -1.6780758   0.13416436    11386.284     1000 
  516000   0.48264327   -2.4334063   0.72324094   -1.7101653   0.13350079    11394.631     1000 
  518000     0.478863   -2.4690471    0.7175762   -1.7514709   0.12343093    11475.254     1000 
  520000   0.47112142   -2.4153101   0.70597545   -1.7093346   0.14107018    11209.247     1000 
  522000   0.49592359   -2.4344525    0.7431415    -1.691311   0.11881461    11579.197     1000 
  524000   0.47639664   -2.4577193   0.71388037    -1.743839    0.1273943    11428.987     1000 
  526000   0.47142236   -2.4487796    0.7064264   -1.7423532   0.12600625    11404.105     1000 
  528000    0.4709361   -2.3819698   0.70569774   -1.6762721   0.14503158    11156.508     1000 
  530000   0.47457748   -2.4322681   0.71115435   -1.7211138   0.11921838    11526.313     1000 
  532000   0.47072448    -2.409398   0.70538063   -1.7040174   0.12931748    11431.932     1000 
  534000   0.49807346   -2.4519389   0.74636308   -1.7055758   0.11853394    11604.643     1000 
  536000   0.47035722   -2.4006644    0.7048303   -1.6958341   0.13472693    11322.197     1000 
  538000   0.47296092    -2.452774   0.70873194    -1.744042   0.12740398    11360.275     1000 
  540000   0.48643935   -2.4289307   0.72892936   -1.7000013    0.1269843    11369.914     1000 
  542000   0.47984405   -2.3910008    0.7190463   -1.6719545   0.12472539    11357.692     1000 
  544000   0.49511765   -2.4496049    0.7419338   -1.7076711    0.1363948    11403.559     1000 
  546000   0.50901468   -2.4483197    0.7627585   -1.6855612   0.14024841    11362.173     1000 
  548000   0.48542469   -2.4635336   0.72740891   -1.7361247   0.12852115    11379.478     1000 
  550000    0.4656305   -2.4298391    0.6977473   -1.7320918   0.13945454    11330.286     1000 
  552000   0.46858463   -2.4100326   0.70217407   -1.7078585   0.14084216    11355.601     1000 
  554000   0.46656903   -2.4288331   0.69915369   -1.7296794   0.12366471    11452.802     1000 
  556000   0.47397935   -2.4032331   0.71025806    -1.692975   0.13466772     11392.36     1000 
  558000   0.48051358   -2.4682515   0.72004959   -1.7482019    0.1326121     11374.95     1000 
  560000   0.49086291   -2.4165496   0.73555807   -1.6809915   0.12221431    11453.277     1000 
  562000   0.49165331   -2.4094298   0.73674249   -1.6726873   0.13068848    11249.537     1000 
  564000   0.49064533   -2.3998508   0.73523202   -1.6646188   0.15151949    11121.968     1000 
  566000   0.46923816   -2.3959229   0.70315338   -1.6927695   0.12612648    11437.384     1000 
  568000   0.48019943   -2.4591994   0.71957885   -1.7396206   0.12224756     11449.59     1000 
  570000   0.48962497   -2.3639231   0.73370301   -1.6302201   0.13969341    11255.763     1000 
  572000    0.4735051   -2.4091729    0.7095474   -1.6996255   0.12655821     11413.25     1000 
  574000    0.5027342   -2.4377268    0.7533472   -1.6843796   0.11595486    11398.527     1000 
  576000   0.49368836   -2.4402347     0.739792   -1.7004427   0.12463113    11546.726     1000 
  578000   0.46111277   -2.4613392   0.69097749   -1.7703617    0.1252548    11398.329     1000 
  580000   0.46486774   -2.4447322    0.6966043   -1.7481279    0.1406564    11334.315     1000 
  582000   0.47561301   -2.4423404   0.71270609   -1.7296343   0.13252226    11461.478     1000 
  584000   0.47621163   -2.4612025   0.71360313   -1.7475994   0.13863733    11322.631     1000 
  586000   0.47937013   -2.4082147   0.71833614   -1.6898786   0.13509641    11381.962     1000 
  588000   0.47883763   -2.4897366   0.71753819   -1.7721984   0.13457061    11218.733     1000 
  590000   0.49229435   -2.3975552   0.73770308   -1.6598521   0.14590535     11281.84     1000 
  592000   0.46159968   -2.4795098   0.69170712   -1.7878027   0.12351007     11428.75     1000 
  594000   0.50268436   -2.4672078   0.75327252   -1.7139352   0.12569944    11550.264     1000 
  596000   0.46515881   -2.4498418   0.69704047   -1.7528013   0.12541734    11442.786     1000 
  598000   0.48221227   -2.4022852   0.72259508   -1.6796902   0.13338748    11296.993     1000 
  600000   0.48820942   -2.4630946   0.73158182   -1.7315128   0.12868966    11559.065     1000 
  602000   0.48500422    -2.448407   0.72677883   -1.7216282   0.13937285    11377.585     1000 
  604000   0.49440532    -2.402052   0.74086637   -1.6611856   0.13674676    11282.006     1000 
  606000     0.495697   -2.4102102   0.74280196   -1.6674083   0.12937022    11457.518     1000 
  608000   0.45056605   -2.4441984   0.67517323   -1.7690252   0.11454125    11612.038     1000 
  610000   0.48109288   -2.4389356   0.72091768   -1.7180179   0.12832032    11475.108     1000 
  612000   0.49185719   -2.3952496     0.737048   -1.6582016   0.13403269    11433.118     1000 
  614000   0.47479733   -2.4299627    0.7114838   -1.7184789   0.13154723    11337.389     1000 
  616000   0.45594846    -2.448395   0.68323876   -1.7651563   0.10905628    11481.226     1000 
  618000   0.48985017   -2.4535047   0.73404048   -1.7194642    0.1294363    11337.244     1000 
  620000   0.48540104   -2.4552496   0.72737346   -1.7278762    0.1247289    11511.601     1000 
  622000   0.48646122   -2.4530508   0.72896214   -1.7240886   0.11854024    11512.598     1000 
  624000   0.49001898   -2.4350207   0.73429345   -1.7007273   0.12336211    11499.093     1000 
  626000   0.47222624   -2.4484071   0.70763103   -1.7407761   0.12919335    11386.823     1000 
  628000   0.46669088    -2.417637   0.69933628   -1.7183007   0.13499093    11386.285     1000 
  630000   0.48295818   -2.4390845   0.72371284   -1.7153716   0.12752196    11379.311     1000 
  632000   0.46497612   -2.4137888   0.69676671    -1.717022   0.13538081    11389.295     1000 
  634000   0.46918037   -2.4331654   0.70306679   -1.7300986   0.12397518    11339.608     1000 
  636000    0.4747881    -2.388754   0.71146998   -1.6772841   0.13171717    11339.962     1000 
  638000    0.4559246   -2.3899043   0.68320302   -1.7067013   0.14270988    11194.347     1000 
  640000   0.46800602   -2.4207743   0.70130702   -1.7194672   0.12746603    11270.632     1000 
  642000   0.49164853   -2.4511112   0.73673533   -1.7143759   0.12775583      11343.7     1000 
  644000   0.47185658   -2.4102018   0.70707708   -1.7031248   0.12542355    11279.708     1000 
  646000   0.46622338   -2.4098719   0.69863573   -1.7112361   0.12080888    11344.037     1000 
  648000   0.49158839   -2.4703091    0.7366452   -1.7336639   0.13278247    11376.848     1000 
  650000   0.49059515   -2.4272648   0.73515684    -1.692108   0.13543287    11334.354     1000 
  652000   0.49641622    -2.442228   0.74387971   -1.6983483   0.11822899    11564.458     1000 
  654000   0.47691936    -2.455524   0.71466366   -1.7408603    0.1253342    11500.864     1000 
  656000   0.48137982   -2.4245467   0.72134766   -1.7031991   0.13421747    11251.967     1000 
  658000   0.49941287   -2.4635065   0.74837018   -1.7151363   0.12707919    11367.221     1000 
  660000   0.47755444   -2.4342443   0.71561533    -1.718629   0.12738594    11452.934     1000 
  662000   0.48422221   -2.4217571   0.72560698   -1.6961501   0.10990255    11421.677     1000 
  664000   0.48276328   -2.4140315   0.72342077   -1.6906108    0.1258794    11401.417     1000 
  666000   0.47321008   -2.4181087   0.70910531   -1.7090034   0.11819464    11491.789     1000 
  668000   0.47897985    -2.457522    0.7177513   -1.7397707   0.12128273    11472.213     1000 
  670000   0.48897378   -2.4619453   0.73272721   -1.7292181   0.13858738    11239.751     1000 
  672000   0.47185846   -2.4369057    0.7070799   -1.7298258    0.1369178    11386.564     1000 
  674000   0.48622752   -2.3424855   0.72861194   -1.6138736     0.137354    11371.461     1000 
  676000   0.48050472   -2.4178169   0.72003632   -1.6977805   0.13563298    11365.068     1000 
  678000   0.47901782   -2.4468134    0.7178082   -1.7290052   0.14776527    11313.902     1000 
  680000   0.48381286   -2.4670939   0.72499357   -1.7421004   0.12563933    11522.347     1000 
  682000   0.48099561   -2.4414076   0.72077192   -1.7206356   0.11983235    11493.814     1000 
  684000   0.48656684   -2.4319084   0.72912041    -1.702788   0.14100313    11342.297     1000 
  686000   0.46148679   -2.3996916   0.69153796   -1.7081536   0.12474619    11541.972     1000 
  688000   0.50064219   -2.4472492   0.75021232   -1.6970369   0.13448156    11406.389     1000 
  690000   0.47520329   -2.3781744   0.71209213   -1.6660822   0.14324661    11168.666     1000 
  692000   0.46655321   -2.3787511   0.69912998   -1.6796212   0.12503155    11449.546     1000 
  694000   0.46577348   -2.4020108   0.69796156   -1.7040493   0.12090219    11394.015     1000 
  696000    0.4835155   -2.4199876   0.72454798   -1.6954397   0.12410413    11511.318     1000 
  698000   0.48193776   -2.4510677   0.72218373    -1.728884   0.14237832    11210.631     1000 
  700000   0.47459859   -2.4198881   0.71118599   -1.7087022   0.14422722    11195.008     1000 
  702000   0.45835941   -2.4834865   0.68685158   -1.7966349   0.12864092    11431.028     1000 
  704000   0.48204324   -2.3878635   0.72234179   -1.6655217   0.12786683    11374.121     1000 
  706000   0.47326806   -2.3751479   0.70919219   -1.6659557   0.14314776     11123.91     1000 
  708000   0.49403318   -2.4337302   0.74030872   -1.6934215   0.12620308    11453.557     1000 
  710000   0.48749582   -2.3759596   0.73051249   -1.6454471   0.12879307    11309.317     1000 
  712000   0.48128193   -2.4378096   0.72120097   -1.7166086   0.13747785    11411.321     1000 
  714000   0.50508857   -2.4338891   0.75687523   -1.6770139   0.13260163    11395.171     1000 
  716000   0.47579541   -2.3956188   0.71297942   -1.6826394   0.12773351    11336.111     1000 
  718000   0.47605762   -2.3523867   0.71337235   -1.6390143   0.13714799    11386.836     1000 
  720000    0.4668996   -2.4311642   0.69964904   -1.7315152   0.14396979    11274.438     1000 
  722000   0.46058253   -2.4295295   0.69018292   -1.7393466   0.12327873    11342.592     1000 
  724000   0.47478284   -2.5051019   0.71146209   -1.7936399   0.12752806    11470.645     1000 
  726000   0.48877084   -2.3860006   0.73242311   -1.6535775   0.14061133    11289.209     1000 
  728000   0.48774325   -2.4134914   0.73088326   -1.6826082   0.12928106    11408.539     1000 
  730000   0.46959064   -2.4349093   0.70368158   -1.7312277   0.12987457    11378.049     1000 
  732000   0.49749502   -2.4443414   0.74549629   -1.6988451   0.12271656    11512.074     1000 
  734000   0.49388119   -2.4515834   0.74008097   -1.7115024   0.12968877    11329.192     1000 
  736000   0.49281873   -2.4504392   0.73848887   -1.7119504   0.13035671    11418.328     1000 
  738000   0.46985012   -2.4337002   0.70407041   -1.7296297    0.1288976    11362.537     1000 
  740000   0.49093272   -2.4211526   0.73566268   -1.6854899    0.1405982    11327.738     1000 
  742000   0.45048974   -2.4767943   0.67505888   -1.8017354   0.12411937    11502.495     1000 
  744000   0.46652427   -2.4085396   0.69908662    -1.709453   0.11225245    11354.776     1000 
  746000   0.48412727   -2.4205531   0.72546471   -1.6950884   0.12341024    11501.491     1000 
  748000   0.47502718   -2.4567487   0.71182822   -1.7449205   0.13104053    11283.225     1000 
  750000   0.48028451   -2.3854757   0.71970634   -1.6657694   0.13224001    11192.392     1000 
  752000   0.49565655   -2.4717292   0.74274135   -1.7289878   0.12841404    11494.767     1000 
  754000   0.48604032   -2.4396376   0.72833143   -1.7113062   0.12941763     11392.46     1000 
  756000   0.47960109   -2.4437285   0.71868223   -1.7250463   0.13327411    11367.031     1000 
  758000   0.45984113   -2.4154929   0.68907193    -1.726421   0.13786701    11318.246     1000 
  760000   0.50660807   -2.3913147    0.7591522   -1.6321625   0.12825288      11255.4     1000 
  762000   0.46677241   -2.4258593   0.69945846   -1.7264008   0.13241729    11522.756     1000 
  764000   0.47568722   -2.4053257    0.7128173   -1.6925084   0.12782618    11478.932     1000 
  766000   0.48007955   -2.4551982   0.71939921   -1.7357989   0.13079751    11446.271     1000 
  768000   0.48084154   -2.4282142   0.72054105   -1.7076732   0.12382535    11468.135     1000 
  770000   0.48395165   -2.4146871   0.72520155   -1.6894855   0.13013488    11419.058     1000 
  772000   0.48996631   -2.4183495   0.73421451    -1.684135   0.12883885    11272.437     1000 
  774000   0.46812746   -2.4234411   0.70148901   -1.7219521   0.11282674    11295.343     1000 
  776000   0.49199486   -2.4117831    0.7372543   -1.6745288   0.15098363    11258.848     1000 
  778000   0.46872614    -2.422914   0.70238612   -1.7205279   0.14711474    11355.812     1000 
  780000   0.48822776   -2.4217673   0.73160929    -1.690158   0.12479128    11396.981     1000 
  782000   0.46453341   -2.4166989   0.69610331   -1.7205956   0.14500883    11371.423     1000 
  784000   0.48667073    -2.409359   0.72927608    -1.680083   0.12064955    11406.701     1000 
  786000    0.4747125   -2.4452906   0.71135668   -1.7339339   0.12353598    11385.401     1000 
  788000   0.47562169   -2.4632812    0.7127191   -1.7505621   0.12030004    11498.628     1000 
  790000   0.48466112   -2.4366003   0.72626468   -1.7103356   0.14288627    11337.027     1000 
  792000   0.51016807   -2.4593157   0.76448685   -1.6948289   0.13639791    11395.263     1000 
  794000   0.48156249    -2.465338    0.7216214   -1.7437166   0.12906117    11478.588     1000 
  796000   0.50316789   -2.4254832   0.75399709   -1.6714861   0.12361566    11509.651     1000 
  798000   0.48642196   -2.3824815    0.7289033   -1.6535782   0.14073857    11389.278     1000 
  800000   0.48225672   -2.4581226   0.72266169   -1.7354609   0.12523922    11439.947     1000 
  802000   0.48589552   -2.4441101   0.72811444   -1.7159957   0.12648481    11453.494     1000 
  804000   0.46536338   -2.4321578   0.69734703   -1.7348108   0.13411991    11308.229     1000 
  806000   0.46862508   -2.3825804   0.70223468   -1.6803458   0.12911829    11287.311     1000 
  808000   0.47560165   -2.4186023   0.71268907   -1.7059132   0.12676395    11402.439     1000 
  810000   0.48323555   -2.4365669   0.72412847   -1.7124384   0.12749789    11430.231     1000 
  812000    0.4746217    -2.382952   0.71122062   -1.6717314   0.11600402     11335.56     1000 
  814000   0.48948402   -2.4219043   0.73349181   -1.6884125   0.12950311    11321.293     1000 
  816000   0.50984959   -2.4583521   0.76400961   -1.6943425   0.12967652    11453.154     1000 
  818000   0.48835224   -2.4110899   0.73179583    -1.679294   0.13493863    11319.783     1000 
  820000   0.48058395    -2.409777   0.72015505   -1.6896219   0.12824557    11379.951     1000 
  822000   0.48601621   -2.4190524   0.72829529   -1.6907571   0.11742047    11459.118     1000 
  824000   0.48003319   -2.3927862   0.71932974   -1.6734564   0.14300516     11225.33     1000 
  826000   0.47299889   -2.4082995   0.70878883   -1.6995106   0.13224455    11346.461     1000 
  828000   0.48584156   -2.4275102   0.72803358   -1.6994766     0.134645    11458.718     1000 
  830000   0.48166318    -2.424758   0.72177228   -1.7029857   0.12834698    11347.024     1000 
  832000   0.46306936   -2.4177534   0.69390944    -1.723844   0.11849346    11333.142     1000 
  834000   0.48457685   -2.4265623   0.72613841   -1.7004238   0.11749771    11534.232     1000 
  836000   0.49515015   -2.4330295    0.7419825    -1.691047   0.13877942    11471.908     1000 
  838000   0.48000676   -2.4507687   0.71929013   -1.7314785   0.13415306    11443.964     1000 
  840000   0.47372102   -2.4511326   0.70987095   -1.7412616   0.12197887    11404.428     1000 
  842000   0.49793136   -2.4147607   0.74615014   -1.6686105   0.12782606     11537.46     1000 
  844000    0.4661364   -2.3898325   0.69850539   -1.6913272   0.13005629    11323.276     1000 
  846000   0.47393399   -2.4459264   0.71019009   -1.7357363   0.12268435    11198.425     1000 
  848000   0.50362163   -2.4113401   0.75467702    -1.656663   0.11846371    11522.666     1000 
  850000   0.48421953   -2.4821065   0.72560296   -1.7565036    0.1312199     11436.82     1000 
  852000    0.4817215    -2.459255   0.72185966   -1.7373954    0.1367278    11457.383     1000 
  854000   0.47429526   -2.4428375   0.71073145    -1.732106    0.1244715    11491.823     1000 
  856000   0.49108175   -2.3736557   0.73588601   -1.6377697   0.12563248    11352.995     1000 
  858000   0.47988907   -2.4175382   0.71911377   -1.6984245   0.12234246    11508.129     1000 
  860000     0.482542   -2.4256212   0.72308919   -1.7025321   0.12293879    11552.708     1000 
  862000   0.47718777   -2.4183857   0.71506588   -1.7033199   0.12654154    11325.311     1000 
  864000   0.47301395   -2.4123926    0.7088114   -1.7035812   0.14281759    11290.871     1000 
  866000   0.47578977   -2.4110961   0.71297098   -1.6981252   0.12610621    11379.738     1000 
  868000   0.47091544   -2.4278134   0.70566678   -1.7221466   0.13068643    11365.656     1000 
  870000   0.47940106    -2.371212   0.71838249   -1.6528295    0.1332544    11432.571     1000 
  872000   0.50276642   -2.4227507   0.75339549   -1.6693552    0.1057146    11476.214     1000 
  874000   0.48679698   -2.4162583   0.72946527    -1.686793   0.13255256    11383.787     1000 
  876000   0.48868595   -2.4362922    0.7322959   -1.7039963   0.13681379    11266.933     1000 
  878000   0.46019928   -2.4535162   0.68960862   -1.7639076   0.14059583    11227.274     1000 
  880000    0.4791645   -2.4526368     0.718028   -1.7346088   0.14777788    11475.635     1000 
  882000   0.45156734   -2.4060125   0.67667366   -1.7293388   0.13467807    11361.674     1000 
  884000   0.50284995   -2.4039343   0.75352065   -1.6504136   0.12995344    11481.108     1000 
  886000   0.47561776   -2.3956661   0.71271321   -1.6829529   0.12219593    11388.026     1000 
  888000   0.47421574   -2.4116613   0.71061229    -1.701049   0.13180005    11371.289     1000 
  890000   0.46375465   -2.3715499   0.69493635   -1.6766135   0.13347055    11428.814     1000 
  892000   0.47661575   -2.4438438    0.7142087   -1.7296351   0.14822735    11302.697     1000 
  894000   0.47541706   -2.4291787   0.71241247   -1.7167662   0.12542249    11407.378     1000 
  896000   0.48734756   -2.4374635   0.73029032   -1.7071732   0.12718844    11505.283     1000 
  898000   0.49021475   -2.4088848   0.73458681    -1.674298    0.1390173    11319.556     1000 
  900000   0.48524726   -2.4412184   0.72714301   -1.7140754   0.11980046    11465.587     1000 
  902000   0.46619362   -2.4179538   0.69859114   -1.7193626   0.14281663    11236.571     1000 
  904000   0.47784297   -2.3346322   0.71604769   -1.6185845   0.13907963    11320.278     1000 
  906000   0.48455954   -2.4161622   0.72611247   -1.6900498   0.12662417    11551.101     1000 
  908000   0.47416112   -2.4300656   0.71053044   -1.7195352   0.11154137    11405.707     1000 
  910000   0.46608716   -2.3856734   0.69843161   -1.6872418   0.12147748    11329.178     1000 
  912000   0.47610481    -2.448194   0.71344306   -1.7347509   0.13375464    11322.148     1000 
  914000   0.48629876   -2.4368865   0.72871869   -1.7081679   0.12999232     11291.29     1000 
  916000   0.47142998   -2.4517945   0.70643782   -1.7453567   0.12961911    11461.891     1000 
  918000   0.47082034   -2.4239748   0.70552428   -1.7184506   0.11741486    11326.462     1000 
  920000   0.48412875   -2.4587232   0.72546693   -1.7332563   0.13244118    11488.003     1000 
  922000   0.49589645   -2.4512331   0.74310084   -1.7081322   0.13380634    11420.656     1000 
  924000   0.50959969   -2.4463611   0.76363514    -1.682726   0.13199776    11414.829     1000 
  926000   0.47366297   -2.3861211   0.70978395   -1.6763372   0.14574946    11349.552     1000 
  928000   0.48021701   -2.4379066    0.7196052   -1.7183014   0.13291368    11410.716     1000 
  930000   0.50576424   -2.3841824   0.75788771   -1.6262947   0.14448348    11252.635     1000 
  932000   0.46673158   -2.4071208   0.69939728   -1.7077235   0.12419345    11382.978     1000 
  934000   0.47845049   -2.4696494   0.71695806   -1.7526913   0.14204947    11421.224     1000 
  936000   0.48923967   -2.4355014   0.73312564   -1.7023757   0.13735488    11391.076     1000 
  938000   0.45909275   -2.4019688   0.68795049   -1.7140183   0.13060557    11261.572     1000 
  940000   0.47177649   -2.4202092   0.70695706   -1.7132522   0.11281153    11487.812     1000 
  942000   0.49817021   -2.4438321   0.74650806   -1.6973241   0.15465181    11202.463     1000 
  944000   0.48904715   -2.4385781   0.73283716    -1.705741   0.12520517    11519.555     1000 
  946000   0.47922204   -2.4226713   0.71811422   -1.7045571   0.13022767    11363.265     1000 
  948000   0.48704106   -2.4629608   0.72983104   -1.7331298    0.1184123    11528.052     1000 
  950000   0.48737513   -2.3318191   0.73033163   -1.6014875     0.135097    11281.909     1000 
  952000   0.48817765   -2.3898633   0.73153421   -1.6583291   0.13683846    11311.252     1000 
  954000   0.49564785   -2.4058978   0.74272831   -1.6631695   0.14948295    11236.769     1000 
  956000   0.46645634   -2.4737374   0.69898483   -1.7747526   0.11391469    11606.735     1000 
  958000    0.4775749    -2.396431   0.71564599    -1.680785   0.13242415    11360.311     1000 
  960000   0.49279396    -2.438156   0.73845175   -1.6997042   0.14113257    11347.432     1000 
  962000   0.45577356   -2.3952581   0.68297668   -1.7122814   0.13147754    11376.743     1000 
  964000   0.47894531   -2.3966345   0.71769954   -1.6789349    0.1312532    11332.328     1000 
  966000   0.49175922   -2.4753014    0.7369012   -1.7384002   0.11816099     11479.38     1000 
  968000   0.47186912   -2.4551139   0.70709587    -1.748018   0.12384223     11450.46     1000 
  970000   0.47488996    -2.394303    0.7116226   -1.6826804   0.12646452    11453.072     1000 
  972000    0.4731297   -2.4284126   0.70898485   -1.7194278   0.12899997    11403.993     1000 
  974000   0.48412953   -2.4036388    0.7254681   -1.6781707   0.12302331    11375.153     1000 
  976000   0.49288337   -2.4572102   0.73858573   -1.7186245   0.13363131     11436.62     1000 
  978000   0.48998878   -2.3783945   0.73424819   -1.6441463   0.12779499    11558.001     1000 
  980000   0.47920886   -2.4010068   0.71809447   -1.6829123   0.14921348    11283.399     1000 
  982000   0.47222942   -2.4540688   0.70763579    -1.746433   0.13662287    11374.427     1000 
  984000    0.4590656   -2.4238945    0.6879098   -1.7359847   0.13523039    11251.221     1000 
  986000   0.48218391   -2.4630179   0.72255259   -1.7404653     0.110601    11532.935     1000 
  988000   0.46329709   -2.4158737    0.6942507    -1.721623   0.12634298    11337.208     1000 
  990000   0.49255691   -2.4387197   0.73809653   -1.7006231   0.12726692    11391.375     1000 
  992000   0.45912604   -2.4014975   0.68800037   -1.7134971   0.13418119    11423.489     1000 
  994000   0.48054818   -2.4350146   0.72010144   -1.7149131   0.12587318    11394.757     1000 
  996000    0.4823031   -2.4682776    0.7227312   -1.7455464    0.1197493    11442.777     1000 
  998000    0.4842592   -2.4404173   0.72566242   -1.7147549   0.13681861    11359.858     1000 
 1000000   0.47930307   -2.4373906   0.71823566   -1.7191549   0.11632816    11502.492     1000 
 1002000   0.47381164   -2.4087632   0.71000674   -1.6987565   0.12342587    11360.132     1000 
 1004000   0.47825677   -2.4494438   0.71666777    -1.732776   0.12697562    11495.853     1000 
 1006000   0.47360477   -2.4060118   0.70969675   -1.6963151   0.13419258    11403.237     1000 
 1008000   0.48547234   -2.4542112    0.7274803   -1.7267309   0.12138434    11506.748     1000 
 1010000   0.48305641   -2.4374168   0.72386003   -1.7135568   0.12571449    11465.257     1000 
 1012000   0.48613371   -2.3764259   0.72847137   -1.6479545   0.13945073     11245.65     1000 
 1014000   0.46009782   -2.4796895   0.68945659   -1.7902329   0.12745885    11445.365     1000 
 1016000   0.47569348   -2.4207483   0.71282668   -1.7079216   0.12404512    11536.413     1000 
 1018000   0.49516259   -2.4291159   0.74200114   -1.6871147   0.13470953     11357.05     1000 
 1020000    0.4736759   -2.4311955   0.70980334   -1.7213922   0.12573015    11413.553     1000 
 1022000    0.4688672   -2.4473842   0.70259749   -1.7447867   0.14602054    11210.699     1000 
 1024000   0.47299353   -2.4830936    0.7087808   -1.7743128   0.13040014    11511.952     1000 
 1026000   0.47554988   -2.4481629   0.71261149   -1.7355514   0.11526536    11563.323     1000 
 1028000   0.47123981   -2.4313842   0.70615286   -1.7252314   0.12343523    11472.526     1000 
 1030000    0.4904485   -2.4224106   0.73493707   -1.6874735   0.13213567    11322.767     1000 
 1032000   0.49228803   -2.4211972   0.73769362   -1.6835036   0.14202413    11429.894     1000 
 1034000   0.48209209   -2.4410904   0.72241499   -1.7186754   0.12262197    11504.353     1000 
 1036000   0.46870484   -2.4261061    0.7023542   -1.7237519   0.13205522    11303.528     1000 
 1038000    0.4616684   -2.4279686    0.6918101   -1.7361585   0.12854879    11362.449     1000 
 1040000   0.48294269   -2.3890641   0.72368961   -1.6653745   0.13050489    11366.822     1000 
 1042000   0.46350108   -2.4075066   0.69455637   -1.7129502   0.11515344    11396.617     1000 
 1044000   0.48369226   -2.4351137   0.72481286   -1.7103009   0.13772366    11256.895     1000 
 1046000   0.47731194   -2.5001616   0.71525195   -1.7849097   0.12706405    11417.514     1000 
 1048000   0.47728055   -2.4407269   0.71520491    -1.725522   0.11582569    11511.703     1000 
 1050000   0.46760559   -2.4470478   0.70070697   -1.7463408   0.12332796    11342.571     1000 
 1052000   0.47668792    -2.436985   0.71431685   -1.7226682   0.13624951    11347.928     1000 
 1054000   0.48175846   -2.3979546   0.72191506   -1.6760395   0.13395948    11230.659     1000 
 1056000   0.48903564   -2.4114021   0.73281991   -1.6785822   0.11004743     11379.28     1000 
 1058000   0.48057726   -2.4329569   0.72014502   -1.7128118   0.12765427    11456.871     1000 
 1060000   0.47033157   -2.4119639   0.70479186   -1.7071721   0.12288256    11534.386     1000 
 1062000   0.46169293   -2.4240658   0.69184685    -1.732219   0.11627481    11492.495     1000 
 1064000   0.50862582   -2.4330499    0.7621758   -1.6708741   0.13923047    11383.787     1000 
 1066000   0.48304686   -2.4014106   0.72384572   -1.6775649   0.13187992     11382.38     1000 
 1068000   0.48289012   -2.3917623   0.72361085   -1.6681515   0.11803391    11452.621     1000 
 1070000   0.46900783    -2.477098   0.70280823   -1.7742897   0.12261357    11503.528     1000 
 1072000   0.47319343   -2.4297557   0.70908035   -1.7206754   0.14002083    11352.346     1000 
 1074000   0.47407459   -2.4669837   0.71040077   -1.7565829   0.12645936    11441.243     1000 
 1076000   0.48051908   -2.4371566   0.72005784   -1.7170988   0.12536885    11330.234     1000 
 1078000    0.5135646    -2.374817   0.76957655   -1.6052405   0.12669644    11362.875     1000 
 1080000   0.48371395   -2.4111209   0.72484536   -1.6862755     0.148337    11264.901     1000 
 1082000   0.46746973   -2.4325376   0.70050339   -1.7320342   0.13196531    11418.422     1000 
 1084000   0.47712601   -2.4129866   0.71497333   -1.6980133   0.14410705    11348.244     1000 
 1086000   0.46808091    -2.437077   0.70141924   -1.7356578   0.11556285    11624.499     1000 
 1088000   0.46579228   -2.3892864   0.69798973   -1.6912967   0.11453491    11453.288     1000 
 1090000   0.47448502   -2.4522964   0.71101581   -1.7412806   0.12082375    11561.134     1000 
 1092000   0.48545256   -2.4029065   0.72745066   -1.6754559   0.12276039    11354.189     1000 
 1094000   0.48721607   -2.4337609   0.73009328   -1.7036676   0.13103196    11329.854     1000 
 1096000   0.48090673   -2.3790527   0.72063873    -1.658414   0.13808486    11313.763     1000 
 1098000   0.47268582    -2.419863    0.7083197   -1.7115433   0.12783543    11371.716     1000 
 1100000    0.4778889   -2.4340864   0.71611652   -1.7179699   0.13785721    11404.898     1000 
 1102000   0.47944253   -2.4653608   0.71844463   -1.7469162   0.12844514    11435.498     1000 
 1104000   0.47824931   -2.4075028   0.71665658   -1.6908462   0.12253954    11450.324     1000 
 1106000   0.46592484    -2.462188   0.69818838   -1.7639996   0.11444752    11512.797     1000 
 1108000   0.46157766   -2.4194625   0.69167412   -1.7277883   0.12930648    11368.177     1000 
 1110000   0.49312167    -2.431609   0.73894282   -1.6926662   0.13253655    11357.892     1000 
 1112000   0.47724945   -2.4465664    0.7151583   -1.7314082   0.14266546    11304.173     1000 
 1114000   0.47207487   -2.4808436   0.70740419   -1.7734394   0.12404597    11452.962     1000 
 1116000   0.49499037   -2.4566882   0.74174306   -1.7149451   0.13834824    11361.701     1000 
 1118000    0.4678333   -2.4708019    0.7010482   -1.7697537   0.14081831    11195.272     1000 
 1120000   0.46989442   -2.3727246   0.70413679   -1.6685879     0.125608    11423.042     1000 
 1122000    0.4590839    -2.388748   0.68793723   -1.7008108    0.1358115    11292.235     1000 
 1124000    0.4681355   -2.4392733   0.70150104   -1.7377723   0.13594386    11474.767     1000 
 1126000   0.45534709   -2.4216508   0.68233761   -1.7393132   0.13229408    11391.827     1000 
 1128000   0.48586348   -2.4579201   0.72806643   -1.7298537   0.12424015    11505.244     1000 
 1130000   0.47487683    -2.430714   0.71160293   -1.7191111   0.13380479      11313.4     1000 
 1132000   0.48111008   -2.5025792   0.72094346   -1.7816357   0.12547572    11462.222     1000 
 1134000   0.46754983   -2.4105948   0.70062343   -1.7099714   0.11764332    11461.919     1000 
 1136000   0.46671279   -2.4442986   0.69936912   -1.7449295   0.11904984    11450.564     1000 
 1138000   0.47303426   -2.4135619   0.70884183   -1.7047201   0.12246868    11464.971     1000 
 1140000   0.48455952   -2.4198424   0.72611244   -1.6937299   0.12950931    11327.856     1000 
 1142000   0.47148229   -2.3955301   0.70651621   -1.6890139   0.14467994    11250.459     1000 
 1144000   0.46657598   -2.4415199   0.69916411   -1.7423558   0.11696434    11360.715     1000 
 1146000   0.47020208   -2.3967775   0.70459782   -1.6921797   0.11846051    11399.416     1000 
 1148000   0.48721276   -2.4644426   0.73008832   -1.7343543   0.11362951    11557.658     1000 
 1150000   0.47105691   -2.4713216   0.70587878   -1.7654428   0.12091006    11397.211     1000 
 1152000   0.49082277   -2.4378678   0.73549792   -1.7023699    0.1314984    11448.756     1000 
 1154000    0.4814487   -2.3941863   0.72145087   -1.6727354   0.13003312    11359.341     1000 
 1156000   0.47616535   -2.3723692   0.71353377   -1.6588355   0.13071577     11286.65     1000 
 1158000   0.47689261   -2.4539019   0.71462358   -1.7392783   0.15220096    11242.419     1000 
 1160000   0.47141696   -2.4135065   0.70641831   -1.7070882   0.12391413    11450.533     1000 
 1162000   0.48924712   -2.4306748   0.73313681    -1.697538   0.12990545    11322.556     1000 
 1164000   0.48130029   -2.4357597   0.72122848   -1.7145312   0.12917965    11329.168     1000 
 1166000   0.48270211   -2.4272829   0.72332911   -1.7039538   0.12703818    11445.725     1000 
 1168000   0.47797044   -2.4436362   0.71623871   -1.7273975   0.12776408    11410.037     1000 
 1170000   0.46808271   -2.4368565   0.70142195   -1.7354345   0.12357469    11446.469     1000 
 1172000   0.47548311   -2.4266808   0.71251143   -1.7141693    0.1262765    11484.204     1000 
 1174000   0.46780361   -2.4665684   0.70100371   -1.7655647   0.12737305    11551.179     1000 
 1176000   0.48082722   -2.3878419   0.72051959   -1.6673223   0.12154905    11386.096     1000 
 1178000   0.48153387   -2.3576228    0.7215785   -1.6360443    0.1364368    11332.432     1000 
 1180000   0.47519954   -2.4509826   0.71208652   -1.7388961   0.12934877    11350.646     1000 
 1182000   0.47361924   -2.3917508   0.70971844   -1.6820324   0.13199855     11239.03     1000 
 1184000   0.46533436   -2.3698211   0.69730354   -1.6725176   0.12610313    11460.304     1000 
 1186000   0.50062556   -2.4164032   0.75018741   -1.6662158   0.14104573    11248.229     1000 
 1188000   0.48473331   -2.4523281   0.72637287   -1.7259553   0.12736749    11427.945     1000 
 1190000    0.4693831    -2.421228   0.70337058   -1.7178574   0.12808235    11486.401     1000 
 1192000   0.48326988     -2.38971   0.72417991   -1.6655301   0.13230149    11394.183     1000 
 1194000    0.4648145   -2.4429573   0.69652453   -1.7464327   0.12352301      11341.4     1000 
 1196000   0.47766154   -2.4869944   0.71577582   -1.7712186   0.12392797     11412.76     1000 
 1198000   0.46422245   -2.4196193   0.69563734   -1.7239819    0.1354745    11256.891     1000 
 1200000   0.49266977   -2.3934322   0.73826565   -1.6551665   0.12936386    11540.599     1000 
 1202000   0.47742342   -2.4342735   0.71541899   -1.7188545   0.12535109    11483.175     1000 
 1204000   0.47835371   -2.3983894   0.71681304   -1.6815764   0.12837624    11375.842     1000 
 1206000   0.48324921   -2.4196093   0.72414893   -1.6954603   0.12131884    11305.535     1000 
 1208000   0.48593184   -2.4186939   0.72816886    -1.690525   0.13424467    11425.768     1000 
 1210000   0.46194177   -2.4074148   0.69221974    -1.715195   0.12185982    11439.437     1000 
 1212000   0.49582044   -2.3968289   0.74298693    -1.653842   0.13256927     11292.72     1000 
 1214000   0.49610805   -2.3806197   0.74341791   -1.6372018   0.13980379    11250.171     1000 
 1216000   0.46676714    -2.431422   0.69945056   -1.7319715   0.12018353    11426.987     1000 
 1218000    0.4927554   -2.4317439   0.73839396   -1.6933499   0.12424285    11365.849     1000 
 1220000   0.49519434   -2.4811806   0.74204871   -1.7391319   0.12870539     11379.62     1000 
 1222000   0.44931314   -2.4548494   0.67329575   -1.7815537   0.12258377    11515.648     1000 
 1224000   0.47862412    -2.419852   0.71721825   -1.7026337   0.12126376    11431.602     1000 
 1226000   0.48492865    -2.447445   0.72666558   -1.7207794   0.14017607    11355.921     1000 
 1228000   0.46672081   -2.4295978   0.69938113   -1.7302167   0.12892811     11373.32     1000 
 1230000   0.47240256   -2.3987689   0.70789523   -1.6908736    0.1400068    11313.914     1000 
 1232000   0.48265191    -2.424109   0.72325388   -1.7008551   0.13440554    11255.946     1000 
 1234000   0.48786475   -2.4636804   0.73106533    -1.732615   0.14220202     11389.03     1000 
 1236000   0.48455258    -2.425166   0.72610204    -1.699064   0.13770524    11346.524     1000 
 1238000   0.48531144   -2.3861998   0.72723919   -1.6589606   0.13677498    11291.442     1000 
 1240000   0.49134816   -2.4240086   0.73628521   -1.6877234   0.14936649    11239.285     1000 
 1242000    0.4571444   -2.4429772   0.68503088   -1.7579463    0.1229861    11444.503     1000 
 1244000   0.47599193   -2.4400856   0.71327391   -1.7268117   0.14094695    11290.679     1000 
 1246000   0.47503777   -2.4513435   0.71184411   -1.7394994   0.12277043    11433.055     1000 
 1248000   0.47352774   -2.4375734   0.70958131   -1.7279921   0.13289325    11266.352     1000 
 1250000   0.46865795   -2.4543465   0.70228395   -1.7520625   0.13572826    11405.964     1000 
 1252000   0.48796123   -2.4388616   0.73120991   -1.7076517   0.11651812    11456.948     1000 
 1254000   0.47992429   -2.4780153   0.71916654   -1.7588487   0.13636406    11391.069     1000 
 1256000   0.48528338    -2.350922   0.72719714   -1.6237248   0.14859614    11313.686     1000 
 1258000   0.46621269   -2.4462434   0.69861972   -1.7476237   0.11736015    11412.732     1000 
 1260000   0.48462068   -2.3658021   0.72620409    -1.639598   0.14157485    11226.575     1000 
 1262000   0.48905361   -2.4237351   0.73284684   -1.6908883   0.13437272    11298.326     1000 
 1264000   0.47364876   -2.4562824   0.70976267   -1.7465197   0.12374688    11442.046     1000 
 1266000   0.48540251   -2.4541812   0.72737567   -1.7268056    0.1145029    11468.665     1000 
 1268000   0.47533088   -2.3913702   0.71228333   -1.6790869   0.13150141    11354.032     1000 
 1270000   0.47011332   -2.4176214   0.70446481   -1.7131566    0.1372439    11354.303     1000 
 1272000   0.46811094   -2.4210767   0.70146424   -1.7196124   0.11753341     11590.71     1000 
 1274000   0.47755756   -2.4477902      0.71562   -1.7321702   0.13675121    11479.339     1000 
 1276000   0.49348398   -2.3920758   0.73948574   -1.6525901   0.13390487    11396.812     1000 
 1278000   0.49248723   -2.4557308   0.73799211   -1.7177386   0.12918012    11383.534     1000 
 1280000   0.47887681   -2.3838988    0.7175969   -1.6663019   0.13707706    11300.515     1000 
 1282000    0.4700722   -2.4281171   0.70440319   -1.7237139   0.12602289    11458.977     1000 
 1284000   0.48231159   -2.4109854   0.72274392   -1.6882415   0.13504924    11287.724     1000 
 1286000   0.47262465    -2.417277   0.70822804   -1.7090489   0.13021471    11238.933     1000 
 1288000   0.47944792   -2.3996589    0.7184527   -1.6812062   0.13171123    11224.132     1000 
 1290000   0.46633264   -2.4072805   0.69879946   -1.7084811   0.13340017    11309.348     1000 
 1292000   0.47358183   -2.4294429   0.70966237   -1.7197806   0.14072753    11335.617     1000 
 1294000   0.46333665   -2.4466504   0.69430997   -1.7523405    0.1280941    11365.383     1000 
 1296000   0.46883703   -2.4299996   0.70255229   -1.7274473    0.1263929    11433.855     1000 
 1298000   0.49075674   -2.4669104   0.73539897   -1.7315114   0.12768562    11498.448     1000 
 1300000    0.4878998   -2.4495699   0.73111785    -1.718452   0.14029005    11400.017     1000 
 1302000   0.46421823   -2.3835736   0.69563101   -1.6879426   0.12809612    11238.781     1000 
 1304000   0.48775078   -2.3825695   0.73089454    -1.651675   0.12219152    11413.001     1000 
 1306000    0.4975153   -2.4593799   0.74552667   -1.7138532   0.12627398    11493.667     1000 
 1308000   0.48199553   -2.4003867    0.7222703   -1.6781164   0.13177855    11423.305     1000 
 1310000   0.47600739   -2.4021763   0.71329707   -1.6888792    0.1354622    11338.962     1000 
 1312000   0.47125641   -2.4045039   0.70617773   -1.6983261   0.13303015     11283.41     1000 
 1314000   0.47258796   -2.4396513   0.70817306   -1.7314783   0.12392526    11537.739     1000 
 1316000   0.45616745   -2.4242316   0.68356692   -1.7406647   0.13175696    11375.849     1000 
 1318000   0.48357403   -2.4220316   0.72463568    -1.697396   0.13155754    11408.837     1000 
 1320000   0.48180819   -2.4546457   0.72198957   -1.7326562   0.13717448    11320.914     1000 
 1322000   0.50376149   -2.4010712   0.75488659   -1.6461846   0.14004799    11372.794     1000 
 1324000   0.51480012   -2.3854267   0.77142798   -1.6139988   0.13980379    11308.538     1000 
 1326000   0.47219245   -2.4328517   0.70758039   -1.7252713    0.1307093    11462.904     1000 
 1328000   0.48107705   -2.4275053   0.72089395   -1.7066114   0.12219083    11433.027     1000 
 1330000   0.46617297   -2.4502749    0.6985602   -1.7517147   0.13067774    11415.576     1000 
 1332000   0.48595188   -2.4077334   0.72819889   -1.6795346   0.13606701    11267.344     1000 
 1334000   0.49132637   -2.4654133   0.73625256   -1.7291607   0.12560777     11410.58     1000 
 1336000   0.49539264   -2.4092418   0.74234587   -1.6668959   0.12443512    11415.302     1000 
 1338000   0.48668597    -2.424305   0.72929892   -1.6950061   0.12866903    11309.171     1000 
 1340000   0.48052836   -2.4143373   0.72007175   -1.6942655   0.12470591    11377.271     1000 
 1342000   0.46896626   -2.4287318   0.70274595   -1.7259859   0.12890381    11458.069     1000 
 1344000   0.49180359   -2.4676888   0.73696767   -1.7307211   0.13473123    11444.734     1000 
 1346000   0.48183224   -2.4461033   0.72202561   -1.7240777    0.1302806     11475.05     1000 
 1348000   0.48491138    -2.437963    0.7266397   -1.7113233   0.11912317    11580.774     1000 
 1350000   0.47140401   -2.4243476   0.70639891   -1.7179487   0.12478173    11490.877     1000 
 1352000   0.47349446   -2.3921122   0.70953144   -1.6825807   0.13890155    11259.199     1000 
 1354000   0.46893551   -2.4553121   0.70269986   -1.7526123   0.13675329    11421.709     1000 
 1356000    0.4783139   -2.4410553   0.71675337   -1.7243019   0.13939987    11311.118     1000 
 1358000   0.48941241   -2.4437115    0.7333845    -1.710327    0.1403117    11312.183     1000 
 1360000   0.47845785   -2.4259265   0.71696909   -1.7089574   0.15295585     11287.17     1000 
 1362000    0.4728645   -2.4254741   0.70858746   -1.7168866   0.13994516    11249.604     1000 
 1364000   0.47418156   -2.4171184   0.71056106   -1.7065574   0.12866593    11390.244     1000 
 1366000   0.48028904   -2.4098185   0.71971312   -1.6901054   0.13244992    11328.737     1000 
 1368000   0.47340903   -2.4133684   0.70940343    -1.703965    0.1445171     11166.52     1000 
 1370000   0.49518127   -2.4333317   0.74202913   -1.6913025   0.13555084    11408.256     1000 
 1372000   0.49659304   -2.4189281   0.74414467   -1.6747834   0.14174931    11243.685     1000 
 1374000   0.48064353   -2.4178163   0.72024432   -1.6975719   0.13385339    11266.361     1000 
 1376000    0.4828854   -2.4369832   0.72360378   -1.7133794   0.13513436    11383.233     1000 
 1378000   0.49648049   -2.4239072   0.74397601   -1.6799311   0.12300499    11449.116     1000 
 1380000    0.4640624   -2.4545449    0.6953975   -1.7591474   0.10530125    11562.992     1000 
 1382000   0.48147073   -2.4000454   0.72148389   -1.6785615   0.13959396    11245.631     1000 
 1384000   0.47817331   -2.4246872    0.7165427   -1.7081445   0.12727098    11322.998     1000 
 1386000   0.47586873   -2.4021628   0.71308929   -1.6890735   0.12278983    11448.889     1000 
 1388000   0.49206775   -2.4140038   0.73736352   -1.6766403   0.12179274    11473.647     1000 
 1390000   0.47831116   -2.4642411   0.71674927   -1.7474918   0.12588737    11358.351     1000 
 1392000   0.47128115   -2.4634701   0.70621481   -1.7572552   0.12574368     11467.34     1000 
 1394000   0.48260202   -2.4548826   0.72317912   -1.7317035   0.12989751     11474.44     1000 
 1396000   0.47039655   -2.4196018   0.70488923   -1.7147125   0.13651184    11460.752     1000 
 1398000   0.48103904   -2.4461751     0.720837   -1.7253381   0.13116533    11391.599     1000 
 1400000   0.47408609    -2.347995     0.710418    -1.637577   0.13584658    11244.341     1000 
 1402000   0.49374096   -2.4020207   0.73987083   -1.6621498   0.13144572    11272.777     1000 
 1404000   0.47730671   -2.4394555   0.71524411   -1.7242113   0.13483679     11316.53     1000 
 1406000   0.49645189   -2.4050272   0.74393316    -1.661094   0.13459206    11343.424     1000 
 1408000   0.48628361   -2.4273319   0.72869599   -1.6986359   0.13009711    11519.429     1000 
 1410000   0.47274274   -2.3866823   0.70840499   -1.6782773   0.12974474    11363.953     1000 
 1412000   0.46678936   -2.4033692   0.69948385   -1.7038854   0.12594644    11419.464     1000 
 1414000   0.48246398   -2.4698678   0.72297228   -1.7468956    0.1399167    11297.683     1000 
 1416000   0.49060472   -2.3770922   0.73517117   -1.6419211   0.11988774    11422.327     1000 
 1418000   0.50107001   -2.4699478   0.75085341   -1.7190944   0.12862397    11422.088     1000 
 1420000   0.46655886   -2.3917034   0.69913846    -1.692565   0.12939557    11427.844     1000 
 1422000   0.47159845   -2.4164663   0.70669028    -1.709776   0.13381322     11323.12     1000 
 1424000   0.49444044   -2.4011616     0.740919   -1.6602426   0.12735378     11386.86     1000 
 1426000   0.49018381   -2.4337616   0.73454043   -1.6992212   0.11985716    11458.904     1000 
 1428000   0.48030289   -2.4340626   0.71973389   -1.7143287   0.11942432    11346.608     1000 
 1430000   0.47294302   -2.3876874   0.70870512   -1.6789823   0.13583679    11243.682     1000 
 1432000   0.46900419   -2.4479355   0.70280278   -1.7451327   0.12367175     11424.57     1000 
 1434000   0.48841235   -2.4409897   0.73188591   -1.7091038   0.12472887    11492.329     1000 
 1436000   0.51003216   -2.4244459   0.76428319   -1.6601627   0.14046287    11286.079     1000 
 1438000   0.49388542   -2.4281531    0.7400873   -1.6880658   0.12650761    11401.102     1000 
 1440000   0.48938473   -2.3844278   0.73334301   -1.6510848   0.14326682    11301.452     1000 
 1442000   0.50260344   -2.4496153   0.75315126   -1.6964641   0.13506095    11380.913     1000 
 1444000   0.47337276   -2.4010451   0.70934908    -1.691696   0.12642898     11401.71     1000 
 1446000   0.45444794   -2.4044126   0.68099024   -1.7234224   0.12525261    11428.421     1000 
 1448000   0.46769873   -2.4308501   0.70084654   -1.7300035   0.13060664    11323.578     1000 
 1450000   0.48446319   -2.4389099    0.7259681   -1.7129419   0.12269783    11390.038     1000 
 1452000   0.49534277   -2.4142745   0.74227113   -1.6720034   0.13895727    11306.807     1000 
 1454000   0.47470152   -2.4678658   0.71134023   -1.7565256   0.13698714    11374.946     1000 
 1456000    0.4885585   -2.4310932   0.73210491   -1.6989882   0.11854402    11456.136     1000 
 1458000   0.46692699   -2.4054298    0.6996901   -1.7057397   0.13102403    11311.748     1000 
 1460000   0.47119548   -2.4403731   0.70608643   -1.7342866   0.13159965    11501.242     1000 
 1462000   0.48594126   -2.4728452   0.72818297   -1.7446622   0.12783153    11346.054     1000 
 1464000   0.48162319   -2.4157537   0.72171235   -1.6940414   0.12622662    11496.282     1000 
 1466000   0.49003219   -2.4540436   0.73431324   -1.7197303   0.13000516    11387.176     1000 
 1468000   0.48451132   -2.4217901   0.72604022   -1.6957498    0.1381854    11427.844     1000 
 1470000   0.49056672   -2.4525145   0.73511423   -1.7174003   0.12397872    11504.798     1000 
 1472000   0.49917609   -2.4198098   0.74801537   -1.6717945   0.14371627    11391.145     1000 
 1474000   0.47504018   -2.3642314   0.71184771   -1.6523837    0.1269147    11328.869     1000 
 1476000   0.46378989   -2.4546725   0.69498914   -1.7596833   0.12194603    11357.176     1000 
 1478000   0.49912736   -2.4104551   0.74794235   -1.6625128   0.12727263    11502.537     1000 
 1480000   0.49232375    -2.437855   0.73774714   -1.7001079   0.12627683    11513.178     1000 
 1482000   0.48723683   -2.4339572    0.7301244   -1.7038328   0.12899738    11413.124     1000 
 1484000   0.49462027    -2.420426   0.74118848   -1.6792375   0.13734814    11406.849     1000 
 1486000   0.46307733   -2.4531197   0.69392138   -1.7591984    0.1312645    11469.668     1000 
 1488000   0.45930702   -2.4126504   0.68827157   -1.7243788   0.12271415    11493.452     1000 
 1490000   0.49187405   -2.3682824   0.73707326   -1.6312091    0.1213265    11353.159     1000 
 1492000   0.50220119   -2.4373564   0.75254848   -1.6848079   0.12161653      11527.4     1000 
 1494000   0.47240515   -2.4413716   0.70789912   -1.7334725   0.11347532    11509.532     1000 
 1496000   0.47436774   -2.4111114   0.71084006   -1.7002714   0.12275445    11354.636     1000 
 1498000   0.46717202   -2.4912872   0.70005727     -1.79123   0.11710392    11565.355     1000 
 1500000   0.48387857    -2.445773   0.72509203   -1.7206809   0.12759276    11462.012     1000 
 1502000   0.46509568   -2.4419028   0.69694588    -1.744957   0.12808328    11406.904     1000 
 1504000   0.46322905   -2.4714617   0.69414873   -1.7773129   0.11703462    11585.498     1000 
 1506000    0.4751242   -2.4252116   0.71197362    -1.713238   0.13122756    11384.945     1000 
 1508000   0.46674942   -2.4012668   0.69942401   -1.7018428   0.12159978    11336.322     1000 
 1510000   0.47026756   -2.4218894   0.70469593   -1.7171935   0.12132636    11363.148     1000 
 1512000   0.46882967   -2.3896288   0.70254126   -1.6870876   0.13358395     11365.53     1000 
 1514000   0.48041653   -2.4348223   0.71990417   -1.7149181   0.12699649    11428.273     1000 
 1516000   0.47327594   -2.4567218     0.709204   -1.7475178   0.14170972    11467.323     1000 
 1518000   0.47503469   -2.4719795   0.71183949     -1.76014   0.12062713    11514.526     1000 
 1520000   0.47327422   -2.4359738   0.70920142   -1.7267723   0.13296241    11386.845     1000 
 1522000   0.46229015    -2.445706   0.69274178   -1.7529642   0.10978186    11645.285     1000 
 1524000   0.48656445   -2.4474553   0.72911684   -1.7183384   0.13869241    11338.163     1000 
 1526000   0.47615011   -2.4471656   0.71351094   -1.7336547   0.13584857    11500.808     1000 
 1528000   0.47374984   -2.4481872   0.70991413   -1.7382731   0.13130773    11403.878     1000 
 1530000   0.49232988   -2.3971237   0.73775633   -1.6593674   0.13670164    11326.063     1000 
 1532000   0.48507185   -2.4437774   0.72688016   -1.7168973   0.12929075     11502.02     1000 
 1534000   0.48333273   -2.4746786    0.7242741   -1.7504045   0.12179422    11565.405     1000 
 1536000   0.46838475   -2.3577856   0.70187455    -1.655911   0.13559933    11303.306     1000 
 1538000   0.48411062   -2.4584511   0.72543976   -1.7330114   0.12197706      11519.9     1000 
 1540000    0.4873609   -2.4641982    0.7303103   -1.7338879   0.13362565    11550.705     1000 
 1542000   0.47833222   -2.4472167   0.71678083   -1.7304359   0.13656295    11156.251     1000 
 1544000    0.4851729   -2.4754452   0.72703159   -1.7484136    0.1413754    11334.617     1000 
 1546000   0.49731949   -2.4766876   0.74523326   -1.7314543   0.13560963    11389.456     1000 
 1548000   0.46649781   -2.4530202   0.69904697   -1.7539733   0.12570951    11453.805     1000 
 1550000   0.47880272   -2.4979788   0.71748588   -1.7804929   0.12766472    11410.498     1000 
 1552000   0.47884632   -2.4586992   0.71755121    -1.741148    0.1373659    11334.332     1000 
 1554000   0.46318847   -2.4916165   0.69408793   -1.7975285   0.12530835    11540.807     1000 
 1556000   0.49212224    -2.437506   0.73744517   -1.7000608    0.1305345    11463.046     1000 
 1558000   0.46260235   -2.4390251   0.69320962   -1.7458155   0.13414826    11232.823     1000 
 1560000   0.47099366   -2.4190474     0.705784   -1.7132634   0.11940569    11437.458     1000 
 1562000    0.4708873   -2.4416698   0.70562462   -1.7360451   0.12741248    11477.343     1000 
 1564000   0.49022002   -2.4116977   0.73459469    -1.677103   0.13567471    11379.012     1000 
 1566000   0.48838956   -2.4272076   0.73185175   -1.6953558   0.13599006    11387.669     1000 
 1568000   0.46519186    -2.377242      0.69709    -1.680152   0.12105923    11364.477     1000 
 1570000   0.47975835   -2.4293853   0.71891789   -1.7104674   0.13037456     11286.64     1000 
 1572000   0.47396275    -2.439882   0.71023318   -1.7296488    0.1361907    11286.933     1000 
 1574000   0.47787006   -2.4200662   0.71608828   -1.7039779   0.12290592    11310.998     1000 
 1576000   0.48580173   -2.4579867    0.7279739   -1.7300128   0.12334518     11315.56     1000 
 1578000   0.46387046   -2.4270636   0.69510989   -1.7319537   0.11568905    11572.974     1000 
 1580000   0.47539073   -2.4677001   0.71237301    -1.755327   0.12737469    11465.927     1000 
 1582000    0.4899265   -2.4360735   0.73415487   -1.7019186   0.12779772    11586.279     1000 
 1584000   0.47162572   -2.4431714   0.70673114   -1.7364403    0.1270531    11423.826     1000 
 1586000    0.4822256   -2.4063497   0.72261506   -1.6837346   0.13868112    11245.354     1000 
 1588000    0.4779796   -2.4477692   0.71625242   -1.7315168   0.11984947    11524.206     1000 
[...]
 2614000    0.4785622   -2.4422629   0.71712546   -1.7251374   0.13107338    11416.858     1000 
 2616000   0.49449166   -2.4230043   0.74099575   -1.6820085   0.14318236    11292.315     1000 
 2618000   0.50117212   -2.3660236   0.75100642   -1.6150171   0.12658653    11359.065     1000 
 2620000   0.47915198   -2.4062373   0.71800924   -1.6882281   0.12223611    11481.316     1000 
 2622000   0.47993221   -2.4066471   0.71917842   -1.6874686   0.12772656    11446.138     1000 
 2624000   0.47351729   -2.4130881   0.70956566   -1.7035225   0.12867595    11354.244     1000 
 2626000   0.46361694   -2.4351543   0.69472998   -1.7404243   0.12199262    11430.884     1000 
 2628000    0.4834369   -2.4332197    0.7244302   -1.7087895   0.12528968    11434.923     1000 
 2630000   0.46834176   -2.4405904   0.70181013   -1.7387803   0.14247924    11388.602     1000 
 2632000   0.46509653   -2.4286185   0.69694715   -1.7316713   0.13711417    11264.597     1000 
 2634000   0.49054249   -2.4398684   0.73507793   -1.7047905   0.13212021    11393.591     1000 
 2636000   0.44821918   -2.4266047   0.67165644   -1.7549482   0.14077375    11238.639     1000 
 2638000   0.48351309   -2.4066598   0.72454437   -1.6821155   0.13443872    11429.735     1000 
 2640000   0.47684961   -2.4241799   0.71455914   -1.7096208   0.12294264    11243.539     1000 
 2642000   0.49339628   -2.4730067   0.73935432   -1.7336524   0.12454303    11512.013     1000 
 2644000   0.49825373   -2.4167407   0.74663322   -1.6701074   0.13301295     11450.17     1000 
 2646000   0.49115305   -2.4177031   0.73599285   -1.6817103   0.12826991    11330.358     1000 
 2648000   0.48028699   -2.4442607   0.71971005   -1.7245506   0.13058142    11355.994     1000 
 2650000   0.46193163   -2.4582776   0.69220455    -1.766073   0.13381227     11398.21     1000 
 2652000   0.49291594   -2.4189962   0.73863454   -1.6803617   0.13429844    11347.377     1000 
 2654000   0.46470927   -2.4202908   0.69636685   -1.7239239   0.13083808    11425.754     1000 
 2656000   0.47720926   -2.4339237   0.71509807   -1.7188256    0.1191596    11444.056     1000 
 2658000   0.47901089   -2.4028052   0.71779782   -1.6850074   0.13499227    11306.039     1000 
 2660000   0.47820496   -2.4171208   0.71659013   -1.7005307   0.15323861    11216.726     1000 
 2662000   0.47827668   -2.4656171    0.7166976   -1.7489195   0.12043163    11502.393     1000 
 2664000   0.46768836   -2.4110388   0.70083101   -1.7102078   0.14181742    11301.399     1000 
 2666000   0.47014121   -2.4406876   0.70450661    -1.736181   0.13332287    11468.862     1000 
 2668000   0.47976125   -2.4098407   0.71892223   -1.6909185   0.11674025    11407.086     1000 
 2670000   0.46588405   -2.3832593   0.69812725   -1.6851321   0.12200112    11571.537     1000 
 2672000   0.46994147   -2.4196986   0.70420729   -1.7154913   0.12668822    11435.709     1000 
 2674000   0.49169685   -2.4633501   0.73680773   -1.7265423   0.12935392    11520.641     1000 
 2676000   0.49723195   -2.3763228   0.74510207   -1.6312207    0.1398638     11305.24     1000 
 2678000   0.47226574   -2.4090604   0.70769021   -1.7013702   0.13962659    11289.936     1000 
 2680000   0.47515639    -2.453521   0.71202185   -1.7414992   0.10570762    11492.491     1000 
 2682000   0.47768566   -2.4401717   0.71581195   -1.7243598   0.12346526    11339.529     1000 
 2684000   0.48632572     -2.44918   0.72875909    -1.720421   0.13615249    11329.975     1000 
 2686000   0.46282913   -2.4344536   0.69354945   -1.7409041   0.11256927     11501.96     1000 
 2688000   0.47777194   -2.4458322   0.71594126   -1.7298909   0.11998165    11406.481     1000 
 2690000   0.48618282   -2.3862153   0.72854495   -1.6576703   0.13698517    11271.297     1000 
 2692000    0.4686745   -2.4181953   0.70230874   -1.7158866   0.13048718    11415.618     1000 
 2694000   0.47587534   -2.4081835    0.7130992   -1.6950843   0.13851577    11318.812     1000 
 2696000   0.48169904   -2.4232211   0.72182601   -1.7013951   0.13835893    11364.749     1000 
 2698000   0.47275642   -2.4543095    0.7084255    -1.745884   0.13509743    11494.553     1000 
 2700000    0.4677304   -2.4372605   0.70089401   -1.7363665   0.12292915    11610.001     1000 
 2702000   0.48216199    -2.457855   0.72251975   -1.7353352     0.116847    11589.754     1000 
 2704000   0.46641951    -2.422068   0.69892963   -1.7231384   0.13377844    11326.286     1000 
 2706000   0.49388203   -2.4062743   0.74008223    -1.666192   0.12145166    11456.703     1000 
 2708000   0.48613745   -2.4133386   0.72847697   -1.6848616   0.12790703     11369.99     1000 
 2710000   0.48880449   -2.4343022   0.73247352   -1.7018286   0.12626817    11521.184     1000 
 2712000   0.48652984   -2.4153694   0.72906496   -1.6863044   0.13359194    11287.318     1000 
 2714000   0.47981587    -2.402859   0.71900408   -1.6838549   0.14428116    11366.968     1000 
 2716000   0.48114611   -2.4033024   0.72099744    -1.682305   0.12917256    11406.923     1000 
 2718000   0.47192036   -2.4779146   0.70717266   -1.7707419   0.14201465    11266.452     1000 
 2720000   0.46686568   -2.4498574   0.69959822   -1.7502592   0.14154069    11326.574     1000 
 2722000    0.4675314   -2.4155899   0.70059581   -1.7149941    0.1232411    11339.459     1000 
 2724000   0.47683324    -2.460697   0.71453462   -1.7461624   0.13352085    11370.617     1000 
 2726000   0.49875832   -2.4069796   0.74738934   -1.6595902   0.13209385    11438.928     1000 
 2728000   0.48462369   -2.4358591   0.72620859   -1.7096505   0.11973608    11536.164     1000 
 2730000   0.45535439   -2.4064505   0.68234855   -1.7241019   0.12293052    11312.906     1000 
 2732000   0.47260994   -2.4334703   0.70820599   -1.7252643   0.12498274    11407.093     1000 
 2734000   0.48880962   -2.4177923   0.73248121   -1.6853111   0.13236275    11429.013     1000 
 2736000   0.47158832   -2.4494495    0.7066751   -1.7427744   0.12486239    11510.451     1000 
 2738000   0.46312951   -2.4288724   0.69399957   -1.7348728   0.12032697    11351.246     1000 
 2740000   0.49839603   -2.4455312   0.74684645   -1.6986848   0.12544343    11509.394     1000 
 2742000   0.47641923   -2.4149874   0.71391422   -1.7010732   0.12299787    11349.514     1000 
 2744000    0.4928917   -2.3960879    0.7385982   -1.6574897   0.14938723    11321.523     1000 
 2746000   0.48326645   -2.3950891   0.72417477   -1.6709143   0.12112669    11409.847     1000 
 2748000   0.47475156   -2.4455759   0.71141521   -1.7341607    0.1439362    11323.364     1000 
 2750000   0.47453496   -2.4254563   0.71109064   -1.7143657   0.12518006    11488.273     1000 
 2752000   0.47579579   -2.4286761      0.71298   -1.7156961   0.12377589    11455.273     1000 
 2754000    0.4854284   -2.3829141   0.72741446   -1.6554996    0.1379575    11393.174     1000 
 2756000   0.48236625   -2.4158785   0.72282582   -1.6930527   0.12911658    11353.232     1000 
 2758000   0.45380567   -2.3845691    0.6800278   -1.7045413   0.13606838    11289.448     1000 
 2760000   0.48083147   -2.4128022   0.72052596   -1.6922762   0.12669652    11375.779     1000 
 2762000   0.47615662   -2.4393265    0.7135207   -1.7258058   0.12633907    11445.396     1000 
 2764000   0.45918803    -2.417956   0.68809327   -1.7298627   0.13277748     11367.72     1000 
 2766000   0.48075474    -2.404687   0.72041098    -1.684276   0.12931154    11327.324     1000 
 2768000   0.48155746   -2.4870232   0.72161386   -1.7654093   0.13564743    11457.529     1000 
 2770000   0.49384786   -2.3724942   0.74003101   -1.6324632   0.12566002    11357.198     1000 
 2772000   0.46153474   -2.4558601   0.69160981   -1.7642502   0.12919849    11352.432     1000 
 2774000   0.49373212   -2.4205061   0.73985758   -1.6806485   0.14476921    11245.577     1000 
 2776000   0.49491687   -2.4018719   0.74163293   -1.6602389   0.13118033    11283.513     1000 
 2778000   0.46298314   -2.4250125   0.69378024   -1.7312322   0.12536056    11454.166     1000 
 2780000   0.49457416   -2.4114059   0.74111937   -1.6702865   0.12950804     11415.01     1000 
 2782000   0.49017611   -2.4630175   0.73452889   -1.7284886   0.12751852    11463.231     1000 
 2784000   0.46990228   -2.4593639   0.70414857   -1.7552153   0.12913734    11456.299     1000 
 2786000   0.47195516   -2.3837057    0.7072248   -1.6764809   0.13146758    11242.289     1000 
 2788000    0.4855018   -2.3906362   0.72752445   -1.6631117   0.13790407     11189.67     1000 
 2790000    0.4819298   -2.3938945    0.7221718   -1.6717227   0.13968572    11272.853     1000 
 2792000   0.47063208   -2.4303113   0.70524217   -1.7250691    0.1282579    11582.009     1000 
 2794000   0.47257073   -2.3706077   0.70814724   -1.6624605   0.13586764    11265.818     1000 
 2796000   0.48793938   -2.4165688   0.73117716   -1.6853916   0.14252034    11352.197     1000 
 2798000   0.48062929   -2.4520056   0.72022299   -1.7317826   0.12506261    11500.795     1000 
 2800000   0.48764362   -2.4053259   0.73073396    -1.674592    0.1326984    11288.188     1000 
 2802000   0.48845291   -2.4268222   0.73194668   -1.6948755   0.14462724    11357.287     1000 
 2804000    0.4877867   -2.4250696   0.73094837   -1.6941212   0.14388521    11343.395     1000 
 2806000   0.46764566   -2.4467508   0.70076702   -1.7459838   0.14798001     11358.47     1000 
 2808000     0.484285   -2.4423703   0.72570107   -1.7166692    0.1185278    11625.847     1000 
 2810000    0.4918326   -2.3958173   0.73701115   -1.6588062   0.14547941    11284.869     1000 
 2812000   0.49288168   -2.4399409   0.73858319   -1.7013577    0.1291187    11359.463     1000 
 2814000   0.48497302     -2.44594   0.72673207    -1.719208   0.14413781    11398.076     1000 
 2816000   0.49064286   -2.4526842   0.73522832   -1.7174559    0.1373606    11296.317     1000 
 2818000   0.47722204   -2.4202893   0.71511722   -1.7051721   0.12014649    11478.119     1000 
 2820000   0.47353362   -2.4250143   0.70959013   -1.7154242   0.13277782    11509.138     1000 
 2822000   0.48484821   -2.4221951   0.72654505   -1.6956501   0.11546135    11428.133     1000 
 2824000   0.47541227   -2.4747848   0.71240529   -1.7623796   0.12686816    11374.051     1000 
 2826000   0.46924319   -2.4353621   0.70316092   -1.7322012   0.13661403    11405.492     1000 
 2828000   0.48775231   -2.4292963   0.73089684   -1.6983995   0.13077859    11279.373     1000 
 2830000   0.48440512   -2.3859344   0.72588107   -1.6600533   0.13435345    11361.113     1000 
 2832000   0.46441957   -2.3759802   0.69593273   -1.6800474   0.14964099    11305.093     1000 
 2834000    0.4781351   -2.3925115   0.71648545    -1.676026   0.12871304    11371.467     1000 
 2836000    0.4691678   -2.4222716   0.70304795   -1.7192237   0.13014941    11310.494     1000 
 2838000   0.46153806   -2.4299449   0.69161479   -1.7383302   0.13033476    11281.248     1000 
 2840000   0.48396113   -2.4321181   0.72521576   -1.7069024   0.14719107    11365.568     1000 
 2842000   0.47174245   -2.4565851   0.70690606   -1.7496791   0.13473029    11347.395     1000 
 2844000   0.50867224   -2.4300046   0.76224535   -1.6677593   0.13486267     11473.28     1000 
 2846000    0.4625556   -2.4410892   0.69313956   -1.7479496   0.13669609    11396.023     1000 
 2848000   0.47867545   -2.4165256   0.71729516   -1.6992304   0.12185631    11385.004     1000 
 2850000   0.48338818   -2.4862685   0.72435719   -1.7619113   0.13448462    11429.127     1000 
 2852000    0.4867284   -2.3904973   0.72936251   -1.6611348   0.13221431    11288.223     1000 
 2854000   0.46746668   -2.4471186   0.70049883   -1.7466197    0.1172677    11590.829     1000 
 2856000   0.46209977   -2.4663183    0.6924565   -1.7738618   0.12539966    11422.973     1000 
 2858000   0.46645637   -2.4591896   0.69898487   -1.7602047   0.11918266    11580.501     1000 
 2860000      0.47571   -2.4353928   0.71285143   -1.7225414   0.11519976    11465.931     1000 
 2862000   0.48128285   -2.4204292   0.72120235   -1.6992269   0.12156888    11573.666     1000 
 2864000   0.46938742   -2.4171538   0.70337705   -1.7137767   0.13548883    11238.835     1000 
 2866000   0.48469091   -2.3752005   0.72630933   -1.6488912    0.1327444    11296.632     1000 
 2868000   0.48025662   -2.4307956   0.71966454    -1.711131   0.13208224    11371.228     1000 
 2870000   0.47438881   -2.4432368   0.71087163   -1.7323652   0.12897802    11317.418     1000 
 2872000   0.49669122   -2.4490593   0.74429179   -1.7047675    0.1365716    11290.997     1000 
 2874000   0.45751713   -2.4250529   0.68558943   -1.7394635   0.13933461    11249.601     1000 
 2876000    0.4677468   -2.4012938   0.70091859   -1.7003752   0.12447955     11288.99     1000 
 2878000   0.47862185   -2.4068027   0.71721484   -1.6895879   0.13376199    11319.715     1000 
 2880000   0.47045516   -2.4083769   0.70497706   -1.7033999   0.13396194    11328.642     1000 
 2882000   0.49715917   -2.4187144   0.74499302   -1.6737214   0.13367446    11326.968     1000 
 2884000   0.46484721   -2.4226962   0.69657354   -1.7261226   0.13266618    11420.634     1000 
 2886000   0.47484015   -2.4305572   0.71154796   -1.7190092   0.12483247    11413.019     1000 
 2888000   0.48218765   -2.4396148    0.7225582   -1.7170566   0.11639276     11583.89     1000 
 2890000   0.49573166   -2.4196739   0.74285389     -1.67682   0.12959519    11327.936     1000 
 2892000   0.47872166   -2.4517473    0.7173644   -1.7343829   0.11827945     11374.05     1000 
 2894000   0.46992727   -2.4616437   0.70418601   -1.7574577   0.13513909     11403.14     1000 
 2896000   0.47344342   -2.4668646   0.70945497   -1.7574097   0.12548859     11421.58     1000 
 2898000   0.49416486   -2.4556747   0.74050605   -1.7151687   0.12812748    11328.303     1000 
 2900000   0.48553927   -2.4081711   0.72758059   -1.6805905    0.1284977     11281.11     1000 
 2902000   0.48844439   -2.3708312   0.73193393   -1.6388972   0.12696565    11339.427     1000 
 2904000   0.49341125   -2.4296091   0.73937676   -1.6902323   0.13131358    11426.355     1000 
 2906000   0.47251618   -2.3774873    0.7080655   -1.6694218    0.1332427    11384.171     1000 
 2908000   0.49669431   -2.4454893   0.74429643   -1.7011928    0.1351147     11361.07     1000 
 2910000   0.45925648   -2.4260421   0.68819584   -1.7378463   0.12749631    11465.643     1000 
 2912000   0.46786059   -2.4014649    0.7010891   -1.7003758   0.15090647    11291.248     1000 
 2914000   0.48229169    -2.401234   0.72271409   -1.6785199   0.13445732    11376.616     1000 
 2916000   0.48379984   -2.4414229   0.72497406   -1.7164489   0.12014908    11377.135     1000 
 2918000   0.47492974   -2.4289377   0.71168221   -1.7172555   0.13641568    11390.296     1000 
 2920000   0.47592321   -2.4357992   0.71317093   -1.7226283   0.13717398    11229.584     1000 
 2922000   0.48816881   -2.4065925   0.73152096   -1.6750715   0.13085237    11388.605     1000 
 2924000   0.47402395    -2.387463   0.71032489   -1.6771381   0.14654891    11190.925     1000 
 2926000   0.49462677   -2.3954159   0.74119822   -1.6542177   0.12842424    11227.467     1000 
 2928000   0.46811872   -2.4020043    0.7014759   -1.7005284   0.12643731    11412.792     1000 
 2930000   0.47561049   -2.4093219   0.71270231   -1.6966196   0.14287835    11214.888     1000 
 2932000   0.46660098   -2.4170295   0.69920157   -1.7178279   0.12596797    11347.005     1000 
 2934000    0.4602071   -2.4325167   0.68962034   -1.7428963   0.12844333    11427.822     1000 
 2936000   0.45219365   -2.3900549   0.67761218   -1.7124427   0.11972416    11402.525     1000 
 2938000   0.49142832   -2.4680411   0.73640534   -1.7316357   0.12752797    11430.987     1000 
 2940000   0.48571998   -2.4653653   0.72785139   -1.7375139   0.13029385    11378.714     1000 
 2942000    0.4883448   -2.4292164   0.73178469   -1.6974318    0.1269429    11568.365     1000 
 2944000   0.47100348   -2.4102812   0.70579871   -1.7044825   0.13404537     11267.18     1000 
 2946000   0.45822545   -2.4748964   0.68665084   -1.7882455     0.124738    11481.518     1000 
 2948000   0.46378704   -2.4271469   0.69498488    -1.732162   0.12726716     11290.85     1000 
 2950000   0.48174289   -2.4223929   0.72189171   -1.7005012   0.12799397    11405.702     1000 
 2952000   0.47071615   -2.4382687   0.70536816   -1.7329006   0.14399511    11184.571     1000 
 2954000   0.47232397   -2.4147117   0.70777747   -1.7069343   0.13105202     11513.62     1000 
 2956000   0.49399282   -2.4301086   0.74024824   -1.6898604   0.12631204    11397.667     1000 
 2958000   0.47082352   -2.3978906   0.70552905   -1.6923615   0.12846849    11412.345     1000 
 2960000   0.49344638    -2.385272    0.7394294   -1.6458426   0.13237656    11392.369     1000 
 2962000   0.46856924   -2.3858601   0.70215101   -1.6837091   0.13151994    11380.091     1000 
 2964000   0.48856162   -2.4182109   0.73210959   -1.6861013   0.13846175    11181.892     1000 
 2966000   0.46823229   -2.4496214   0.70164609   -1.7479753   0.12289671    11470.963     1000 
 2968000   0.45597172    -2.420595   0.68327363   -1.7373214   0.14981517    11304.148     1000 
 2970000   0.45729348   -2.3898955   0.68525428   -1.7046413    0.1274959    11385.227     1000 
 2972000   0.47123657   -2.3464491   0.70614799   -1.6403011   0.14499939    11331.074     1000 
 2974000   0.44997703   -2.4460781   0.67429058   -1.7717876   0.12116416    11379.575     1000 
 2976000   0.47686068   -2.4542223   0.71457573   -1.7396466   0.12472559    11445.422     1000 
 2978000   0.49069031   -2.4087777   0.73529943   -1.6734782   0.12245712     11403.61     1000 
 2980000    0.4842221   -2.4684037   0.72560681   -1.7427969   0.12660217    11468.248     1000 
 2982000   0.49253205    -2.390047   0.73805927   -1.6519877   0.13576319    11345.149     1000 
 2984000    0.4637995   -2.4386153   0.69500355   -1.7436118    0.1292394    11310.826     1000 
 2986000   0.47836797   -2.4137862    0.7168344   -1.6969518   0.13347087    11485.215     1000 
 2988000   0.48499383   -2.4249738   0.72676326   -1.6982105   0.13322691    11463.361     1000 
 2990000   0.47578779   -2.4059621   0.71296801   -1.6929941   0.12889547    11318.584     1000 
 2992000   0.47812279   -2.4571933   0.71646701   -1.7407263    0.1484653    11238.353     1000 
 2994000   0.49167066   -2.4259636   0.73676848   -1.6891951   0.12363376    11464.585     1000 
 2996000   0.48709479   -2.4382096   0.72991154    -1.708298   0.12730193     11368.68     1000 
 2998000   0.48266435   -2.3900156   0.72327253   -1.6667431   0.12864206    11336.589     1000 
 3000000   0.44970248   -2.4080637   0.67387917   -1.7341845    0.1271542    11366.086     1000 
Loop time of 1189.25 on 1 procs for 3000000 steps with 1000 atoms

Performance: 1089760.356 tau/day, 2522.593 timesteps/s
100.0% CPU use with 1 MPI tasks x 1 OpenMP threads

MPI task timing breakdown:
Section |  min time  |  avg time  |  max time  |%varavg| %total
---------------------------------------------------------------
Pair    | 941.84     | 941.84     | 941.84     |   0.0 | 79.20
Neigh   | 144.32     | 144.32     | 144.32     |   0.0 | 12.14
Comm    | 24.803     | 24.803     | 24.803     |   0.0 |  2.09
Output  | 0.019042   | 0.019042   | 0.019042   |   0.0 |  0.00
Modify  | 72.948     | 72.948     | 72.948     |   0.0 |  6.13
Other   |            | 5.324      |            |       |  0.45

Nlocal:        1000.00 ave        1000 max        1000 min
Histogram: 1 0 0 0 0 0 0 0 0 0
Nghost:        2168.00 ave        2168 max        2168 min
Histogram: 1 0 0 0 0 0 0 0 0 0
Neighs:        27498.0 ave       27498 max       27498 min
Histogram: 1 0 0 0 0 0 0 0 0 0

Total # of neighbors = 27498
Ave neighs/atom = 27.498000
Neighbor list builds = 150000
Dangerous builds not checked

Total wall time: 0:19:49
