LAMMPS (29 Sep 2021 - Update 2)
OMP_NUM_THREADS environment is not set. Defaulting to 1 thread. (src/comm.cpp:98)
  using 1 OpenMP thread(s) per MPI task
# ----------------------- Inicialização -----------------------

units			lj
atom_style 		atomic
dimension 		3
boundary 		p p p

# -------------------- Criação dos Átomos ---------------------

read_data 		topologia.txt
Reading data file ...
  orthogonal box = (0.0000000 0.0000000 0.0000000) to (21.540000 21.540000 21.540000)
  1 by 1 by 1 MPI processor grid
  reading atoms ...
  1000 atoms
  read_data CPU = 0.005 seconds

velocity 		all create ${temp} 87287 rot yes dist gaussian
velocity 		all create 0.36 87287 rot yes dist gaussian

# ------------------ Interação Interatômica -------------------

pair_style		table linear 1000
pair_coeff		1 1 force.table AA 5.0
WARNING: 2 of 1000 force values in table AA are inconsistent with -dE/dr.
WARNING:  Should only be flagged at inflection points (src/pair_table.cpp:465)
pair_coeff		1 2 force.table AB 5.0
WARNING: 1 of 1000 force values in table AB are inconsistent with -dE/dr.
WARNING:  Should only be flagged at inflection points (src/pair_table.cpp:465)
pair_coeff		2 2 force.table BB 5.0
pair_write		1 1 1000 r 0.008 5.0 table.check AA
Appending to table file table.check with DATE: 2023-07-05
Neighbor list info ...
  update every 1 steps, delay 10 steps, check yes
  max neighbors/atom: 2000, page size: 100000
  master list distance cutoff = 5.3
  ghost atom cutoff = 5.3
  binsize = 2.65, bins = 9 9 9
  1 neighbor lists, perpetual/occasional/extra = 1 0 0
  (1) pair table, perpetual
      attributes: half, newton on
      pair build: half/bin/atomonly/newton
      stencil: half/bin/3d
      bin: standard
pair_write		1 2 1000 r 0.008 5.0 table.check AB
Appending to table file table.check with DATE: 2023-07-05
pair_write		2 2 1000 r 0.008 5.0 table.check BB
Appending to table file table.check with DATE: 2023-07-05

neighbor 		0.3 bin
neigh_modify		every 20 delay 0 check no

# ------------------------- Ensemble --------------------------------------

fix 1			all npt temp ${temp} ${temp} 0.5 iso ${press} ${press} 5
fix 1			all npt temp 0.36 ${temp} 0.5 iso ${press} ${press} 5
fix 1			all npt temp 0.36 0.36 0.5 iso ${press} ${press} 5
fix 1			all npt temp 0.36 0.36 0.5 iso 0.13 ${press} 5
fix 1			all npt temp 0.36 0.36 0.5 iso 0.13 0.13 5

# ---------------------- Função de Distribuição Radial -----------------------

#compute RDF 		all rdf 2000 1 1 1 2 2 2
#fix 2 			all ave/time 1 2000 2000 c_RDF[*] file rdf.data mode vector

# ------------------------- Execução ---------------------------

timestep 		0.005
thermo_style		custom step temp pe ke etotal press vol atoms
thermo			2000
run			3000000
Per MPI rank memory allocation (min/avg/max) = 2.670 | 2.670 | 2.670 Mbytes
Step Temp PotEng KinEng TotEng Press Volume Atoms 
       0         0.36  -0.24262322      0.53946   0.29683678   0.57013882    9993.9483     1000 
    2000   0.36075333   -2.4914108   0.54058887   -1.9508219   0.12760067    11384.294     1000 
    4000   0.36442573   -2.5179438   0.54609196   -1.9718518   0.13844796    11374.452     1000 
    6000   0.37999898   -2.5372964   0.56942848   -1.9678679   0.12435711    11482.009     1000 
    8000   0.38524889   -2.5457084   0.57729546   -1.9684129   0.12759267    11479.026     1000 
   10000   0.35070629   -2.5584216   0.52553338   -2.0328883    0.1381315    11413.323     1000 
   12000   0.35797742   -2.5353592   0.53642916     -1.99893   0.12256528    11377.062     1000 
   14000   0.35985117   -2.5634633   0.53923697   -2.0242263   0.13224178    11494.145     1000 
   16000    0.3720274   -2.5042653   0.55748306   -1.9467822   0.13106063    11333.233     1000 
   18000   0.36806854   -2.5042453   0.55155071   -1.9526946   0.13542799    11359.705     1000 
   20000   0.36627915   -2.5162479    0.5488693   -1.9673786   0.12189025    11484.751     1000 
   22000   0.35820198   -2.5018978   0.53676567   -1.9651321    0.1225153    11409.783     1000 
   24000   0.36208831   -2.4878317   0.54258934   -1.9452424   0.13556924    11355.937     1000 
   26000   0.35346257   -2.4862049   0.52966366   -1.9565412   0.14011607    11359.015     1000 
   28000   0.35220256   -2.5618892   0.52777554   -2.0341136   0.12303167    11463.547     1000 
   30000   0.37124546   -2.5140956   0.55631132   -1.9577843   0.13108389    11415.686     1000 
   32000   0.38461329   -2.5518977   0.57634301   -1.9755547   0.13360842     11377.21     1000 
   34000   0.37643081   -2.5407498   0.56408157   -1.9766683   0.13773003    11305.139     1000 
   36000   0.34792975   -2.5204756   0.52137273   -1.9991028   0.12522033    11377.625     1000 
   38000   0.35553182    -2.510726   0.53276444   -1.9779615   0.13543663     11348.89     1000 
   40000   0.34700115    -2.541184   0.51998122   -2.0212028   0.12271894    11417.767     1000 
   42000    0.3700874    -2.533921   0.55457597   -1.9793451   0.12858881    11368.845     1000 
   44000   0.36232604   -2.5378262   0.54294557   -1.9948807   0.11756174    11454.144     1000 
   46000   0.36489974   -2.4862328   0.54680227   -1.9394305   0.14279568    11328.274     1000 
   48000    0.3577252   -2.5209575   0.53605122   -1.9849063   0.13658313    11372.647     1000 
   50000   0.36146926      -2.5277   0.54166168   -1.9860383   0.12616259    11407.208     1000 
   52000    0.3695354   -2.5434171    0.5537488   -1.9896683   0.13365085    11392.449     1000 
   54000   0.34539536    -2.506723   0.51757495    -1.989148   0.12946258    11166.462     1000 
   56000   0.35841292   -2.5117424   0.53708176   -1.9746607   0.13300203    11469.332     1000 
   58000   0.35226063   -2.5176429   0.52786256   -1.9897804   0.13358036    11365.035     1000 
   60000   0.36567471   -2.5312135   0.54796356     -1.98325   0.13388103    11324.546     1000 
   62000   0.36255207   -2.5436339   0.54328427   -2.0003497   0.12766385    11419.428     1000 
   64000    0.3609703   -2.5087457   0.54091399   -1.9678317   0.14559219    11363.131     1000 
   66000   0.35551925   -2.5294982    0.5327456   -1.9967526   0.12387446    11464.992     1000 
   68000   0.36307656   -2.5384572   0.54407022   -1.9943869   0.13565567    11285.725     1000 
   70000   0.36268083   -2.5331326   0.54347722   -1.9896554   0.11957523    11450.226     1000 
   72000   0.37077758   -2.5421733   0.55561021   -1.9865631   0.12609086     11409.37     1000 
   74000   0.36832152   -2.5240367   0.55192979   -1.9721069   0.12878332    11357.417     1000 
   76000   0.36387509   -2.5212376   0.54526683   -1.9759708   0.12961018     11450.03     1000 
   78000   0.35858643   -2.4954773   0.53734177   -1.9581355   0.12545413    11436.581     1000 
   80000   0.35829758   -2.5075526   0.53690893   -1.9706437   0.12425259    11418.078     1000 
   82000     0.361525   -2.5194685   0.54174521   -1.9777233   0.12579729    11422.552     1000 
   84000   0.35414536   -2.5209866   0.53068683   -1.9902998    0.1272861    11397.998     1000 
   86000   0.35947007   -2.4850265    0.5386659   -1.9463606   0.12990565    11388.196     1000 
   88000   0.36312212   -2.5434501   0.54413849   -1.9993116   0.12874235     11437.66     1000 
   90000   0.37174478   -2.5449165   0.55705956   -1.9878569    0.1154008    11441.697     1000 
   92000   0.36690946   -2.5117649   0.54981382    -1.961951   0.13981743    11352.155     1000 
   94000   0.35139622   -2.5542263   0.52656723   -2.0276591   0.13387054    11410.572     1000 
   96000   0.36492498   -2.4860515   0.54684008   -1.9392114   0.12925098    11336.473     1000 
   98000   0.35264898   -2.5131549    0.5284445   -1.9847104   0.12664807    11319.366     1000 
  100000   0.35125538   -2.5213659   0.52635618   -1.9950097   0.13182664    11331.876     1000 
  102000   0.35879234   -2.5244069   0.53765032   -1.9867566   0.13252983    11329.078     1000 
  104000   0.35668242   -2.5261474   0.53448861   -1.9916588   0.12814281    11416.653     1000 
  106000   0.34831427   -2.5049942   0.52194893   -1.9830452   0.12555035    11363.737     1000 
  108000   0.35938717   -2.5260416   0.53854168   -1.9874999   0.11507697    11445.194     1000 
  110000   0.35398814    -2.467731   0.53045123   -1.9372797   0.15150377     11223.47     1000 
  112000   0.37176426   -2.5805807   0.55708874   -2.0234919   0.12352596    11416.065     1000 
  114000   0.36972766    -2.549643    0.5540369   -1.9956061   0.13333787    11434.174     1000 
  116000   0.36042841   -2.5210843   0.54010197   -1.9809823   0.12582181    11422.284     1000 
  118000   0.36152238   -2.5784142   0.54174128    -2.036673    0.1242448    11527.848     1000 
  120000   0.36764108   -2.4818181   0.55091016    -1.930908   0.13322867    11228.034     1000 
  122000   0.35188744   -2.4776788   0.52730332   -1.9503754   0.12981186    11320.362     1000 
  124000   0.36513036   -2.5602617   0.54714785   -2.0131138   0.13151978    11420.649     1000 
  126000   0.37048238   -2.5436808   0.55516785    -1.988513   0.12806397    11397.664     1000 
  128000   0.36414874   -2.5357634   0.54567688   -1.9900865   0.12593302    11351.445     1000 
  130000   0.34682505   -2.4960565   0.51971733   -1.9763392   0.14088045    11323.478     1000 
  132000   0.36895021    -2.518602   0.55287188   -1.9657301   0.13071925    11370.838     1000 
  134000   0.36267153   -2.5309455   0.54346329   -1.9874822   0.13367475    11364.439     1000 
  136000   0.35293229   -2.5270729   0.52886904   -1.9982038   0.13511406    11381.265     1000 
  138000   0.36691159   -2.5488617   0.54981701   -1.9990447   0.11757837    11483.272     1000 
  140000   0.36686113    -2.564542    0.5497414   -2.0148006     0.129988    11421.981     1000 
  142000   0.35941514   -2.5259288   0.53858358   -1.9873452   0.11714676    11469.305     1000 
  144000   0.35612365   -2.5244224   0.53365129   -1.9907711   0.13633849    11368.827     1000 
  146000   0.37004713   -2.5012255   0.55451562   -1.9467099   0.13067916    11303.832     1000 
  148000   0.35314181   -2.5373784     0.529183   -2.0081954   0.12969975    11442.181     1000 
  150000   0.36480617   -2.5099921   0.54666205   -1.9633301   0.14082527    11349.911     1000 
  152000   0.34741153   -2.5414527   0.52059618   -2.0208565   0.12055945    11462.366     1000 
  154000   0.36755943   -2.5099808   0.55078781    -1.959193   0.13523166     11365.65     1000 
  156000   0.36542071   -2.5097541   0.54758293   -1.9621712    0.1284059    11404.331     1000 
  158000   0.36741533   -2.5139106   0.55057187   -1.9633388   0.11767416    11437.579     1000 
  160000   0.36699382   -2.5290242   0.54994024    -1.979084   0.14001886    11324.271     1000 
  162000   0.37566087    -2.479352   0.56292782   -1.9164242   0.13253667    11314.811     1000 
  164000   0.37789516   -2.5365097   0.56627589   -1.9702338   0.13528492    11343.563     1000 
  166000   0.38012043   -2.5082091   0.56961046   -1.9385986   0.13945248    11387.419     1000 
  168000   0.34750836    -2.526247   0.52074128   -2.0055057   0.13185883    11340.783     1000 
  170000   0.35772965   -2.4995222   0.53605788   -1.9634643   0.13240077    11387.983     1000 
  172000   0.36153056   -2.5087799   0.54175354   -1.9670264   0.13031182    11453.393     1000 
  174000   0.36598109   -2.5226162   0.54842266   -1.9741935   0.12429273    11490.979     1000 
  176000   0.34178527   -2.4948903   0.51216523   -1.9827251   0.14180678     11246.59     1000 
  178000   0.35507301   -2.5287714   0.53207691   -1.9966944   0.12185192    11457.946     1000 
  180000    0.3670007    -2.521193   0.54995054   -1.9712425   0.13071772    11404.053     1000 
  182000   0.34551631   -2.5192574   0.51775619   -2.0015012   0.12632479    11410.712     1000 
  184000   0.36076758    -2.552627   0.54061022   -2.0120167   0.14407117    11329.081     1000 
  186000     0.365464   -2.5286754    0.5476478   -1.9810276   0.12768523    11391.295     1000 
  188000   0.37396062   -2.5427015   0.56037999   -1.9823215   0.11952169     11479.34     1000 
  190000   0.35789784   -2.5619685   0.53630991   -2.0256586   0.12952403     11429.35     1000 
  192000   0.35905532   -2.5375439   0.53804439   -1.9994996   0.13354795    11386.205     1000 
  194000   0.34860151   -2.5127981   0.52237937   -1.9904187   0.11720407    11473.583     1000 
  196000   0.34890114   -2.5319507   0.52282836   -2.0091224   0.11967631    11439.049     1000 
  198000   0.36040076   -2.5265769   0.54006054   -1.9865164   0.12437345    11421.239     1000 
  200000   0.36096557   -2.5501192    0.5409069   -2.0092123    0.1261477     11422.76     1000 
  202000   0.37257928   -2.5441152   0.55831005   -1.9858052   0.13538198    11348.855     1000 
  204000   0.36426053   -2.4879342    0.5458444   -1.9420898   0.14271121     11312.48     1000 
  206000   0.36143487   -2.5279812   0.54161016    -1.986371   0.13976419    11398.103     1000 
  208000   0.35577446   -2.5827886   0.53312802   -2.0496606   0.13125122    11378.064     1000 
  210000   0.34663162    -2.524318   0.51942748   -2.0048905   0.13683351    11319.685     1000 
  212000   0.34835963   -2.5086168    0.5220169   -1.9865998   0.13606582    11389.201     1000 
  214000   0.34118459   -2.5057697   0.51126511   -1.9945046   0.12559247    11422.258     1000 
  216000   0.35950281   -2.5206932   0.53871496   -1.9819782    0.1328772    11344.072     1000 
  218000   0.36440063   -2.5068758   0.54605435   -1.9608214   0.12163122    11510.881     1000 
  220000   0.37317802   -2.5697759   0.55920726   -2.0105687   0.13316758    11404.558     1000 
  222000   0.36245962   -2.4950076   0.54314575   -1.9518619   0.13685406     11347.03     1000 
  224000   0.35195002   -2.5097645    0.5273971   -1.9823674    0.1295052     11390.79     1000 
  226000   0.36255147   -2.5497854   0.54328338   -2.0065021   0.11731689    11475.628     1000 
  228000   0.34022656   -2.5115905    0.5098295    -2.001761   0.13345581     11405.37     1000 
  230000   0.36474706   -2.5294734   0.54657347   -1.9828999   0.11871134    11478.935     1000 
  232000   0.35942969   -2.5657211    0.5386054   -2.0271157   0.11934685    11506.466     1000 
  234000   0.34955387   -2.5250858   0.52380648   -2.0012793   0.13775724    11368.443     1000 
  236000   0.35494933   -2.5010719   0.53189158   -1.9691804   0.13834731    11428.405     1000 
  238000   0.35392153   -2.4995404   0.53035141    -1.969189   0.12069797    11415.441     1000 
  240000   0.35666997   -2.5185169   0.53446995   -1.9840469   0.13107326    11315.929     1000 
  242000   0.37936214   -2.5029076   0.56847416   -1.9344334   0.12451084    11416.669     1000 
  244000   0.34631859    -2.545275   0.51895841   -2.0263166   0.13210347    11318.505     1000 
  246000   0.35521905   -2.5084795   0.53229575   -1.9761837   0.12919414    11329.059     1000 
  248000   0.35870265   -2.4950625   0.53751592   -1.9575465   0.13700514    11285.093     1000 
  250000   0.35708436   -2.5507356   0.53509091   -2.0156447   0.13804232    11343.301     1000 
  252000   0.36150014   -2.5074307   0.54170796   -1.9657227   0.12735238     11426.03     1000 
  254000   0.34635681   -2.5418268   0.51901569   -2.0228111   0.13834541    11321.848     1000 
  256000   0.35838401   -2.5450847   0.53703843   -2.0080462   0.11617402    11460.434     1000 
  258000   0.36598822   -2.4567597   0.54843335   -1.9083264    0.1415337    11281.314     1000 
  260000   0.35471608   -2.5272939   0.53154205   -1.9957519   0.13831842        11353     1000 
  262000   0.34982289   -2.5412679    0.5242096   -2.0170583   0.13416588    11380.906     1000 
  264000   0.36108478   -2.5501646   0.54108554   -2.0090791   0.12729532    11390.054     1000 
  266000   0.35895022   -2.5571069    0.5378869     -2.01922   0.13105433    11377.527     1000 
  268000    0.3706248   -2.5481815   0.55538126   -1.9928002   0.12142533    11487.676     1000 
  270000   0.36629977    -2.536194   0.54890021   -1.9872938   0.13838286    11352.824     1000 
  272000   0.37650049   -2.5285019   0.56418599   -1.9643159   0.14025219    11364.163     1000 
  274000   0.35321369   -2.5306204   0.52929071   -2.0013297   0.13388757    11363.012     1000 
  276000   0.37713688   -2.4754547   0.56513961   -1.9103151   0.14302298    11287.276     1000 
  278000   0.34766062   -2.5109436   0.52096944   -1.9899742   0.11782753    11468.007     1000 
  280000   0.36657393   -2.4845536   0.54931104   -1.9352425    0.1449376    11267.511     1000 
  282000    0.3715787   -2.5328911   0.55681067   -1.9760804   0.12785109     11377.53     1000 
  284000   0.36976589   -2.5395054   0.55409418   -1.9854112   0.12398834     11419.12     1000 
  286000   0.35215555   -2.5331687   0.52770509   -2.0054636   0.12196637    11426.346     1000 
  288000   0.34426987   -2.5536174    0.5158884    -2.037729   0.12770903    11440.214     1000 
  290000   0.34468238   -2.5361946   0.51650655   -2.0196881   0.13056676    11388.879     1000 
  292000     0.342727    -2.528415   0.51357641   -2.0148386   0.13032225    11373.197     1000 
  294000   0.36722479   -2.5133107   0.55028634   -1.9630243   0.12913339    11373.635     1000 
  296000   0.37291706   -2.4732015   0.55881621   -1.9143853   0.13348623    11328.081     1000 
  298000   0.35311835   -2.5503303   0.52914785   -2.0211824     0.128388    11420.789     1000 
  300000   0.35886174   -2.5109489   0.53775431   -1.9731945   0.14026703    11332.629     1000 
  302000   0.34671104   -2.5467528   0.51954649   -2.0272064   0.13622495    11271.296     1000 
  304000   0.36373048   -2.5252343   0.54505013   -1.9801842   0.13498079    11342.305     1000 
  306000   0.35939698   -2.5110929   0.53855637   -1.9725366   0.12012065    11409.323     1000 
  308000   0.35172468   -2.5071069   0.52705944   -1.9800474   0.12507409    11441.941     1000 
  310000   0.35163382   -2.5224198   0.52692329   -1.9954965   0.13116419    11356.952     1000 
  312000   0.35648464   -2.5462748   0.53419224   -2.0120825   0.11910474    11564.512     1000 
  314000    0.3474539   -2.5539148   0.52065967   -2.0332551   0.12774404    11461.007     1000 
  316000   0.35317377   -2.5279749    0.5292309    -1.998744   0.12628554    11310.524     1000 
  318000   0.35962916   -2.5277316   0.53890429   -1.9888273    0.1306204      11349.9     1000 
  320000   0.35492974   -2.5436691   0.53186221   -2.0118069   0.12177015    11401.466     1000 
  322000   0.34133039   -2.5132556   0.51148359    -2.001772   0.14003085    11300.427     1000 
  324000   0.35209878   -2.5449353   0.52762003   -2.0173153   0.13785219    11394.429     1000 
  326000   0.36007822   -2.5221993   0.53957722   -1.9826221   0.14568101    11349.004     1000 
  328000   0.36502894   -2.5181166   0.54699586   -1.9711208   0.11518996    11521.305     1000 
  330000   0.33922928   -2.5435663   0.50833508   -2.0352312   0.12170019    11370.816     1000 
  332000   0.35370359   -2.5187013   0.53002484   -1.9886764   0.13503929    11308.663     1000 
  334000   0.37795712   -2.5256681   0.56636875   -1.9592994   0.13337538    11336.501     1000 
  336000   0.36592503   -2.5563065   0.54833866   -2.0079679   0.11860253    11540.493     1000 
  338000   0.35629202   -2.5411328   0.53390359   -2.0072292   0.13126973    11409.612     1000 
  340000    0.3638512   -2.5637832   0.54523102   -2.0185522   0.13459562    11380.433     1000 
  342000   0.34502613   -2.5076568   0.51702166   -1.9906351   0.13070305    11438.386     1000 
  344000   0.35573384   -2.4919117   0.53306716   -1.9588446   0.12312152    11402.502     1000 
  346000   0.35638621   -2.5411407   0.53404474   -2.0070959   0.12197988    11447.544     1000 
  348000   0.34955094   -2.5099308   0.52380208   -1.9861287   0.12735472    11444.377     1000 
  350000   0.36187394    -2.522152    0.5422681   -1.9798839     0.129544    11349.594     1000 
  352000   0.38770839    -2.556444   0.58098102    -1.975463   0.13475741    11449.296     1000 
  354000   0.36839361   -2.4899766   0.55203782   -1.9379388   0.13582998    11326.321     1000 
  356000   0.35828211   -2.5023047   0.53688575   -1.9654189   0.12973265    11330.792     1000 
  358000   0.35823019   -2.4905628   0.53680794   -1.9537549   0.12034609    11443.516     1000 
  360000   0.34689336   -2.5306483    0.5198197   -2.0108286   0.13875568    11403.273     1000 
  362000   0.37964995   -2.5370336   0.56890545   -1.9681282   0.13924396    11325.638     1000 
  364000   0.37413535   -2.4931612   0.56064182   -1.9325194   0.13162776     11385.99     1000 
  366000   0.37011226   -2.5545848   0.55461322   -1.9999716   0.12725763    11459.203     1000 
  368000   0.34324502   -2.5515062   0.51435266   -2.0371535   0.13338644    11360.111     1000 
  370000   0.35238501   -2.5316999   0.52804893   -2.0036509   0.13072989    11410.564     1000 
  372000     0.365175    -2.509895   0.54721473   -1.9626803   0.12868702    11420.849     1000 
  374000   0.36106228   -2.4818558   0.54105182    -1.940804   0.14010922    11366.985     1000 
  376000   0.34382438    -2.544151   0.51522083   -2.0289301   0.12525933    11416.333     1000 
  378000   0.36948113   -2.5423686   0.55366747   -1.9887012    0.1341807    11440.387     1000 
  380000   0.36426198   -2.5410685   0.54584657   -1.9952219   0.12344432    11452.395     1000 
  382000   0.36177251    -2.488513   0.54211611   -1.9463969   0.14180863    11337.292     1000 
  384000   0.35997319   -2.5173134   0.53941983   -1.9778936   0.12743727    11393.723     1000 
  386000   0.36351594   -2.5256046   0.54472864    -1.980876   0.13316767    11386.817     1000 
  388000   0.36544233   -2.4937602   0.54761534   -1.9461449   0.14514894    11267.824     1000 
  390000   0.35633726   -2.5265771   0.53397138   -1.9926058    0.1205955     11399.99     1000 
  392000   0.36088427   -2.5099906   0.54078508   -1.9692055   0.13141241    11355.279     1000 
  394000   0.36984886   -2.5016441   0.55421851   -1.9474256   0.14413651    11271.152     1000 
  396000    0.3652293   -2.5074504   0.54729611   -1.9601543   0.14470535    11281.601     1000 
  398000   0.37711098   -2.5692976   0.56510081   -2.0041968   0.13965551    11383.858     1000 
  400000   0.34403819   -2.5753333   0.51554123   -2.0597921   0.12810318    11461.344     1000 
  402000   0.35811109   -2.5324043   0.53662947   -1.9957749   0.12822956     11470.17     1000 
  404000   0.36482051   -2.5166083   0.54668354   -1.9699248   0.13763566    11359.448     1000 
  406000   0.34840007   -2.5065873    0.5220775   -1.9845098   0.12963729    11406.816     1000 
  408000   0.36332792   -2.4825819    0.5444469    -1.938135   0.12876103    11377.955     1000 
  410000   0.36209697   -2.5296373   0.54260231    -1.987035   0.12701499    11325.776     1000 
  412000   0.34574112   -2.4776772   0.51809306   -1.9595842   0.13774118    11316.353     1000 
  414000   0.34370004   -2.5199837   0.51503451   -2.0049492   0.14357825    11240.293     1000 
  416000   0.35074292    -2.530192   0.52558827   -2.0046037   0.11600288    11488.772     1000 
  418000   0.36087131   -2.4936595   0.54076566   -1.9528939   0.14933503    11252.172     1000 
  420000   0.35691458   -2.4505999    0.5348365   -1.9157634   0.14255183    11254.186     1000 
  422000   0.33655546   -2.5177054   0.50432835    -2.013377   0.11868686    11459.043     1000 
  424000   0.35432993   -2.5404955   0.53096341   -2.0095321   0.12707274    11484.142     1000 
  426000   0.35278595   -2.5009078   0.52864974   -1.9722581   0.13889333    11307.718     1000 
  428000    0.3458915   -2.5536103   0.51831841   -2.0352919   0.14157242    11283.036     1000 
  430000   0.37043568   -2.5562813   0.55509787   -2.0011834   0.13936135    11413.305     1000 
  432000   0.36155246   -2.5737594   0.54178636   -2.0319731   0.14269786    11335.967     1000 
  434000   0.36406598   -2.5398089   0.54555287    -1.994256   0.14079073    11354.396     1000 
  436000   0.36866121   -2.5249038   0.55243882    -1.972465   0.12672747    11365.251     1000 
  438000   0.37407245   -2.5146373   0.56054757   -1.9540897   0.13188394    11523.646     1000 
  440000   0.35358347    -2.519878   0.52984483   -1.9900332   0.13872087     11324.21     1000 
  442000   0.34796637   -2.5497878   0.52142761   -2.0283601   0.12638419    11434.866     1000 
  444000   0.35994192   -2.5580465   0.53937297   -2.0186735   0.12654852    11475.655     1000 
  446000   0.36086605    -2.490171   0.54075777   -1.9494133   0.12455596    11421.188     1000 
  448000   0.33684445   -2.5417647   0.50476141   -2.0370033   0.12441422    11486.034     1000 
  450000   0.35326644   -2.5736735   0.52936976   -2.0443037   0.11947043    11520.837     1000 
  452000    0.3562434   -2.5157823   0.53383073   -1.9819516    0.1388044     11355.07     1000 
  454000   0.36946307   -2.5324876   0.55364042   -1.9788472   0.13173433    11423.419     1000 
  456000   0.35274312   -2.5273246   0.52858557   -1.9987391   0.12282862    11448.696     1000 
  458000   0.35608147   -2.5022923   0.53358808   -1.9687043   0.12771096     11374.97     1000 
  460000   0.34956792   -2.5169147   0.52382753   -1.9930871   0.13251587     11368.66     1000 
  462000   0.36873161   -2.5177463   0.55254432   -1.9652019   0.13061237    11423.292     1000 
  464000   0.37415839   -2.5063033   0.56067635   -1.9456269   0.14348139    11189.554     1000 
  466000   0.35630196   -2.4885008   0.53391849   -1.9545823    0.1375713    11355.388     1000 
  468000   0.37419714   -2.4973814   0.56073442   -1.9366469   0.13892362    11289.976     1000 
  470000   0.37345469   -2.5357835   0.55962185   -1.9761616   0.12173994    11511.001     1000 
  472000   0.34564698   -2.5124506     0.517952   -1.9944986   0.12902219    11357.208     1000 
  474000   0.36486447   -2.5092618   0.54674941   -1.9625124   0.13944753    11285.251     1000 
  476000   0.36585621   -2.5736268   0.54823553   -2.0253912   0.11433219    11475.215     1000 
  478000   0.35331073     -2.45772   0.52943612   -1.9282839   0.13714215    11319.509     1000 
  480000   0.36084332   -2.5130333   0.54072371   -1.9723096   0.13010192    11389.637     1000 
  482000   0.35249198   -2.5078962   0.52820924   -1.9796869    0.1268057    11436.688     1000 
  484000   0.38090367   -2.5275632   0.57078415   -1.9567791   0.13033404    11350.527     1000 
  486000   0.36177531   -2.5257492   0.54212031   -1.9836289   0.12383957    11455.978     1000 
  488000   0.36579835   -2.4945031   0.54814883   -1.9463543   0.12259391    11384.177     1000 
  490000   0.35199408   -2.5015328   0.52746312   -1.9740697   0.14188644    11294.226     1000 
  492000   0.37335728   -2.5526722   0.55947588   -1.9931963   0.13214466    11349.774     1000 
  494000   0.35576832   -2.5117359   0.53311882   -1.9786171   0.13024721    11429.142     1000 
  496000   0.35023621    -2.522649   0.52482896     -1.99782   0.13094742    11410.626     1000 
  498000   0.35900235   -2.5738978   0.53796502   -2.0359327   0.13341447    11349.129     1000 
  500000   0.36361116    -2.509781   0.54487132   -1.9649097   0.12271255    11441.077     1000 
  502000   0.35952284   -2.5823855   0.53874498   -2.0436405   0.12557603    11472.847     1000 
  504000   0.34706446   -2.5341597   0.52007609   -2.0140836   0.12479181    11344.527     1000 
  506000   0.36837883   -2.5357929   0.55201567   -1.9837772   0.10693875    11555.873     1000 
  508000   0.35303795   -2.5273079   0.52902737   -1.9982805   0.13376375    11453.622     1000 
  510000    0.3703296   -2.5464729    0.5549389    -1.991534   0.12609871    11392.715     1000 
  512000   0.34331418   -2.5440872    0.5144563   -2.0296309   0.12765983    11406.911     1000 
  514000   0.35927577   -2.4980811   0.53837474   -1.9597063   0.12394938    11375.589     1000 
  516000   0.35934886   -2.5447683   0.53848427    -2.006284   0.13102224    11409.718     1000 
  518000   0.35790925   -2.5299119   0.53632702   -1.9935849    0.1398919    11324.939     1000 
  520000   0.34723258   -2.5111444   0.52032802   -1.9908164    0.1257257    11386.441     1000 
  522000   0.37136371   -2.5202221   0.55648852   -1.9637336    0.1301363    11375.863     1000 
  524000   0.37612276   -2.5405226   0.56361995   -1.9769026   0.13231122    11438.235     1000 
  526000   0.37066569   -2.5250738   0.55544254   -1.9696313   0.13940956    11378.572     1000 
  528000   0.36608154    -2.495586   0.54857319   -1.9470128   0.14009943    11331.865     1000 
  530000   0.36185398   -2.5475991   0.54223818   -2.0053609   0.13465176    11427.544     1000 
  532000   0.36801929   -2.5488344    0.5514769   -1.9973575   0.12918918    11417.974     1000 
  534000   0.36349296   -2.5534844    0.5446942   -2.0087902   0.11978538    11487.333     1000 
  536000   0.35037982   -2.5066957   0.52504416   -1.9816515   0.13641617    11279.211     1000 
  538000   0.36167424    -2.535296   0.54196885   -1.9933272   0.12662083    11385.226     1000 
  540000   0.34575542   -2.5018063    0.5181145   -1.9836918   0.13206029    11344.813     1000 
  542000   0.35773237   -2.5386374   0.53606196   -2.0025754   0.13988504    11421.729     1000 
  544000   0.36590477   -2.5464948    0.5483083   -1.9981865    0.1282278    11428.586     1000 
  546000   0.37525232   -2.5322566    0.5623156    -1.969941    0.1197406    11578.801     1000 
  548000   0.35522769   -2.5327372   0.53230869   -2.0004285   0.12598077    11409.676     1000 
  550000   0.34860771   -2.5435493   0.52238866   -2.0211606   0.11730288    11490.364     1000 
  552000   0.34401322   -2.5584752   0.51550381   -2.0429714   0.13300605    11337.508     1000 
  554000   0.36710416   -2.5562793   0.55010559   -2.0061737   0.14284983    11349.401     1000 
  556000   0.35259133   -2.5293082   0.52835811   -2.0009501   0.13276018    11337.506     1000 
  558000   0.35258791   -2.5538156   0.52835299   -2.0254626   0.12344712    11480.271     1000 
  560000   0.38309436   -2.5516804    0.5740669   -1.9776135   0.14101606    11378.156     1000 
  562000   0.35143259    -2.559507   0.52662173   -2.0328852   0.13912279     11369.59     1000 
  564000   0.35894392   -2.5205004   0.53787747    -1.982623   0.12284488    11446.522     1000 
  566000   0.35906033   -2.5269377   0.53805191   -1.9888858   0.13427843    11399.248     1000 
  568000    0.3650839   -2.5294188   0.54707823   -1.9823406   0.11953914    11430.773     1000 
  570000   0.36516376   -2.4962116    0.5471979   -1.9490137   0.13036695    11387.633     1000 
  572000   0.34950411   -2.5446756   0.52373191   -2.0209437   0.12107959    11480.218     1000 
  574000   0.35297278   -2.5736125   0.52892971   -2.0446828   0.12075308     11460.98     1000 
  576000   0.35746338   -2.5619783   0.53565887   -2.0263195   0.12364054    11515.299     1000 
  578000   0.36936129   -2.5373613    0.5534879   -1.9838734   0.13676409    11367.596     1000 
  580000   0.34687551   -2.5010385   0.51979296   -1.9812456   0.11319168    11491.946     1000 
  582000   0.38538592   -2.5385996    0.5775008   -1.9610988   0.13480082    11374.109     1000 
  584000   0.34531836   -2.4912363   0.51745956   -1.9737767   0.13041922    11395.867     1000 
  586000   0.36602548    -2.483527   0.54848918   -1.9350378   0.14365971    11405.467     1000 
  588000   0.35788807    -2.539024   0.53629527   -2.0027288   0.13537386    11346.935     1000 
  590000   0.36302926   -2.4974439   0.54399935   -1.9534445   0.14320563    11313.395     1000 
  592000   0.36679196   -2.5157618   0.54963775   -1.9661241   0.12703129    11408.841     1000 
  594000   0.37497795   -2.5733706   0.56190446   -2.0114661   0.11957704    11436.896     1000 
  596000   0.34485728   -2.5303293   0.51676863   -2.0135607   0.13764037    11362.468     1000 
  598000   0.36664892   -2.5550714    0.5494234    -2.005648   0.11432349    11503.084     1000 
  600000   0.37088917   -2.5592977   0.55577742   -2.0035203   0.13570394    11375.562     1000 
  602000   0.36216443   -2.5590848    0.5427034   -2.0163814   0.12563208    11448.448     1000 
  604000   0.34809639   -2.5311358   0.52162245   -2.0095134   0.12082884    11487.919     1000 
  606000   0.35680471   -2.5161124   0.53467185   -1.9814405   0.13022611    11421.273     1000 
  608000   0.36750576   -2.5198692   0.55070738   -1.9691618   0.14279926    11312.292     1000 
  610000   0.36706175   -2.5693874   0.55004203   -2.0193454    0.1344188     11288.79     1000 
  612000   0.35500893   -2.5668927   0.53198088   -2.0349118   0.12985256    11479.416     1000 
  614000   0.35801564   -2.5484101   0.53648644   -2.0119236   0.13296635    11411.997     1000 
  616000   0.36341437   -2.5321234   0.54457644    -1.987547   0.13272809    11323.185     1000 
  618000   0.37125346    -2.538115   0.55632331   -1.9817917   0.12229546     11491.62     1000 
  620000   0.34813107   -2.5443528   0.52167441   -2.0226784   0.12951801    11474.214     1000 
  622000   0.36898544   -2.5339246   0.55292468   -1.9809999   0.12098705    11452.356     1000 
  624000   0.37205812   -2.5098052   0.55752909   -1.9522761   0.12617212     11416.59     1000 
  626000   0.36205808   -2.5104848   0.54254403   -1.9679408   0.11805085    11400.907     1000 
  628000   0.36047988   -2.5349647    0.5401791   -1.9947856   0.13408819    11426.697     1000 
  630000    0.3671293   -2.5530067   0.55014326   -2.0028634   0.12087058    11408.785     1000 
  632000   0.33945678   -2.5474972   0.50867599   -2.0388212   0.12923721    11419.152     1000 
  634000    0.3612439   -2.5487503   0.54132398   -2.0074263   0.13668994    11313.587     1000 
  636000   0.35214973   -2.5237703   0.52769637   -1.9960739   0.12874975    11443.196     1000 
  638000   0.36188933   -2.4985657   0.54229117   -1.9562746   0.13625784     11323.14     1000 
  640000   0.36859107   -2.4945953   0.55233372   -1.9422616   0.14535767    11251.861     1000 
  642000   0.37097236   -2.5283764   0.55590208   -1.9724743   0.13145028    11376.018     1000 
  644000   0.35983324   -2.5015251   0.53921011   -1.9623149   0.12881453    11338.697     1000 
  646000   0.37455102   -2.5337858    0.5612647   -1.9725211   0.13196699    11429.774     1000 
  648000   0.34038793   -2.5195461   0.51007132   -2.0094748   0.12999329    11373.998     1000 
  650000   0.36147254   -2.5234719    0.5416666   -1.9818053   0.12774058    11419.416     1000 
  652000   0.37225135   -2.4932919   0.55781864   -1.9354732   0.12681972    11451.125     1000 
  654000   0.36491176   -2.5286203   0.54682027      -1.9818   0.11590577    11449.262     1000 
  656000   0.36864637   -2.5019303   0.55241659   -1.9495137   0.13456509    11419.861     1000 
  658000   0.35719899   -2.5388825   0.53526269   -2.0036198   0.14260025    11340.403     1000 
  660000   0.36230907   -2.5340754   0.54292014   -1.9911552   0.13485287    11377.888     1000 
  662000   0.36846758   -2.5036068   0.55214867   -1.9514581   0.12306796    11382.012     1000 
  664000   0.34988159   -2.5414178   0.52429756   -2.0171202   0.12028993    11456.221     1000 
  666000   0.36068174   -2.5321588   0.54048158   -1.9916772   0.12943222    11395.822     1000 
  668000   0.37768443    -2.509867   0.56596012   -1.9439069    0.1434786    11308.212     1000 
  670000   0.35262566   -2.5123306   0.52840955    -1.983921   0.12372996    11435.121     1000 
  672000   0.36059676   -2.5187729   0.54035424   -1.9784186   0.13405454    11391.721     1000 
  674000   0.35276633   -2.5214181   0.52862035   -1.9927977   0.12323543    11469.304     1000 
  676000   0.36309383   -2.5451421   0.54409611    -2.001046   0.12858197    11380.783     1000 
  678000   0.35944218    -2.531619   0.53862411   -1.9929949   0.13603162    11326.803     1000 
  680000   0.35843716    -2.545505   0.53711808   -2.0083869   0.11707256     11522.45     1000 
  682000   0.35989336   -2.5588865   0.53930021   -2.0195863   0.12478817    11473.175     1000 
  684000   0.34140059   -2.5018228   0.51158878   -1.9902341    0.1413959    11323.591     1000 
  686000   0.36728625   -2.5177036   0.55037845   -1.9673252    0.1309207    11379.714     1000 
  688000   0.36581957    -2.486713   0.54818062   -1.9385324   0.12123535     11401.55     1000 
  690000   0.37910512   -2.5279967   0.56808903   -1.9599077   0.12953229    11365.468     1000 
  692000   0.36469064   -2.4990829   0.54648893    -1.952594   0.13515398    11370.021     1000 
  694000   0.35926135   -2.5395389   0.53835313   -2.0011858   0.12256954    11487.939     1000 
  696000   0.34824709    -2.529826   0.52184826   -2.0079777   0.13251689    11401.514     1000 
  698000   0.34826233    -2.548141    0.5218711   -2.0262699   0.12501322    11418.075     1000 
  700000   0.35521664   -2.5241955   0.53229214   -1.9919034   0.12888502    11384.075     1000 
  702000   0.34380643   -2.5147612   0.51519394   -1.9995673   0.13331728    11306.247     1000 
  704000   0.35447786   -2.5338975   0.53118508   -2.0027124   0.12440775    11389.252     1000 
  706000   0.36559879   -2.5282924   0.54784979   -1.9804426   0.14500694    11262.913     1000 
  708000    0.3644127     -2.52855   0.54607243   -1.9824776   0.13649286    11368.632     1000 
  710000   0.35433324   -2.5147412   0.53096836   -1.9837728   0.13520655    11319.747     1000 
  712000   0.36933326   -2.5080232    0.5534459   -1.9545773   0.13373746    11277.452     1000 
  714000   0.36093787   -2.5427233    0.5408654   -2.0018579   0.12383605     11481.82     1000 
  716000   0.36649214    -2.543304   0.54918847   -1.9941155   0.12933267    11410.724     1000 
  718000   0.37923189   -2.5104718   0.56827899   -1.9421928   0.12330039    11439.156     1000 
  720000   0.36593215    -2.507835   0.54834933   -1.9594856   0.13736253    11369.761     1000 
  722000    0.3611051   -2.5452542     0.541116   -2.0041382    0.1272786    11382.997     1000 
  724000   0.36802973   -2.5410428   0.55149256   -1.9895503   0.12926796    11400.142     1000 
  726000   0.35948021   -2.4958474   0.53868109   -1.9571663   0.13348143    11327.976     1000 
  728000   0.34724748   -2.5191748   0.52035034   -1.9988245    0.1283671    11383.808     1000 
  730000   0.35846527   -2.4908329    0.5371602   -1.9536727   0.12310777    11433.391     1000 
  732000   0.36396688   -2.5244541   0.54540438   -1.9790497   0.13317781     11331.11     1000 
  734000   0.35777503   -2.5491907   0.53612588   -2.0130648   0.12855879     11465.96     1000 
  736000   0.37304613   -2.5576562   0.55900963   -1.9986465   0.14189702    11377.074     1000 
  738000   0.34578028   -2.5179106   0.51815174   -1.9997588   0.11242417    11527.149     1000 
  740000   0.34910608   -2.5371746   0.52313546   -2.0140391   0.12196854    11428.939     1000 
  742000   0.35868794   -2.5337838   0.53749387   -1.9962899   0.13700606    11274.394     1000 
  744000   0.35131914   -2.5368948   0.52645174   -2.0104431   0.12495176    11391.886     1000 
  746000   0.36142373   -2.5374161   0.54159347   -1.9958226    0.1271117    11368.028     1000 
  748000    0.3659015   -2.5486749    0.5483034   -2.0003715     0.125657    11388.623     1000 
  750000   0.37506149   -2.5466025   0.56202964   -1.9845728   0.12633932    11379.626     1000 
  752000   0.35963622   -2.5285096   0.53891487   -1.9895947   0.12094043    11439.407     1000 
  754000   0.36425712   -2.5103075    0.5458393   -1.9644682   0.12910415    11451.039     1000 
  756000   0.36272535    -2.498165   0.54354394   -1.9546211   0.13752522    11332.562     1000 
  758000   0.35647094   -2.5314547    0.5341717    -1.997283   0.13059276    11404.179     1000 
  760000   0.36742166   -2.5206785   0.55058135   -1.9700971   0.13693093    11346.872     1000 
  762000   0.36026821   -2.5309223   0.53986192   -1.9910604   0.12028052    11541.098     1000 
  764000   0.35301796   -2.5654925   0.52899741   -2.0364951   0.11247214    11500.377     1000 
  766000   0.36024862   -2.5736379   0.53983255   -2.0338054   0.12898081    11411.565     1000 
  768000   0.36368922   -2.5163104   0.54498829   -1.9713221   0.12934732    11384.145     1000 
  770000   0.36348668   -2.5375532   0.54468479   -1.9928684   0.11682669    11537.666     1000 
  772000   0.36369846   -2.5337418   0.54500214   -1.9887397    0.1302133    11415.171     1000 
  774000   0.36564988   -2.5122543   0.54792635    -1.964328   0.14420624    11256.152     1000 
  776000   0.35600186   -2.4966767   0.53346879   -1.9632079   0.12705018    11357.826     1000 
  778000   0.34796665   -2.5270496   0.52142802   -2.0056216   0.11919507    11442.486     1000 
  780000   0.37415933   -2.4835943   0.56067775   -1.9229166   0.14727232    11244.296     1000 
  782000   0.35372115   -2.4988168   0.53005115   -1.9687656   0.13110397    11387.241     1000 
  784000   0.35597024   -2.5435223    0.5334214   -2.0101009   0.13371377    11376.918     1000 
  786000   0.37034621   -2.5262656   0.55496379   -1.9713018   0.14158352    11347.651     1000 
  788000   0.35933701   -2.5250805   0.53846651    -1.986614   0.13580207    11359.331     1000 
  790000    0.3604974    -2.524219   0.54020536   -1.9840136   0.12307725    11382.715     1000 
  792000   0.36727075   -2.5389066   0.55035522   -1.9885514   0.12023151    11422.288     1000 
  794000   0.34989395   -2.5318636   0.52431609   -2.0075475   0.12506112    11406.756     1000 
  796000   0.35597254   -2.5081707   0.53342485   -1.9747459   0.12174708    11422.934     1000 
  798000   0.35580541   -2.5333085    0.5331744   -2.0001341   0.13461216    11347.638     1000 
  800000   0.35704097   -2.5172128   0.53502589   -1.9821869   0.13272749     11343.93     1000 
  802000    0.3695909   -2.4977967   0.55383196   -1.9439648   0.13202012    11435.937     1000 
  804000   0.36590346    -2.532603   0.54830634   -1.9842966   0.14284174    11265.374     1000 
  806000   0.35165488   -2.5178221   0.52695483   -1.9908673   0.13884829    11281.393     1000 
  808000   0.36563011    -2.537863   0.54789672   -1.9899663   0.14200559    11343.273     1000 
  810000   0.35813622   -2.5326227   0.53666713   -1.9959556   0.12936516    11513.352     1000 
  812000   0.36333669   -2.5280076   0.54446003   -1.9835476    0.1365318    11367.458     1000 
  814000   0.35751371   -2.5463626   0.53573429   -2.0106283    0.1342361    11311.079     1000 
  816000   0.36682801   -2.5258096   0.54969177   -1.9761178    0.1326904    11320.678     1000 
  818000    0.3709312   -2.5345909    0.5558404   -1.9787505   0.13903947    11434.401     1000 
  820000   0.34978616   -2.5288746   0.52415456     -2.00472   0.12965055    11385.244     1000 
  822000    0.3503458   -2.4924493   0.52499318   -1.9674561   0.13061159    11373.254     1000 
  824000   0.37029425    -2.548501   0.55488594   -1.9936151   0.13127249    11424.515     1000 
  826000   0.34578555   -2.5032838   0.51815965   -1.9851241   0.14627164    11284.679     1000 
  828000   0.35693462   -2.5404017   0.53486654   -2.0055352    0.1250527    11435.776     1000 
  830000   0.34459213   -2.5035731   0.51637131   -1.9872018   0.11643475    11481.324     1000 
  832000   0.37447295   -2.5492792   0.56114771   -1.9881314     0.131599    11379.443     1000 
  834000   0.35511639   -2.5386795   0.53214192   -2.0065376   0.13048658    11326.994     1000 
  836000   0.35637639   -2.4975536   0.53403002   -1.9635236     0.132045    11337.139     1000 
  838000   0.35860797   -2.4895566   0.53737404   -1.9521826    0.1201451    11485.262     1000 
  840000    0.3661536   -2.5104749   0.54868117   -1.9617937   0.13140991    11405.893     1000 
  842000   0.35833843   -2.5319131   0.53697013   -1.9949429   0.13240974    11469.042     1000 
  844000   0.37228712   -2.4968713   0.55787224    -1.938999   0.13757304    11301.491     1000 
  846000   0.37322355   -2.5255012   0.55927549   -1.9662257   0.14759449    11324.679     1000 
  848000   0.35839854    -2.533641   0.53706021   -1.9965808   0.12588611    11350.804     1000 
  850000   0.35268419   -2.5261452   0.52849725    -1.997648   0.13633909    11314.834     1000 
  852000   0.35006038   -2.5026438   0.52456549   -1.9780783   0.13156428    11374.175     1000 
  854000     0.364308   -2.5678817   0.54591554   -2.0219662   0.12198121    11547.506     1000 
  856000    0.3461642   -2.5257435   0.51872706   -2.0070164   0.13290917    11387.705     1000 
  858000   0.36570082   -2.5399177   0.54800269   -1.9919151   0.13244774    11323.208     1000 
  860000    0.3637351   -2.5372083   0.54505705   -1.9921513   0.12602073    11499.432     1000 
  862000   0.35848064   -2.5452448   0.53718324   -2.0080616   0.12964827    11429.634     1000 
  864000   0.36575039   -2.4897221   0.54807696   -1.9416452   0.12695624    11351.169     1000 
  866000   0.35578375   -2.5382038   0.53314195   -2.0050618   0.13254353    11325.039     1000 
  868000   0.36496881   -2.5070578   0.54690576    -1.960152   0.12806794    11381.729     1000 
  870000   0.38112843   -2.5398228   0.57112095   -1.9687019   0.12373245    11453.404     1000 
  872000   0.35055796   -2.5332274   0.52531111   -2.0079162   0.12536807    11453.445     1000 
  874000   0.35319496   -2.5222602   0.52926265   -1.9929975   0.12570177    11462.047     1000 
  876000   0.36273352   -2.5291465   0.54355618   -1.9855904   0.13064346    11383.335     1000 
  878000   0.34126005   -2.5437812   0.51137819    -2.032403    0.1347487    11309.762     1000 
  880000    0.3639916   -2.5363007   0.54544141   -1.9908593   0.12882323    11384.364     1000 
  882000   0.37107024   -2.5326396   0.55604875   -1.9765909    0.1284962    11474.999     1000 
  884000    0.3618935   -2.5395305    0.5422974   -1.9972331    0.1324944    11395.084     1000 
  886000   0.36746439   -2.5362167   0.55064538   -1.9855713   0.13431786     11396.51     1000 
  888000   0.35284761   -2.5444949   0.52874215   -2.0157527   0.13417662    11413.892     1000 
  890000   0.36950934   -2.5356697   0.55370975     -1.98196   0.12457072    11478.366     1000 
  892000   0.36185017   -2.5200116   0.54223249   -1.9777791   0.13264695    11411.119     1000 
  894000    0.3641444   -2.5220847   0.54567038   -1.9764143   0.12932763     11360.42     1000 
  896000     0.347003   -2.5575078     0.519984   -2.0375238   0.13683385    11463.707     1000 
  898000   0.36206703   -2.5509252   0.54255744   -2.0083678   0.13339414    11393.871     1000 
  900000   0.36455278   -2.5418932   0.54628234   -1.9956108   0.13453957    11334.636     1000 
  902000   0.35439555   -2.5251961   0.53106173   -1.9941343   0.13108772    11369.452     1000 
  904000   0.35801303   -2.5130817   0.53648252   -1.9765992   0.12300859    11428.555     1000 
  906000   0.35876045   -2.4953278   0.53760253   -1.9577253   0.13425006    11325.483     1000 
  908000   0.35753077   -2.5156251   0.53575985   -1.9798652   0.13911315    11333.332     1000 
  910000   0.34927559   -2.4950046   0.52338947   -1.9716151   0.13078861    11315.304     1000 
  912000   0.35237944   -2.5453665   0.52804059   -2.0173259   0.11367582    11512.196     1000 
  914000   0.36873387   -2.5439357    0.5525477    -1.991388   0.12546146    11463.066     1000 
  916000   0.35346473   -2.4638375   0.52966689   -1.9341706   0.12907045    11419.088     1000 
  918000   0.35599043   -2.5235264   0.53345166   -1.9900748    0.1406048     11332.96     1000 
  920000   0.35334802   -2.5274459   0.52949201   -1.9979539   0.13664436    11382.715     1000 
  922000   0.35946713   -2.5264966    0.5386615   -1.9878351   0.13816498    11320.403     1000 
  924000   0.34454586   -2.5391931   0.51630197   -2.0228911   0.12884687    11397.143     1000 
  926000   0.35451416    -2.558227   0.53123946   -2.0269875   0.13417284    11417.799     1000 
  928000   0.34878219   -2.5512989   0.52265012   -2.0286488   0.14003926    11366.932     1000 
  930000   0.36532679   -2.5353499    0.5474422   -1.9879077   0.12068378    11492.901     1000 
  932000   0.35919352   -2.5119818    0.5382515   -1.9737303   0.13360881    11318.756     1000 
  934000   0.35017753   -2.4848512   0.52474103   -1.9601101   0.12725352    11392.981     1000 
  936000    0.3774663   -2.5434751   0.56563325   -1.9778419   0.12273577    11442.525     1000 
  938000   0.36179495   -2.5222521   0.54214973   -1.9801024   0.13303559    11391.227     1000 
  940000    0.3506127   -2.5091322   0.52539314   -1.9837391   0.12924812    11419.797     1000 
  942000   0.33779969   -2.5125737   0.50619284   -2.0063808   0.11780615    11386.113     1000 
  944000    0.3571663   -2.5385417    0.5352137    -2.003328   0.12123279    11465.034     1000 
  946000   0.36158774   -2.5509037   0.54183923   -2.0090645   0.11729855    11402.275     1000 
  948000   0.34812626    -2.545758   0.52166721   -2.0240908   0.13128945    11459.292     1000 
  950000   0.36328296   -2.5601837   0.54437951   -2.0158042   0.13474395    11401.824     1000 
  952000   0.36224406   -2.5040252   0.54282272   -1.9612025   0.12508808    11389.871     1000 
  954000   0.34672242   -2.5117264   0.51956355   -1.9921629     0.128471    11413.912     1000 
  956000   0.35608851   -2.4906749   0.53359863   -1.9570763   0.12882682    11395.779     1000 
  958000   0.36178963   -2.5416531   0.54214176   -1.9995114   0.13153109    11399.312     1000 
  960000   0.36224394   -2.4937676   0.54282255    -1.950945   0.13044415    11365.117     1000 
  962000   0.36607498   -2.5501828   0.54856336   -2.0016194   0.12416513    11447.824     1000 
  964000   0.35831529   -2.5320687   0.53693545   -1.9951333   0.14078451    11331.688     1000 
  966000   0.37243324   -2.5239091   0.55809122   -1.9658179   0.13238154    11345.933     1000 
  968000   0.37318234   -2.5117419   0.55921373   -1.9525282    0.1365672    11262.727     1000 
  970000    0.3592295     -2.56521    0.5383054   -2.0269046   0.12448497    11373.306     1000 
  972000   0.37500111   -2.5584542   0.56193916    -1.996515   0.12952831    11462.329     1000 
  974000   0.35793383   -2.5111219   0.53636384    -1.974758   0.14073656    11301.512     1000 
  976000    0.3682851   -2.5326219   0.55187522   -1.9807467   0.12091621    11439.637     1000 
  978000   0.35327137   -2.5345499   0.52937715   -2.0051727   0.12661666    11413.672     1000 
  980000   0.36129884   -2.5574837   0.54140632   -2.0160774   0.12868408    11421.082     1000 
  982000   0.37383697   -2.4890199    0.5601947   -1.9288252    0.1361385    11417.844     1000 
  984000   0.36757567   -2.5648719   0.55081214   -2.0140597   0.12797428    11481.478     1000 
  986000    0.3697435   -2.5291583   0.55406063   -1.9750976   0.11796573    11432.063     1000 
  988000   0.34173092    -2.511101   0.51208379   -1.9990172   0.13199685    11297.949     1000 
  990000   0.35432316   -2.5472312   0.53095325   -2.0162779   0.12744574    11464.542     1000 
  992000   0.37201441   -2.5221516   0.55746359    -1.964688   0.13397114    11345.131     1000 
  994000   0.35949491   -2.5515696   0.53870312   -2.0128665   0.12952666    11402.273     1000 
  996000   0.36837284   -2.4922607    0.5520067    -1.940254   0.13087228    11299.475     1000 
  998000   0.35722419   -2.5547929   0.53530044   -2.0194925   0.11520976     11430.52     1000 
 1000000   0.35935188   -2.5583761   0.53848879   -2.0198873   0.12418932    11453.834     1000 
 1002000   0.36982537   -2.5098468   0.55418332   -1.9556635   0.12712972    11388.256     1000 
 1004000   0.36945807   -2.5395387   0.55363292   -1.9859058    0.1279846    11381.869     1000 
 1006000   0.35213149   -2.4798684   0.52766905   -1.9521994   0.12926733    11417.962     1000 
 1008000   0.37094691   -2.5334792   0.55586394   -1.9776153   0.12751817    11423.747     1000 
 1010000   0.37122227   -2.5038623   0.55627657   -1.9475857   0.13650642     11366.19     1000 
 1012000   0.35552143   -2.5032951   0.53274886   -1.9705462   0.12482974    11437.406     1000 
 1014000   0.37892282   -2.5604056   0.56781584   -1.9925897   0.12393956    11530.911     1000 
 1016000    0.3659202   -2.5377774   0.54833142    -1.989446   0.13589152    11315.303     1000 
 1018000   0.36810015   -2.5008693   0.55159807   -1.9492712   0.13697069    11397.082     1000 
 1020000   0.34975608   -2.5573036   0.52410949   -2.0331941   0.13926804    11364.512     1000 
 1022000   0.35886122   -2.5416869   0.53775353   -2.0039334   0.13276903      11357.2     1000 
 1024000   0.35609198   -2.4983384   0.53360384   -1.9647345   0.12848446    11298.888     1000 
 1026000   0.36076728   -2.4932794   0.54060977   -1.9526696   0.12041991    11373.832     1000 
 1028000   0.35347538   -2.5366301   0.52968286   -2.0069472   0.13927535     11303.12     1000 
 1030000   0.35482859   -2.5069059   0.53171064   -1.9751953   0.11982396    11382.209     1000 
 1032000   0.35201524   -2.5357618   0.52749483    -2.008267   0.11487756    11507.873     1000 
 1034000   0.37429182    -2.560555   0.56087629   -1.9996787   0.11915251    11528.989     1000 
 1036000   0.35419136   -2.5150543   0.53075575   -1.9842985   0.12805613    11360.759     1000 
 1038000   0.36568491    -2.538172   0.54797884   -1.9901931   0.11535791    11485.519     1000 
 1040000     0.357706   -2.5193091   0.53602244   -1.9832866   0.13753405    11341.268     1000 
 1042000   0.37297458   -2.5302588   0.55890241   -1.9713564   0.11849839    11490.458     1000 
 1044000   0.36452347   -2.4839669   0.54623841   -1.9377285   0.12966501    11305.645     1000 
 1046000   0.37573829   -2.5470351   0.56304383   -1.9839913   0.13347809    11360.552     1000 
 1048000    0.3625306   -2.5566206    0.5432521   -2.0133685   0.12286154    11416.707     1000 
 1050000   0.36203938   -2.5344588   0.54251601   -1.9919428   0.13491538    11419.648     1000 
 1052000   0.35832055    -2.501745   0.53694334   -1.9648017   0.12419419    11400.816     1000 
 1054000   0.35895996   -2.5018181    0.5379015   -1.9639166   0.13564123    11371.298     1000 
 1056000   0.36016742    -2.497843   0.53971088   -1.9581321   0.14677387    11242.925     1000 
 1058000   0.36157233     -2.49709   0.54181613   -1.9552738   0.11865967    11429.901     1000 
 1060000   0.33817306   -2.5127959   0.50675233   -2.0060435   0.14162538     11192.79     1000 
 1062000    0.3637327   -2.5084052   0.54505345   -1.9633517   0.13950702    11277.396     1000 
 1064000   0.35981471   -2.5449994   0.53918235   -2.0058171   0.13127352    11362.845     1000 
 1066000   0.34914623   -2.5300135   0.52319562   -2.0068178   0.13138313    11413.851     1000 
 1068000   0.36759337    -2.542401   0.55083867   -1.9915623   0.11653535    11532.309     1000 
 1070000   0.36035925   -2.5260784   0.53999833     -1.98608   0.13847335    11407.157     1000 
 1072000   0.35143693   -2.4983228   0.52662824   -1.9716945   0.12508427    11354.086     1000 
 1074000    0.3790569   -2.5165607   0.56801677    -1.948544   0.14292757    11281.388     1000 
 1076000   0.36066563   -2.5770425   0.54045745   -2.0365851   0.11355583    11616.949     1000 
 1078000   0.39413277   -2.5254531   0.59060796   -1.9348452   0.13569704    11343.406     1000 
 1080000   0.35888218    -2.498542   0.53778495   -1.9607571   0.12437523    11424.628     1000 
 1082000   0.35661892   -2.5016013   0.53439345   -1.9672079   0.12771698    11455.391     1000 
 1084000   0.35462137   -2.4783869   0.53140013   -1.9469868   0.13049252    11426.134     1000 
 1086000   0.36629262    -2.517547   0.54888948   -1.9686575    0.1345066    11328.539     1000 
 1088000   0.36564015   -2.5177376   0.54791177   -1.9698258   0.12545989    11456.379     1000 
 1090000   0.35819559   -2.5436508    0.5367561   -2.0068947   0.12930785     11420.52     1000 
 1092000   0.35806342   -2.5403916   0.53655804   -2.0038335   0.11126048    11522.644     1000 
 1094000   0.34013768   -2.5186281   0.50969632   -2.0089318   0.12232132    11546.898     1000 
 1096000   0.35799038   -2.5310339   0.53644858   -1.9945853   0.12231763    11445.126     1000 
 1098000   0.35992201   -2.5300699   0.53934313   -1.9907267   0.13421525    11408.182     1000 
 1100000   0.35075762   -2.4659723    0.5256103    -1.940362   0.13319215    11274.415     1000 
 1102000    0.3588185   -2.5194027   0.53768952   -1.9817132   0.13435789    11339.653     1000 
 1104000   0.36476607   -2.5134332   0.54660195   -1.9668312   0.13405185    11333.553     1000 
 1106000   0.37521703   -2.5155969   0.56226272   -1.9533341    0.1303294    11363.064     1000 
 1108000   0.35492679    -2.544518   0.53185779   -2.0126602   0.13692937    11274.565     1000 
 1110000   0.36071878   -2.5496021   0.54053709    -2.009065   0.13217331    11404.582     1000 
 1112000   0.37549034   -2.5235517   0.56267227   -1.9608794   0.13593123    11333.329     1000 
 1114000   0.35654569   -2.5595415   0.53428372   -2.0252578   0.12272618    11369.956     1000 
 1116000   0.36269234   -2.4902227   0.54349448   -1.9467282   0.12789397    11384.814     1000 
 1118000   0.35492322   -2.5423248   0.53185245   -2.0104723   0.11547437    11427.845     1000 
 1120000   0.35503219   -2.5579298   0.53201574   -2.0259141    0.1218709     11477.27     1000 
 1122000   0.37395131    -2.490468   0.56036603    -1.930102   0.14657855    11297.185     1000 
 1124000   0.35490362   -2.5413656   0.53182307   -2.0095425   0.12956899    11355.645     1000 
 1126000   0.37128558   -2.5339389   0.55637144   -1.9775675   0.13718936    11402.368     1000 
 1128000   0.36984096   -2.5433337   0.55420668   -1.9891271   0.12516995    11470.072     1000 
 1130000   0.35907822   -2.5276743   0.53807872   -1.9895955   0.12762356    11530.358     1000 
 1132000   0.36958739   -2.5266346    0.5538267   -1.9728079   0.12694583    11351.646     1000 
 1134000   0.36059868   -2.5486242   0.54035712   -2.0082671   0.13009798    11406.121     1000 
 1136000   0.35203757   -2.5275512    0.5275283   -2.0000229   0.12667911    11459.126     1000 
 1138000   0.36214015   -2.5044888   0.54266702   -1.9618218   0.12748473    11334.248     1000 
 1140000   0.36251208   -2.5619266   0.54322435   -2.0187022   0.11899186    11542.506     1000 
 1142000   0.36649621   -2.5490037   0.54919457   -1.9998091   0.12306768    11517.123     1000 
 1144000   0.36066346   -2.5335084   0.54045419   -1.9930542   0.11790642    11446.229     1000 
 1146000   0.37489132   -2.4963499   0.56177464   -1.9345752   0.11990092    11471.823     1000 
 1148000   0.34903503   -2.5025422   0.52302899   -1.9795133   0.12634676    11380.439     1000 
 1150000   0.35697818   -2.5074599   0.53493181   -1.9725281   0.13223392    11395.844     1000 
 1152000   0.37972682   -2.4796186   0.56902064    -1.910598   0.13245229    11384.674     1000 
 1154000    0.3612406   -2.5418549   0.54131905   -2.0005359   0.12728974    11376.946     1000 
 1156000    0.3735108   -2.5369868   0.55970594   -1.9772809   0.14010027    11316.948     1000 
 1158000   0.36024323   -2.4943102   0.53982448   -1.9544857   0.13704302    11407.669     1000 
 1160000   0.35330266   -2.5573747   0.52942403   -2.0279507   0.11831089    11411.799     1000 
 1162000   0.36381997   -2.5290545   0.54518422   -1.9838702   0.14051512    11361.091     1000 
 1164000   0.34543297   -2.5468322   0.51763131   -2.0292009   0.12427608    11427.682     1000 
 1166000    0.3618965   -2.5158469    0.5423019    -1.973545   0.12587331    11491.851     1000 
 1168000   0.36507591   -2.5545947   0.54706625   -2.0075284   0.13781829    11351.156     1000 
 1170000   0.36663785   -2.5629929   0.54940682   -2.0135861   0.13891426    11389.043     1000 
 1172000   0.36692299   -2.5432613    0.5498341   -1.9934272   0.13765159    11420.961     1000 
 1174000   0.38156385   -2.5094348   0.57177343   -1.9376613    0.1248769    11470.081     1000 
 1176000    0.3554614   -2.5577668    0.5326589   -2.0251079   0.12778425    11402.717     1000 
 1178000   0.37654987   -2.5378064   0.56425998   -1.9735464   0.13347694    11394.967     1000 
 1180000   0.36398251   -2.5171693   0.54542779   -1.9717415   0.13445754    11399.281     1000 
 1182000   0.34774046   -2.5289009   0.52108908   -2.0078118   0.13851164    11311.428     1000 
 1184000   0.33882966   -2.5317984   0.50773625   -2.0240621   0.12746033     11317.62     1000 
 1186000    0.3543999   -2.5414742   0.53106824    -2.010406   0.12379098    11429.296     1000 
 1188000   0.36289069   -2.5003374   0.54379169   -1.9565457     0.122721    11444.473     1000 
 1190000   0.35569331   -2.5014813   0.53300643   -1.9684749    0.1319711     11315.62     1000 
 1192000   0.35927691   -2.5399369   0.53837645   -2.0015605    0.1192198    11471.987     1000 
 1194000   0.35646434   -2.4956457   0.53416181   -1.9614839   0.13041315    11375.516     1000 
 1196000   0.35967646   -2.5488859   0.53897517   -2.0099107    0.1288258    11494.051     1000 
 1198000   0.35489492   -2.4961018   0.53181003   -1.9642918   0.12627859    11486.439     1000 
 1200000   0.34357049   -2.5245556   0.51484038   -2.0097152   0.13119056     11368.01     1000 
 1202000   0.34873987   -2.5407941   0.52258669   -2.0182074   0.13610809     11394.83     1000 
 1204000   0.34244229   -2.4992381   0.51314978   -1.9860883   0.12969025    11269.025     1000 
 1206000   0.36759786   -2.5150929    0.5508454   -1.9642475   0.12508077    11406.788     1000 
 1208000   0.35141831   -2.4930324   0.52660033    -1.966432   0.14169124    11367.546     1000 
 1210000   0.36551534   -2.5152945   0.54772473   -1.9675698   0.13578918    11358.953     1000 
 1212000   0.35338894   -2.5147271   0.52955332   -1.9851738   0.10798116    11420.321     1000 
 1214000   0.34934507   -2.4931019   0.52349359   -1.9696083   0.13846315    11264.954     1000 
 1216000   0.37434256   -2.4981062   0.56095233   -1.9371539   0.12519024    11412.774     1000 
 1218000   0.35101948   -2.5071418   0.52600269   -1.9811391   0.12868804    11357.018     1000 
 1220000   0.35860786   -2.5442791   0.53737387   -2.0069052   0.13362383    11411.958     1000 
 1222000   0.35704659   -2.5319111   0.53503432   -1.9968768   0.12230662    11432.692     1000 
 1224000   0.36406459   -2.4892503   0.54555079   -1.9436995   0.13847411    11356.339     1000 
 1226000   0.34686536    -2.512732   0.51977774   -1.9929543   0.11555995    11415.553     1000 
 1228000   0.36478743   -2.5416975   0.54663396   -1.9950635   0.13205126    11465.082     1000 
 1230000   0.35449182   -2.5454135   0.53120599   -2.0142075   0.14230498    11271.973     1000 
 1232000   0.35345711   -2.5819709   0.52965549   -2.0523155   0.12307728    11519.946     1000 
 1234000   0.36821647   -2.5262039   0.55177239   -1.9744316    0.1397649    11371.233     1000 
 1236000   0.36666801    -2.498933   0.54945201    -1.949481   0.13366486    11368.962     1000 
 1238000   0.37951508   -2.5182212   0.56870335   -1.9495178   0.12535467    11561.123     1000 
 1240000   0.35028651   -2.4836491   0.52490433   -1.9587448   0.13188155    11280.701     1000 
 1242000   0.36743408    -2.553948   0.55059996   -2.0033481   0.13257158    11402.887     1000 
 1244000   0.35493793   -2.5535997   0.53187448   -2.0217252   0.12528707    11514.195     1000 
 1246000   0.35777144   -2.5307525   0.53612051    -1.994632   0.12676747    11466.244     1000 
 1248000   0.36745075   -2.4920429   0.55062495   -1.9414179   0.13507153    11336.832     1000 
 1250000   0.36384338   -2.5462537    0.5452193   -2.0010344   0.12911745    11424.784     1000 
 1252000   0.37077052   -2.5350284   0.55559963   -1.9794288   0.14003958    11410.387     1000 
 1254000   0.35581216   -2.4516293   0.53318453   -1.9184448   0.12367933    11443.614     1000 
 1256000   0.36121343   -2.5271107   0.54127832   -1.9858324   0.14193351     11340.45     1000 
 1258000   0.36705311   -2.5316031   0.55002908   -1.9815741   0.12371677    11461.324     1000 
 1260000    0.3634423   -2.4997252   0.54461828   -1.9551069   0.13171611    11363.409     1000 
 1262000   0.34988177    -2.500166   0.52429783   -1.9758682   0.13794793    11291.135     1000 
 1264000   0.37252151   -2.5013846   0.55822348   -1.9431612   0.12409128    11419.997     1000 
 1266000   0.35755507   -2.4938597   0.53579628   -1.9580635   0.13363262    11273.063     1000 
 1268000   0.35061533   -2.5295337   0.52539707   -2.0041366   0.13378157    11346.817     1000 
 1270000   0.35124493   -2.5181038   0.52634053   -1.9917633   0.12077083    11379.187     1000 
 1272000   0.35479746   -2.5380782     0.531664   -2.0064142   0.12345315    11516.067     1000 
 1274000   0.35090736   -2.4925319   0.52583468   -1.9666973   0.11139322    11525.984     1000 
 1276000   0.35533034   -2.5300327   0.53246251   -1.9975702   0.12632045    11523.711     1000 
 1278000   0.37877251   -2.5399554    0.5675906   -1.9723648   0.13258342    11339.629     1000 
 1280000   0.37354423   -2.5395419   0.55975603   -1.9797859   0.13618084    11319.079     1000 
 1282000   0.35821328   -2.5819459    0.5367826   -2.0451633   0.13178686     11440.55     1000 
 1284000    0.3456084   -2.5685559   0.51789419   -2.0506617   0.11870686    11513.166     1000 
 1286000   0.36286636   -2.4989809   0.54375523   -1.9552257   0.11895501    11429.278     1000 
 1288000    0.3601706   -2.5207319   0.53971564   -1.9810162   0.13444478     11300.09     1000 
 1290000   0.35692929   -2.5296796   0.53485854   -1.9948211   0.12473754    11392.917     1000 
 1292000   0.35805906   -2.5076467   0.53655151   -1.9710952   0.12639354     11402.39     1000 
 1294000    0.3589832   -2.5415601   0.53793632   -2.0036238   0.13352738    11419.835     1000 
 1296000   0.33891217   -2.4711458   0.50785988   -1.9632859   0.13419659     11275.08     1000 
 1298000   0.36443515   -2.4872845   0.54610607   -1.9411784   0.12607327     11360.11     1000 
 1300000   0.37175143   -2.5264251   0.55706952   -1.9693555   0.13347208    11371.216     1000 
 1302000   0.35108279   -2.5081549   0.52609757   -1.9820573   0.12163751    11441.097     1000 
 1304000   0.35206176   -2.4848996   0.52756455   -1.9573351   0.13071543    11408.277     1000 
 1306000   0.35559785   -2.5059776   0.53286337   -1.9731143    0.1210664    11353.164     1000 
 1308000   0.36982887   -2.4815516   0.55418857    -1.927363   0.13521163    11331.328     1000 
 1310000    0.3426115   -2.4863107   0.51340333   -1.9729074   0.13145007    11342.265     1000 
 1312000   0.35132057     -2.54612   0.52645387   -2.0196661   0.12394397    11427.814     1000 
 1314000   0.38085416   -2.5332689   0.57070996    -1.962559   0.13267587    11405.099     1000 
 1316000    0.3666841   -2.5161095   0.54947613   -1.9666333   0.13572446    11339.901     1000 
 1318000   0.35096093   -2.4669956   0.52591496   -1.9410806   0.13528412    11345.665     1000 
 1320000   0.35177035   -2.5271812   0.52712787   -2.0000534   0.13170252    11414.097     1000 
 1322000   0.36695331   -2.5749293   0.54987954   -2.0250498   0.12372734    11540.596     1000 
 1324000   0.35359487   -2.5301773   0.52986192   -2.0003154   0.11949568     11504.34     1000 
 1326000   0.36374615   -2.5013423   0.54507361   -1.9562687   0.12342958     11444.02     1000 
 1328000   0.34261494   -2.5424122   0.51340849   -2.0290037    0.1335099    11283.126     1000 
 1330000   0.35272918   -2.5133879   0.52856468   -1.9848232   0.12461105    11402.604     1000 
 1332000    0.3580034   -2.5185141   0.53646809    -1.982046    0.1272159    11476.069     1000 
 1334000    0.3540913   -2.5465529   0.53060581   -2.0159471   0.13304813    11424.976     1000 
 1336000   0.38193115   -2.5288629   0.57232383    -1.956539   0.13800327    11352.762     1000 
 1338000   0.35340088   -2.5017831   0.52957122   -1.9722119   0.13688614    11369.544     1000 
 1340000   0.35236368   -2.5526361   0.52801697   -2.0246191   0.12424041    11429.419     1000 
 1342000   0.35078217   -2.5105837   0.52564708   -1.9849366   0.12422259    11370.012     1000 
 1344000   0.36664179   -2.5295713   0.54941272   -1.9801586    0.1345399    11405.972     1000 
 1346000   0.35124454   -2.4941931   0.52633994   -1.9678532   0.12238464    11379.987     1000 
 1348000   0.36565375   -2.5366259   0.54793215   -1.9886938   0.12845276    11390.356     1000 
 1350000   0.34927227   -2.5462924    0.5233845   -2.0229079   0.13433744    11345.434     1000 
 1352000   0.36723281   -2.5106602   0.55029837   -1.9603618   0.13792362    11345.641     1000 
 1354000   0.35333516    -2.522434   0.52947274   -1.9929612   0.13028475    11429.908     1000 
 1356000   0.34923652   -2.5216451   0.52333093   -1.9983142   0.11269372    11563.254     1000 
 1358000   0.38626259   -2.5136154   0.57881449   -1.9348009   0.14383449     11217.21     1000 
 1360000    0.3539816   -2.5175861   0.53044142   -1.9871446   0.12781374    11415.093     1000 
 1362000   0.35675123   -2.5304568   0.53459171    -1.995865   0.12321584    11438.714     1000 
 1364000   0.34313509    -2.534865   0.51418793   -2.0206771   0.14064247    11270.852     1000 
 1366000   0.35812545   -2.5082279   0.53665098   -1.9715769   0.11979187    11418.788     1000 
 1368000   0.35351661   -2.5606573   0.52974464   -2.0309127   0.11687624    11482.007     1000 
 1370000   0.34280745    -2.448709   0.51369696    -1.935012   0.12944263    11262.435     1000 
 1372000   0.35654074   -2.5441977    0.5342763   -2.0099214   0.12584196    11360.129     1000 
 1374000   0.35746863   -2.5339117   0.53566674    -1.998245   0.14497879    11338.395     1000 
 1376000   0.36113735   -2.5362751   0.54116432   -1.9951108   0.13806327    11356.199     1000 
 1378000   0.36411092   -2.5486703   0.54562022   -2.0030501   0.12976423    11344.008     1000 
 1380000   0.37027905   -2.5556486   0.55486316   -2.0007854   0.11899135    11554.631     1000 
 1382000   0.35447476    -2.535817   0.53118043   -2.0046366   0.12430066    11419.575     1000 
 1384000   0.35718076   -2.5170184   0.53523536   -1.9817831    0.1245549    11437.901     1000 
 1386000   0.34507315   -2.5391181   0.51709211    -2.022026   0.11985034    11428.334     1000 
 1388000   0.36527845   -2.5409225   0.54736975   -1.9935527    0.1335145    11365.849     1000 
 1390000   0.35946043   -2.5693962   0.53865146   -2.0307448   0.13555214    11366.205     1000 
 1392000   0.35992166   -2.5483487   0.53934261   -2.0090061   0.13567103    11397.662     1000 
 1394000   0.35500857   -2.5052976   0.53198035   -1.9733172   0.14165705    11290.917     1000 
 1396000   0.35419186   -2.5058539   0.53075651   -1.9750974   0.12931039    11378.512     1000 
 1398000   0.36884784    -2.551558   0.55271849   -1.9988395   0.11176647    11549.712     1000 
 1400000   0.36537973   -2.5701558   0.54752153   -2.0226342   0.12696171    11456.294     1000 
 1402000   0.34893257   -2.5307687   0.52287545   -2.0078932     0.120438    11405.552     1000 
 1404000   0.35191592   -2.5109697     0.527346   -1.9836237   0.13164131    11375.575     1000 
 1406000   0.36693429   -2.5285756   0.54985103   -1.9787246   0.14232928     11373.75     1000 
 1408000   0.34975287   -2.5480392   0.52410468   -2.0239345    0.1267362    11447.747     1000 
 1410000   0.36335369   -2.5181449    0.5444855   -1.9736594   0.14506296    11325.712     1000 
 1412000   0.35566948   -2.5254968   0.53297072   -1.9925261   0.12469683    11365.368     1000 
 1414000   0.35536172   -2.5073229   0.53250954   -1.9748134   0.12883445    11370.651     1000 
 1416000   0.36631282   -2.5294496   0.54891976   -1.9805298   0.13142844    11357.779     1000 
 1418000   0.34823068   -2.5127693   0.52182367   -1.9909456   0.13102462    11290.577     1000 
 1420000   0.36926262   -2.5586098   0.55334004   -2.0052697   0.12343196    11400.023     1000 
 1422000   0.34849368    -2.512211   0.52221778   -1.9899933   0.12529146    11276.706     1000 
 1424000   0.35003692   -2.5582672   0.52453032   -2.0337369   0.12960653    11421.385     1000 
 1426000   0.35996615   -2.5524512   0.53940928   -2.0130419   0.12148046     11481.72     1000 
 1428000     0.358087   -2.5584796   0.53659337   -2.0218863   0.12100507    11564.597     1000 
 1430000   0.37212605   -2.5192674   0.55763089   -1.9616366   0.13013243    11380.853     1000 
 1432000   0.35366064   -2.5429705   0.52996047     -2.01301   0.13840914    11303.843     1000 
 1434000    0.3434974   -2.4928861   0.51473085   -1.9781553   0.14162871    11284.017     1000 
 1436000   0.35487253    -2.503477   0.53177649   -1.9717006   0.12948804    11357.681     1000 
 1438000   0.37662475   -2.5179875   0.56437218   -1.9536153   0.12304605    11459.096     1000 
 1440000   0.34460748   -2.5244827   0.51639432   -2.0080884   0.12247519     11420.56     1000 
 1442000   0.36091627   -2.5089022   0.54083303   -1.9680692   0.12985933     11337.32     1000 
 1444000   0.35059886   -2.5062861    0.5253724   -1.9809137   0.13440382    11361.583     1000 
 1446000   0.35438859   -2.4981556    0.5310513   -1.9671043    0.1300282    11336.192     1000 
 1448000   0.35795375   -2.5437356   0.53639369   -2.0073419   0.11562591    11424.019     1000 
 1450000   0.37448851   -2.5330899   0.56117103   -1.9719188   0.13334178    11381.409     1000 
 1452000   0.36235349   -2.5328086    0.5429867   -1.9898219   0.12095907    11514.956     1000 
 1454000   0.36289447   -2.5583469   0.54379736   -2.0145495   0.12911463    11432.116     1000 
 1456000    0.3541656   -2.5310079   0.53071715   -2.0002908   0.13517073    11373.167     1000 
 1458000   0.35700256   -2.5362508   0.53496833   -2.0012825   0.12730004    11352.432     1000 
 1460000   0.34189913     -2.50464   0.51233584   -1.9923042   0.11913272    11438.606     1000 
 1462000   0.35747762   -2.5142239   0.53568021   -1.9785437    0.1202519    11356.598     1000 
 1464000   0.35524408   -2.5500369   0.53233325   -2.0177036   0.13514356     11359.53     1000 
 1466000   0.35591658   -2.5358384   0.53334099   -2.0024974   0.11498841    11472.526     1000 
 1468000   0.35923833    -2.510454   0.53831864   -1.9721353   0.12661482    11379.203     1000 
 1470000   0.35291101   -2.4978467   0.52883715   -1.9690096   0.12745337    11432.119     1000 
 1472000   0.35887593   -2.5096171   0.53777558   -1.9718415   0.12131277    11478.587     1000 
 1474000   0.35501801   -2.5093989   0.53199448   -1.9774044   0.13270438    11391.548     1000 
 1476000   0.34805042    -2.536271   0.52155355   -2.0147175   0.12804643     11461.95     1000 
 1478000   0.36644153    -2.528338   0.54911263   -1.9792253   0.12861443    11438.167     1000 
 1480000   0.36339366   -2.5381684    0.5445454    -1.993623   0.12177108     11465.97     1000 
 1482000   0.35622002    -2.521121    0.5337957   -1.9873253   0.11798629    11521.871     1000 
 1484000   0.35546534   -2.4990849   0.53266481   -1.9664201   0.13867575    11259.429     1000 
 1486000   0.34655833   -2.4963901   0.51931765   -1.9770725   0.12432784    11415.162     1000 
 1488000   0.36014709   -2.5144775   0.53968041   -1.9747971    0.1339661    11315.989     1000 
 1490000   0.34417428   -2.5233431   0.51574516   -2.0075979   0.13431721    11302.023     1000 
 1492000   0.35157023   -2.4906123     0.526828   -1.9637843    0.1351486    11390.916     1000 
 1494000   0.37428585   -2.5277716   0.56086735   -1.9669042   0.11400224    11485.166     1000 
 1496000   0.35564177   -2.5215848   0.53292919   -1.9886556   0.12689306    11475.303     1000 
 1498000   0.35428995    -2.528179   0.53090348   -1.9972755   0.12428677     11385.89     1000 
 1500000   0.37086692   -2.4911298   0.55574409   -1.9353857   0.14738712    11292.488     1000 
 1502000   0.37376069   -2.5650902    0.5600804   -2.0050098   0.12552185    11514.776     1000 
 1504000   0.34929143    -2.479797   0.52341321   -1.9563838   0.11875098    11406.578     1000 
 1506000   0.36569933     -2.51742   0.54800045   -1.9694195   0.12657826    11459.566     1000 
 1508000   0.36213133   -2.5512368    0.5426538    -2.008583   0.12543455    11360.233     1000 
 1510000   0.36677615   -2.5561177   0.54961407   -2.0065037   0.13258238     11392.94     1000 
 1512000   0.34254081   -2.5422929   0.51329741   -2.0289955   0.12695616    11437.528     1000 
 1514000   0.36095757   -2.5243456   0.54089492   -1.9834507   0.13211737    11376.103     1000 
 1516000   0.36126314   -2.5030761   0.54135281   -1.9617233   0.13130841    11363.273     1000 
 1518000   0.35254905   -2.5413642   0.52829476   -2.0130694   0.13157009    11343.949     1000 
 1520000   0.35762378   -2.5205833   0.53589924   -1.9846841   0.12558402    11416.064     1000 
 1522000   0.36160974     -2.57154   0.54187219   -2.0296678    0.1337472    11465.389     1000 
 1524000   0.35793955    -2.551916   0.53637242   -2.0155436   0.12864706    11496.695     1000 
 1526000   0.35394385   -2.4916069   0.53038486    -1.961222    0.1308601    11303.864     1000 
 1528000   0.34858622   -2.5323661   0.52235646   -2.0100097   0.12163907    11418.886     1000 
 1530000   0.38117667   -2.5341286   0.57119324   -1.9629354   0.13503566    11392.042     1000 
 1532000   0.37104107   -2.5508028   0.55600504   -1.9947978   0.12178354    11487.108     1000 
 1534000   0.37465373   -2.5248756   0.56141861    -1.963457   0.12880175    11463.374     1000 
 1536000   0.36073657    -2.533365   0.54056374   -1.9928013   0.12946292    11451.387     1000 
 1538000   0.37699024   -2.5053473   0.56491987   -1.9404274   0.13093432    11362.144     1000 
 1540000   0.36668763   -2.5316492   0.54948141   -1.9821677   0.13211313    11302.732     1000 
 1542000   0.34985175   -2.4984022   0.52425285   -1.9741493   0.11927162    11448.061     1000 
 1544000   0.35763898   -2.5056208   0.53592201   -1.9696988   0.14019367    11327.643     1000 
 1546000   0.36809604   -2.5400103   0.55159191   -1.9884184   0.13117953    11413.535     1000 
 1548000   0.34192007    -2.558575   0.51236723   -2.0462078   0.12199923    11441.375     1000 
 1550000   0.35772136   -2.5449035   0.53604545   -2.0088581   0.11670695    11467.314     1000 
 1552000    0.3611834    -2.548481   0.54123333   -2.0072476   0.14483187     11308.53     1000 
 1554000   0.37920844   -2.5311092   0.56824384   -1.9628653   0.11717032    11513.854     1000 
 1556000   0.35491696   -2.5088982   0.53184307   -1.9770551   0.13386455    11382.085     1000 
 1558000   0.34860287   -2.5343761    0.5223814   -2.0119947   0.14338078    11277.953     1000 
 1560000   0.35677933   -2.5063989   0.53463382   -1.9717651   0.14589371     11197.49     1000 
 1562000   0.36008779   -2.5291308   0.53959156   -1.9895392   0.12564499     11380.37     1000 
 1564000   0.35795852   -2.5047556   0.53640084   -1.9683547   0.13594749    11299.495     1000 
 1566000   0.34930171   -2.5256398   0.52342861   -2.0022112    0.1307753    11349.165     1000 
 1568000   0.35681868   -2.5401627   0.53469279   -2.0054699   0.13075709    11383.521     1000 
 1570000   0.37872967   -2.5343296   0.56752641   -1.9668032   0.12991287    11538.297     1000 
 1572000   0.35915057   -2.5284876   0.53818713   -1.9903004   0.13370261    11330.331     1000 
 1574000   0.35309052    -2.496064   0.52910614   -1.9669579   0.13108067    11320.024     1000 
 1576000   0.36485817   -2.5555133   0.54673996   -2.0087733   0.11533719    11510.629     1000 
 1578000   0.35563732   -2.4994538   0.53292252   -1.9665313   0.13217427     11454.62     1000 
 1580000   0.33826329   -2.5470122   0.50688754   -2.0401247   0.13201027    11438.336     1000 
 1582000   0.34434432      -2.5791   0.51599997      -2.0631     0.134471    11399.485     1000 
 1584000   0.35605696    -2.488158   0.53355136   -1.9546066   0.12518092    11348.031     1000 
 1586000   0.34037536   -2.5260973   0.51005247   -2.0160449     0.127031    11393.787     1000 
 1588000   0.36261752    -2.514408   0.54338235   -1.9710257    0.1298767    11348.878     1000 
[...]
 2614000   0.36978846   -2.5092292     0.554128   -1.9551012   0.13167837    11419.432     1000 
 2616000   0.34884891   -2.5919676   0.52275009   -2.0692175   0.12589331    11435.433     1000 
 2618000    0.3503663   -2.5132113    0.5250239   -1.9881874   0.12981686    11379.989     1000 
 2620000   0.36820486   -2.5122419   0.55175498   -1.9604869   0.14499361    11295.514     1000 
 2622000   0.36337238   -2.5191875   0.54451351    -1.974674   0.12736575    11470.794     1000 
 2624000   0.35020139   -2.5325541   0.52477679   -2.0077773   0.14601417    11274.031     1000 
 2626000   0.36566188   -2.5275992   0.54794433   -1.9796549   0.13176853    11397.087     1000 
 2628000   0.36326597   -2.5524938   0.54435406   -2.0081397   0.11926455    11350.605     1000 
 2630000   0.35447693   -2.5387749   0.53118369   -2.0075912   0.13686091    11353.854     1000 
 2632000   0.39126428   -2.4793999   0.58630953   -1.8930903   0.13455492    11325.207     1000 
 2634000   0.35772844   -2.5459098   0.53605607   -2.0098537   0.12845071     11327.26     1000 
 2636000   0.34692309   -2.5354408   0.51986425   -2.0155766   0.12684442    11448.537     1000 
 2638000   0.36775426   -2.5110913   0.55107976   -1.9600115   0.13602789    11259.615     1000 
 2640000   0.37429735   -2.5823584   0.56088458   -2.0214738   0.12249061    11508.724     1000 
 2642000   0.35974264   -2.5313895   0.53907435   -1.9923152   0.12962008    11404.299     1000 
 2644000   0.36857388   -2.5203259   0.55230796   -1.9680179    0.1333438    11389.723     1000 
 2646000   0.35421983   -2.5471507   0.53079841   -2.0163523   0.13746438    11355.431     1000 
 2648000    0.3515882   -2.5347617   0.52685491   -2.0079068   0.13354123    11404.483     1000 
 2650000   0.35504488   -2.5798008   0.53203475    -2.047766   0.12751841    11514.714     1000 
 2652000   0.36077237   -2.5368684    0.5406174    -1.996251   0.12174858    11511.408     1000 
 2654000   0.35786226   -2.5042788    0.5362566   -1.9680222   0.13549113    11344.007     1000 
 2656000    0.3554556   -2.5261819   0.53265022   -1.9935317   0.12451307    11444.091     1000 
 2658000   0.38232454   -2.5285782   0.57291332   -1.9556649   0.12607763    11388.235     1000 
 2660000   0.34948308   -2.5212422   0.52370039   -1.9975418   0.13208464    11354.361     1000 
 2662000   0.35546513   -2.5162472    0.5326645   -1.9835827   0.12676579    11448.785     1000 
 2664000   0.36649573    -2.516793   0.54919385   -1.9675991   0.13205968    11387.753     1000 
 2666000   0.35635854   -2.5525881   0.53400328   -2.0185848    0.1237848    11404.287     1000 
 2668000   0.35390748   -2.5502572   0.53033035   -2.0199268   0.12693049     11359.09     1000 
 2670000   0.34836036   -2.5396961     0.522018   -2.0176781    0.1296746     11412.82     1000 
 2672000   0.35290923   -2.5153606   0.52883448   -1.9865261   0.13006336    11420.903     1000 
 2674000   0.36313225    -2.502504   0.54415368   -1.9583503   0.13160319     11452.32     1000 
 2676000   0.36867679   -2.5294214   0.55246216   -1.9769592     0.126201    11407.471     1000 
 2678000   0.35486012   -2.5143743   0.53175789   -1.9826165   0.12737606    11418.055     1000 
 2680000   0.35527006   -2.5339121   0.53237219   -2.0015399   0.13361144      11447.6     1000 
 2682000   0.36012061   -2.5350526   0.53964074   -1.9954118   0.12782208    11379.659     1000 
 2684000   0.36339687   -2.5331389   0.54455021   -1.9885887   0.12308421    11422.902     1000 
 2686000   0.36311469    -2.503103   0.54412737   -1.9589756   0.13913154    11407.081     1000 
 2688000   0.36906332   -2.5111571   0.55304139   -1.9581157   0.13344249    11314.855     1000 
 2690000   0.34770365   -2.5127994   0.52103392   -1.9917655   0.12911258    11411.932     1000 
 2692000   0.36423682   -2.5187718   0.54580888   -1.9729629   0.13412979    11397.496     1000 
 2694000   0.34989562   -2.5531796   0.52431858    -2.028861   0.12141605    11502.713     1000 
 2696000    0.3621582   -2.5007438   0.54269407   -1.9580497   0.14290398    11326.544     1000 
 2698000   0.36111501   -2.5022173   0.54113084   -1.9610864    0.1319057    11332.292     1000 
 2700000    0.3605017   -2.5107618    0.5402118     -1.97055   0.13059537     11302.41     1000 
 2702000   0.35632918    -2.521053   0.53395927   -1.9870937   0.13799935    11472.099     1000 
 2704000   0.35877922    -2.522311   0.53763067   -1.9846804   0.12293924    11466.566     1000 
 2706000   0.34885092   -2.5065557    0.5227531   -1.9838026    0.1262219    11392.596     1000 
 2708000   0.34691801   -2.5285881   0.51985664   -2.0087315    0.1369098    11334.305     1000 
 2710000   0.36808728   -2.5325001   0.55157878   -1.9809213   0.12999906    11366.563     1000 
 2712000   0.37205089   -2.5211245   0.55751826   -1.9636063   0.13548852     11281.23     1000 
 2714000    0.3802394   -2.5090643   0.56978874   -1.9392756   0.14479918    11291.475     1000 
 2716000   0.34858495   -2.5604673   0.52235454   -2.0381128   0.11895326    11510.481     1000 
 2718000   0.36095885   -2.5105389   0.54089684    -1.969642   0.14496215    11143.338     1000 
 2720000   0.35556012   -2.5312753   0.53280684   -1.9984685   0.13804871    11297.083     1000 
 2722000   0.34582153   -2.5540933   0.51821357   -2.0358798    0.1204496     11520.92     1000 
 2724000   0.37429244   -2.4935063   0.56087722    -1.932629   0.12827509    11303.812     1000 
 2726000    0.3683537    -2.494528   0.55197802     -1.94255   0.13400986     11377.59     1000 
 2728000   0.35261465   -2.5084976   0.52839305   -1.9801045   0.11140489     11529.05     1000 
 2730000   0.38697742   -2.5676762   0.57988567   -1.9877906   0.13403539    11407.597     1000 
 2732000   0.37074676   -2.5483897   0.55556401   -1.9928257   0.13394601    11370.388     1000 
 2734000   0.34567482   -2.5578978   0.51799371   -2.0399041    0.1300188    11395.249     1000 
 2736000   0.35088739   -2.5003388   0.52580476    -1.974534   0.12104432    11440.825     1000 
 2738000   0.34888581   -2.4756124   0.52280539    -1.952807   0.13362638    11344.665     1000 
 2740000   0.36324981   -2.5121723   0.54432984   -1.9678424    0.1235751    11445.753     1000 
 2742000   0.33948879    -2.539812   0.50872396    -2.031088   0.13340595    11351.644     1000 
 2744000   0.34825518   -2.5181347   0.52186039   -1.9962744   0.12600362    11366.535     1000 
 2746000   0.36757543   -2.4989356   0.55081178   -1.9481239   0.12961094    11377.668     1000 
 2748000    0.3638176   -2.5139861   0.54518068   -1.9688054   0.13786406    11285.423     1000 
 2750000   0.35047876    -2.493128   0.52519242   -1.9679356   0.13463343    11313.392     1000 
 2752000   0.36451394   -2.5149552   0.54622414   -1.9687311   0.12859054    11452.251     1000 
 2754000   0.35676362   -2.5670446   0.53461028   -2.0324343   0.12438535    11454.349     1000 
 2756000   0.35513745    -2.525798   0.53217347   -1.9936245   0.13064713    11382.056     1000 
 2758000   0.36140156   -2.5477245   0.54156023   -2.0061643   0.12702708    11445.618     1000 
 2760000   0.35915303     -2.49783   0.53819082   -1.9596392   0.12574786     11484.65     1000 
 2762000   0.36802905   -2.5340213   0.55149154   -1.9825297   0.11837176    11500.324     1000 
 2764000   0.36087856   -2.4757375   0.54077652    -1.934961   0.14600938    11244.748     1000 
 2766000   0.35943858   -2.5144574   0.53861871   -1.9758387    0.1313015    11371.969     1000 
 2768000   0.36774073    -2.533307   0.55105948   -1.9822476   0.13012094     11382.19     1000 
 2770000   0.35815377    -2.536564   0.53669343   -1.9998705   0.12380334     11367.12     1000 
 2772000   0.34712334   -2.5138478   0.52016432   -1.9936835    0.1193921    11429.454     1000 
 2774000   0.38679728   -2.5245054   0.57961573   -1.9448896   0.14251213    11295.074     1000 
 2776000   0.36953147   -2.5112224   0.55374291   -1.9574795   0.12977631     11358.91     1000 
 2778000    0.3557956   -2.5010039    0.5331597   -1.9678442   0.13428567    11323.359     1000 
 2780000   0.35447461   -2.5067284    0.5311802   -1.9755482   0.12728196    11398.435     1000 
 2782000   0.35110413   -2.4912967   0.52612954   -1.9651672   0.14032919    11176.309     1000 
 2784000   0.35960963   -2.5249746   0.53887503   -1.9860995   0.12395426    11404.781     1000 
 2786000    0.3775417    -2.558711   0.56574624   -1.9929648   0.13139965    11439.803     1000 
 2788000   0.35149602   -2.5076815   0.52671679   -1.9809647   0.12017714    11463.411     1000 
 2790000   0.37113714   -2.5233671   0.55614901   -1.9672181   0.12781189    11444.535     1000 
 2792000   0.36190013   -2.5590118   0.54230734   -2.0167045    0.1217231    11472.152     1000 
 2794000   0.36964813    -2.507588   0.55391773   -1.9536703   0.12681574    11325.271     1000 
 2796000   0.34363656   -2.5209395   0.51493938   -2.0060001   0.12826089    11433.857     1000 
 2798000   0.35181305   -2.5106538   0.52719186    -1.983462   0.12517201    11418.233     1000 
 2800000   0.35302085   -2.5312879   0.52900174   -2.0022862   0.12464317    11412.857     1000 
 2802000   0.36550089   -2.5290738   0.54770309   -1.9813707   0.13735761    11299.979     1000 
 2804000   0.36777692   -2.5873377   0.55111372    -2.036224   0.14012594    11384.476     1000 
 2806000   0.35460349   -2.5151481   0.53137333   -1.9837748   0.13268239    11375.263     1000 
 2808000   0.35617247    -2.573947   0.53372445   -2.0402225   0.12843677    11480.221     1000 
 2810000   0.36121454   -2.5217497   0.54127998   -1.9804698   0.13863588    11301.969     1000 
 2812000   0.35351636   -2.5374459   0.52974426   -2.0077017    0.1247662    11399.297     1000 
 2814000   0.37734492   -2.5444199   0.56545136   -1.9789685   0.12915814    11416.955     1000 
 2816000   0.36242067   -2.5225875   0.54308738   -1.9795001   0.11156603    11604.832     1000 
 2818000   0.34236925   -2.4873906   0.51304032   -1.9743502   0.12808227    11396.421     1000 
 2820000   0.33835194    -2.529345   0.50702039   -2.0223246   0.12553994    11364.036     1000 
 2822000    0.3510159   -2.5613361   0.52599732   -2.0353388   0.12440637    11503.576     1000 
 2824000   0.35160768     -2.53626   0.52688411   -2.0093759   0.11763197    11482.228     1000 
 2826000   0.36708932   -2.5294521   0.55008335   -1.9793687   0.13593263    11272.358     1000 
 2828000   0.34671897   -2.5348485   0.51955838   -2.0152901    0.1277185    11394.203     1000 
 2830000   0.36075147   -2.5395303   0.54058608   -1.9989442   0.11999649    11552.606     1000 
 2832000   0.36270918   -2.5068652    0.5435197   -1.9633455   0.13820072    11277.472     1000 
 2834000    0.3697975   -2.5205277   0.55414155   -1.9663861   0.13422777    11413.794     1000 
 2836000   0.37680967   -2.5573075   0.56464929   -1.9926582   0.12706891    11425.084     1000 
 2838000   0.36229915   -2.5075547   0.54290527   -1.9646494   0.13746877    11276.295     1000 
 2840000   0.36844088   -2.5063867   0.55210867    -1.954278   0.12759713    11404.171     1000 
 2842000   0.36178331   -2.5224209   0.54213229   -1.9802886   0.13324027    11415.646     1000 
 2844000   0.34966577    -2.503497   0.52397416   -1.9795228   0.13629114    11265.459     1000 
 2846000   0.36086897   -2.5127901   0.54076216   -1.9720279   0.13231942    11311.379     1000 
 2848000   0.35487145   -2.5181454   0.53177487   -1.9863706    0.1289077    11369.674     1000 
 2850000   0.34739132   -2.5309793   0.52056589   -2.0104134   0.13200339    11361.653     1000 
 2852000   0.35979113    -2.499203   0.53914701    -1.960056   0.12987598    11409.094     1000 
 2854000   0.36397307   -2.5271093   0.54541365   -1.9816956   0.13085165     11413.33     1000 
 2856000   0.37393999   -2.5121594   0.56034908   -1.9518103   0.13769425    11329.931     1000 
 2858000   0.36404007   -2.5180282   0.54551405   -1.9725142   0.13623448    11328.106     1000 
 2860000   0.36786988   -2.5203969   0.55125302   -1.9691438   0.14322199    11328.694     1000 
 2862000   0.36500703   -2.5032816   0.54696304   -1.9563185   0.13099267    11405.759     1000 
 2864000   0.36176701   -2.4984189   0.54210787   -1.9563111   0.12438025    11438.649     1000 
 2866000   0.34715811   -2.4997952   0.52021644   -1.9795787   0.13663571    11326.619     1000 
 2868000   0.36500571     -2.54633   0.54696106   -1.9993689   0.12207409    11401.442     1000 
 2870000   0.37252673   -2.5368341   0.55823131   -1.9786028   0.14047727    11254.666     1000 
 2872000   0.35013319   -2.5405928   0.52467458   -2.0159182   0.12432047    11435.977     1000 
 2874000    0.3741521   -2.5507822   0.56066692   -1.9901153   0.12265825    11403.132     1000 
 2876000   0.35110478   -2.5330379   0.52613052   -2.0069074   0.12961864    11379.827     1000 
 2878000   0.35739763   -2.5439621   0.53556034   -2.0084018   0.13726644    11368.613     1000 
 2880000   0.35506587    -2.551916    0.5320662   -2.0198498   0.12157039    11466.391     1000 
 2882000   0.36277748   -2.5609271   0.54362206   -2.0173051   0.14112894    11327.846     1000 
 2884000   0.36130403   -2.5535561   0.54141409    -2.012142   0.11925723    11439.238     1000 
 2886000     0.368236   -2.5015273   0.55180164   -1.9497257   0.13421453    11368.752     1000 
 2888000   0.36757054   -2.5404586   0.55080445   -1.9896542   0.11696813     11454.88     1000 
 2890000   0.35650014   -2.4944304   0.53421546   -1.9602149   0.14391705    11322.004     1000 
 2892000   0.36080993    -2.535965   0.54067368   -1.9952914   0.12949224    11537.313     1000 
 2894000   0.35450177    -2.525977   0.53122091   -1.9947561   0.13094639    11365.748     1000 
 2896000   0.36290342   -2.5077625   0.54381077   -1.9639517   0.13064425    11459.374     1000 
 2898000   0.36034025   -2.5509057   0.53996986   -2.0109359    0.1343543    11379.551     1000 
 2900000   0.36365652    -2.505507    0.5449393   -1.9605677   0.13825961    11328.139     1000 
 2902000   0.35672895   -2.5339392   0.53455832   -1.9993809   0.12227234    11468.093     1000 
 2904000   0.36011306    -2.506076   0.53962942   -1.9664466   0.13611695    11300.783     1000 
 2906000   0.37039321   -2.4977956   0.55503423   -1.9427614   0.12572266    11342.716     1000 
 2908000   0.35570604   -2.5500586   0.53302549   -2.0170331   0.12783461    11368.381     1000 
 2910000   0.35501032   -2.5544421   0.53198296   -2.0224591    0.1166319    11509.372     1000 
 2912000   0.36459547   -2.5212446   0.54634631   -1.9748983   0.12536064    11377.831     1000 
 2914000   0.36277921   -2.5261473   0.54362464   -1.9825226   0.12451905    11363.084     1000 
 2916000   0.35462816   -2.5448306    0.5314103   -2.0134203   0.12819747    11432.832     1000 
 2918000    0.3757824   -2.5364387   0.56310993   -1.9733288   0.12875433    11469.134     1000 
 2920000   0.35043763   -2.5304375   0.52513079   -2.0053067   0.13282655    11304.878     1000 
 2922000   0.35879275    -2.491427   0.53765094   -1.9537761   0.12763765    11371.522     1000 
 2924000    0.3656234   -2.5439172   0.54788666   -1.9960306   0.12081253    11454.787     1000 
 2926000   0.35899278   -2.5416499   0.53795068   -2.0036992   0.12323247    11362.498     1000 
 2928000    0.3481647    -2.536464    0.5217248   -2.0147392   0.13674606    11315.111     1000 
 2930000   0.35956892   -2.4986057   0.53881402   -1.9597917   0.13262986    11337.319     1000 
 2932000   0.35080272   -2.5081373   0.52567788   -1.9824595   0.10964033    11586.111     1000 
 2934000   0.36379635   -2.5436169   0.54514883   -1.9984681   0.12975429    11364.252     1000 
 2936000   0.36427042    -2.515666   0.54585922   -1.9698068   0.13502799    11353.468     1000 
 2938000   0.36643961   -2.5434023   0.54910976   -1.9942925   0.12677145    11380.713     1000 
 2940000   0.35560985    -2.542882   0.53288136   -2.0100006    0.1340592     11344.13     1000 
 2942000   0.37940835   -2.5651783   0.56854341   -1.9966349   0.14285995    11368.459     1000 
 2944000   0.35137795   -2.5862352   0.52653985   -2.0596953   0.11581455    11547.694     1000 
 2946000   0.35688445   -2.5140891   0.53479135   -1.9792977   0.12578978    11440.507     1000 
 2948000   0.35309223   -2.4899463   0.52910871   -1.9608376   0.13948127    11391.693     1000 
 2950000   0.35395697   -2.5316624   0.53040452   -2.0012579   0.12514422    11388.059     1000 
 2952000    0.3663684   -2.5279327   0.54900304   -1.9789297       0.1294    11478.116     1000 
 2954000   0.35682676   -2.5197786    0.5347049   -1.9850737    0.1462602    11260.612     1000 
 2956000   0.35830332    -2.480238   0.53691752   -1.9433205   0.15043035    11237.346     1000 
 2958000   0.37141117   -2.4366623   0.55655964   -1.8801026   0.13682972    11232.487     1000 
 2960000    0.3646494   -2.4920187   0.54642713   -1.9455915   0.14938605     11342.86     1000 
 2962000   0.36034738   -2.5094346   0.53998055    -1.969454   0.12512656    11457.791     1000 
 2964000   0.36575367   -2.5218113   0.54808188   -1.9737294   0.14103874    11290.277     1000 
 2966000   0.35031093   -2.5277718   0.52494093   -2.0028309   0.13245652    11379.647     1000 
 2968000   0.36797742   -2.4887267   0.55141416   -1.9373126   0.13193964    11456.324     1000 
 2970000   0.35910627   -2.6000312   0.53812074   -2.0619104   0.12486986     11431.85     1000 
 2972000   0.34589002   -2.5164315   0.51831619   -1.9981153   0.13603325    11320.076     1000 
 2974000    0.3515483   -2.5471967   0.52679512   -2.0204016   0.13210385    11418.726     1000 
 2976000   0.35841529   -2.5371555   0.53708531   -2.0000702   0.13362173     11396.46     1000 
 2978000   0.36265172   -2.5158456    0.5434336    -1.972412   0.13775297    11393.003     1000 
 2980000   0.36118073   -2.4890755   0.54122932   -1.9478461   0.14065143    11225.968     1000 
 2982000   0.34756069   -2.5336016   0.52081969   -2.0127819   0.11916419    11445.334     1000 
 2984000   0.37729414   -2.5056771   0.56537526   -1.9403018   0.11701865    11500.001     1000 
 2986000   0.34562839    -2.562927   0.51792414   -2.0450028   0.12751236    11411.922     1000 
 2988000   0.36475416    -2.549992   0.54658411   -2.0034079   0.12344125    11413.659     1000 
 2990000   0.35852028   -2.5522391   0.53724264   -2.0149965   0.14079019    11368.532     1000 
 2992000   0.35000963   -2.5347953   0.52448943   -2.0103059    0.1303967    11385.299     1000 
 2994000   0.37146704   -2.4866283   0.55664336   -1.9299849   0.13048133    11353.085     1000 
 2996000    0.3644965   -2.4918652   0.54619801   -1.9456671   0.13116422     11332.61     1000 
 2998000   0.36223609   -2.5442151   0.54281078   -2.0014043   0.11337607     11520.35     1000 
 3000000   0.37595949   -2.5458487    0.5633753   -1.9824734   0.13458443    11393.769     1000 
Loop time of 1160.16 on 1 procs for 3000000 steps with 1000 atoms

Performance: 1117089.128 tau/day, 2585.854 timesteps/s
100.0% CPU use with 1 MPI tasks x 1 OpenMP threads

MPI task timing breakdown:
Section |  min time  |  avg time  |  max time  |%varavg| %total
---------------------------------------------------------------
Pair    | 914.68     | 914.68     | 914.68     |   0.0 | 78.84
Neigh   | 143.51     | 143.51     | 143.51     |   0.0 | 12.37
Comm    | 23.884     | 23.884     | 23.884     |   0.0 |  2.06
Output  | 0.017705   | 0.017705   | 0.017705   |   0.0 |  0.00
Modify  | 72.791     | 72.791     | 72.791     |   0.0 |  6.27
Other   |            | 5.277      |            |       |  0.45

Nlocal:        1000.00 ave        1000 max        1000 min
Histogram: 1 0 0 0 0 0 0 0 0 0
Nghost:        2198.00 ave        2198 max        2198 min
Histogram: 1 0 0 0 0 0 0 0 0 0
Neighs:        27705.0 ave       27705 max       27705 min
Histogram: 1 0 0 0 0 0 0 0 0 0

Total # of neighbors = 27705
Ave neighs/atom = 27.705000
Neighbor list builds = 150000
Dangerous builds not checked

Total wall time: 0:19:20
