LAMMPS (29 Sep 2021 - Update 2)
OMP_NUM_THREADS environment is not set. Defaulting to 1 thread. (src/comm.cpp:98)
  using 1 OpenMP thread(s) per MPI task
# ----------------------- Inicialização -----------------------

units			lj
atom_style 		atomic
dimension 		3
boundary 		p p p

# -------------------- Criação dos Átomos ---------------------

read_data 		topologia.txt
Reading data file ...
  orthogonal box = (0.0000000 0.0000000 0.0000000) to (21.540000 21.540000 21.540000)
  1 by 1 by 1 MPI processor grid
  reading atoms ...
  1000 atoms
  read_data CPU = 0.002 seconds

velocity 		all create ${temp} 87287 rot yes dist gaussian
velocity 		all create 0.43 87287 rot yes dist gaussian

# ------------------ Interação Interatômica -------------------

pair_style		table linear 2000
pair_coeff		1 1 force.table AA 10.0
WARNING: 3 of 2000 force values in table AA are inconsistent with -dE/dr.
WARNING:  Should only be flagged at inflection points (src/pair_table.cpp:465)
pair_coeff		1 2 force.table AB 10.0
WARNING: 1 of 2000 force values in table AB are inconsistent with -dE/dr.
WARNING:  Should only be flagged at inflection points (src/pair_table.cpp:465)
pair_coeff		2 2 force.table BB 10.0
pair_write		1 1 2000 r 0.008 10.0 table.check AA
Appending to table file table.check with DATE: 2023-07-15
Neighbor list info ...
  update every 1 steps, delay 10 steps, check yes
  max neighbors/atom: 2000, page size: 100000
  master list distance cutoff = 10.3
  ghost atom cutoff = 10.3
  binsize = 5.15, bins = 5 5 5
  1 neighbor lists, perpetual/occasional/extra = 1 0 0
  (1) pair table, perpetual
      attributes: half, newton on
      pair build: half/bin/atomonly/newton
      stencil: half/bin/3d
      bin: standard
pair_write		1 2 2000 r 0.008 10.0 table.check AB
Appending to table file table.check with DATE: 2023-07-15
pair_write		2 2 2000 r 0.008 10.0 table.check BB
Appending to table file table.check with DATE: 2023-07-15

neighbor 		0.3 bin
neigh_modify		every 20 delay 0 check no

# ------------------------- Ensemble --------------------------------------

fix 1			all npt temp ${temp} ${temp} 0.5 iso ${press} ${press} 5
fix 1			all npt temp 0.43 ${temp} 0.5 iso ${press} ${press} 5
fix 1			all npt temp 0.43 0.43 0.5 iso ${press} ${press} 5
fix 1			all npt temp 0.43 0.43 0.5 iso 0.13 ${press} 5
fix 1			all npt temp 0.43 0.43 0.5 iso 0.13 0.13 5

# ---------------------- Função de Distribuição Radial -----------------------

#compute RDF 		all rdf 2000 1 1 1 2 2 2
#fix 2 			all ave/time 1 2000 2000 c_RDF[*] file rdf.data mode vector

# ------------------------- Execução ---------------------------

timestep 		0.005
thermo_style		custom step temp pe ke etotal press vol atoms
thermo			2000
run			3000000
Per MPI rank memory allocation (min/avg/max) = 3.614 | 3.614 | 3.614 Mbytes
Step Temp PotEng KinEng TotEng Press Volume Atoms 
       0         0.43    2.0189057     0.644355    2.6632607    1.9968258    9993.9483     1000 
    2000   0.43356187   -2.9152699   0.64969247   -2.2655774    0.1328547    11157.257     1000 
    4000   0.43755013   -2.9331379   0.65566887    -2.277469   0.12196294     11047.52     1000 
    6000   0.42899676   -2.9651709   0.64285164   -2.3223193    0.1348469    10900.655     1000 
    8000   0.42552764   -2.9408842   0.63765316    -2.303231    0.1307283    10932.879     1000 
   10000   0.43681635   -2.9701366    0.6545693   -2.3155673   0.12944842    11008.229     1000 
   12000   0.40937165   -2.9248517   0.61344342   -2.3114083   0.11964499    10912.893     1000 
   14000   0.43334899   -2.9991626   0.64937346   -2.3497891   0.13557913    10679.058     1000 
   16000   0.43819312   -3.0026532    0.6566324   -2.3460209   0.13678307    10956.745     1000 
   18000   0.42533956   -3.0033446   0.63737133   -2.3659733   0.12009815    10861.516     1000 
   20000   0.42202504    -2.970775   0.63240453   -2.3383705   0.13713932    10847.705     1000 
   22000   0.42522785   -2.9835871   0.63720394   -2.3463832   0.13948985    10630.823     1000 
   24000   0.44442429   -2.9397131   0.66596979   -2.2737434   0.14010866    10836.052     1000 
   26000   0.43021792   -2.9493641   0.64468155   -2.3046825   0.13653872    10861.798     1000 
   28000   0.42050187   -2.9758495   0.63012205   -2.3457274   0.13277961    10762.915     1000 
   30000   0.43442068   -2.9743225   0.65097939   -2.3233431   0.13309076    10626.815     1000 
   32000   0.43324584   -2.9335022    0.6492189   -2.2842833   0.12001745    10722.264     1000 
   34000   0.43682599   -2.9550363   0.65458374   -2.3004526   0.13237125    10762.254     1000 
   36000   0.41828395    -2.954989    0.6267985   -2.3281905    0.1172633    11008.263     1000 
   38000   0.44325358   -2.9706239   0.66421548   -2.3064084   0.13483519    10856.017     1000 
   40000   0.43114801    -2.990496   0.64607529   -2.3444207   0.12265062    10956.933     1000 
   42000   0.41681327   -2.9740068   0.62459469   -2.3494121   0.12085632    10892.816     1000 
   44000   0.42218635   -2.9979029   0.63264624   -2.3652567   0.12114807    10931.849     1000 
   46000   0.43005122   -2.9303618   0.64443175   -2.2859301   0.13941879    10543.196     1000 
   48000   0.42420386   -2.9348698   0.63566949   -2.2992003   0.12985021    10765.211     1000 
   50000   0.41514388   -2.9712282    0.6220931   -2.3491351    0.1300468    10814.298     1000 
   52000   0.43842216    -2.946316   0.65697561   -2.2893404   0.14306071    10759.376     1000 
   54000   0.44245534   -2.9951372   0.66301932   -2.3321179    0.1275814    10894.248     1000 
   56000   0.41902458   -2.9523279   0.62790833   -2.3244196   0.12784807    10843.863     1000 
   58000   0.44083788   -2.9664736   0.66059556    -2.305878   0.12073816    10938.357     1000 
   60000   0.42905382    -3.003923   0.64293714   -2.3609859   0.13402702    10840.366     1000 
   62000    0.4327816    -2.987385   0.64852322   -2.3388618   0.13915341    10793.968     1000 
   64000   0.42003826    -2.942999   0.62942733   -2.3135717   0.13747286    10752.703     1000 
   66000   0.43032233   -2.9520452   0.64483802   -2.3072072   0.12924926    10791.676     1000 
   68000   0.42786575   -3.0032243   0.64115682   -2.3620675   0.10047953    11046.772     1000 
   70000    0.4083802   -2.9385987   0.61195774   -2.3266409   0.11797681    10875.067     1000 
   72000   0.42700927   -2.9644408   0.63987339   -2.3245675   0.14536868    10780.402     1000 
   74000   0.44194197   -3.0141034   0.66225004   -2.3518533   0.13485605    10920.782     1000 
   76000   0.42319245   -2.9269073   0.63415389   -2.2927534   0.13546042    10825.279     1000 
   78000   0.42524826   -2.9260711   0.63723452   -2.2888366   0.13130967    10683.097     1000 
   80000   0.42520695   -2.9835257   0.63717261   -2.3463531   0.12693684    10927.891     1000 
   82000   0.43704837   -2.9974979   0.65491698   -2.3425809   0.11194415    11027.504     1000 
   84000   0.43311764   -2.9483391   0.64902678   -2.2993124   0.12817512    10801.601     1000 
   86000   0.43171764   -2.9742223   0.64692888   -2.3272934   0.12146634    10850.485     1000 
   88000   0.43801943   -2.9829876   0.65637211   -2.3266155   0.15232677    10728.825     1000 
   90000   0.42051182   -2.9966803   0.63013696   -2.3665433   0.12332247    10837.621     1000 
   92000   0.43565805   -2.9415375    0.6528336   -2.2887039   0.12283782    10883.458     1000 
   94000   0.43129938   -2.9511983   0.64630212   -2.3048962   0.12677453    10765.431     1000 
   96000   0.43201491   -2.9815417   0.64737435   -2.3341674   0.14082592    10853.668     1000 
   98000   0.43230044   -2.9630701   0.64780221   -2.3152679    0.1263583     10873.69     1000 
  100000   0.42636895    -2.956502   0.63891387   -2.3175881   0.12477385     10714.74     1000 
  102000   0.42204731   -2.9634853   0.63243789   -2.3310474   0.12609055    10841.003     1000 
  104000   0.45941375   -2.9448327    0.6884315   -2.2564012   0.12932019     10655.01     1000 
  106000   0.42847478    -2.918552   0.64206946   -2.2764825   0.12551515     10736.81     1000 
  108000    0.4308797   -2.9646761   0.64567323   -2.3190029   0.14356393    10878.636     1000 
  110000   0.41292395   -3.0017701   0.61876654   -2.3830036   0.12036032    10810.084     1000 
  112000   0.41978082   -2.9265084   0.62904157   -2.2974668   0.13879798    10851.417     1000 
  114000   0.40831914   -2.9979555   0.61186623   -2.3860893   0.13906546    11027.494     1000 
  116000   0.42991965   -2.9932766   0.64423459    -2.349042   0.13013438    10909.561     1000 
  118000   0.42919937   -2.9795819   0.64315525   -2.3364266   0.13703971    10840.101     1000 
  120000   0.41579827   -2.9529762   0.62307371   -2.3299025   0.12716851    10896.851     1000 
  122000   0.42448815   -2.9422627   0.63609549   -2.3061672   0.13849661    10746.756     1000 
  124000   0.43861239   -2.9517802   0.65726067   -2.2945195   0.12320829    10976.575     1000 
  126000   0.42862833   -2.9823688   0.64229956   -2.3400692    0.1265159    10927.853     1000 
  128000   0.41017423   -2.9395551   0.61464609   -2.3249091   0.12407075    10775.874     1000 
  130000   0.43464777   -2.9202828   0.65131968   -2.2689631   0.13764409    10642.178     1000 
  132000   0.44131551    -3.022154   0.66131129   -2.3608427    0.1184569    11016.895     1000 
  134000   0.42220099   -2.9452031   0.63266819   -2.3125349   0.12239063    10962.558     1000 
  136000   0.42419533   -2.9995976    0.6356567   -2.3639409   0.13600287    10894.495     1000 
  138000   0.41995732   -3.0154801   0.62930605    -2.386174   0.13116643    10906.781     1000 
  140000   0.45332733   -2.9769835     0.679311   -2.2976725   0.12868876     10997.03     1000 
  142000   0.41565577   -2.9870522   0.62286017   -2.3641921   0.13848571    10928.758     1000 
  144000   0.42635446   -2.9840742   0.63889216   -2.3451821   0.13296669    10841.549     1000 
  146000    0.4375202   -2.9605809   0.65562402   -2.3049569   0.14313789     10772.88     1000 
  148000   0.44638713   -2.9912431   0.66891111    -2.322332   0.13982768    10816.465     1000 
  150000   0.44951173   -3.0127622   0.67359333   -2.3391688   0.12173634    10983.124     1000 
  152000   0.44051099   -2.9746061   0.66010572   -2.3145004   0.12200651      10891.6     1000 
  154000   0.43558821   -2.9225818   0.65272893   -2.2698529   0.13411064     10712.78     1000 
  156000    0.4353224   -3.0396238   0.65233061   -2.3872932   0.12925152    10758.762     1000 
  158000   0.45326615   -2.9994176   0.67921932   -2.3201983   0.11865593    11052.292     1000 
  160000   0.44632348   -2.9508468   0.66881573    -2.282031   0.13595943    10732.722     1000 
  162000   0.42734989   -2.9499851   0.64038381   -2.3096013   0.13094557    10844.287     1000 
  164000   0.42988807   -2.9399255   0.64418727   -2.2957383   0.14576962    10701.868     1000 
  166000   0.44414002    -2.899728   0.66554382   -2.2341842   0.14061468    10698.997     1000 
  168000   0.42893955   -2.9432087   0.64276592   -2.3004428   0.12091749    10771.091     1000 
  170000   0.42221158   -2.9797832   0.63268405   -2.3470992   0.13125095     10933.28     1000 
  172000   0.42554428   -2.9990965   0.63767811   -2.3614184   0.12244311    10994.176     1000 
  174000   0.42746372   -3.0080961   0.64055438   -2.3675417   0.12693745    10995.978     1000 
  176000   0.43413199   -2.9544977   0.65054678   -2.3039509   0.13587351    10922.586     1000 
  178000   0.40567774   -2.9551413    0.6079081   -2.3472332   0.11137284    10925.168     1000 
  180000   0.41746468   -2.9578748   0.62557082   -2.3323039   0.12748378    10799.851     1000 
  182000   0.41322127   -2.9119895   0.61921207   -2.2927774    0.1320758    10707.769     1000 
  184000   0.46871028   -2.9217812   0.70236236   -2.2194188   0.14405607    10825.803     1000 
  186000   0.42981386   -2.9884936   0.64407606   -2.3444175   0.13112704    10949.529     1000 
  188000   0.40985347   -2.9199101   0.61416542   -2.3057447   0.13936254     10741.23     1000 
  190000   0.44407211   -2.9819445   0.66544206   -2.3165024   0.14027528      10770.9     1000 
  192000   0.44200427   -2.9465418    0.6623434   -2.2841984    0.1170959    10988.965     1000 
  194000   0.44018579    -2.940279   0.65961841   -2.2806606   0.13323045    10656.555     1000 
  196000   0.40864089    -2.921203   0.61234838   -2.3088546   0.12968307    10700.323     1000 
  198000   0.41685209    -2.959137   0.62465286   -2.3344841   0.13599926    10778.316     1000 
  200000   0.41623668   -3.0191344   0.62373066   -2.3954037   0.13348179     11023.46     1000 
  202000   0.44550797     -2.96968   0.66759369   -2.3020863   0.11614165    10903.425     1000 
  204000   0.43644331   -2.9173132    0.6540103   -2.2633029    0.1348168    10692.327     1000 
  206000   0.43479107   -2.9648236   0.65153442   -2.3132892   0.14067372    10678.046     1000 
  208000   0.45145972   -2.9572088   0.67651239   -2.2806964   0.13292406    10832.536     1000 
  210000   0.42601608   -3.0007325   0.63838509   -2.3623475   0.13841264    10799.847     1000 
  212000   0.43838487   -2.9656232   0.65691972   -2.3087035    0.1264175    10852.858     1000 
  214000   0.43430066   -2.9275191   0.65079954   -2.2767195   0.13532087    10818.525     1000 
  216000   0.41809454    -2.960435   0.62651467   -2.3339203   0.13614831    10800.127     1000 
  218000    0.4084371   -2.9637076   0.61204299   -2.3516646   0.12877658    10775.972     1000 
  220000   0.42742345   -2.9496983   0.64049404   -2.3092043   0.12877084    10739.256     1000 
  222000   0.42476678   -3.0085994   0.63651303   -2.3720864   0.12755476    10912.192     1000 
  224000   0.42262788   -2.9569097   0.63330787   -2.3236018   0.13153884    10900.556     1000 
  226000   0.42162281   -2.9309088   0.63180178    -2.299107   0.12867012    10783.179     1000 
  228000   0.42628168    -2.958834   0.63878309    -2.320051   0.13150253    10781.044     1000 
  230000   0.41100672   -2.9695176   0.61589356    -2.353624   0.13449171    10719.947     1000 
  232000   0.43579505   -2.9253911   0.65303888   -2.2723522   0.13918075    10800.062     1000 
  234000   0.42515934   -2.9801602   0.63710127   -2.3430589   0.12169849    10897.816     1000 
  236000   0.40848102   -2.9293791   0.61210881   -2.3172702   0.13955963     10642.51     1000 
  238000   0.43670851   -2.9747654    0.6544077   -2.3203577   0.13874736    10786.588     1000 
  240000   0.44890221   -3.0027223   0.67267996   -2.3300423   0.12807106    10880.406     1000 
  242000   0.43419098   -2.9537068   0.65063518   -2.3030716   0.16379368    10742.204     1000 
  244000   0.41503355   -2.9978054   0.62192777   -2.3758776   0.12303113    10884.869     1000 
  246000    0.4290178   -2.9426782   0.64288317    -2.299795   0.13005347    10828.749     1000 
  248000   0.43458164   -2.9849123   0.65122059   -2.3336917    0.1329245    10961.248     1000 
  250000   0.43860147   -2.9856761    0.6572443   -2.3284318   0.12687528    10950.882     1000 
  252000     0.431576   -2.9102509   0.64671664   -2.2635343   0.13245731    10685.803     1000 
  254000   0.44199695   -2.9715789   0.66233243   -2.3092465   0.12927278    10921.179     1000 
  256000   0.41222565   -2.9785485   0.61772013   -2.3608284   0.14056783    10752.245     1000 
  258000   0.41201082   -2.9423137   0.61739821   -2.3249155     0.123753    10798.577     1000 
  260000   0.42092796   -2.9842538   0.63076054   -2.3534932    0.1349258    10843.516     1000 
  262000   0.44785125   -2.9515971    0.6711051    -2.280492   0.14900634    10665.219     1000 
  264000   0.43125962   -2.9541531   0.64624254   -2.3079106   0.13286135     10815.77     1000 
  266000   0.43461392   -2.9533474   0.65126896   -2.3020785   0.13371364    10795.867     1000 
  268000   0.43002745    -2.985098   0.64439614   -2.3407018    0.1344683    10826.412     1000 
  270000   0.43007568   -2.9866113   0.64446841   -2.3421429   0.12330646    10879.881     1000 
  272000   0.45469801    -3.006002   0.68136497    -2.324637   0.13431069    10860.297     1000 
  274000   0.44671119   -2.9404271   0.66939672   -2.2710304   0.13790788    10674.977     1000 
  276000   0.43129494   -2.9236419   0.64629548   -2.2773464   0.12499144     10778.95     1000 
  278000   0.44308155    -2.980176   0.66395771   -2.3162183   0.13111888     10841.14     1000 
  280000   0.43823445   -2.9917672   0.65669432   -2.3350729   0.13370647    10766.146     1000 
  282000   0.39682518   -2.9566964   0.59464254   -2.3620538   0.14096634    10877.432     1000 
  284000   0.41471182   -3.0029931   0.62144567   -2.3815475   0.11349272    10893.224     1000 
  286000   0.45766976   -2.9391968   0.68581814   -2.2533786    0.1256107    10874.794     1000 
  288000   0.41561647   -2.9718231   0.62280127   -2.3490218   0.12696889    10819.046     1000 
  290000   0.43417739    -2.993221   0.65061481   -2.3426062   0.12085949    10999.643     1000 
  292000   0.42284929   -2.9305383   0.63363966   -2.2968986   0.11540793    10856.059     1000 
  294000   0.43679587   -2.9358235   0.65453861   -2.2812849   0.13613147    10625.022     1000 
  296000   0.42441969   -2.9535285    0.6359929   -2.3175356    0.1336105    10846.498     1000 
  298000   0.43386674   -2.9995489   0.65014931   -2.3493996   0.13021762    10863.051     1000 
  300000   0.41411255   -2.9175197   0.62054766   -2.2969721   0.13325727    10687.754     1000 
  302000   0.41669869   -2.9326016   0.62442298   -2.3081786   0.13316064    10863.772     1000 
  304000   0.42640146    -2.985285   0.63896258   -2.3463225   0.10521003    10985.504     1000 
  306000   0.43106812   -2.9843371   0.64595558   -2.3383816   0.13504942    10822.326     1000 
  308000   0.43690715   -2.9538951   0.65470537   -2.2991897   0.13982024    10699.439     1000 
  310000   0.44488059    -2.953313   0.66665357   -2.2866594   0.14094825    10673.149     1000 
  312000   0.44489732   -3.0104577   0.66667863   -2.3437791   0.12985272    10933.893     1000 
  314000   0.42498091   -2.9647754   0.63683389   -2.3279416   0.12652946    10898.146     1000 
  316000   0.44392915   -2.9852171   0.66522783   -2.3199892   0.12484256    10882.312     1000 
  318000   0.42645072   -2.9971074    0.6390364   -2.3580711   0.13556937    10808.828     1000 
  320000   0.45025345    -2.949188    0.6747048   -2.2744832   0.13477973    10867.594     1000 
  322000   0.42165074   -3.0071913   0.63184363   -2.3753476   0.11780697    10859.233     1000 
  324000   0.42845579   -2.9792842   0.64204099   -2.3372432   0.13338511    10840.637     1000 
  326000   0.42388314   -2.9854373   0.63518889   -2.3502484   0.12289937    10884.464     1000 
  328000     0.419206   -2.9695369   0.62818019   -2.3413567   0.12169446    10908.142     1000 
  330000   0.43305479   -2.9474165   0.64893261   -2.2984839   0.12912621    10738.281     1000 
  332000    0.4245961   -2.9856215   0.63625726   -2.3493643   0.12890846    10870.377     1000 
  334000   0.43297949   -2.9817736   0.64881977   -2.3329538   0.14108264    10823.771     1000 
  336000   0.42582402   -2.9458917   0.63809729   -2.3077944   0.15090858    10681.203     1000 
  338000   0.43007901   -3.0147145    0.6444734   -2.3702411    0.1311793    10793.657     1000 
  340000   0.41949967    -2.974969   0.62862026   -2.3463487   0.12188304    10980.489     1000 
  342000    0.4306706   -2.9263916   0.64535989   -2.2810317    0.1285095    10821.683     1000 
  344000   0.40703379   -2.9330452   0.60994013    -2.323105   0.12692529    10969.859     1000 
  346000   0.43336886   -2.9109664   0.64940324   -2.2615632   0.13126979    10758.596     1000 
  348000   0.41963346   -2.9484419   0.62882073   -2.3196211   0.14047444      10754.9     1000 
  350000   0.43804737   -2.9798703   0.65641399   -2.3234563   0.12277582    10825.679     1000 
  352000   0.42532242   -2.9816662   0.63734565   -2.3443206   0.12007868    10865.498     1000 
  354000   0.41707803   -2.8850001   0.62499143   -2.2600086   0.14501328    10672.338     1000 
  356000   0.42142077   -2.9605003   0.63149902   -2.3290013   0.12564637    10934.069     1000 
  358000   0.42415355    -2.961461   0.63559409   -2.3258669   0.11151703    10947.905     1000 
  360000   0.43871619   -2.9333064   0.65741621   -2.2758902   0.13106629    10827.207     1000 
  362000   0.42890585   -2.9509279   0.64271542   -2.3082124   0.13370283    10691.442     1000 
  364000   0.43777694   -3.0014731   0.65600875   -2.3454643    0.1274108    10999.159     1000 
  366000   0.43041514   -2.9465839   0.64497708   -2.3016068    0.1524135    10798.049     1000 
  368000   0.41095045   -3.0412183   0.61580925    -2.425409   0.12263321    10990.045     1000 
  370000   0.41300766   -2.9665279   0.61889198    -2.347636   0.12179628    10863.636     1000 
  372000   0.42915363   -2.9506112   0.64308672   -2.3075244   0.12165604    10929.116     1000 
  374000   0.42823645   -3.0311186   0.64171232   -2.3894063   0.13353325    10978.024     1000 
  376000   0.45974377   -2.9404502   0.68892604   -2.2515242   0.11062994    10973.654     1000 
  378000    0.4272492   -2.9984343   0.64023293   -2.3582014   0.13841458    10797.591     1000 
  380000   0.41845387   -2.9250396   0.62705313   -2.2979864   0.12680737    10845.522     1000 
  382000   0.43674384   -3.0082119   0.65446064   -2.3537512   0.12760878    10928.818     1000 
  384000   0.42367929   -2.9628832   0.63488341   -2.3279998    0.1347599    10883.054     1000 
  386000    0.4229763   -2.9793952   0.63382998   -2.3455652   0.12887207    10831.719     1000 
  388000   0.42835624   -2.9823164   0.64189183   -2.3404246   0.11071962    10984.527     1000 
  390000   0.42540864    -2.947684   0.63747485   -2.3102092   0.12395058    10850.453     1000 
  392000   0.42251537   -2.9478325   0.63313928   -2.3146932    0.1381972     10809.19     1000 
  394000   0.42502271   -2.9190488   0.63689654   -2.2821523   0.12053257    10811.769     1000 
  396000   0.42901448   -2.8935235   0.64287819   -2.2506453   0.12330184    10618.134     1000 
  398000   0.43851885   -2.9800745    0.6571205    -2.322954     0.133737    10870.389     1000 
  400000   0.44885353    -3.002794   0.67260702    -2.330187   0.13582352    10896.853     1000 
  402000   0.42086241   -2.9927411   0.63066232   -2.3620788   0.12487787    10885.543     1000 
  404000   0.40272324   -2.9628361   0.60348078   -2.3593553   0.13555575    10755.458     1000 
  406000   0.42492477   -2.9539949   0.63674978   -2.3172451   0.11920761    10808.334     1000 
  408000   0.42350974   -2.9577344   0.63462935    -2.323105    0.1234241    10807.539     1000 
  410000   0.43351884   -2.9314178   0.64962798   -2.2817898    0.1329254    10703.464     1000 
  412000   0.43136625   -2.9764384   0.64640233   -2.3300361   0.12484364    10860.931     1000 
  414000   0.42492773   -2.9353272   0.63675421    -2.298573   0.11538606    10783.655     1000 
  416000   0.41513316   -2.9370846   0.62207704   -2.3150076   0.14191759    10773.795     1000 
  418000   0.44376224   -2.9781731   0.66497771   -2.3131954   0.11800398    10820.912     1000 
  420000   0.40392892   -2.9135789   0.60528749   -2.3082915   0.12917413     10865.94     1000 
  422000   0.42090069   -2.9754155   0.63071968   -2.3446958   0.13304012    10831.804     1000 
  424000   0.42923072   -2.9663381   0.64320224   -2.3231359   0.12668441    10955.533     1000 
  426000   0.43768513   -2.9866835   0.65587116   -2.3308124   0.12774479    10946.061     1000 
  428000     0.406817   -2.9757031   0.60961527   -2.3660879   0.10875282    10799.647     1000 
  430000   0.43321547   -2.9503274   0.64917338    -2.301154   0.12057523    10935.997     1000 
  432000   0.43339982    -2.975204   0.64944963   -2.3257544   0.13058094      10916.1     1000 
  434000   0.43083958   -2.9798451   0.64561311    -2.334232   0.12399693    10924.882     1000 
  436000   0.42226396   -2.9984634   0.63276255   -2.3657008   0.14066438    10887.633     1000 
  438000   0.42590861   -2.9741456   0.63822405   -2.3359216   0.11909324    10991.984     1000 
  440000   0.44147603   -3.0186343   0.66155182   -2.3570824   0.11749864    11037.885     1000 
  442000   0.44376976   -2.9578397   0.66498899   -2.2928507    0.1407784     10807.52     1000 
  444000   0.42007908    -2.929154   0.62948849   -2.2996655   0.14263656    10780.963     1000 
  446000   0.44638101   -2.9936521   0.66890194   -2.3247502   0.12675715    10898.985     1000 
  448000   0.41216625   -2.9619415   0.61763112   -2.3443104   0.11512352     10843.28     1000 
  450000   0.41665457   -3.0093118   0.62435687   -2.3849549   0.13241693    10827.042     1000 
  452000   0.41863883    -2.973511   0.62733029   -2.3461807   0.12816098    10798.445     1000 
  454000   0.42458178    -2.921392    0.6362358   -2.2851562   0.12377294     10949.77     1000 
  456000   0.44444094   -2.9548756   0.66599475   -2.2888809   0.13304282    10849.593     1000 
  458000   0.42717426   -2.9233535   0.64012063   -2.2832328   0.13841564    10726.091     1000 
  460000   0.43937217   -2.9914749   0.65839919   -2.3330757   0.13440061    10841.857     1000 
  462000   0.45054694   -2.9397649   0.67514459   -2.2646204   0.12769116    10884.955     1000 
  464000     0.427397   -2.9927479    0.6404544   -2.3522935   0.13406316    10978.402     1000 
  466000   0.43274535   -2.9435875   0.64846891   -2.2951185   0.12890685    10840.681     1000 
  468000   0.42491516   -3.0352335   0.63673537   -2.3984981   0.11782251    11035.103     1000 
  470000   0.42426275   -2.9596111   0.63575774   -2.3238533   0.13167633    10819.169     1000 
  472000   0.43638744    -2.951851   0.65392658   -2.2979245    0.1390746    10736.343     1000 
  474000   0.42312267   -2.9920924   0.63404932   -2.3580431   0.12715327    10941.491     1000 
  476000   0.42411637   -2.9866033   0.63553838   -2.3510649   0.13009952     10843.49     1000 
  478000   0.43530177   -2.9623366    0.6522997   -2.3100369   0.13711676    10788.993     1000 
  480000   0.42749986   -2.9968915   0.64060855   -2.3562829   0.12680241    10827.263     1000 
  482000   0.41493266   -2.9141346   0.62177659    -2.292358   0.14198029    10719.848     1000 
  484000   0.43430507   -2.9769721   0.65080615   -2.3261659   0.12267017    10831.319     1000 
  486000   0.43508806   -2.9673685   0.65197946    -2.315389   0.11818749    10955.128     1000 
  488000   0.43572437    -3.031101   0.65293297    -2.378168    0.1287585    10978.316     1000 
  490000   0.42568322   -2.9797249    0.6378863   -2.3418386   0.12715223    10802.458     1000 
  492000   0.43534623   -2.9423794   0.65236633    -2.290013   0.12437182    10834.899     1000 
  494000   0.43437137   -2.9804714    0.6509055   -2.3295659   0.13588437    10873.344     1000 
  496000   0.42431494   -3.0288202   0.63583593   -2.3929843   0.12252956    11005.692     1000 
  498000   0.45450986   -2.9696316   0.68108303   -2.2885486   0.14212108    10774.712     1000 
  500000   0.42308301   -2.9378093   0.63398988   -2.3038195   0.14276911     10718.79     1000 
  502000    0.4528404   -3.0235459   0.67858134   -2.3449646   0.12886939    10914.476     1000 
  504000   0.43035681   -2.9550504   0.64488968   -2.3101608   0.12465632    10859.001     1000 
  506000   0.40941908    -2.976179   0.61351449   -2.3626645   0.13291778    10659.904     1000 
  508000   0.44912467    -3.028535   0.67301332   -2.3555217   0.12641761    10965.795     1000 
  510000   0.42356499   -2.9544771   0.63471213    -2.319765   0.12469175    10767.832     1000 
  512000   0.43853898   -2.9915039   0.65715066   -2.3343532   0.13930188    10777.011     1000 
  514000   0.44534671   -2.9498624   0.66735205   -2.2825103   0.11900578    10902.862     1000 
  516000   0.41487061   -3.0005694   0.62168361   -2.3788857   0.12250703    10795.556     1000 
  518000   0.44154404    -2.978482   0.66165375   -2.3168282   0.14008092    10787.952     1000 
  520000   0.43545643   -3.0112035   0.65253146   -2.3586721   0.13614725    10861.886     1000 
  522000   0.41926883    -2.999482   0.62827434   -2.3712076   0.11023016    11138.468     1000 
  524000    0.4444324   -2.9636417   0.66598195   -2.2976598   0.11479651    10871.757     1000 
  526000   0.45265022    -3.029821   0.67829635   -2.3515247   0.13920495    10891.525     1000 
  528000   0.43610067   -2.9732623   0.65349686   -2.3197655   0.13520259    10792.266     1000 
  530000   0.43987671   -2.9612352   0.65915526   -2.3020799   0.14531164    10706.439     1000 
  532000   0.42354767   -2.9840286   0.63468619   -2.3493424   0.13475323    10946.687     1000 
  534000   0.43947745   -3.0056895   0.65855696   -2.3471325   0.12219448    10958.581     1000 
  536000   0.42599012   -2.9651486    0.6383462   -2.3268024   0.13619439    10822.079     1000 
  538000   0.41402122   -3.0132522   0.62041081   -2.3928413    0.1337694    10733.204     1000 
  540000   0.43664418   -3.0418426    0.6543113   -2.3875313   0.14226956    10825.821     1000 
  542000   0.44283388   -2.9593023   0.66358657   -2.2957158   0.12551535    10865.576     1000 
  544000   0.41930113   -2.9586956   0.62832275   -2.3303729   0.11681852     10941.47     1000 
  546000    0.4269266   -2.9685341    0.6397495   -2.3287846   0.12427619    10846.172     1000 
  548000   0.44342757     -2.94224   0.66447621   -2.2777638   0.12034388    10890.583     1000 
  550000   0.41832184   -2.9826749   0.62685527   -2.3558196   0.11041325    10966.962     1000 
  552000   0.42354088    -3.000391   0.63467601   -2.3657149   0.11469147    10949.671     1000 
  554000   0.42911988   -2.9892887   0.64303615   -2.3462525   0.14022515    10801.285     1000 
  556000   0.42574979   -2.9601243   0.63798606   -2.3221383   0.12628373    10813.738     1000 
  558000   0.41759821   -2.9982513   0.62577091   -2.3724804   0.14646629    10754.522     1000 
  560000   0.41765846   -2.9412241   0.62586121   -2.3153629   0.12808902    10911.576     1000 
  562000    0.4070451    -2.989479   0.60995708   -2.3795219   0.12948791    10768.079     1000 
  564000   0.43508993   -2.9623174   0.65198227   -2.3103351   0.12337339    10726.332     1000 
  566000   0.43009985   -2.9542505   0.64450462   -2.3097459   0.12378059    10682.267     1000 
  568000   0.41908807   -2.9175199   0.62800347   -2.2895164    0.1438144    10630.774     1000 
  570000   0.41642121   -2.9364407   0.62400718   -2.3124335   0.12607616    10835.403     1000 
  572000   0.43217451   -2.9859472    0.6476135   -2.3383337   0.13696428    10797.886     1000 
  574000   0.40908787   -2.9903729   0.61301818   -2.3773547   0.12950288    10959.522     1000 
  576000   0.42874846   -2.9545461   0.64247957   -2.3120665   0.12274717     10935.62     1000 
  578000    0.4161557   -2.9428188   0.62360931   -2.3192095    0.1281117    10808.963     1000 
  580000   0.41989261   -2.9516098   0.62920908   -2.3224007   0.12727926    10824.141     1000 
  582000   0.43134071   -2.9645037   0.64636405   -2.3181397   0.13394979    10765.048     1000 
  584000    0.4363346   -2.9587074    0.6538474     -2.30486   0.11366806    10983.287     1000 
  586000   0.41431931   -2.9345092   0.62085749   -2.3136517   0.12577988    10869.837     1000 
  588000   0.42885414   -2.9221113   0.64263792   -2.2794734   0.12679611    10934.728     1000 
  590000   0.43641096    -3.023614   0.65396182   -2.3696522   0.13174526    10939.779     1000 
  592000   0.42527627   -3.0063199   0.63727649   -2.3690434   0.11769936    10946.249     1000 
  594000   0.44939583   -2.9502272   0.67341966   -2.2768076   0.12541405    10718.766     1000 
  596000   0.44711613   -2.9602083   0.67000352   -2.2902048   0.13056174    10836.393     1000 
  598000   0.45721293    -2.935228   0.68513357   -2.2500944   0.14531694    10772.212     1000 
  600000   0.42048963   -2.8850871   0.63010371   -2.2549834   0.13818354     10792.21     1000 
  602000   0.43782519   -2.9494183   0.65608104   -2.2933373    0.1430934    10848.239     1000 
  604000   0.43418725   -2.9245943    0.6506296   -2.2739647   0.13000783    10807.147     1000 
  606000   0.41870453   -2.9863873   0.62742874   -2.3589586   0.13094855    10814.481     1000 
  608000   0.42455703   -3.0149874   0.63619871   -2.3787887   0.12051859    10940.575     1000 
  610000   0.43117051   -2.9569265   0.64610901   -2.3108175   0.13257978    10801.757     1000 
  612000   0.44815065   -2.9656579   0.67155375   -2.2941041   0.14386529    10819.619     1000 
  614000   0.42146119   -2.9667388   0.63155959   -2.3351792   0.12158947    10931.328     1000 
  616000   0.46608274   -2.9656242   0.69842499   -2.2671992   0.14763404    10636.444     1000 
  618000   0.44107281   -2.9236496    0.6609476    -2.262702   0.13756574    10735.089     1000 
  620000   0.42921075   -2.9578993   0.64317231    -2.314727   0.12555405    10813.314     1000 
  622000    0.4148052   -2.9922038   0.62158559   -2.3706182   0.12053058    10846.141     1000 
  624000   0.43749513   -2.9683524   0.65558645   -2.3127659   0.12893647    10872.058     1000 
  626000   0.42978953   -2.9823314   0.64403961   -2.3382918   0.12808636    10800.808     1000 
  628000   0.43565025   -2.9470383    0.6528219   -2.2942164   0.12639409     10772.63     1000 
  630000   0.42658273    -2.946751   0.63923422   -2.3075168   0.13348633    10809.945     1000 
  632000   0.42493115   -2.9846044   0.63675933    -2.347845   0.11081154    10895.165     1000 
  634000   0.43093786   -2.9487422   0.64576038   -2.3029819   0.11253565     10871.84     1000 
  636000   0.41131501   -2.9936268   0.61635554   -2.3772713   0.13010591    10979.405     1000 
  638000   0.42192335   -3.0018685   0.63225214   -2.3696164   0.12736123    10860.092     1000 
  640000   0.44566264   -3.0118791   0.66782546   -2.3440537   0.12813465    10946.182     1000 
  642000   0.42841945   -2.9124772   0.64198655   -2.2704906   0.13748373    10804.921     1000 
  644000   0.43598257   -2.9824465   0.65331988   -2.3291266   0.11471459    10888.836     1000 
  646000   0.41223204    -2.942011   0.61772972   -2.3242813   0.13097972    10800.905     1000 
  648000   0.43038314   -2.9647761   0.64492914   -2.3198469   0.13744164     10868.86     1000 
  650000   0.42803136   -2.9989541     0.641405   -2.3575491   0.11812953    10999.771     1000 
  652000   0.42607681    -2.960483   0.63847611   -2.3220069   0.12668883    10859.813     1000 
  654000   0.44840347   -2.9987695    0.6719326   -2.3268369   0.12715378     11009.46     1000 
  656000     0.426644   -2.9707533   0.63932604   -2.3314272   0.11953664    10803.501     1000 
  658000   0.43207395   -2.9498273   0.64746281   -2.3023645   0.13486169    10783.772     1000 
  660000   0.44125789   -2.9370618   0.66122495   -2.2758369    0.1493296    10768.486     1000 
  662000   0.44972387   -2.9823218   0.67391122   -2.3084106   0.12032476    10942.983     1000 
  664000     0.438361   -2.9680058   0.65688395   -2.3111218   0.12459953     10779.44     1000 
  666000   0.43228685   -2.9488402   0.64778184   -2.3010584   0.13615679    10917.383     1000 
  668000   0.41383686   -3.0016091   0.62013454   -2.3814746   0.12429013    10894.561     1000 
  670000    0.4414906   -2.9532621   0.66157366   -2.2916884   0.13533455    10730.463     1000 
  672000   0.43130111   -2.9527309   0.64630472   -2.3064262   0.14229503    10805.275     1000 
  674000   0.42285717   -2.9732292   0.63365147   -2.3395777   0.12640883    10870.451     1000 
  676000    0.4321818   -2.9415151   0.64762443   -2.2938906   0.12088569    10875.276     1000 
  678000   0.43995458   -3.0030542   0.65927194   -2.3437823   0.13907769    10811.744     1000 
  680000    0.4542574   -2.9903419   0.68070471   -2.3096372   0.12866372    10877.393     1000 
  682000    0.4348579   -2.9888939   0.65163457   -2.3372594   0.13234105    10864.337     1000 
  684000   0.42022982   -2.9971782   0.62971439   -2.3674638   0.13780845     10740.17     1000 
  686000   0.41921806   -2.9847522   0.62819826   -2.3565539   0.12798864    10859.647     1000 
  688000    0.4313189   -2.9354007   0.64633138   -2.2890693    0.1282441    10880.436     1000 
  690000   0.43662285   -2.9565711   0.65427934   -2.3022917    0.1288721    10772.204     1000 
  692000   0.43560283   -3.0267394   0.65275084   -2.3739886   0.13312458    11085.366     1000 
  694000   0.42986021    -3.024991   0.64414553   -2.3808455    0.1178778    11019.394     1000 
  696000   0.42052102   -2.9774177   0.63015075    -2.347267   0.12552927     10957.72     1000 
  698000   0.44508126   -2.9530851   0.66695427   -2.2861309   0.12868121    10875.353     1000 
  700000   0.41654336   -2.9721207   0.62419022   -2.3479305   0.13388411    10818.113     1000 
  702000   0.43486698   -2.9892904   0.65164817   -2.3376422   0.13511501    10828.393     1000 
  704000   0.44375248   -3.0316202   0.66496309   -2.3666571   0.11492215    11018.987     1000 
  706000   0.43892641   -2.9538956   0.65773122   -2.2961644   0.12970452    10929.155     1000 
  708000    0.4326143    -2.974267   0.64827253   -2.3259944   0.11909857    11032.654     1000 
  710000   0.43134381   -2.9858614    0.6463687   -2.3394927   0.12646062    10915.747     1000 
  712000   0.41770436   -3.0205965   0.62592998   -2.3946665   0.13318952    10994.871     1000 
  714000   0.43178114   -2.9320756   0.64702403   -2.2850516   0.13098841    10755.646     1000 
  716000    0.4302727   -2.9509944   0.64476365   -2.3062307   0.13552832    10787.362     1000 
  718000   0.42105617   -2.9287515   0.63095267   -2.2977988   0.14038747    10738.736     1000 
  720000   0.41649269   -2.9235679    0.6241143   -2.2994536   0.14679072    10607.018     1000 
  722000   0.43067275    -2.968273   0.64536311   -2.3229099   0.13097935    10917.906     1000 
  724000   0.42919333   -2.9846579   0.64314621   -2.3415117   0.13027646    10895.898     1000 
  726000   0.42828879   -2.9787539   0.64179076   -2.3369631   0.12679094     10862.29     1000 
  728000   0.43001514   -2.9531902   0.64437768   -2.3088125   0.11439996    10847.752     1000 
  730000   0.43652199   -2.9664822    0.6541282    -2.312354   0.14097857    10733.809     1000 
  732000    0.4136389   -2.9903477   0.61983789   -2.3705098   0.14458842    10698.495     1000 
  734000   0.43100192   -2.9483389   0.64585638   -2.3024825   0.12428093    10833.857     1000 
  736000   0.47252844   -2.9480673   0.70808387   -2.2399834    0.1394398    10773.369     1000 
  738000   0.43144287   -2.9445835   0.64651714   -2.2980663   0.13202279    10743.327     1000 
  740000   0.42220906   -2.9642977   0.63268028   -2.3316174   0.12485068    10885.682     1000 
  742000   0.44072828   -2.9374747   0.66043133   -2.2770433   0.12693259    10949.406     1000 
  744000   0.40314084   -2.9945785   0.60410654    -2.390472   0.11692119    10981.517     1000 
  746000   0.42881301   -2.9844259   0.64257629   -2.3418496   0.13133559    10824.848     1000 
  748000   0.40872222   -3.0082264   0.61247024   -2.3957561   0.12724457    10896.806     1000 
  750000   0.42571564   -2.9370169   0.63793488    -2.299082   0.12766232    10807.355     1000 
  752000   0.44106167   -2.9691213   0.66093091   -2.3081904   0.12250806    10822.596     1000 
  754000   0.41829108   -3.0350398   0.62680918   -2.4082306   0.11257491    10964.697     1000 
  756000   0.42746307   -3.0526077   0.64055342   -2.4120543   0.10926457     11085.46     1000 
  758000   0.42527128   -3.0102119   0.63726901   -2.3729429    0.1354834    10956.707     1000 
  760000   0.43403986   -2.9766874   0.65040873   -2.3262787   0.13705809    10762.444     1000 
  762000   0.43709845   -2.9301526   0.65499203   -2.2751606   0.14801003     10692.37     1000 
  764000   0.41788156   -3.0148259   0.62619552   -2.3886304   0.12507942    10798.057     1000 
  766000     0.425313   -2.9316959   0.63733153   -2.2943644   0.10836483    10876.235     1000 
  768000   0.42162543   -2.9353681   0.63180571   -2.3035624   0.12156773    10887.558     1000 
  770000   0.42732284   -2.9395665   0.64034327   -2.2992232   0.12889897    10795.716     1000 
  772000   0.43363832   -2.9788789   0.64980703   -2.3290719   0.11905983    10910.671     1000 
  774000   0.40434171   -2.9966191   0.60590605   -2.3907131   0.11545353    10885.038     1000 
  776000   0.42245921   -3.0058019   0.63305512   -2.3727468   0.12829613     10858.59     1000 
  778000   0.43357629   -2.9901246   0.64971407   -2.3404105   0.14277191    10866.674     1000 
  780000   0.42149014   -2.9629369   0.63160297   -2.3313339   0.13714694    10798.059     1000 
  782000   0.40571854   -2.9653947   0.60796924   -2.3574254    0.1465637    10787.656     1000 
  784000   0.43492064   -2.9571515   0.65172859   -2.3054229   0.12401574    10861.358     1000 
  786000   0.41827841   -2.9815394    0.6267902   -2.3547492   0.13903111    10887.743     1000 
  788000   0.47031583   -2.9587544   0.70476827   -2.2539861   0.14384262    10818.262     1000 
  790000   0.43870759    -2.983697   0.65740332   -2.3262937   0.12375388    10852.729     1000 
  792000   0.42992644   -2.9505137   0.64424477   -2.3062689   0.12630124    10825.047     1000 
  794000   0.42907405   -2.9675062   0.64296747   -2.3245388   0.11572644    10813.606     1000 
  796000   0.42830848   -2.9632238   0.64182026   -2.3214035   0.12956078    10780.783     1000 
  798000   0.43626722   -2.9575822   0.65374642   -2.3038358   0.13108819    10908.393     1000 
  800000    0.4269797   -2.9736034   0.63982908   -2.3337743    0.1265486    10977.214     1000 
  802000   0.45929706   -2.9738649   0.68825664   -2.2856083   0.13750547    10720.418     1000 
  804000   0.43109411   -2.9732935   0.64599453    -2.327299   0.13572326     10827.65     1000 
  806000   0.45114827   -2.9541703   0.67604568   -2.2781246   0.14077816    10865.061     1000 
  808000   0.43857222   -2.9779035   0.65720048   -2.3207031   0.10844246    10956.497     1000 
  810000   0.42411592   -2.9764982   0.63553771   -2.3409605   0.12915557     10675.34     1000 
  812000   0.43870303   -2.9732216   0.65739649   -2.3158251   0.13416609    10843.008     1000 
  814000   0.42354945    -3.040252   0.63468885   -2.4055632   0.13545428    10915.101     1000 
  816000   0.41946082   -3.0390688   0.62856204   -2.4105068   0.13505338    10924.495     1000 
  818000   0.43885191   -2.9990796   0.65761958     -2.34146   0.13487031    10919.367     1000 
  820000   0.44327689   -2.9815675   0.66425041   -2.3173171   0.13148894    10817.264     1000 
  822000    0.4277747   -3.0135094   0.64102038    -2.372489   0.12746182    11057.018     1000 
  824000   0.43078724   -2.9886194   0.64553467   -2.3430847   0.12475078    10801.584     1000 
  826000   0.43993413   -2.9955995    0.6592413   -2.3363582   0.13562243    10693.996     1000 
  828000   0.41085084   -2.9822322   0.61565998   -2.3665722    0.1202075    10962.484     1000 
  830000    0.4336222   -2.9921893   0.64978287   -2.3424064   0.13171812    11007.934     1000 
  832000   0.44421436    -2.965042   0.66565522   -2.2993868   0.12492144    10821.185     1000 
  834000   0.40903656   -2.9775192   0.61294128   -2.3645779   0.13210941    10748.185     1000 
  836000    0.4466888   -2.9877138   0.66936317   -2.3183507   0.15246255     10707.79     1000 
  838000   0.43735589   -2.9429968   0.65537779    -2.287619   0.12296984    10850.239     1000 
  840000    0.4202665   -2.9586109   0.62976935   -2.3288416   0.12489743    10772.818     1000 
  842000   0.42011415   -2.9750125   0.62954105   -2.3454715   0.12643448    10939.537     1000 
  844000   0.42806496     -3.04863   0.64145534   -2.4071747   0.13173202    10924.808     1000 
  846000   0.43380424   -2.9576303   0.65005566   -2.3075747   0.12926624    10878.682     1000 
  848000   0.42393414   -2.9927741   0.63526531   -2.3575087   0.14281725     10868.33     1000 
  850000   0.41688661   -2.9903751   0.62470458   -2.3656705   0.11452477    11061.951     1000 
  852000   0.45343697   -2.9671184   0.67947531   -2.2876431   0.12833718     10858.55     1000 
  854000   0.42514629   -2.9170633   0.63708172   -2.2799815    0.1348153    10773.716     1000 
  856000   0.43047856   -3.0250251   0.64507212    -2.379953   0.12083771     11037.61     1000 
  858000   0.40313845   -2.9937549   0.60410297   -2.3896519    0.1277028    11000.653     1000 
  860000   0.43141902   -2.9436855    0.6464814   -2.2972042   0.13531166    10781.211     1000 
  862000   0.43905429   -2.9614392   0.65792285   -2.3035164   0.12140335    10920.976     1000 
  864000   0.44440556   -2.9566863   0.66594173   -2.2907446    0.1255943    10899.543     1000 
  866000   0.40725675   -2.9839379   0.61027424   -2.3736637   0.13062283    10815.261     1000 
  868000   0.43874587   -2.9980292   0.65746069   -2.3405685   0.13061639    10929.728     1000 
  870000    0.4393127   -2.9967412   0.65831009   -2.3384311   0.13468917    10784.959     1000 
  872000   0.42781552    -3.013632   0.64108155   -2.3725505     0.138461    10791.976     1000 
  874000   0.42315793   -2.9723594   0.63410215   -2.3382572   0.12451465    10932.659     1000 
  876000   0.41712048   -2.9506738   0.62505504   -2.3256188   0.13102366    10884.384     1000 
  878000   0.42128908   -2.9753114   0.63130169   -2.3440097   0.12405658    10835.427     1000 
  880000   0.43373502    -2.954261   0.64995192    -2.304309   0.12726336    10757.982     1000 
  882000   0.42066699   -2.9716478   0.63036949   -2.3412783   0.13058007    10836.943     1000 
  884000   0.43847346    -3.009406   0.65705249   -2.3523535   0.14659035    10948.973     1000 
  886000   0.44521008   -2.9800666    0.6671473   -2.3129193   0.14149079    10867.487     1000 
  888000   0.43605069   -2.9835878   0.65342195   -2.3301659   0.13722855    10810.571     1000 
  890000   0.43671621   -2.9686661   0.65441924   -2.3142468    0.1326385     10785.11     1000 
  892000   0.42526111   -3.0079647   0.63725378   -2.3707109   0.12324962    11047.624     1000 
  894000   0.44308138   -2.9670587   0.66395744   -2.3031013   0.15013345    10729.324     1000 
  896000   0.44069642   -2.9533529   0.66038358   -2.2929694   0.14518376    10708.838     1000 
  898000    0.4401728   -2.9744049   0.65959894    -2.314806   0.13069335    10955.099     1000 
  900000   0.43317961   -2.9872279   0.64911965   -2.3381082   0.13279328    10737.081     1000 
  902000   0.41561305   -2.9481378   0.62279615   -2.3253417   0.11810432    10790.468     1000 
  904000   0.43319615    -2.981503   0.64914443   -2.3323585   0.12718287    10852.091     1000 
  906000   0.43148872   -3.0194079   0.64658584    -2.372822   0.11800964    11035.592     1000 
  908000    0.4182998   -2.9604949   0.62682226   -2.3336727    0.1124307    10888.637     1000 
  910000   0.41290128   -2.9763067   0.61873257   -2.3575741   0.12437735    11025.598     1000 
  912000   0.42549255   -2.9438703   0.63760058   -2.3062697    0.1286058    10793.796     1000 
  914000   0.44538141   -2.9407869   0.66740404   -2.2733828   0.12833386    10859.464     1000 
  916000   0.42220561   -2.9757363   0.63267511   -2.3430612   0.12951682    10819.761     1000 
  918000   0.44284093   -2.9631443   0.66359714   -2.2995472   0.12782423    10796.891     1000 
  920000   0.42564215   -2.9395663   0.63782477   -2.3017415   0.13042735     10780.96     1000 
  922000   0.42585523   -2.9956338   0.63814406   -2.3574897   0.13468382    11012.568     1000 
  924000   0.42771016   -3.0025611   0.64092368   -2.3616374   0.12410595    10871.075     1000 
  926000   0.43338296   -2.9994912   0.64942436   -2.3500668   0.13721838    10819.485     1000 
  928000   0.43137339   -2.9746895   0.64641302   -2.3282765   0.13618815    10776.729     1000 
  930000   0.43318125   -3.0029441    0.6491221    -2.353822   0.11048034    10924.079     1000 
  932000   0.44647224   -2.9926514   0.66903865   -2.3236128   0.11990386    10904.275     1000 
  934000   0.43932459    -3.009744    0.6583279   -2.3514161   0.12234028    11015.346     1000 
  936000    0.4416452    -2.982078   0.66180533   -2.3202726   0.13025829    10944.467     1000 
  938000   0.40574068   -2.9461652   0.60800241   -2.3381628   0.12450152    10815.328     1000 
  940000   0.40327124   -2.9637302   0.60430195   -2.3594283   0.10368296    10890.799     1000 
  942000   0.41013115   -2.9877871   0.61458153   -2.3732056   0.12130172    10901.694     1000 
  944000   0.42556092    -3.008172   0.63770304    -2.370469   0.10753713     11059.02     1000 
  946000     0.418202   -2.9603178    0.6266757   -2.3336421   0.13235095    10667.869     1000 
  948000   0.42989094   -2.9470447   0.64419157   -2.3028531   0.14026526    10774.774     1000 
  950000    0.4384769    -2.940926   0.65705763   -2.2838684   0.12608188    10839.084     1000 
  952000   0.42729391   -2.9640018   0.64029992   -2.3237019   0.12543427    10864.612     1000 
  954000    0.4280475   -2.9953059   0.64142918   -2.3538767   0.13839413    10790.994     1000 
  956000   0.43359972   -2.9466151   0.64974919    -2.296866   0.13933252    10695.941     1000 
  958000   0.42172353   -2.9639285   0.63195271   -2.3319758   0.11690883    10841.125     1000 
  960000   0.43435183   -3.0069482   0.65087622    -2.356072   0.12527709    10900.442     1000 
  962000   0.40892483   -2.9768225   0.61277386   -2.3640486    0.1266369    10904.064     1000 
  964000   0.44041308   -2.9843061     0.659959   -2.3243471    0.1243684    10854.496     1000 
  966000   0.43144507   -2.9515749   0.64652044   -2.3050544   0.13242451    10892.896     1000 
  968000   0.41782674   -2.9493876   0.62611337   -2.3232742   0.11739133    10939.968     1000 
  970000   0.43754025   -3.0192114   0.65565407   -2.3635573   0.11691184    11024.754     1000 
  972000   0.43592998   -2.9675211   0.65324107     -2.31428   0.14620985    10746.268     1000 
  974000   0.42701931   -2.9704581   0.63988844   -2.3305697   0.12015047    11013.881     1000 
  976000   0.43935678   -2.9182713   0.65837613   -2.2598951   0.11501092    10757.632     1000 
  978000   0.43681307   -2.9792803   0.65456438   -2.3247159   0.13725115    10695.994     1000 
  980000   0.44425829    -2.988947   0.66572105    -2.323226   0.11941502    11037.998     1000 
  982000   0.41066282   -2.9846582   0.61537824     -2.36928   0.12526108     10949.62     1000 
  984000   0.43911061   -2.9661841   0.65800724   -2.3081769   0.13063321     10897.93     1000 
  986000   0.41361044   -2.9660016   0.61979525   -2.3462063   0.12815716    10832.902     1000 
  988000   0.44711515   -2.9615898   0.67000205   -2.2915878   0.13764233    10683.716     1000 
  990000   0.42560249   -2.9938057   0.63776533   -2.3560404   0.11126987    10867.757     1000 
  992000   0.42784099   -2.9884802   0.64111972   -2.3473605   0.12520572    10836.351     1000 
  994000   0.41671981   -2.9750863   0.62445463   -2.3506316    0.1347432    10781.277     1000 
  996000   0.42402194   -2.9353797   0.63539688   -2.2999828   0.13742715    10762.304     1000 
  998000    0.4229481   -2.9193599   0.63378773   -2.2855722   0.13638289    10806.214     1000 
 1000000   0.44568058   -2.9965668   0.66785235   -2.3287144   0.12857351     10917.45     1000 
 1002000   0.41801115   -3.0020835   0.62638971   -2.3756938   0.11968718     10850.82     1000 
 1004000    0.4177438   -2.9976939   0.62598909   -2.3717048   0.13357198    10922.018     1000 
 1006000   0.43108394   -2.9562011   0.64597928   -2.3102219   0.14285043    10793.577     1000 
 1008000   0.44089696   -2.9636207   0.66068409   -2.3029366   0.12322532    10881.294     1000 
 1010000   0.42055131   -2.9519659   0.63019614   -2.3217697   0.13202735    10847.343     1000 
 1012000   0.43767295   -2.9883679   0.65585292    -2.332515   0.12132947    10914.679     1000 
 1014000   0.40611982   -2.9599436   0.60857055    -2.351373   0.13043378    10674.883     1000 
 1016000   0.43225292   -3.0357948     0.647731   -2.3880638   0.12870216    10879.814     1000 
 1018000   0.43907883   -2.9294943   0.65795963   -2.2715347   0.12131012    10762.349     1000 
 1020000   0.42774356   -2.9355288   0.64097372   -2.2945551    0.1262358    10678.227     1000 
 1022000   0.43615034   -2.9630499   0.65357128   -2.3094786    0.1306542    10920.905     1000 
 1024000    0.4397234   -2.9983458   0.65892551   -2.3394203   0.13028001    10834.518     1000 
 1026000    0.4179571   -3.0124723   0.62630872   -2.3861636   0.13252151    10891.378     1000 
 1028000   0.43066742    -2.951804   0.64535513   -2.3064489    0.1261921    10797.771     1000 
 1030000   0.42951258   -2.9621536    0.6436246    -2.318529   0.12111571     10703.23     1000 
 1032000   0.43441267   -3.0018189   0.65096738   -2.3508515   0.12589452    10826.907     1000 
 1034000   0.43969229   -3.0055813   0.65887889   -2.3467025   0.11963051    10881.419     1000 
 1036000   0.44987195   -2.9895379   0.67413311   -2.3154048   0.13080157     10812.58     1000 
 1038000   0.43316071   -3.0134351   0.64909133   -2.3643438   0.13336905     10914.02     1000 
 1040000   0.44265966    -2.985269   0.66332551   -2.3219435     0.122294    10970.433     1000 
 1042000   0.42918861   -2.9670184   0.64313914   -2.3238793   0.12576586    10952.191     1000 
 1044000   0.43620562    -2.973587   0.65365412   -2.3199329   0.13086141    10885.489     1000 
 1046000    0.4242067    -2.916704   0.63567374   -2.2810302   0.13256679    10756.082     1000 
 1048000   0.41851152   -2.9301914   0.62713951   -2.3030518   0.12478273    10792.887     1000 
 1050000   0.42966949   -2.9868109   0.64385972   -2.3429512   0.12164933    11005.507     1000 
 1052000   0.45244326   -2.9770283   0.67798623   -2.2990421   0.11759159    10971.849     1000 
 1054000   0.43202445   -3.0063072   0.64738864   -2.3589186   0.11727649    11015.729     1000 
 1056000   0.43019411   -2.9760477   0.64464588   -2.3314018   0.12469131    10985.378     1000 
 1058000   0.43967941   -2.9595165    0.6588596   -2.3006569   0.13190698    10831.123     1000 
 1060000   0.43395392   -2.9657852   0.65027995   -2.3155053   0.11169331    10910.056     1000 
 1062000   0.42681963    -2.938399   0.63958921   -2.2988098   0.13999706    10685.507     1000 
 1064000   0.43583985   -2.9614237   0.65310601   -2.3083177   0.12261086    10887.105     1000 
 1066000   0.45060497   -2.9558512   0.67523154   -2.2806196   0.12092493    10627.627     1000 
 1068000   0.41691979   -2.9835367    0.6247543   -2.3587824   0.14633496    10766.279     1000 
 1070000   0.41490484   -2.9743711    0.6217349   -2.3526362   0.12673122     10859.24     1000 
 1072000   0.44316055   -2.9851242   0.66407609   -2.3210481   0.12362849    10860.868     1000 
 1074000   0.42855119   -2.9864365   0.64218396   -2.3442525   0.12559138    11042.533     1000 
 1076000   0.44332679   -2.9630557    0.6643252   -2.2987305    0.1359636    10921.384     1000 
 1078000    0.4311293   -2.9462219   0.64604725   -2.3001747   0.14061638    10753.124     1000 
 1080000   0.43905671   -2.9946887   0.65792648   -2.3367622    0.1441087    10891.718     1000 
 1082000   0.44024246    -2.987104   0.65970333   -2.3274007   0.13333901    10740.884     1000 
 1084000   0.44074429   -2.9308941   0.66045532   -2.2704388   0.12109456    10826.315     1000 
 1086000   0.41947687   -2.9673247   0.62858609   -2.3387386   0.13741683     10863.17     1000 
 1088000   0.44379453   -2.8973177    0.6650261   -2.2322916   0.14884439    10696.647     1000 
 1090000   0.42653523   -2.9529194   0.63916304   -2.3137564   0.13090385    10660.218     1000 
 1092000   0.43678549   -2.9422511   0.65452305   -2.2877281   0.14344307    10732.929     1000 
 1094000   0.42955872   -2.9440033   0.64369374   -2.3003095   0.12744705    10756.016     1000 
 1096000   0.43693864     -2.92943   0.65475256   -2.2746774   0.14504126    10764.066     1000 
 1098000    0.4064382    -2.975092   0.60904764   -2.3660443   0.12474479    10812.392     1000 
 1100000   0.41792855    -2.974486   0.62626594     -2.34822   0.12942809    10965.112     1000 
 1102000   0.42909918   -2.9608785   0.64300513   -2.3178734   0.13844767    10796.095     1000 
 1104000   0.43370894   -2.9762866   0.64991285   -2.3263737   0.13712597    10989.121     1000 
 1106000   0.43108777   -2.9662795   0.64598502   -2.3202945   0.14846191    10838.656     1000 
 1108000    0.4429826   -2.9711626   0.66380943   -2.3073532   0.14291602    10896.086     1000 
 1110000   0.42501444   -2.9785267   0.63688414   -2.3416425   0.13828229    10913.861     1000 
 1112000   0.42217008   -2.9509242   0.63262187   -2.3183023   0.13963308    10684.005     1000 
 1114000   0.44411701   -2.9417951   0.66550934   -2.2762858   0.13748636     10691.31     1000 
 1116000   0.44295216   -2.9569897   0.66376381   -2.2932258   0.13149553    10854.009     1000 
 1118000   0.43028875   -2.9949489   0.64478769   -2.3501612   0.11383101    11004.554     1000 
 1120000   0.42464628   -2.9665333   0.63633245   -2.3302009    0.1392456    10703.303     1000 
 1122000   0.45114684   -2.9689627   0.67604354   -2.2929192   0.11961293    10920.466     1000 
 1124000   0.43630859    -2.946835   0.65380842   -2.2930265   0.13777782    10740.048     1000 
 1126000   0.43132189   -2.9860922   0.64633586   -2.3397564   0.13048641    10844.319     1000 
 1128000   0.44425342   -2.9689389   0.66571375   -2.3032252   0.13860399    10874.044     1000 
 1130000   0.42906561   -2.9966652   0.64295482   -2.3537103   0.12715697    10889.678     1000 
 1132000   0.41770654   -2.9979211   0.62593326   -2.3719879   0.13171562     10810.79     1000 
 1134000   0.42292844   -2.9734551   0.63375827   -2.3396968   0.11154336    10948.523     1000 
 1136000   0.43645255   -2.9420931   0.65402415    -2.288069   0.13985635    10728.339     1000 
 1138000   0.42949313   -2.9923521   0.64359546   -2.3487567   0.12393159    10859.657     1000 
 1140000   0.41934005   -2.9539998   0.62838107   -2.3256188   0.11643265    10784.971     1000 
 1142000   0.43451427   -2.9452884   0.65111963   -2.2941687    0.1151718    10830.591     1000 
 1144000   0.41985011   -2.9747697   0.62914539   -2.3456243   0.12083004    10917.552     1000 
 1146000   0.43823739   -2.9663969   0.65669873   -2.3096982   0.13970304    10836.567     1000 
 1148000   0.41600487   -2.9731512   0.62338329   -2.3497679   0.11864181    10888.279     1000 
 1150000   0.42801133   -2.9850744   0.64137497   -2.3436994   0.15152184     10760.82     1000 
 1152000    0.4258567   -2.9542861   0.63814626   -2.3161398   0.12958755    10774.598     1000 
 1154000   0.45467787   -2.9879955   0.68133478   -2.3066607   0.12663404    10742.189     1000 
 1156000   0.43151799   -3.0137394   0.64662971   -2.3671096   0.13848237    10955.379     1000 
 1158000   0.39886193   -2.9622483    0.5976946   -2.3645537   0.11508036     10869.14     1000 
 1160000   0.44407481   -2.9731055    0.6654461   -2.3076594   0.14887525    10672.594     1000 
 1162000   0.43297644   -2.9724576   0.64881519   -2.3236425   0.13401049    10927.083     1000 
 1164000   0.44217038   -2.9773373   0.66259232    -2.314745    0.1336986    10813.475     1000 
 1166000   0.44855588   -2.9901512   0.67216098   -2.3179902   0.12672093    10982.617     1000 
 1168000   0.42356702   -2.9499187   0.63471518   -2.3152035   0.12593532     10876.67     1000 
 1170000   0.42731261   -2.9262099   0.64032794    -2.285882   0.12985608    10709.808     1000 
 1172000    0.4420931   -2.9543195   0.66247651    -2.291843   0.13449455    10849.129     1000 
 1174000    0.4244442   -2.9195765   0.63602964   -2.2835468   0.12509118    10767.285     1000 
 1176000   0.44312049    -2.962422   0.66401606    -2.298406   0.14827778    10752.345     1000 
 1178000   0.42692503   -3.0122856   0.63974716   -2.3725384   0.13330072    10952.008     1000 
 1180000   0.41319501   -2.9854806   0.61917272   -2.3663078   0.13219325    10796.994     1000 
 1182000   0.43898815   -2.9402236   0.65782374   -2.2823998   0.13352777    10778.509     1000 
 1184000   0.42737549   -2.9888716   0.64042217   -2.3484494   0.13222353    10823.004     1000 
 1186000   0.41343302   -2.9616333   0.61952938   -2.3421039   0.12912918    10834.969     1000 
 1188000   0.41949063   -2.9387445   0.62860671   -2.3101377   0.14239619    10694.846     1000 
 1190000   0.42966389   -2.9568521   0.64385133   -2.3130007   0.11494143    10775.861     1000 
 1192000   0.41777318   -2.9668084   0.62603311   -2.3407753   0.12836265    10837.742     1000 
 1194000   0.43833303   -2.9775523   0.65684205   -2.3207103   0.12398786    10808.603     1000 
 1196000   0.40391449   -2.9724249   0.60526586   -2.3671591   0.11888713    10898.113     1000 
 1198000   0.41826061   -2.9684035   0.62676352     -2.34164   0.13550641    10700.858     1000 
 1200000   0.43890909   -3.0106547   0.65770527   -2.3529494   0.12328723    10815.475     1000 
 1202000   0.42810394   -2.9644648   0.64151375    -2.322951   0.13919054    10930.491     1000 
 1204000   0.40942483   -2.9751845   0.61352312   -2.3616613   0.13490277     10863.51     1000 
 1206000   0.42449517   -2.9633217   0.63610602   -2.3272157   0.11852427     10890.91     1000 
 1208000   0.41877576   -2.9428292   0.62753548   -2.3152937   0.14288851    10769.935     1000 
 1210000    0.4165111   -2.9877339   0.62414189    -2.363592   0.12305402    10862.978     1000 
 1212000    0.4389076   -2.9985252   0.65770304   -2.3408221   0.12265717     10893.01     1000 
 1214000   0.44803459   -2.9193759   0.67137983    -2.247996   0.11745882    10874.612     1000 
 1216000   0.43171538   -2.9396581    0.6469255   -2.2927326   0.15444586    10731.795     1000 
 1218000   0.42562564   -2.9974385   0.63780002   -2.3596385   0.13862624    10819.234     1000 
 1220000   0.43394804   -2.9744758   0.65027114   -2.3242047   0.14786894    10782.027     1000 
 1222000   0.43896854   -2.9311948   0.65779435   -2.2734005   0.13845175    10807.054     1000 
 1224000   0.44078991   -2.9435961   0.66052368   -2.2830724   0.12263938    10961.898     1000 
 1226000   0.42524542   -3.0056687   0.63723026   -2.3684385   0.11772228    10928.075     1000 
 1228000   0.41635137   -2.9371757   0.62390252   -2.3132732   0.13221146    10794.991     1000 
 1230000   0.43330255   -2.9450577   0.64930388   -2.2957538   0.13362501    10753.696     1000 
 1232000   0.43138663   -2.9572878   0.64643287   -2.3108549   0.12351525    10905.115     1000 
 1234000   0.42076889   -2.9071887   0.63052218   -2.2766665   0.11638745    10756.842     1000 
 1236000   0.42035325   -3.0146656   0.62989935   -2.3847663   0.13917474    10898.017     1000 
 1238000    0.4469045   -2.9885804    0.6696864    -2.318894   0.14180887    10816.414     1000 
 1240000   0.43247136   -2.9790724   0.64805833   -2.3310141   0.13130372    10896.864     1000 
 1242000   0.42427143   -2.9064094   0.63577074   -2.2706387   0.13418415    10721.553     1000 
 1244000    0.4160108   -2.9164336   0.62339219   -2.2930414   0.12008076    10727.812     1000 
 1246000   0.42572977   -2.9623461   0.63795606   -2.3243901   0.13448445    10815.083     1000 
 1248000   0.42736619   -2.9583886   0.64040824   -2.3179803   0.13198413    10851.291     1000 
 1250000    0.4286302   -3.0038789   0.64230236   -2.3615765   0.14242062     10754.27     1000 
 1252000   0.42636164   -2.9566741   0.63890291   -2.3177712   0.12937346    10802.255     1000 
 1254000   0.42196489   -2.9900031   0.63231439   -2.3576887   0.11839401    10895.688     1000 
 1256000   0.43416619   -2.9836783   0.65059804   -2.3330803   0.13049008    10792.808     1000 
 1258000   0.42923653   -2.9505555   0.64321094   -2.3073446   0.12996776    10794.004     1000 
 1260000   0.41891066   -2.9486671   0.62773763   -2.3209295   0.13295419    10805.184     1000 
 1262000   0.41981993   -2.8943859   0.62910016   -2.2652857   0.14343277     10607.22     1000 
 1264000   0.43543829   -2.9556511   0.65250427   -2.3031468   0.13451071    10769.912     1000 
 1266000   0.42997908    -2.979958   0.64432365   -2.3356343   0.10954479    10878.198     1000 
 1268000   0.43246626   -2.9724094   0.64805069   -2.3243587   0.11958284    10799.448     1000 
 1270000   0.41209568   -2.9430569   0.61752538   -2.3255315   0.13187172    10816.336     1000 
 1272000   0.43149448   -2.9924597   0.64659447   -2.3458652   0.12810851        10937     1000 
 1274000   0.44541193   -2.9693227   0.66744977    -2.301873   0.13937502    10738.327     1000 
 1276000   0.40282588    -2.953783   0.60363458   -2.3501484   0.13247563    10859.661     1000 
 1278000   0.44414982   -2.9910011    0.6655585   -2.3254426   0.12481858    10802.457     1000 
 1280000   0.42913574   -2.9532294    0.6430599   -2.3101695   0.15259187     10590.84     1000 
 1282000   0.43322113   -2.9409243   0.64918186   -2.2917424   0.14601836    10813.686     1000 
 1284000   0.43448476   -2.9986272   0.65107541   -2.3475518    0.1384016    10819.715     1000 
 1286000   0.42054376   -3.0036874   0.63018482   -2.3735025   0.13150491    10970.512     1000 
 1288000   0.41593796   -2.9882458   0.62328303   -2.3649628   0.12565446    10849.665     1000 
 1290000     0.442124   -3.0103062   0.66252282   -2.3477834   0.12692624    10899.649     1000 
 1292000   0.43112244   -2.9972304   0.64603698   -2.3511934   0.12888655    10852.263     1000 
 1294000   0.41436753   -2.9927354   0.62092975   -2.3718056    0.1240233    10965.392     1000 
 1296000   0.45539987   -2.9983309   0.68241671   -2.3159142   0.12451997    10994.038     1000 
 1298000   0.42254919   -3.0138986   0.63318997   -2.3807087   0.12686845    10856.221     1000 
 1300000   0.42048594   -2.9710033   0.63009818   -2.3409051   0.12640134    10857.366     1000 
 1302000   0.41990633   -2.9794228   0.62922964   -2.3501932   0.11234398    10824.757     1000 
 1304000   0.42842663   -2.9617591    0.6419973   -2.3197618   0.13630756    10763.755     1000 
 1306000   0.43159166   -2.9410225   0.64674011   -2.2942824   0.13358629    10785.271     1000 
 1308000   0.43821955   -2.9512822     0.656672   -2.2946102    0.1282791    10844.066     1000 
 1310000   0.41961304   -3.0151029   0.62879013   -2.3863128   0.11668504    11069.334     1000 
 1312000   0.41880118   -2.9495703   0.62757357   -2.3219967   0.12614666    10894.509     1000 
 1314000   0.42858591   -2.9553693   0.64223598   -2.3131333   0.14311332    10783.835     1000 
 1316000   0.43346425   -2.9403899   0.64954617   -2.2908437   0.13581928    10641.653     1000 
 1318000   0.44012275    -2.946643   0.65952394   -2.2871191   0.14072547    10721.864     1000 
 1320000   0.43079738   -2.9634912   0.64554988   -2.3179413   0.13572496    10820.314     1000 
 1322000   0.43256567   -2.9581702   0.64819966   -2.3099706   0.13352646     10694.93     1000 
 1324000   0.43340795   -3.0155609   0.64946181    -2.366099   0.11574287    11047.301     1000 
 1326000   0.43370714   -2.9556988   0.64991014   -2.3057886   0.13578272    10778.921     1000 
 1328000   0.42945284   -2.9734645   0.64353509   -2.3299294   0.12449048    10844.058     1000 
 1330000   0.44751639   -2.9930403   0.67060331    -2.322437   0.12358538     10941.01     1000 
 1332000   0.42787045   -2.9654486   0.64116387   -2.3242848   0.12840667    10925.508     1000 
 1334000   0.42147318   -2.9673234   0.63157755   -2.3357458   0.12260155    10935.664     1000 
 1336000   0.42571617   -2.9541136   0.63793568   -2.3161779   0.13093545    10860.132     1000 
 1338000   0.45758922   -2.9567482   0.68569744   -2.2710508   0.11586546    10824.838     1000 
 1340000   0.43741918   -2.9513345   0.65547264   -2.2958618   0.11825656     10954.45     1000 
 1342000   0.41500956   -2.9795148   0.62189182    -2.357623   0.13637847    10883.491     1000 
 1344000   0.42790734   -3.0458481   0.64121916   -2.4046289   0.12522206    10957.717     1000 
 1346000   0.43514272   -2.9355328   0.65206136   -2.2834715   0.13399342    10850.572     1000 
 1348000    0.4339575   -2.9486108   0.65028532   -2.2983255   0.12808916    10861.909     1000 
 1350000   0.42792224   -2.9764465   0.64124148    -2.335205   0.14133419     10848.09     1000 
 1352000     0.452784   -2.9289189   0.67849683    -2.250422   0.13048559    10762.085     1000 
 1354000   0.41965411   -2.9711747   0.62885168    -2.342323   0.13132258    10910.813     1000 
 1356000   0.42658108   -2.9895376   0.63923174   -2.3503059   0.12251939    10949.491     1000 
 1358000   0.44486426   -2.9486954   0.66662909   -2.2820663   0.13773492    10802.412     1000 
 1360000    0.4281559   -2.9963164   0.64159161   -2.3547247   0.12969939     10940.56     1000 
 1362000   0.43196674   -2.9840236   0.64730216   -2.3367214   0.13317241    10706.635     1000 
 1364000   0.43229211   -2.9482005   0.64778973   -2.3004108   0.11531761    10923.923     1000 
 1366000   0.43076819   -2.9648541   0.64550613    -2.319348   0.14949055    10531.741     1000 
 1368000   0.42418435   -3.0374078   0.63564025   -2.4017675   0.13134794    10773.452     1000 
 1370000   0.42291743   -2.9321168   0.63374177   -2.2983751   0.14631999    10737.216     1000 
 1372000   0.45360621   -2.9541948    0.6797289   -2.2744659    0.1415964    10813.969     1000 
 1374000   0.42512265   -3.0109676   0.63704629   -2.3739213     0.124921    10810.044     1000 
 1376000   0.44228609   -2.9648122   0.66276571   -2.3020465   0.14930201    10797.683     1000 
 1378000   0.44598715   -2.9482212   0.66831175   -2.2799095    0.1228019    10843.794     1000 
 1380000   0.44460327   -2.9245728     0.666238   -2.2583348   0.12295395    10677.707     1000 
 1382000   0.44882006   -2.9543795   0.67255685   -2.2818226   0.12222498    10868.347     1000 
 1384000   0.43472251   -2.9925543   0.65143169   -2.3411226   0.12380493     10869.11     1000 
 1386000   0.43449152   -3.0211998   0.65108555   -2.3701143   0.11928764    11008.595     1000 
 1388000    0.4390127   -2.9723361   0.65786053   -2.3144756   0.12320238    11014.381     1000 
 1390000   0.41632652   -2.9550465   0.62386528   -2.3311812   0.13130294    10711.418     1000 
 1392000    0.4360422   -2.9448724   0.65340924   -2.2914631   0.13561994    10694.162     1000 
 1394000   0.42965134   -2.9657173   0.64383253   -2.3218848   0.15220717    10714.245     1000 
 1396000   0.44235475   -2.9773503   0.66286859   -2.3144817   0.15521316    10749.649     1000 
 1398000   0.43012193   -2.9653522   0.64453771   -2.3208145   0.12622646    11015.957     1000 
 1400000   0.42935955   -2.9762012   0.64339529   -2.3328059   0.12592932     11043.29     1000 
 1402000   0.43275354   -3.0054794   0.64848118   -2.3569983   0.12755915    10958.262     1000 
 1404000   0.41411382   -2.9911518   0.62054956   -2.3706023   0.13699981    10881.576     1000 
 1406000   0.44646845   -2.9094808   0.66903298   -2.2404478   0.14507229    10639.043     1000 
 1408000   0.44672319   -2.9512916    0.6694147   -2.2818769    0.1473002    10680.951     1000 
 1410000    0.4436415   -3.0005297   0.66479679   -2.3357329   0.13773341    10883.374     1000 
 1412000   0.43292935   -2.9318375   0.64874463   -2.2830929   0.13144389    10772.118     1000 
 1414000    0.4218661   -2.9671157   0.63216634   -2.3349494    0.1152943     10965.32     1000 
 1416000   0.41665515   -3.0131095   0.62435775   -2.3887518   0.11625732    10989.434     1000 
 1418000    0.4391275   -2.9339829   0.65803255   -2.2759504   0.13376216     10708.53     1000 
 1420000   0.43042362   -2.9938605   0.64498979   -2.3488707   0.11122672    10957.485     1000 
 1422000   0.46122202   -2.9802019   0.69114119   -2.2890607   0.13076406     10938.48     1000 
 1424000   0.41757796   -2.9337228   0.62574057   -2.3079822   0.11192362     10884.12     1000 
 1426000   0.44429796   -2.9150864    0.6657805   -2.2493059   0.13777055    10754.871     1000 
 1428000   0.43464578   -2.9898667    0.6513167     -2.33855    0.1256298     10919.05     1000 
 1430000   0.43638646   -2.9541454    0.6539251   -2.3002203   0.12331757    10750.871     1000 
 1432000   0.43085182   -2.9762289   0.64563145   -2.3305974   0.12224129     10911.22     1000 
 1434000   0.42694966   -2.9886719   0.63978406   -2.3488878   0.12547107    10760.172     1000 
 1436000   0.43773292   -2.9500478   0.65594278    -2.294105    0.1417398    10673.472     1000 
 1438000   0.42338585   -2.9520939    0.6344437   -2.3176502   0.12241443    10877.219     1000 
 1440000    0.4357561   -2.9835273   0.65298052   -2.3305468    0.1242612    10796.936     1000 
 1442000   0.43108937   -2.9908555   0.64598742   -2.3448681   0.11940003    10914.052     1000 
 1444000    0.4367455   -3.0115527   0.65446314   -2.3570895   0.12947521    10836.968     1000 
 1446000   0.43225071   -2.9069803    0.6477277   -2.2592526   0.13565398    10787.759     1000 
 1448000   0.44419887   -3.0242244     0.665632   -2.3585924     0.131932    10860.134     1000 
 1450000   0.43562505   -2.9426318   0.65278413   -2.2898476    0.1173439    10919.613     1000 
 1452000   0.44475448   -2.9513171   0.66646459   -2.2848525   0.13476193    10949.116     1000 
 1454000    0.4352155   -2.9758723   0.65217042   -2.3237019   0.13413182    10760.865     1000 
 1456000   0.43902969    -3.002841   0.65788599    -2.344955   0.11642278    10965.119     1000 
 1458000   0.40900658   -2.9395365   0.61289636   -2.3266401   0.12683186    10878.264     1000 
 1460000   0.41547243   -2.9179219   0.62258544   -2.2953364   0.14328056    10708.234     1000 
 1462000   0.41471482   -2.9821819   0.62145016   -2.3607317    0.1291057    10934.862     1000 
 1464000   0.42013924   -3.0093099   0.62957865   -2.3797312   0.11424252    11045.996     1000 
 1466000   0.43416331   -3.0044342   0.65059372   -2.3538404   0.11035087    10999.159     1000 
 1468000   0.42998904   -3.0001881   0.64433858   -2.3558496   0.11013377    10983.848     1000 
 1470000   0.43759866   -2.9523544   0.65574159   -2.2966128   0.13624631    10828.929     1000 
 1472000   0.44695293   -2.9686278   0.66975896   -2.2988688   0.13934493    10750.639     1000 
 1474000   0.41821166   -2.9969297   0.62669018   -2.3702395    0.1145759    11012.768     1000 
 1476000   0.40878258   -2.9461882   0.61256069   -2.3336275   0.13086974    10828.865     1000 
 1478000   0.42579643   -2.9941674   0.63805596   -2.3561114   0.12921151    10927.702     1000 
 1480000   0.45513387   -2.9916201    0.6820181    -2.309602   0.13030782     10896.75     1000 
 1482000   0.42677113   -2.9857783   0.63951654   -2.3462618   0.12898751     10944.62     1000 
 1484000   0.43816816   -2.9270375   0.65659498   -2.2704425   0.14074003    10799.658     1000 
 1486000   0.43877938   -2.9619733    0.6575109   -2.3044624   0.14078622    10818.072     1000 
 1488000    0.4200639   -2.9984122   0.62946575   -2.3689465   0.12901765    10920.807     1000 
 1490000   0.42989532   -2.9302644   0.64419814   -2.2860662   0.13362291    10799.926     1000 
 1492000   0.42299541   -2.9806844   0.63385862   -2.3468257   0.10919475    10765.351     1000 
 1494000   0.40507293   -2.9890742   0.60700179   -2.3820724   0.11391621    10952.233     1000 
 1496000   0.41177474   -3.0248688   0.61704444   -2.4078244   0.14038711    10850.305     1000 
 1498000   0.42767011   -3.0020561   0.64086367   -2.3611925   0.13206715    10841.485     1000 
 1500000   0.43848726   -2.9099338   0.65707316   -2.2528606   0.12811678    10798.785     1000 
 1502000   0.42130243   -2.9594099   0.63132169   -2.3280882   0.12127894    10903.273     1000 
 1504000   0.43449359   -2.9451347   0.65108864    -2.294046   0.14253997     10761.58     1000 
 1506000   0.41177815   -2.9449168   0.61704955   -2.3278673   0.12574406    10873.109     1000 
 1508000   0.42747076   -2.9581873   0.64056493   -2.3176224   0.12836654     10823.43     1000 
 1510000   0.43311782    -2.939643   0.64902705   -2.2906159   0.12817504    10732.356     1000 
 1512000   0.42836819   -2.9711438   0.64190974   -2.3292341   0.12347384    10973.769     1000 
 1514000   0.43062501   -2.9914202   0.64529158   -2.3461286   0.13247088    10862.635     1000 
 1516000   0.41788949   -2.9889462    0.6262074   -2.3627388   0.12303275    10939.885     1000 
 1518000   0.42005041   -2.9956793   0.62944554   -2.3662337   0.13955681    10817.053     1000 
 1520000   0.42482909   -2.9090866    0.6366064   -2.2724802   0.13829362    10625.819     1000 
 1522000    0.4363501   -3.0229962   0.65387063   -2.3691256   0.14223104    10831.111     1000 
 1524000   0.42391612   -3.0040681    0.6352383   -2.3688298    0.1453049    10850.971     1000 
 1526000   0.42844831   -2.9771244   0.64202979   -2.3350946   0.14195361    10757.172     1000 
 1528000   0.45595468    -2.962076   0.68324809   -2.2788279   0.12969926    10838.434     1000 
 1530000   0.43220175   -2.9518463   0.64765433   -2.3041919   0.14128828     10810.46     1000 
 1532000   0.43974902   -2.9213531   0.65896391   -2.2623892   0.14240383    10788.295     1000 
 1534000   0.43413155   -2.9488657   0.65054612   -2.2983196   0.13094658    10853.873     1000 
 1536000   0.43847537   -3.0126981   0.65705534   -2.3556427   0.14394258    10751.026     1000 
 1538000   0.42095626   -2.9354881   0.63080296   -2.3046852   0.12355417    10934.062     1000 
 1540000   0.41833318   -3.0090005   0.62687228   -2.3821282   0.12842037    10990.731     1000 
 1542000    0.4572597   -2.9406277   0.68520366   -2.2554241   0.12891033    10918.051     1000 
 1544000   0.42502381   -2.9380782   0.63689818     -2.30118   0.12778285    10773.072     1000 
 1546000   0.42837826   -2.9895777   0.64192482   -2.3476529   0.12300859    10930.158     1000 
 1548000   0.41281026   -2.9976512   0.61859618    -2.379055     0.126218    11067.672     1000 
 1550000    0.4401318   -2.9161945    0.6595375    -2.256657   0.12698899    10786.866     1000 
 1552000   0.45168639   -2.9592203   0.67685205   -2.2823682   0.14514429    10714.999     1000 
 1554000   0.43270722   -2.9141402   0.64841176   -2.2657284   0.13090661    10717.722     1000 
 1556000   0.42322343   -2.9897607   0.63420032   -2.3555604   0.13775415    10920.235     1000 
 1558000   0.44812186   -2.9882078    0.6715106   -2.3166972   0.14407378    10722.493     1000 
 1560000   0.43791125   -2.9825581   0.65621001   -2.3263481   0.14163705    10733.395     1000 
 1562000    0.4283812   -2.9842036   0.64192922   -2.3422744   0.12647138    10911.786     1000 
 1564000   0.43698818   -2.9406984   0.65482678   -2.2858716   0.11514243     10877.13     1000 
 1566000   0.42439946    -2.979306   0.63596259   -2.3433434   0.11991526    10882.829     1000 
 1568000   0.42544594   -2.9538566   0.63753074   -2.3163259   0.12124772    10739.771     1000 
 1570000   0.45635283   -2.9248266   0.68384472   -2.2409818   0.13815221    10762.748     1000 
 1572000   0.43539511   -2.9965776   0.65243957    -2.344138   0.12300155    10901.934     1000 
 1574000   0.41609709   -2.9572936   0.62352149   -2.3337721   0.14295991    10727.617     1000 
 1576000   0.43314997   -2.9925223   0.64907523   -2.3434471   0.14448392    10825.955     1000 
 1578000   0.44076289   -2.9705386   0.66048318   -2.3100554   0.13389459    10663.946     1000 
 1580000   0.43159187   -2.9811238   0.64674042   -2.3343834   0.12624665    10869.121     1000 
 1582000   0.42104829   -2.9165521   0.63094086   -2.2856112   0.13714107    10751.203     1000 
 1584000   0.43451123   -2.9605047   0.65111508   -2.3093896   0.13107902    10863.118     1000 
 1586000   0.41970362   -2.9479796   0.62892588   -2.3190537    0.1248617    10908.819     1000 
 1588000   0.41866158   -2.9805665   0.62736438   -2.3532021    0.1297031    10858.488     1000 
[...]
 2614000    0.4400964   -2.9751393   0.65948445   -2.3156549    0.1430411    10788.765     1000 
 2616000   0.44584243   -2.9297338   0.66809488   -2.2616389   0.13232574    10841.914     1000 
 2618000   0.42453216   -2.9733221   0.63616145   -2.3371607    0.1142142    11038.216     1000 
 2620000   0.44698755   -2.9797542   0.66981084   -2.3099433   0.14018979    10828.365     1000 
 2622000   0.43982112   -2.9849385   0.65907195   -2.3258665   0.12757945     10865.63     1000 
 2624000   0.40521049    -2.986592   0.60720792   -2.3793841   0.12201111    10902.538     1000 
 2626000   0.44092439   -2.9892735   0.66072519   -2.3285483   0.13009714    10849.046     1000 
 2628000   0.45122503   -2.9611512   0.67616071   -2.2849905   0.13383144    10832.426     1000 
 2630000   0.45377699    -2.995816   0.67998482   -2.3158311   0.13504386    10928.589     1000 
 2632000   0.44436294    -2.949375   0.66587787   -2.2834971   0.12909445    10785.134     1000 
 2634000   0.43537899    -2.930852   0.65241542   -2.2784366   0.13536321     10787.52     1000 
 2636000   0.43108082   -2.9057724   0.64597461   -2.2597978   0.11920838    10815.876     1000 
 2638000   0.43370522    -3.001739   0.64990727   -2.3518317   0.13051128    10980.163     1000 
 2640000   0.43692935   -2.9540577   0.65473863   -2.2993191   0.12228115    10888.534     1000 
 2642000   0.41128083   -2.9464264   0.61630432    -2.330122   0.11366389    10862.328     1000 
 2644000   0.42316175   -2.9511405   0.63410788   -2.3170326   0.13253595    10773.842     1000 
 2646000   0.42861698   -2.9701779   0.64228255   -2.3278954   0.12737251    10981.054     1000 
 2648000   0.43276637   -2.9952277    0.6485004   -2.3467273   0.12671052    10941.145     1000 
 2650000   0.42728683   -3.0177635   0.64028931   -2.3774742   0.13397745    10917.412     1000 
 2652000   0.41391836   -2.9470696   0.62025666   -2.3268129   0.13430432    10744.404     1000 
 2654000   0.43390967   -2.9900258   0.65021364   -2.3398122   0.13162071    10852.843     1000 
 2656000   0.42661299    -3.020154   0.63927957   -2.3808744    0.1304216    10971.323     1000 
 2658000   0.41126239   -2.9348172   0.61627669   -2.3185405   0.12312544    10739.702     1000 
 2660000   0.42732758   -3.0168957   0.64035038   -2.3765453   0.12193315    10884.175     1000 
 2662000   0.43191565   -2.9859852    0.6472256   -2.3387596   0.14206452    10807.662     1000 
 2664000   0.42818645   -3.0382569    0.6416374   -2.3966195   0.12028558    11113.562     1000 
 2666000   0.42256442   -2.9548892   0.63321279   -2.3216764   0.13531106    10783.238     1000 
 2668000   0.42380783   -2.9513979   0.63507604   -2.3163219   0.13198467    10845.061     1000 
 2670000   0.41844203   -2.9558682   0.62703539   -2.3288328   0.12149148    10929.233     1000 
 2672000   0.44628535   -2.9745296    0.6687586    -2.305771   0.13525924    11000.176     1000 
 2674000   0.42997544   -2.9509064   0.64431819   -2.3065882   0.13523281     10770.34     1000 
 2676000   0.41488784   -2.9622617   0.62170943   -2.3405523   0.13714418    10766.128     1000 
 2678000     0.431237   -2.9720574   0.64620864   -2.3258487    0.1239583    10839.787     1000 
 2680000   0.42642267   -2.8872126   0.63899437   -2.2482182   0.14511922    10536.685     1000 
 2682000   0.44181631   -2.9168589   0.66206174   -2.2547971   0.13742835    10641.158     1000 
 2684000   0.43164897   -2.9439289   0.64682598   -2.2971029   0.13084819     10624.02     1000 
 2686000   0.43578208   -3.0223765   0.65301945   -2.3693571   0.12796178    11047.302     1000 
 2688000   0.42842248   -2.9317211   0.64199109     -2.28973   0.14755275    10641.078     1000 
 2690000   0.41826216   -2.9498262   0.62676585   -2.3230603   0.11354981    10823.469     1000 
 2692000   0.43727074   -2.9689433   0.65525021   -2.3136931   0.14590863    10755.135     1000 
 2694000   0.43159836   -3.0112454   0.64675014   -2.3644953   0.11854078    10991.994     1000 
 2696000   0.43020365   -2.9981471   0.64466017    -2.353487   0.13254624     10858.61     1000 
 2698000   0.43327051   -3.0133251   0.64925586   -2.3640692   0.12021319    10952.532     1000 
 2700000   0.42465328   -2.9789703   0.63634294   -2.3426274   0.12433663    10875.352     1000 
 2702000   0.42141761   -2.9579281   0.63149428   -2.3264338   0.12494989    10915.748     1000 
 2704000   0.43418543   -2.9245091   0.65062687   -2.2738822   0.13279798    10781.233     1000 
 2706000   0.41759055   -2.9702705   0.62575944   -2.3445111   0.12849338    10893.748     1000 
 2708000   0.42816058   -2.9551001   0.64159863   -2.3135014   0.11920465    10829.822     1000 
 2710000   0.44328827    -2.969409   0.66426747   -2.3051416   0.13138773    10890.611     1000 
 2712000   0.43111448   -3.0012827   0.64602505   -2.3552577   0.12972592    10818.305     1000 
 2714000   0.45147605    -2.929159   0.67653686   -2.2526222   0.14225404    10846.824     1000 
 2716000   0.44699653   -2.9939856    0.6698243   -2.3241613    0.1249949    10856.278     1000 
 2718000   0.43243216   -2.9464627   0.64799959   -2.2984631   0.14202425    10660.736     1000 
 2720000   0.42885785    -3.025236   0.64264348   -2.3825925   0.13024301    10910.962     1000 
 2722000   0.41310878   -2.9770811    0.6190435   -2.3580376   0.14088474    10875.848     1000 
 2724000   0.44259102   -2.9537098   0.66322264   -2.2904871   0.12989334    10843.777     1000 
 2726000   0.44476914   -2.9287957   0.66648656   -2.2623092   0.13742774    10708.185     1000 
 2728000   0.40758262   -3.0125887   0.61076255   -2.4018262   0.14096282    10754.134     1000 
 2730000    0.4355311   -3.0423764   0.65264335    -2.389733   0.12606042    10896.338     1000 
 2732000   0.44780797   -2.9977192   0.67104024   -2.3266789   0.13169731    10902.184     1000 
 2734000    0.4161795   -2.9729179   0.62364498    -2.349273   0.12305324    11010.821     1000 
 2736000   0.43477004   -2.9767768    0.6515029   -2.3252739   0.13819454    10798.816     1000 
 2738000   0.42047104   -2.9471652   0.63007585   -2.3170893   0.12267864    10810.092     1000 
 2740000   0.44228883   -2.9205983   0.66276981   -2.2578285    0.1267155    10876.288     1000 
 2742000   0.41545466   -2.9782918   0.62255881    -2.355733   0.12064095    10924.289     1000 
 2744000   0.41799773   -3.0030073   0.62636959   -2.3766377   0.12023516    10957.644     1000 
 2746000   0.43342074   -2.9617888   0.64948097   -2.3123078   0.16035088    10678.787     1000 
 2748000   0.43080008    -3.001957   0.64555392   -2.3564031   0.12602261    10977.285     1000 
 2750000   0.41389613   -3.0098257   0.62022334   -2.3896024   0.12726292    10827.181     1000 
 2752000   0.43196132   -2.9585435   0.64729404   -2.3112494   0.12095736    10709.012     1000 
 2754000   0.42518615   -2.9819756   0.63714145   -2.3448342   0.14012204    10662.832     1000 
 2756000    0.4193887   -2.9724763   0.62845396   -2.3440223   0.11998753    10749.125     1000 
 2758000    0.4188053   -2.9907981   0.62757974   -2.3632183   0.12762281    10883.322     1000 
 2760000   0.41684978   -2.9678353    0.6246494   -2.3431859    0.1292825    10956.591     1000 
 2762000   0.44054681   -2.9853119   0.66015939   -2.3251525    0.1307434    10893.838     1000 
 2764000   0.43086539   -2.9393499   0.64565179   -2.2936981   0.14954549    10754.162     1000 
 2766000   0.43914708   -2.9858683    0.6580619   -2.3278064   0.14692424    10804.233     1000 
 2768000   0.45022296   -2.9652375    0.6746591   -2.2905784   0.14043551    10837.809     1000 
 2770000   0.42311323   -2.9582878   0.63403518   -2.3242526   0.14254359    10759.351     1000 
 2772000   0.42426824   -2.9928146   0.63576596   -2.3570486   0.12513815      10943.9     1000 
 2774000   0.44254888   -3.0538569    0.6631595   -2.3906974   0.11779967    10998.592     1000 
 2776000    0.4192647   -2.9712797   0.62826816   -2.3430115   0.13438643    10666.647     1000 
 2778000   0.42010522   -2.9777672   0.62952768   -2.3482396   0.12352319    10864.498     1000 
 2780000   0.45658944   -3.0125546   0.68419928   -2.3283553    0.1253453    10892.308     1000 
 2782000   0.41624449   -2.9392963   0.62374236    -2.315554   0.14199064    10735.573     1000 
 2784000   0.43089891    -2.963054   0.64570202    -2.317352   0.13246365    10791.311     1000 
 2786000   0.40812471   -2.9623566   0.61157488   -2.3507817   0.12718128    10823.939     1000 
 2788000    0.4213991   -2.9367242   0.63146655   -2.3052577   0.10557122    10879.183     1000 
 2790000   0.43502108   -2.9386843   0.65187909   -2.2868053   0.13522316    10791.532     1000 
 2792000   0.43705337   -2.9464814   0.65492447   -2.2915569   0.13571299    10808.328     1000 
 2794000   0.43421384   -2.9753602   0.65066944   -2.3246907   0.12732201    10788.965     1000 
 2796000   0.40885046   -2.9747774   0.61266241    -2.362115   0.12647976    10746.295     1000 
 2798000   0.42408738   -2.9787515   0.63549494   -2.3432566    0.1226062    10803.604     1000 
 2800000   0.42389562   -2.9870675   0.63520758   -2.3518599   0.10816021    10961.741     1000 
 2802000   0.41855398   -2.9498869   0.62720315   -2.3226837   0.12418495    10738.099     1000 
 2804000   0.43121803   -2.9309703   0.64618022   -2.2847901    0.1210347    10832.663     1000 
 2806000   0.43521877   -2.9433843   0.65217533   -2.2912089   0.12557335    10702.413     1000 
 2808000     0.425033   -2.9198394   0.63691195   -2.2829274    0.1369172    10820.261     1000 
 2810000   0.44862818   -2.9511603   0.67226933    -2.278891    0.1339041    10928.642     1000 
 2812000   0.42746882   -2.9465437   0.64056203   -2.3059817   0.12636395    10888.807     1000 
 2814000   0.42070251   -2.9337044   0.63042272   -2.3032817   0.12516846    10866.868     1000 
 2816000   0.43016687   -3.0343502   0.64460505   -2.3897452   0.12154951    10967.877     1000 
 2818000   0.43645961   -2.9542504   0.65403473   -2.3002157   0.13822388    10849.052     1000 
 2820000   0.44659892   -2.9705503   0.66922849   -2.3013218   0.12778602    10894.969     1000 
 2822000   0.42824426   -2.9846409   0.64172403   -2.3429169   0.13273332    10855.862     1000 
 2824000   0.42842082   -2.9946869    0.6419886   -2.3526983   0.13300269     10923.87     1000 
 2826000   0.43307451   -2.9857591   0.64896215    -2.336797   0.11890206    10921.458     1000 
 2828000    0.4308775   -2.9823185   0.64566994   -2.3366485   0.11993628    10949.015     1000 
 2830000   0.42402043   -3.0319958   0.63539462   -2.3966012   0.11816295    11010.075     1000 
 2832000   0.42270055   -2.9951758   0.63341678    -2.361759   0.13168221    10907.612     1000 
 2834000   0.43314085   -2.9539029   0.64906156   -2.3048414   0.12646105    10830.273     1000 
 2836000   0.42468317   -2.9465291   0.63638773   -2.3101413   0.13281756    10817.764     1000 
 2838000   0.44073401   -2.9713059   0.66043991    -2.310866    0.1081555    10937.277     1000 
 2840000   0.41028213   -2.9176196   0.61480778   -2.3028118   0.12555648    10626.182     1000 
 2842000   0.42170304   -2.9073083   0.63192201   -2.2753863   0.12038557    10786.691     1000 
 2844000   0.43986482   -2.9786297   0.65913743   -2.3194923   0.11456749     10865.23     1000 
 2846000   0.42765059   -2.9907653   0.64083441   -2.3499309   0.12895898    10971.632     1000 
 2848000   0.42190626   -2.9746986   0.63222653   -2.3424721   0.12821819    11062.619     1000 
 2850000   0.43574447   -2.9830512   0.65296309   -2.3300881   0.13216877    10785.168     1000 
 2852000   0.43062042    -2.943202    0.6452847   -2.2979173   0.12649725    10655.831     1000 
 2854000   0.42021653    -2.927509   0.62969446   -2.2978145   0.12389967    10850.805     1000 
 2856000   0.42697366   -3.0253115   0.63982003   -2.3854915    0.1148822    10937.374     1000 
 2858000   0.41985425   -2.9841431    0.6291516   -2.3549915   0.13610199    10773.017     1000 
 2860000   0.41984196   -2.9986137   0.62913318   -2.3694805   0.12851872    10909.916     1000 
 2862000   0.42342468   -2.9972242   0.63450188   -2.3627223   0.12318523    10801.654     1000 
 2864000    0.4178269   -3.0121869   0.62611361   -2.3860733    0.1158415    10989.614     1000 
 2866000   0.44717134   -3.0302562   0.67008625     -2.36017   0.12678301    10867.007     1000 
 2868000   0.43612671   -2.9609049   0.65353587    -2.307369   0.12467641    10872.704     1000 
 2870000   0.44251291   -2.9659189   0.66310559   -2.3028133   0.13454293    10762.717     1000 
 2872000   0.41736299   -2.9568217   0.62541844   -2.3314032   0.12718321    10826.579     1000 
 2874000   0.41816393    -2.921777   0.62661865   -2.2951584   0.14542206    10720.512     1000 
 2876000   0.45688899    -2.988786   0.68464814   -2.3041379   0.14254279    10754.731     1000 
 2878000   0.43974599   -2.8981353   0.65895936   -2.2391759   0.14619605    10682.144     1000 
 2880000   0.43226504    -2.985765   0.64774916   -2.3380158   0.11181878    10889.873     1000 
 2882000   0.43686198   -2.9543137   0.65463768    -2.299676   0.11499419    10773.225     1000 
 2884000   0.42852286   -2.9585642    0.6421415   -2.3164227   0.12618691    10956.303     1000 
 2886000   0.43621558   -2.9610394   0.65366904   -2.3073703   0.12951184    10915.908     1000 
 2888000   0.43931105   -2.9827839    0.6583076   -2.3244763   0.13657232    10791.124     1000 
 2890000   0.42601412   -2.9758813   0.63838215   -2.3374991   0.13580174    10715.833     1000 
 2892000   0.41282247   -2.9443927   0.61861446   -2.3257783   0.12962735    10747.936     1000 
 2894000   0.43026183   -2.9695239   0.64474736   -2.3247766   0.13938485    10704.326     1000 
 2896000   0.42971837   -2.9882604   0.64393297   -2.3443275   0.11401847    10968.571     1000 
 2898000   0.43674042   -2.9533096   0.65445552   -2.2988541   0.14657506    10771.793     1000 
 2900000   0.43103775   -2.9718147   0.64591007   -2.3259047   0.11705404    10814.508     1000 
 2902000   0.43355816   -2.9736378    0.6496869   -2.3239509   0.13438141    10859.756     1000 
 2904000   0.42804919   -2.9633447   0.64143172    -2.321913   0.12311416    10854.425     1000 
 2906000     0.453778     -2.97399   0.67998633   -2.2940036   0.13731885    10742.723     1000 
 2908000   0.43025305   -2.9778804   0.64473419   -2.3331462   0.13317439    10758.426     1000 
 2910000   0.42385209   -2.9296408   0.63514236   -2.2944985   0.12022441    10857.851     1000 
 2912000   0.44669536   -2.9861402   0.66937299   -2.3167672   0.11119386    11035.833     1000 
 2914000   0.42019202   -2.9827325   0.62965774   -2.3530747   0.13729887    10908.255     1000 
 2916000   0.43002396   -2.9872899    0.6443909    -2.342899   0.12637443    10877.905     1000 
 2918000   0.40781494   -3.0127618   0.61111069   -2.4016511   0.13134979    10969.691     1000 
 2920000   0.42950449   -2.9651338   0.64361248   -2.3215213    0.1192679    10796.575     1000 
 2922000   0.40723051   -2.9378856   0.61023492   -2.3276507   0.12863869    10809.524     1000 
 2924000   0.44887117   -2.9571827   0.67263344   -2.2845492   0.14171931    10763.693     1000 
 2926000   0.44016875   -2.9404522   0.65959287   -2.2808593   0.12789894    10760.459     1000 
 2928000   0.42896715   -2.9713507   0.64280728   -2.3285435   0.12498296    10753.091     1000 
 2930000   0.43930187   -2.9637172   0.65829385   -2.3054234   0.13086212    10781.358     1000 
 2932000   0.42248592   -2.9081549   0.63309515   -2.2750598   0.13879118    10711.512     1000 
 2934000   0.44944591   -2.9459817   0.67349469    -2.272487   0.12656604    10759.268     1000 
 2936000   0.42418369   -2.9559676   0.63563926   -2.3203284    0.1273195    10756.897     1000 
 2938000   0.43526817   -2.9620346   0.65224935   -2.3097853   0.12311883    10789.426     1000 
 2940000   0.42402498   -2.9709044   0.63540144    -2.335503   0.14224051    10806.588     1000 
 2942000   0.42958526   -2.9761953   0.64373351   -2.3324618   0.13548602    10743.982     1000 
 2944000   0.43369926   -2.9348869   0.64989834   -2.2849886   0.13289948    10782.515     1000 
 2946000   0.42865895   -2.9717327   0.64234544   -2.3293872   0.13912605    10866.829     1000 
 2948000   0.43133449   -2.9440446   0.64635473   -2.2976899   0.12879192    10868.903     1000 
 2950000   0.44343341   -3.0012112   0.66448496   -2.3367263   0.13379942    10894.366     1000 
 2952000   0.44164624   -2.9540045   0.66180689   -2.2921976   0.13896124    10881.243     1000 
 2954000   0.41898219   -2.9935959   0.62784481   -2.3657511   0.12526497    10815.712     1000 
 2956000    0.4167438   -2.9955321   0.62449058   -2.3710415   0.12888949    10939.799     1000 
 2958000   0.44110172   -3.0011299   0.66099092    -2.340139   0.13345423    10890.626     1000 
 2960000   0.41749416   -2.9865497   0.62561499   -2.3609347   0.13627213    10767.528     1000 
 2962000   0.40855664   -2.9752699   0.61222213   -2.3630478   0.12346254    10919.262     1000 
 2964000   0.44639264   -2.9827192   0.66891937   -2.3137998   0.12371223     10874.17     1000 
 2966000   0.44356376   -2.9899042    0.6646803   -2.3252239   0.13468995    10880.208     1000 
 2968000   0.43779738   -2.9985821   0.65603937   -2.3425427   0.13325954    10817.054     1000 
 2970000   0.43837692    -2.981729   0.65690782   -2.3248212   0.14753187     10762.37     1000 
 2972000   0.43777832   -3.0052666   0.65601081   -2.3492558   0.12589162     10929.37     1000 
 2974000   0.41420742   -2.9596759   0.62068982   -2.3389861   0.11975012    10910.929     1000 
 2976000   0.43346876   -2.9885176   0.64955293   -2.3389646   0.12973168    10886.652     1000 
 2978000   0.42776386   -2.9528188   0.64100415   -2.3118146   0.14680847    10740.658     1000 
 2980000   0.43844377   -2.9855093   0.65700799   -2.3285013   0.14740216    10812.099     1000 
 2982000   0.43256794   -2.9724904   0.64820306   -2.3242873   0.12826211    10672.859     1000 
 2984000    0.4251421   -2.9481156   0.63707544   -2.3110401   0.13316025     10836.13     1000 
 2986000   0.41957766   -2.9471448   0.62873712   -2.3184076   0.12764361    10777.221     1000 
 2988000   0.43396712   -2.9651464   0.65029973   -2.3148467   0.13950148    10876.487     1000 
 2990000   0.44128801   -2.9565275   0.66127009   -2.2952574   0.11410079    10924.209     1000 
 2992000   0.43795716   -3.0149232    0.6562788   -2.3586444   0.12690221     11055.61     1000 
 2994000   0.43750801   -2.9724832   0.65560575   -2.3168774   0.13385689    10829.837     1000 
 2996000   0.42930738   -2.9771051   0.64331711    -2.333788   0.13027231    10862.626     1000 
 2998000    0.4405482   -2.9593127   0.66016148   -2.2991512   0.13648454    10751.361     1000 
 3000000   0.41899952   -2.9399744   0.62787077   -2.3121036   0.11567544    10852.157     1000 
Loop time of 9656.53 on 1 procs for 3000000 steps with 1000 atoms

Performance: 134209.769 tau/day, 310.671 timesteps/s
100.0% CPU use with 1 MPI tasks x 1 OpenMP threads

MPI task timing breakdown:
Section |  min time  |  avg time  |  max time  |%varavg| %total
---------------------------------------------------------------
Pair    | 8778.6     | 8778.6     | 8778.6     |   0.0 | 90.91
Neigh   | 693.79     | 693.79     | 693.79     |   0.0 |  7.18
Comm    | 77.159     | 77.159     | 77.159     |   0.0 |  0.80
Output  | 0.037295   | 0.037295   | 0.037295   |   0.0 |  0.00
Modify  | 93.777     | 93.777     | 93.777     |   0.0 |  0.97
Other   |            | 13.18      |            |       |  0.14

Nlocal:        1000.00 ave        1000 max        1000 min
Histogram: 1 0 0 0 0 0 0 0 0 0
Nghost:        6197.00 ave        6197 max        6197 min
Histogram: 1 0 0 0 0 0 0 0 0 0
Neighs:        210164.0 ave      210164 max      210164 min
Histogram: 1 0 0 0 0 0 0 0 0 0

Total # of neighbors = 210164
Ave neighs/atom = 210.16400
Neighbor list builds = 150000
Dangerous builds not checked

Total wall time: 2:40:56
