LAMMPS (29 Sep 2021 - Update 2)
OMP_NUM_THREADS environment is not set. Defaulting to 1 thread. (src/comm.cpp:98)
  using 1 OpenMP thread(s) per MPI task
# ----------------------- Inicialização -----------------------

units			lj
atom_style 		atomic
dimension 		3
boundary 		p p p

# -------------------- Criação dos Átomos ---------------------

read_data 		topologia.txt
Reading data file ...
  orthogonal box = (0.0000000 0.0000000 0.0000000) to (21.540000 21.540000 21.540000)
  1 by 1 by 1 MPI processor grid
  reading atoms ...
  1000 atoms
  read_data CPU = 0.005 seconds

velocity 		all create ${temp} 87287 rot yes dist gaussian
velocity 		all create 0.30 87287 rot yes dist gaussian

# ------------------ Interação Interatômica -------------------

pair_style		table linear 2000
pair_coeff		1 1 force.table AA 10.0
WARNING: 3 of 2000 force values in table AA are inconsistent with -dE/dr.
WARNING:  Should only be flagged at inflection points (src/pair_table.cpp:465)
pair_coeff		1 2 force.table AB 10.0
WARNING: 1 of 2000 force values in table AB are inconsistent with -dE/dr.
WARNING:  Should only be flagged at inflection points (src/pair_table.cpp:465)
pair_coeff		2 2 force.table BB 10.0
pair_write		1 1 2000 r 0.008 10.0 table.check AA
Appending to table file table.check with DATE: 2023-07-15
Neighbor list info ...
  update every 1 steps, delay 10 steps, check yes
  max neighbors/atom: 2000, page size: 100000
  master list distance cutoff = 10.3
  ghost atom cutoff = 10.3
  binsize = 5.15, bins = 5 5 5
  1 neighbor lists, perpetual/occasional/extra = 1 0 0
  (1) pair table, perpetual
      attributes: half, newton on
      pair build: half/bin/atomonly/newton
      stencil: half/bin/3d
      bin: standard
pair_write		1 2 2000 r 0.008 10.0 table.check AB
Appending to table file table.check with DATE: 2023-07-15
pair_write		2 2 2000 r 0.008 10.0 table.check BB
Appending to table file table.check with DATE: 2023-07-15

neighbor 		0.3 bin
neigh_modify		every 20 delay 0 check no

# ------------------------- Ensemble --------------------------------------

fix 1			all npt temp ${temp} ${temp} 0.5 iso ${press} ${press} 5
fix 1			all npt temp 0.30 ${temp} 0.5 iso ${press} ${press} 5
fix 1			all npt temp 0.30 0.30 0.5 iso ${press} ${press} 5
fix 1			all npt temp 0.30 0.30 0.5 iso 0.13 ${press} 5
fix 1			all npt temp 0.30 0.30 0.5 iso 0.13 0.13 5

# ---------------------- Função de Distribuição Radial -----------------------

#compute RDF 		all rdf 2000 1 1 1 2 2 2
#fix 2 			all ave/time 1 2000 2000 c_RDF[*] file rdf.data mode vector

# ------------------------- Execução ---------------------------

timestep 		0.005
thermo_style		custom step temp pe ke etotal press vol atoms
thermo			2000
run			3000000
Per MPI rank memory allocation (min/avg/max) = 3.614 | 3.614 | 3.614 Mbytes
Step Temp PotEng KinEng TotEng Press Volume Atoms 
       0          0.3    2.0189057      0.44955    2.4684557     1.983831    9993.9483     1000 
    2000   0.29044717   -3.1681458   0.43523508   -2.7329107   0.12434929    11057.499     1000 
    4000   0.29936103   -3.2870556    0.4485925    -2.838463   0.12717695    10996.127     1000 
    6000   0.29995222    -3.311544    0.4494784   -2.8620656   0.12395564    11030.977     1000 
    8000   0.29934832    -3.323996   0.44857346   -2.8754226   0.13082714    10954.799     1000 
   10000   0.30293036   -3.3155675   0.45394114   -2.8616263   0.13804886    10861.311     1000 
   12000   0.29534681   -3.3404225    0.4425772   -2.8978453   0.12228082    10857.115     1000 
   14000   0.30324779   -3.3395218   0.45441681    -2.885105    0.1361853    10835.398     1000 
   16000   0.29608502   -3.3386894    0.4436834    -2.895006   0.12685011    10893.974     1000 
   18000   0.29665382    -3.333108   0.44453575   -2.8885722   0.12186479     10803.47     1000 
   20000   0.28923758   -3.3583016   0.43342252   -2.9248791   0.14987904     10759.37     1000 
   22000   0.30212757   -3.3369846   0.45273817   -2.8842464   0.13474785    10821.096     1000 
   24000   0.30082554   -3.3578252   0.45078706   -2.9070381   0.13951301    10882.748     1000 
   26000   0.29256629   -3.3727875   0.43841059    -2.934377   0.13274087    10892.672     1000 
   28000   0.30595842   -3.3902625   0.45847869   -2.9317838    0.1259452    10887.153     1000 
   30000   0.32077849   -3.3685321   0.48068657   -2.8878455   0.12368719    10968.358     1000 
   32000   0.29992866   -3.3885151    0.4494431    -2.939072   0.11280575     10881.02     1000 
   34000    0.2999933    -3.369489   0.44953996    -2.919949   0.13648041    10853.113     1000 
   36000   0.29776202    -3.347583   0.44619639   -2.9013866    0.1348233    10877.945     1000 
   38000   0.30550994   -3.3575066   0.45780665      -2.8997   0.11987247    10789.792     1000 
   40000    0.3024516    -3.361649   0.45322372   -2.9084253   0.14423923    10825.177     1000 
   42000   0.29492236    -3.365298   0.44194115   -2.9233569   0.13898728    10782.529     1000 
   44000   0.29951256   -3.3733015   0.44881957   -2.9244819   0.13931884    10870.701     1000 
   46000   0.29934264   -3.4071521   0.44856494   -2.9585872   0.12814628    10899.039     1000 
   48000    0.2984258   -3.4065531   0.44719106    -2.959362   0.12368675    11065.284     1000 
   50000   0.29734407   -3.3787213   0.44557009   -2.9331512   0.13146494    10893.771     1000 
   52000   0.29890895   -3.3523173   0.44791506   -2.9044023   0.12807312    10943.115     1000 
   54000   0.29786172    -3.349014   0.44634579   -2.9026682   0.13904204    10863.215     1000 
   56000   0.30151138   -3.4128252    0.4518148   -2.9610104   0.13105519    10874.818     1000 
   58000   0.31158176   -3.4149386   0.46690527   -2.9480334   0.12680847    10927.699     1000 
   60000   0.30133652   -3.3672281   0.45155278   -2.9156753   0.13498409    10897.021     1000 
   62000   0.30292745   -3.3695373   0.45393679   -2.9156005   0.14983532    10710.225     1000 
   64000   0.30016764   -3.3914977    0.4498012   -2.9416965   0.13041958    10877.287     1000 
   66000   0.29070022   -3.3943422   0.43561428   -2.9587279   0.12154801    10876.103     1000 
   68000   0.29878293    -3.390631   0.44772622   -2.9429048    0.1297469    10852.042     1000 
   70000   0.30137827   -3.4161254   0.45161533   -2.9645101   0.13502534    10955.453     1000 
   72000   0.29831518   -3.4005676    0.4470253   -2.9535423   0.11821105    10979.513     1000 
   74000   0.30917675   -3.4037835   0.46330136   -2.9404821   0.12365669    11048.359     1000 
   76000     0.306068   -3.4200991   0.45864289   -2.9614562    0.1220244    11060.578     1000 
   78000   0.29126608   -3.3886054   0.43646222   -2.9521432   0.13112753    10971.956     1000 
   80000   0.29932837   -3.4120116   0.44854357    -2.963468   0.13958303    10910.523     1000 
   82000   0.30200777   -3.4247416   0.45255864    -2.972183   0.13110556    11009.866     1000 
   84000    0.3066709    -3.417338   0.45954634   -2.9577916   0.13414231    11035.678     1000 
   86000   0.29309145    -3.424913   0.43919753   -2.9857154    0.1339147    11004.047     1000 
   88000   0.29755345    -3.452677   0.44588385   -3.0067932   0.14390076    11012.006     1000 
   90000   0.30011064   -3.4232834   0.44971579   -2.9735676   0.12707972    11037.246     1000 
   92000   0.30320811   -3.4382414   0.45435735    -2.983884   0.13794099    10881.852     1000 
   94000   0.29966152   -3.4358127   0.44904279   -2.9867699     0.125414     10877.37     1000 
   96000   0.29702042   -3.4461649    0.4450851   -3.0010798   0.13303888    10903.097     1000 
   98000   0.29762248   -3.4423935   0.44598729   -2.9964062   0.12776171    11012.028     1000 
  100000   0.30571394   -3.4178366   0.45811234   -2.9597243   0.14811714    10863.343     1000 
  102000   0.29858212   -3.4362264   0.44742531   -2.9888011   0.12689688    10968.343     1000 
  104000   0.30212094   -3.4365469   0.45272823   -2.9838187   0.13201003    10990.571     1000 
  106000   0.31944069   -3.4536826   0.47868187   -2.9750007   0.12727313    10992.301     1000 
  108000   0.29808159   -3.4619292   0.44667527   -3.0152539   0.12201223    10974.946     1000 
  110000   0.29967597   -3.4277395   0.44906444    -2.978675   0.11969356    10924.437     1000 
  112000   0.28783812   -3.3970969   0.43132543   -2.9657715   0.11906227    11004.695     1000 
  114000   0.29215749   -3.4038463     0.437798   -2.9660483    0.1345593    10924.257     1000 
  116000   0.30459922   -3.4333883   0.45644193   -2.9769464   0.13303542    10885.357     1000 
  118000     0.298492   -3.4695203   0.44729027   -3.0222301   0.12647576      11033.7     1000 
  120000   0.28702157   -3.4651002   0.43010182   -3.0349984   0.13255352    11100.508     1000 
  122000   0.30616147   -3.4501799   0.45878297   -2.9913969   0.12960077    11076.967     1000 
  124000    0.2900687   -3.4458644   0.43466795   -3.0111964   0.11719827    11111.177     1000 
  126000   0.29862905   -3.4469107   0.44749564    -2.999415    0.1279407    11050.251     1000 
  128000   0.29780356   -3.4287949   0.44625864   -2.9825363   0.13042201     11046.57     1000 
  130000    0.3029462   -3.4660093   0.45396487   -3.0120444   0.12606271    11080.465     1000 
  132000   0.30057593   -3.4471032   0.45041303   -2.9966902   0.14052607    11035.001     1000 
  134000   0.29960009    -3.443637   0.44895074   -2.9946863   0.11861889    11112.136     1000 
  136000   0.29838913   -3.4588669   0.44713611   -3.0117307   0.12140849    11140.169     1000 
  138000   0.29467317    -3.453911   0.44156775   -3.0123432   0.12020668    11090.177     1000 
  140000   0.30164403   -3.4271714   0.45201358   -2.9751578   0.13278491    11058.933     1000 
  142000   0.29677878   -3.4386083   0.44472301   -2.9938853   0.13751976    11057.751     1000 
  144000   0.30556015   -3.4520927   0.45788189   -2.9942108   0.12601636    10999.171     1000 
  146000   0.30723808   -3.4217428   0.46039626   -2.9613465   0.13591752    10996.467     1000 
  148000   0.29888366   -3.4280184   0.44787717   -2.9801413   0.12919719    10960.613     1000 
  150000   0.30205377   -3.4635572   0.45262757   -3.0109296   0.12950088    10992.189     1000 
  152000   0.28974132   -3.4522992   0.43417737   -3.0181218   0.12375813    11123.558     1000 
  154000   0.30013262   -3.4114954   0.44974873   -2.9617466   0.14144083    10963.573     1000 
  156000    0.2984083   -3.4465196   0.44716483   -2.9993548   0.12607535    10950.419     1000 
  158000   0.30851934   -3.4515943   0.46231623    -2.989278   0.13603973    10951.712     1000 
  160000   0.30245839   -3.4308749    0.4532339    -2.977641   0.12686492    11056.847     1000 
  162000   0.30492707   -3.4445597   0.45693321   -2.9876265   0.12899751    11123.795     1000 
  164000   0.31000573   -3.4461098   0.46454358   -2.9815663   0.14019895    11066.497     1000 
  166000   0.30643933   -3.4460323   0.45919934    -2.986833   0.12999711    11097.611     1000 
  168000   0.30248445   -3.4449256   0.45327294   -2.9916527   0.12090788    11119.645     1000 
  170000   0.31041692   -3.4578281   0.46515975   -2.9926683   0.12946662    11076.316     1000 
  172000    0.2991241   -3.4578177   0.44823746   -3.0095802   0.12380329    11086.348     1000 
  174000   0.30135618   -3.4341742   0.45158224   -2.9825919   0.13378863    11064.389     1000 
  176000   0.29827379   -3.4919002   0.44696327    -3.044937   0.13329914    11099.323     1000 
  178000   0.29152424   -3.4846461   0.43684907    -3.047797   0.13978721    11084.525     1000 
  180000   0.29401547    -3.423649   0.44058218   -2.9830668   0.12217224    11093.267     1000 
  182000   0.29551216   -3.4433316   0.44282498   -3.0005066   0.12511163    11173.724     1000 
  184000      0.30375   -3.4585951   0.45516938   -3.0034258   0.14602616    10925.143     1000 
  186000   0.29305091   -3.4426827   0.43913678   -3.0035459   0.12528705    11006.679     1000 
  188000   0.30033688   -3.4395202   0.45005481   -2.9894654   0.13102794    11018.476     1000 
  190000   0.30388508   -3.4559812    0.4553718   -3.0006094   0.11383876     11060.25     1000 
  192000   0.30813162   -3.4159595   0.46173524   -2.9542243   0.13389499    10850.688     1000 
  194000   0.30477463   -3.4642077   0.45670479   -3.0075029   0.13478881    10892.832     1000 
  196000   0.30470137    -3.457831     0.456595    -3.001236   0.14310683     10996.68     1000 
  198000   0.29439466   -3.4551991    0.4411504   -3.0140487   0.13615192     11023.23     1000 
  200000   0.29324634   -3.4269386   0.43942965    -2.987509   0.11954078    11108.636     1000 
  202000   0.30713234   -3.4722162   0.46023781   -3.0119784   0.11271303    11104.249     1000 
  204000   0.29241098    -3.453723   0.43817785   -3.0155452   0.12263848    11056.586     1000 
  206000   0.29757461   -3.4724293   0.44591555   -3.0265137   0.12691574    11010.385     1000 
  208000   0.27990786   -3.4458653   0.41944193   -3.0264234   0.12528623    11036.319     1000 
  210000   0.29114266   -3.4588556   0.43627728   -3.0225783   0.13479175    11051.386     1000 
  212000   0.29901849   -3.4550982   0.44807921    -3.007019    0.1271426    11088.619     1000 
  214000   0.30478877   -3.4701797   0.45672597   -3.0134537   0.12357621    11086.436     1000 
  216000   0.28371893   -3.4446742   0.42515282   -3.0195214   0.11395943    11104.527     1000 
  218000   0.31803639   -3.4293145   0.47657753    -2.952737   0.13100424    11008.007     1000 
  220000   0.31607933   -3.4690389   0.47364487    -2.995394   0.12808374      11019.6     1000 
  222000   0.30820458   -3.4370592   0.46184456   -2.9752147   0.12735858    11005.881     1000 
  224000   0.28742559   -3.4452705   0.43070725   -3.0145632   0.11471741    11013.833     1000 
  226000   0.30468304   -3.4415751   0.45656754   -2.9850076   0.12800135    10990.757     1000 
  228000   0.30369287   -3.4749168   0.45508376    -3.019833   0.12623084    11052.607     1000 
  230000   0.30463331   -3.4777836   0.45649301   -3.0212906   0.13248852    11008.732     1000 
  232000   0.30221592   -3.4398983   0.45287055   -2.9870278   0.13041164    11026.996     1000 
  234000   0.29296189   -3.4551508    0.4390034   -3.0161474   0.12987385    11039.152     1000 
  236000   0.29859755   -3.4798472   0.44744842   -3.0323988   0.12731469    11079.122     1000 
  238000   0.30991523   -3.4607121   0.46440797   -2.9963041   0.13030365     11147.59     1000 
  240000   0.29171016   -3.4814942   0.43712768   -3.0443666   0.11724693    11142.888     1000 
  242000   0.30279873   -3.4464948    0.4537439   -2.9927509   0.12689125    11072.039     1000 
  244000   0.30142414   -3.4687269   0.45168408   -3.0170428   0.13780338     10982.54     1000 
  246000   0.31000745   -3.4589735   0.46454617   -2.9944273   0.12947456    11022.763     1000 
  248000   0.30577272   -3.5061806   0.45820042   -3.0479801   0.14094801    11085.418     1000 
  250000   0.31022291   -3.4882797   0.46486903   -3.0234106   0.12763259     11126.67     1000 
  252000   0.28828851   -3.4774605   0.43200034   -3.0454602   0.13562077    11066.456     1000 
  254000   0.31014082   -3.4835008   0.46474602   -3.0187548   0.12197469    11185.802     1000 
  256000   0.29364533   -3.4852975   0.44002753     -3.04527   0.13073777    11162.164     1000 
  258000   0.30002179   -3.5099679   0.44958265   -3.0603852   0.13834921    11105.612     1000 
  260000   0.30004384   -3.5082574   0.44961569   -3.0586417   0.12926709    11161.555     1000 
  262000   0.29252767   -3.4880509   0.43835272   -3.0496982   0.13133035    11193.457     1000 
  264000    0.3042496    -3.485868   0.45591803   -3.0299499   0.13071796    11214.209     1000 
  266000   0.28712024   -3.4676398   0.43024968   -3.0373901   0.12675933    11164.709     1000 
  268000    0.3011809   -3.4812635   0.45131958   -3.0299439    0.1279482    11154.289     1000 
  270000   0.30156904   -3.4905743   0.45190121   -3.0386731   0.13210655    11110.547     1000 
  272000   0.29676645    -3.453499   0.44470453   -3.0087944   0.12292599    11104.363     1000 
  274000   0.29670728   -3.4425071   0.44461586   -2.9978912   0.13246914    10948.609     1000 
  276000   0.29549673   -3.4468916   0.44280185   -3.0040897   0.13706131    11066.701     1000 
  278000   0.29944693   -3.4337838   0.44872123   -2.9850625    0.1422459    10979.783     1000 
  280000   0.29176022   -3.4238592   0.43720269   -2.9866565   0.12498805    11063.123     1000 
  282000   0.29964413   -3.4918277   0.44901674    -3.042811   0.12371397    11122.085     1000 
  284000   0.29032108   -3.4777507   0.43504613   -3.0427046    0.1355119    11085.891     1000 
  286000   0.30122553   -3.4754001   0.45138645   -3.0240137    0.1222021     11127.63     1000 
  288000   0.30509911   -3.4725384   0.45719102   -3.0153474   0.13543336    11048.893     1000 
  290000   0.29045683   -3.4251821   0.43524956   -2.9899325   0.14089933    10978.356     1000 
  292000   0.29975532   -3.4534388   0.44918335   -3.0042554    0.1261377    11055.604     1000 
  294000   0.30718005   -3.4725798   0.46030931   -3.0122705   0.13320878    10989.679     1000 
  296000   0.30013886   -3.4731449   0.44975808   -3.0233868   0.11720058    11030.337     1000 
  298000    0.2940428   -3.4298777   0.44062314   -2.9892546   0.13082669    10914.234     1000 
  300000   0.30511516   -3.4541183   0.45721506   -2.9969033    0.1299013    11029.858     1000 
  302000   0.30255526   -3.4645474   0.45337905   -3.0111683   0.12598901    11064.895     1000 
  304000   0.29459861   -3.4490226   0.44145601   -3.0075666   0.13664582    10973.145     1000 
  306000   0.29832493   -3.4944783   0.44703991   -3.0474384   0.12870279    11070.483     1000 
  308000   0.30363521   -3.4479912   0.45499736   -2.9929939   0.12603936    11021.824     1000 
  310000   0.29945856   -3.4526472   0.44873865   -3.0039085   0.13445584    11096.688     1000 
  312000   0.32210272   -3.5003403   0.48267093   -3.0176693   0.12329462    11104.268     1000 
  314000   0.28458659   -3.4680931     0.426453   -3.0416401   0.12695909     11146.75     1000 
  316000    0.2909701   -3.4461566    0.4360187   -3.0101379   0.13138995    11048.696     1000 
  318000   0.29057267   -3.4338516   0.43542314   -2.9984285   0.13877297    10951.476     1000 
  320000   0.29423077   -3.4431388    0.4409048    -3.002234   0.13795822    10998.012     1000 
  322000   0.29612719   -3.4221657    0.4437466   -2.9784191   0.12083779    10959.023     1000 
  324000   0.29065032   -3.4331165    0.4355395    -2.997577   0.12923905    11006.123     1000 
  326000    0.2970569   -3.4376498   0.44513977     -2.99251   0.12205427    11056.418     1000 
  328000    0.2977462   -3.4365487   0.44617269    -2.990376   0.14057996    10927.934     1000 
  330000   0.30244201   -3.4473145   0.45320935   -2.9941051    0.1550068    10922.172     1000 
  332000   0.29800154   -3.4481276   0.44655531   -3.0015723   0.12939914    11019.496     1000 
  334000   0.29385968   -3.4675292   0.44034873   -3.0271805   0.13788918    10929.504     1000 
  336000   0.30097096   -3.4847728   0.45100499   -3.0337678   0.14162833    11015.829     1000 
  338000    0.2911364   -3.4751661    0.4362679   -3.0388982   0.13200808    11110.864     1000 
  340000   0.29447954   -3.4639119    0.4412776   -3.0226343   0.12894018    11074.911     1000 
  342000   0.30512414   -3.4580351   0.45722852   -3.0008066   0.12518407    11120.043     1000 
  344000   0.29500196   -3.4635944   0.44206044   -3.0215339   0.12665807    11101.234     1000 
  346000   0.30108977   -3.4737102   0.45118302   -3.0225271   0.14063605    11047.983     1000 
  348000   0.29393213   -3.4620122   0.44045729   -3.0215549   0.12887939    11068.213     1000 
  350000   0.29812436   -3.4883885   0.44673935   -3.0416491     0.131064     11057.26     1000 
  352000   0.29602482   -3.4523977   0.44359319   -3.0088045   0.13707793    11060.283     1000 
  354000   0.30707175   -3.4834965   0.46014702   -3.0233495    0.1225947    11159.809     1000 
  356000   0.29298498   -3.4156553     0.439038   -2.9766173   0.12981155    11042.266     1000 
  358000   0.30044434   -3.4637362   0.45021584   -3.0135204   0.14655689     11015.74     1000 
  360000   0.29633674   -3.4244016    0.4440606    -2.980341   0.12724198    11144.639     1000 
  362000   0.30754844   -3.4354335   0.46086134   -2.9745722   0.13509376    11022.169     1000 
  364000   0.29784602   -3.4480905   0.44632226   -3.0017683   0.13798464     11079.41     1000 
  366000   0.30770695    -3.466927   0.46109887   -3.0058281   0.12598014    11111.397     1000 
  368000   0.30878589   -3.5054983   0.46271565   -3.0427826   0.12941408    11144.658     1000 
  370000   0.28563567    -3.462766   0.42802506    -3.034741   0.13694171    11135.472     1000 
  372000    0.3158876   -3.4882053   0.47335758   -3.0148477    0.1340203    11120.726     1000 
  374000   0.31652985   -3.4751266   0.47431998   -3.0008067   0.12754103    11215.343     1000 
  376000   0.29405042   -3.5051386   0.44063455    -3.064504   0.13717356     11112.01     1000 
  378000   0.29449972   -3.4712445   0.44130783   -3.0299367    0.1175204    11164.411     1000 
  380000   0.29765542   -3.4580888   0.44603665   -3.0120521   0.13708535    11091.683     1000 
  382000   0.30017097   -3.4270142   0.44980619    -2.977208   0.13737424    11029.272     1000 
  384000   0.29968458   -3.4656361   0.44907735   -3.0165587   0.13374963    11102.356     1000 
  386000   0.29815529   -3.4702482   0.44678571   -3.0234625   0.12520006     11055.29     1000 
  388000   0.29662406   -3.4663219   0.44449115   -3.0218308   0.11880692    11120.222     1000 
  390000   0.29357725    -3.467224    0.4399255   -3.0272985   0.13126187    11016.293     1000 
  392000    0.3027204   -3.4443843   0.45362652   -2.9907578   0.12880044    11064.503     1000 
  394000    0.3018289   -3.4523694   0.45229061   -3.0000788   0.13699283    11119.548     1000 
  396000   0.31119877   -3.4809316   0.46633135   -3.0146002   0.12922859    11098.417     1000 
  398000   0.30157111   -3.4609005   0.45190431   -3.0089962   0.13114771     11056.15     1000 
  400000   0.30615983    -3.463336   0.45878051   -3.0045555   0.12460574    11112.999     1000 
  402000   0.29726789   -3.4856294   0.44545593   -3.0401734   0.13438454    11075.946     1000 
  404000   0.29593146   -3.4646222    0.4434533   -3.0211689   0.12015853    11119.804     1000 
  406000   0.30013628   -3.4582614   0.44975421   -3.0085072   0.13379522    11059.572     1000 
  408000   0.28596966   -3.4640891   0.42852553   -3.0355636    0.1280745    11016.633     1000 
  410000   0.29951362   -3.4402072   0.44882116   -2.9913861    0.1317221    11048.618     1000 
  412000   0.30025793   -3.4762546    0.4499365   -3.0263181   0.12148418    11141.957     1000 
  414000    0.2940476   -3.4918209   0.44063034   -3.0511906   0.12217198    11095.863     1000 
  416000   0.29224223   -3.4880772   0.43792499   -3.0501522   0.13049244    11066.811     1000 
  418000   0.30381493   -3.4830892   0.45526667   -3.0278225   0.12359683    11111.783     1000 
  420000   0.30766306   -3.4723379    0.4610331   -3.0113048   0.12376407    11111.263     1000 
  422000   0.30240839   -3.4834908   0.45315897   -3.0303318   0.12756345    11063.656     1000 
  424000   0.31248816   -3.4849983   0.46826351   -3.0167348   0.12406173    11161.144     1000 
  426000   0.29692758   -3.4998603   0.44494597   -3.0549143   0.12783441    11124.067     1000 
  428000    0.3106071   -3.4631071   0.46544474   -2.9976624   0.12511825    11106.743     1000 
  430000   0.30262393   -3.4744637   0.45348195   -3.0209817   0.11527049    11151.673     1000 
  432000   0.32031116   -3.4973329   0.47998628   -3.0173466   0.14620778    11003.251     1000 
  434000   0.30156822   -3.4728349   0.45189998   -3.0209349   0.13846302    11088.626     1000 
  436000   0.28313239   -3.4732864   0.42427388   -3.0490125   0.12055066    11069.447     1000 
  438000   0.28869024   -3.4143373   0.43260232    -2.981735    0.1503686     10915.64     1000 
  440000   0.30897945   -3.4574291   0.46300571   -2.9944234   0.11812739    11032.304     1000 
  442000   0.29064348   -3.4516339   0.43552926   -3.0161046   0.13077295    10994.571     1000 
  444000   0.29486164   -3.4570374   0.44185016   -3.0151873   0.12940308    11126.962     1000 
  446000   0.30237373   -3.4672655   0.45310704   -3.0141584   0.12749277    11070.325     1000 
  448000    0.3047161   -3.4647467   0.45661707   -3.0081296   0.12218877    11130.798     1000 
  450000   0.30592671   -3.4731595   0.45843117   -3.0147283   0.11920414     11096.23     1000 
  452000    0.3023339   -3.4620455   0.45304735   -3.0089981   0.12644207    11108.157     1000 
  454000   0.30412076   -3.4717185   0.45572496   -3.0159936   0.12983941    11014.437     1000 
  456000   0.30117531   -3.4966699    0.4513112   -3.0453587   0.11791977    11280.921     1000 
  458000   0.30543486   -3.5090926   0.45769414   -3.0513984   0.12507054    11168.789     1000 
  460000   0.29746505   -3.5033396   0.44575137   -3.0575882   0.12066656    11282.779     1000 
  462000    0.3028795   -3.4972142   0.45386492   -3.0433493   0.13079698    11057.568     1000 
  464000   0.29585254   -3.4692548   0.44333503   -3.0259198   0.12991878    11105.998     1000 
  466000   0.29716311   -3.5144329   0.44529892    -3.069134   0.12585865     11126.04     1000 
  468000   0.30040003   -3.5128235   0.45014945   -3.0626741   0.12533717    11162.756     1000 
  470000    0.2942732   -3.4985418    0.4409684   -3.0575735   0.12394898    11141.275     1000 
  472000   0.30528958   -3.4910942   0.45747643   -3.0336178   0.12356965    11162.226     1000 
  474000   0.29688431   -3.4735592   0.44488113    -3.028678   0.13442511    11083.704     1000 
  476000   0.29956833   -3.4792931   0.44890315     -3.03039   0.11766005    11166.773     1000 
  478000   0.29546443   -3.4471668   0.44275345   -3.0044133   0.14290856    10934.777     1000 
  480000   0.30540089   -3.4387736   0.45764324   -2.9811303   0.13602495     11076.84     1000 
  482000   0.29356519   -3.4865669   0.43990744   -3.0466595   0.12865606    11105.468     1000 
  484000   0.29548758   -3.4878641   0.44278813    -3.045076   0.12732498    11108.959     1000 
  486000   0.29730265   -3.4514314   0.44550802   -3.0059234   0.12754991    11061.101     1000 
  488000   0.29816934   -3.4800974   0.44680676   -3.0332906   0.11725933    11144.944     1000 
  490000    0.2835235    -3.493296   0.42485997    -3.068436   0.12901734    11132.672     1000 
  492000   0.29432615   -3.5037672   0.44104774   -3.0627195   0.12336648    11178.276     1000 
  494000   0.30326315   -3.4801718   0.45443983    -3.025732   0.13693937    11173.535     1000 
  496000   0.31729744   -3.4715754   0.47547021   -2.9961052   0.12828018    11171.256     1000 
  498000   0.30397035   -3.4660491   0.45549958   -3.0105495   0.12489429    11086.848     1000 
  500000   0.29688305   -3.4684814   0.44487925   -3.0236021   0.12534016    11189.865     1000 
  502000   0.28856951   -3.4672044   0.43242141    -3.034783   0.13599827    11079.843     1000 
  504000   0.30133378   -3.4456683   0.45154866   -2.9941196   0.13294073     11052.36     1000 
  506000    0.3070841   -3.4480214   0.46016552   -2.9878559   0.12784041    11005.927     1000 
  508000   0.30181005   -3.4617038   0.45226236   -3.0094414   0.13320662    11046.277     1000 
  510000   0.29445868   -3.4757714   0.44124634   -3.0345251   0.13157479     11120.44     1000 
  512000    0.2978399   -3.4856329   0.44631309   -3.0393198    0.1369797    11127.236     1000 
  514000    0.3025776   -3.4527311   0.45341254   -2.9993186   0.12434955    11231.227     1000 
  516000   0.29876562   -3.5104287   0.44770028   -3.0627284    0.1261369    11206.545     1000 
  518000   0.30678926    -3.473125    0.4597237   -3.0134013   0.13116557    11121.363     1000 
  520000   0.27969927   -3.4694584   0.41912935    -3.050329    0.1351377    11064.665     1000 
  522000   0.30177779   -3.4527468   0.45221402   -3.0005327   0.13589147    11029.067     1000 
  524000   0.30345076   -3.5053333   0.45472097   -3.0506124   0.13023449    11213.228     1000 
  526000   0.30289177   -3.4959945   0.45388332   -3.0421112    0.1170925    11227.539     1000 
  528000   0.31569267   -3.5059073   0.47306547   -3.0328418   0.12625933    11151.439     1000 
  530000   0.29761411   -3.4964333   0.44597474   -3.0504586   0.13761788     11097.26     1000 
  532000    0.2927361    -3.470312   0.43866505   -3.0316469   0.13321655    10996.165     1000 
  534000   0.30232941   -3.4578417   0.45304062   -3.0048011   0.13804309    11056.013     1000 
  536000   0.29648111   -3.4644467   0.44427695   -3.0201698   0.12840199    10991.328     1000 
  538000   0.30579503   -3.4589563   0.45823385   -3.0007225   0.11816788    11085.894     1000 
  540000   0.29824259   -3.4670988   0.44691652   -3.0201823   0.12901147    11114.875     1000 
  542000   0.30144157   -3.4662645   0.45171019   -3.0145543   0.12443782    11088.999     1000 
  544000   0.29626871   -3.4654263   0.44395866   -3.0214676   0.12653933    11032.505     1000 
  546000   0.29773188   -3.4915461   0.44615123   -3.0453948   0.12805606     11056.44     1000 
  548000   0.32422277   -3.4149081   0.48584782   -2.9290603   0.13866783    10984.374     1000 
  550000   0.30075577   -3.4198044   0.45068251   -2.9691219   0.13851554    10955.928     1000 
  552000   0.29041068   -3.4323734    0.4351804    -2.997193   0.13312792    10891.426     1000 
  554000   0.30568095   -3.4461301    0.4580629   -2.9880672   0.13519245    11031.448     1000 
  556000   0.29807315   -3.4693643   0.44666261   -3.0227017   0.12384725    11171.541     1000 
  558000   0.30204157    -3.462033   0.45260929   -3.0094237   0.13472687    11010.352     1000 
  560000    0.2891275   -3.4596286   0.43325756    -3.026371   0.11864322    11049.501     1000 
  562000   0.29094208   -3.4948671    0.4359767   -3.0588904   0.12280667    11189.625     1000 
  564000    0.2881881   -3.4898321   0.43184987   -3.0579822   0.12921544    11081.152     1000 
  566000   0.31690204   -3.4771335   0.47487771   -3.0022557    0.1489155    10950.659     1000 
  568000   0.30448437   -3.4398954   0.45626983   -2.9836256   0.12903316    11018.075     1000 
  570000   0.28874766   -3.4619072   0.43268836   -3.0292189   0.12030017    11089.948     1000 
  572000   0.30420358   -3.4907916   0.45584906   -3.0349426   0.12218617    11098.702     1000 
  574000   0.30131975   -3.4358766   0.45152764    -2.984349   0.13648529    10970.554     1000 
  576000   0.31983741   -3.4363263   0.47927636     -2.95705   0.13938028    10999.239     1000 
  578000   0.29571873   -3.4808293   0.44313452   -3.0376948   0.14154891    10953.928     1000 
  580000   0.30304531   -3.4796977   0.45411339   -3.0255843    0.1272826    11084.547     1000 
  582000   0.31058291   -3.4708176    0.4654085   -3.0054091   0.12728874    11079.432     1000 
  584000    0.3082922    -3.469576   0.46197586   -3.0076002   0.13183561    11036.925     1000 
  586000   0.30846823   -3.4675922   0.46223964   -3.0053525   0.12524307    11095.359     1000 
  588000   0.30662192   -3.4464418   0.45947294   -2.9869688   0.12243106    11144.942     1000 
  590000   0.29593632   -3.4945106   0.44346058     -3.05105   0.12437695    11161.948     1000 
  592000   0.30335868   -3.5044155   0.45458298   -3.0498326   0.13555801    11164.489     1000 
  594000   0.29994777   -3.5034638   0.44947174    -3.053992   0.13485054    11080.767     1000 
  596000   0.30083937   -3.4995715   0.45080779   -3.0487637   0.12716737    11149.513     1000 
  598000   0.29381232   -3.4704839   0.44027775   -3.0302061   0.14258881    11034.814     1000 
  600000   0.30485853   -3.4581082    0.4568305   -3.0012777   0.12551163     11125.03     1000 
  602000   0.29589197   -3.4473062   0.44339412   -3.0039121   0.12457434    11031.855     1000 
  604000   0.31051487   -3.4436628   0.46530653   -2.9783563   0.13137418    11054.372     1000 
  606000   0.28745858   -3.4852288   0.43075668   -3.0544722   0.13306573    11085.338     1000 
  608000   0.30257874    -3.518256   0.45341424   -3.0648417   0.12668884    11186.931     1000 
  610000   0.29023087   -3.4947068   0.43491095   -3.0597959   0.12193653    11159.411     1000 
  612000   0.30697333    -3.503768   0.45999954   -3.0437685   0.12475943    11106.996     1000 
  614000   0.29265853   -3.4659816    0.4385488   -3.0274328   0.13775908    11091.228     1000 
  616000   0.29915012   -3.4783829   0.44827645   -3.0301064   0.12150757    11124.844     1000 
  618000   0.29649822   -3.4966926   0.44430259     -3.05239   0.12959212    11115.729     1000 
  620000   0.29909586   -3.4722634   0.44819515   -3.0240683   0.11816622    11191.425     1000 
  622000   0.30257679   -3.4920211   0.45341132   -3.0386098   0.12616522    11206.956     1000 
  624000   0.28396358   -3.5191523   0.42551942   -3.0936329   0.11956765    11284.717     1000 
  626000   0.30083607   -3.4714221   0.45080285   -3.0206193   0.13169278    11100.653     1000 
  628000     0.295084   -3.4625534   0.44218337     -3.02037   0.11770004    11200.511     1000 
  630000   0.28417403   -3.4765233   0.42583479   -3.0506885    0.1242241    11220.063     1000 
  632000    0.3032917   -3.4895625   0.45448261   -3.0350799    0.1323052    11078.709     1000 
  634000   0.28657969   -3.4600104   0.42943966   -3.0305708    0.1323505     11088.67     1000 
  636000   0.29642669   -3.4774698   0.44419539   -3.0332744   0.12959523    11110.424     1000 
  638000   0.29813918   -3.4617103   0.44676156   -3.0149488   0.11834095    11189.371     1000 
  640000   0.29883408     -3.46671   0.44780287   -3.0189072    0.1276217    11072.733     1000 
  642000   0.31675032   -3.4880249   0.47465036   -3.0133745   0.14282758    11123.938     1000 
  644000   0.29474826    -3.504897   0.44168027   -3.0632168   0.12312221     11121.57     1000 
  646000   0.30362745   -3.4531687   0.45498574    -2.998183   0.12641138    11033.213     1000 
  648000   0.31469868   -3.4515763   0.47157598   -2.9800003   0.12481555    11080.686     1000 
  650000   0.27736283   -3.4594417    0.4156282   -3.0438135   0.12627296     11141.89     1000 
  652000   0.30084166   -3.4515315   0.45081123   -3.0007203   0.12393563    11107.544     1000 
  654000   0.30336733   -3.4860465   0.45459595   -3.0314505   0.12100945    11119.937     1000 
  656000   0.30165467   -3.4355519   0.45202953   -2.9835224   0.13159502    10992.129     1000 
  658000   0.29516693    -3.427004   0.44230764   -2.9846964   0.13342123    10993.644     1000 
  660000   0.29131864   -3.4432502   0.43654099   -3.0067092   0.12555668    11044.072     1000 
  662000   0.29741135   -3.4954356   0.44567091   -3.0497647   0.12347859    11135.119     1000 
  664000   0.29744708    -3.457949   0.44572446   -3.0122245   0.13352392    11030.991     1000 
  666000   0.29091154   -3.4590801   0.43593094   -3.0231492   0.13487132     11088.17     1000 
  668000   0.28579967    -3.454956   0.42827081   -3.0266852   0.12442991     10972.42     1000 
  670000   0.30380281   -3.4953423   0.45524851   -3.0400938    0.1228789    11145.877     1000 
  672000   0.29617457   -3.4554925    0.4438176   -3.0116749   0.11636603    11110.171     1000 
  674000   0.29850803   -3.4342434   0.44731428   -2.9869291   0.11979071    11052.996     1000 
  676000   0.29933022   -3.4226212   0.44854633   -2.9740748      0.12281    11091.983     1000 
  678000   0.30892297   -3.4805112   0.46292107   -3.0175901   0.12088053    11125.206     1000 
  680000   0.31413118   -3.4745559   0.47072558   -3.0038303   0.12853807    11145.357     1000 
  682000    0.2860049   -3.4535118   0.42857834   -3.0249334    0.1417901     11024.67     1000 
  684000   0.31921846   -3.4659108   0.47834887   -2.9875619   0.12197366    11168.214     1000 
  686000   0.29629658   -3.4533604   0.44400043   -3.0093599   0.12326216      11211.5     1000 
  688000   0.29690228   -3.4485903   0.44490806   -3.0036822   0.13714243    11115.806     1000 
  690000   0.28878087   -3.4636801   0.43273814    -3.030942   0.12802243    11074.336     1000 
  692000   0.29408276   -3.4988939   0.44068301   -3.0582109   0.12141544    11151.103     1000 
  694000   0.29869889   -3.4829023   0.44760029    -3.035302   0.13192378    11038.531     1000 
  696000   0.30925453    -3.461276   0.46341791   -2.9978581   0.13753482    11058.541     1000 
  698000   0.30302216   -3.4726391   0.45407871   -3.0185603    0.1243126    11094.022     1000 
  700000   0.28632569    -3.469431   0.42905905   -3.0403719   0.13941146    10982.985     1000 
  702000   0.29175146   -3.4806135   0.43718957    -3.043424   0.12544988    11108.497     1000 
  704000   0.31477986    -3.491154   0.47169762   -3.0194564   0.13013613    11057.351     1000 
  706000   0.30838248   -3.4597728   0.46211115   -2.9976617   0.13560401    11077.812     1000 
  708000   0.29814958   -3.4817021   0.44677715    -3.034925   0.12295391    11140.817     1000 
  710000   0.28417312   -3.4323497   0.42583342   -3.0065163   0.12740559    11060.333     1000 
  712000   0.29773052   -3.4602036   0.44614918   -3.0140545   0.13730084    11068.991     1000 
  714000   0.30555332   -3.4660908   0.45787164   -3.0082191   0.14029233    11118.574     1000 
  716000   0.30634835   -3.4841163     0.459063   -3.0250533   0.13238256    11111.808     1000 
  718000   0.30616624   -3.4457412    0.4587901   -2.9869511   0.12644865    11056.944     1000 
  720000   0.30807426   -3.4715723   0.46164927    -3.009923   0.13724727    11044.236     1000 
  722000    0.2963611   -3.4485315   0.44409711   -3.0044344    0.1421267    11010.555     1000 
  724000    0.2942649   -3.4424101   0.44095595   -3.0014541   0.14137732    10968.017     1000 
  726000     0.304398   -3.4649624   0.45614041    -3.008822   0.11063486    11172.177     1000 
  728000    0.3084205    -3.472989   0.46216812   -3.0108208   0.13394467    10978.039     1000 
  730000   0.30044843   -3.4699833   0.45022197   -3.0197613   0.12842036    10964.996     1000 
  732000    0.2917784   -3.4732551   0.43722993   -3.0360252   0.12463753    11157.331     1000 
  734000   0.29619339   -3.4834527   0.44384579   -3.0396069   0.13087443    11107.733     1000 
  736000    0.2903105   -3.4874935   0.43503029   -3.0524633   0.13206348    11038.181     1000 
  738000   0.30135658   -3.4592855   0.45158284   -3.0077026   0.12525149    11032.336     1000 
  740000   0.29638382   -3.4717749   0.44413116   -3.0276437   0.13388994    11094.367     1000 
  742000   0.29838878    -3.459367   0.44713558   -3.0122314   0.11562812    11081.713     1000 
  744000   0.30197992   -3.4833429   0.45251691    -3.030826   0.14852786    10959.359     1000 
  746000   0.30756667   -3.4884696   0.46088866   -3.0275809    0.1304407    11064.046     1000 
  748000   0.29984675   -3.4903443   0.44932035   -3.0410239   0.12305623     11189.75     1000 
  750000   0.30202629   -3.4725973    0.4525864   -3.0200109   0.12125288    11131.738     1000 
  752000   0.29425431   -3.4700897   0.44094009   -3.0291496   0.12366382    11108.363     1000 
  754000   0.32115586   -3.4343588   0.48125206   -2.9531067   0.13540781    10992.224     1000 
  756000   0.29751745   -3.4646604    0.4458299   -3.0188305   0.14212858    11031.085     1000 
  758000   0.29626152   -3.4537339   0.44394789    -3.009786   0.13512412    10947.328     1000 
  760000   0.31128221   -3.4759079   0.46645639   -3.0094515   0.13033254    11029.384     1000 
  762000   0.30121544    -3.489443   0.45137133   -3.0380717   0.13561935    10988.817     1000 
  764000   0.30155373   -3.4581126   0.45187827   -3.0062343   0.13168913    11043.309     1000 
  766000    0.3170874   -3.4415886   0.47515547   -2.9664331   0.13701505    11031.816     1000 
  768000   0.29166766   -3.4837316   0.43706399   -3.0466676   0.12649621    11129.707     1000 
  770000   0.30748463   -3.4869964   0.46076571   -3.0262307   0.12359742    11154.636     1000 
  772000   0.29793826   -3.4565361   0.44646048   -3.0100756   0.12784378    11213.937     1000 
  774000   0.29415708    -3.449949   0.44079439   -3.0091546   0.13695199      11138.6     1000 
  776000   0.30791005   -3.4684504   0.46140322   -3.0070471   0.13898038    11078.371     1000 
  778000   0.30800093   -3.4278407    0.4615394   -2.9663013   0.13650741    11066.885     1000 
  780000   0.31033324   -3.4703993   0.46503437   -3.0053649   0.12778338    11072.891     1000 
  782000   0.29913268    -3.446719   0.44825033   -2.9984687   0.12071414    11137.837     1000 
  784000    0.2996169   -3.4365395   0.44897592   -2.9875636   0.12807884     11171.68     1000 
  786000     0.294073   -3.4853104   0.44066839    -3.044642   0.14412028    11108.796     1000 
  788000   0.29460077    -3.469674   0.44145925   -3.0282148   0.12927139    11127.436     1000 
  790000   0.29533528    -3.463328   0.44255992    -3.020768   0.12346087    11114.849     1000 
  792000   0.30295858   -3.4651205   0.45398343   -3.0111371   0.13386347    11139.383     1000 
  794000   0.30284757   -3.4757078   0.45381709   -3.0218908   0.13084414    11133.447     1000 
  796000   0.29288571   -3.4592406   0.43888924   -3.0203513   0.13350912    11149.204     1000 
  798000    0.2971448   -3.4617497   0.44527148   -3.0164782   0.13905382    11169.685     1000 
  800000   0.29653011   -3.4646747   0.44435037   -3.0203244   0.13719731    11112.304     1000 
  802000   0.30212667   -3.4569301   0.45273681   -3.0041933   0.12885367    11118.471     1000 
  804000   0.30984274   -3.4522844   0.46429935    -2.987985    0.1325047    11211.602     1000 
  806000   0.30804255   -3.4954931   0.46160176   -3.0338914   0.13249101    11151.442     1000 
  808000    0.2832687   -3.4718296   0.42447814   -3.0473515   0.13134572    11146.964     1000 
  810000   0.31409782   -3.4622027   0.47067559   -2.9915271   0.13187602    11076.487     1000 
  812000   0.28696881   -3.4510475   0.43002276   -3.0210247   0.12668499    11069.169     1000 
  814000   0.30111524   -3.4726215   0.45122119   -3.0214003   0.13175586    11024.424     1000 
  816000   0.29937341   -3.4697971   0.44861106    -3.021186   0.14263476     11057.63     1000 
  818000   0.30299625   -3.4600095   0.45403988   -3.0059697   0.12619588    11096.834     1000 
  820000   0.29140517   -3.4616795   0.43667064   -3.0250089   0.14536111     11060.45     1000 
  822000   0.30514022   -3.4643987   0.45725263   -3.0071461   0.12975764    11061.438     1000 
  824000   0.29271992   -3.4669226    0.4386408   -3.0282818   0.12264632    11117.252     1000 
  826000   0.30858252   -3.5064758    0.4624109   -3.0440649   0.13152079    11152.774     1000 
  828000   0.29924086   -3.4389619   0.44841243   -2.9905494   0.14161092     11071.23     1000 
  830000   0.28800491   -3.4772814   0.43157535   -3.0457061   0.13357325    11135.519     1000 
  832000   0.30910169   -3.4686002   0.46318888   -3.0054113   0.13277377    11110.507     1000 
  834000   0.30030044   -3.4746715   0.45000021   -3.0246712   0.13523572     11052.76     1000 
  836000   0.30246664   -3.4889609   0.45324626   -3.0357147   0.12022643    11092.317     1000 
  838000    0.3018988   -3.5020902   0.45239535   -3.0496948   0.13278323     11131.68     1000 
  840000   0.29696504   -3.5184213   0.44500211   -3.0734192   0.12195349    11232.701     1000 
  842000   0.30216481   -3.4761102   0.45279396   -3.0233162   0.12941345    11098.214     1000 
  844000   0.29523649   -3.4639805   0.44241189   -3.0215687   0.12020135    11097.858     1000 
  846000   0.29236755   -3.4623487   0.43811278   -3.0242359   0.13198317    10949.046     1000 
  848000   0.29066139   -3.4876524    0.4355561   -3.0520963   0.10969074    11196.113     1000 
  850000   0.30195533   -3.5041394   0.45248007   -3.0516593    0.1286753      11097.4     1000 
  852000   0.29850695   -3.4904883   0.44731267   -3.0431756   0.13185248    11118.256     1000 
  854000   0.30910687     -3.49268   0.46319665   -3.0294833   0.14108798      11021.2     1000 
  856000   0.30281404   -3.4669207   0.45376683   -3.0131539   0.13100317    11039.031     1000 
  858000   0.27494189    -3.489043   0.41200043   -3.0770426   0.14052875    10946.692     1000 
  860000   0.30356237   -3.5025329   0.45488821   -3.0476447   0.13929751    11115.385     1000 
  862000   0.29395259   -3.5007235   0.44048795   -3.0602356   0.13216044    11094.273     1000 
  864000   0.30765388   -3.4684379   0.46101934   -3.0074186   0.12877478    11115.147     1000 
  866000   0.30475478   -3.4415702   0.45667504   -2.9848952   0.14040503     10995.33     1000 
  868000   0.29085294   -3.4954557   0.43584313   -3.0596126   0.13965632    11043.161     1000 
  870000   0.28980001   -3.4665561   0.43426531   -3.0322908   0.13501458    11095.747     1000 
  872000   0.29935172   -3.4441799   0.44857855   -2.9956014   0.13007987    11118.892     1000 
  874000   0.29994996    -3.453816   0.44947502    -3.004341   0.13578814    11021.249     1000 
  876000   0.29795911   -3.4719873   0.44649172   -3.0254956   0.14076083     11081.28     1000 
  878000   0.30903383   -3.4565965    0.4630872   -2.9935093    0.1254272    11120.222     1000 
  880000    0.3007706   -3.4703907   0.45070474   -3.0196859   0.13053395    11102.369     1000 
  882000    0.2935664   -3.4755566   0.43990925   -3.0356474   0.13687874    11110.504     1000 
  884000   0.29870503   -3.4887263   0.44760948   -3.0411168   0.11928553    11207.284     1000 
  886000   0.29300684   -3.4711917   0.43907075    -3.032121   0.12959263    11131.714     1000 
  888000   0.30153981   -3.4673416   0.45185741   -3.0154842     0.135245    11052.144     1000 
  890000   0.30096188   -3.4762091   0.45099138   -3.0252178   0.12589082    11054.692     1000 
  892000   0.30025014   -3.4677028   0.44992484   -3.0177779   0.12358367    11159.399     1000 
  894000   0.29338734   -3.4642907   0.43964092   -3.0246498   0.13218735    11075.444     1000 
  896000   0.30323899   -3.4770939   0.45440362   -3.0226903   0.13031653    11152.239     1000 
  898000   0.30752301   -3.4623351   0.46082323   -3.0015119   0.13085909    11098.546     1000 
  900000   0.28851704   -3.4590367   0.43234279   -3.0266939   0.13124496    11140.006     1000 
  902000   0.30118665   -3.4410295    0.4513282   -2.9897013   0.13071239     11133.76     1000 
  904000   0.29528594   -3.4685137   0.44248598   -3.0260278   0.12801467    11169.289     1000 
  906000   0.29137405   -3.4963887   0.43662401   -3.0597647   0.13407069    11175.956     1000 
  908000   0.29806258   -3.5191191   0.44664678   -3.0724724   0.12042227    11185.374     1000 
  910000   0.28785551   -3.5112967   0.43135148   -3.0799452   0.13518422    11156.722     1000 
  912000   0.29757708    -3.504571   0.44591925   -3.0586518   0.12129928    11197.137     1000 
  914000   0.30471429   -3.4965875   0.45661436   -3.0399732   0.12819416    11143.956     1000 
  916000   0.28343424   -3.5162302   0.42472622    -3.091504   0.13838493    11168.361     1000 
  918000   0.28920916   -3.4976335   0.43337993   -3.0642536   0.13530927    11117.857     1000 
  920000   0.29176754   -3.5267776   0.43721366    -3.089564    0.1208935    11248.204     1000 
  922000    0.2895324    -3.474839    0.4338643   -3.0409747   0.14188562    11106.163     1000 
  924000   0.30050339   -3.4765037   0.45030433   -3.0261994    0.1423731    11099.131     1000 
  926000   0.30369561   -3.4633961   0.45508787   -3.0083082   0.13795682    11034.143     1000 
  928000   0.30387831   -3.4703079   0.45536164   -3.0149462    0.1424984    11055.194     1000 
  930000   0.30434248   -3.4840934    0.4560572   -3.0280362   0.12153868    11091.864     1000 
  932000   0.31049868   -3.4714883   0.46528227    -3.006206   0.13308315    11076.752     1000 
  934000   0.28733632   -3.4777988   0.43057348   -3.0472254   0.12042047    11101.821     1000 
  936000   0.29097499   -3.4494229   0.43602602   -3.0133969   0.13362799    11085.791     1000 
  938000   0.29950177   -3.4621941    0.4488034   -3.0133907   0.12379717    11138.748     1000 
  940000   0.31868967   -3.4618325   0.47755647   -2.9842761   0.13622616    11035.185     1000 
  942000   0.30041114   -3.5041015    0.4501661   -3.0539354   0.12347841    11125.657     1000 
  944000   0.29928547   -3.4641371   0.44847928   -3.0156578   0.13941712    11113.963     1000 
  946000   0.31157952   -3.4786976    0.4669019   -3.0117957    0.1418685    11023.596     1000 
  948000   0.29486891   -3.4484201   0.44186107   -3.0065591   0.13709201    11030.191     1000 
  950000   0.29293408   -3.4835765   0.43896172   -3.0446148   0.13042788    11044.846     1000 
  952000   0.29720741    -3.483747   0.44536531   -3.0383817   0.12338404    11126.638     1000 
  954000   0.29741121   -3.4791129    0.4456707   -3.0334422   0.11549973    11184.246     1000 
  956000   0.30645868   -3.4697534   0.45922834    -3.010525   0.12356649    11098.328     1000 
  958000    0.3001675   -3.4693089     0.449801   -3.0195079   0.13192056    11112.085     1000 
  960000   0.31398742   -3.4806861   0.47051016   -3.0101759    0.1246312    11177.108     1000 
  962000   0.29753571   -3.4841774   0.44585726   -3.0383202   0.12139009    11113.272     1000 
  964000   0.29386269   -3.4842299   0.44035324   -3.0438767   0.12984008    11108.197     1000 
  966000   0.28672114   -3.5079316   0.42965163     -3.07828   0.11821886    11134.224     1000 
  968000    0.3042514   -3.4866428   0.45592073    -3.030722   0.12092459    11147.979     1000 
  970000    0.3164512   -3.4857804   0.47420212   -3.0115782   0.12710147    11198.053     1000 
  972000   0.29499043   -3.4472435   0.44204317   -3.0052004   0.12812312    11063.024     1000 
  974000   0.29809176   -3.4932498   0.44669051   -3.0465593   0.13171826    11164.279     1000 
  976000    0.3132662     -3.46796    0.4694294   -2.9985306   0.13340304    11040.564     1000 
  978000   0.29202725   -3.4440777   0.43760283   -3.0064748   0.15087209    10924.257     1000 
  980000   0.29232458   -3.4754124   0.43804839    -3.037364   0.12604199    11092.548     1000 
  982000   0.31836058   -3.4678509   0.47706333   -2.9907875   0.13488284    11078.282     1000 
  984000   0.30984274   -3.5040513   0.46429934    -3.039752   0.11976864    11177.869     1000 
  986000     0.309283   -3.4546784   0.46346058   -2.9912179   0.12896364    11074.191     1000 
  988000   0.28685102   -3.4650938   0.42984625   -3.0352476    0.1191452    11106.424     1000 
  990000   0.30165916   -3.4876201   0.45203625   -3.0355839   0.12107034    11140.536     1000 
  992000   0.30756507   -3.4814204   0.46088625   -3.0205341   0.11774399    11088.622     1000 
  994000   0.30363116    -3.472845    0.4549913   -3.0178537   0.12113425    11075.106     1000 
  996000   0.29259783   -3.4293465   0.43845785   -2.9908886   0.12717375    11060.894     1000 
  998000   0.29415591   -3.4950199   0.44079263   -3.0542272   0.11710761    11097.364     1000 
 1000000   0.31181855   -3.4953594   0.46726009   -3.0280993   0.12801483    11126.194     1000 
 1002000   0.30340106   -3.4791234   0.45464648   -3.0244769   0.13150936    11087.089     1000 
 1004000   0.31373495   -3.4878782   0.47013182   -3.0177464   0.12829277    11145.449     1000 
 1006000   0.29384022   -3.4793443   0.44031957   -3.0390247   0.14462508    11031.498     1000 
 1008000   0.30001157   -3.4826332   0.44956733   -3.0330659   0.13599217    11102.776     1000 
 1010000   0.29348732   -3.4898046   0.43979075   -3.0500138   0.13276058     11044.86     1000 
 1012000   0.30403293   -3.4853244   0.45559335   -3.0297311   0.12892808    11124.976     1000 
 1014000   0.30359841   -3.4965645   0.45494222   -3.0416223   0.13340897     10996.65     1000 
 1016000   0.29976459   -3.4877496   0.44919724   -3.0385523   0.12828811    11077.439     1000 
 1018000   0.29678352   -3.4706343   0.44473011   -3.0259042   0.14198045    11007.923     1000 
 1020000   0.29814791   -3.4754204   0.44677464   -3.0286458   0.13218056    11122.688     1000 
 1022000   0.30955705   -3.4827971   0.46387124   -3.0189258   0.13204228    11064.325     1000 
 1024000    0.3024307   -3.4768282    0.4531924   -3.0236358   0.12756339    11103.146     1000 
 1026000   0.31370543   -3.4748256   0.47008759    -3.004738   0.13102267    11157.082     1000 
 1028000   0.30852869   -3.4906324   0.46233024   -3.0283022   0.11954718    11136.047     1000 
 1030000   0.29036044   -3.4522744   0.43510513   -3.0171693   0.13737047    11059.164     1000 
 1032000   0.29834284    -3.477773   0.44706674   -3.0307062   0.12322261    11098.399     1000 
 1034000   0.30537875   -3.4656314   0.45761005   -3.0080213   0.15112811    10990.096     1000 
 1036000   0.30424132   -3.4530913   0.45590562   -2.9971857   0.13101979    11062.179     1000 
 1038000   0.28318149   -3.4703104   0.42434747   -3.0459629    0.1228993    11103.674     1000 
 1040000   0.31052286    -3.504103   0.46531851   -3.0387845   0.14266935    11059.504     1000 
 1042000   0.29887693   -3.5120409   0.44786708   -3.0641738   0.12063727    11119.581     1000 
 1044000   0.29863971    -3.486396    0.4475116   -3.0388844   0.13234498    11037.129     1000 
 1046000   0.29866884   -3.4620236   0.44755525   -3.0144683    0.1400844    10982.633     1000 
 1048000   0.30370889   -3.4813392   0.45510777   -3.0262315    0.1323957    11018.064     1000 
 1050000   0.27972044   -3.4833957   0.41916108   -3.0642346   0.13576206    11006.314     1000 
 1052000   0.29270801   -3.5090246   0.43862296   -3.0704017   0.12331746    11114.268     1000 
 1054000   0.30340865   -3.4360866   0.45465787   -2.9814288    0.1418646    10952.403     1000 
 1056000   0.29690838   -3.4952112   0.44491721    -3.050294   0.14872429    10966.343     1000 
 1058000   0.31384626   -3.4683534   0.47029861   -2.9980548   0.13508198     11010.34     1000 
 1060000   0.28509024   -3.4312794   0.42720772   -3.0040717   0.12527966     10937.25     1000 
 1062000   0.30800657   -3.4555154   0.46154784   -2.9939676   0.13630178    10992.905     1000 
 1064000   0.29354468   -3.4560595    0.4398767   -3.0161828   0.14156012    10928.914     1000 
 1066000   0.29165171   -3.4743698   0.43704009   -3.0373297   0.12443873    10986.255     1000 
 1068000   0.30734043   -3.4704954   0.46054964   -3.0099458   0.12635337      11032.4     1000 
 1070000   0.29406329   -3.4959776   0.44065383   -3.0553238   0.12878162      11095.9     1000 
 1072000   0.31336553    -3.436243   0.46957824   -2.9666648   0.12827638    11071.289     1000 
 1074000   0.30703485   -3.4525258   0.46009172   -2.9924341   0.11945171    11100.771     1000 
 1076000   0.30792978   -3.4512136   0.46143278   -2.9897808   0.12993632    11091.696     1000 
 1078000   0.29715608   -3.4779501   0.44528839   -3.0326617   0.11694238    11211.953     1000 
 1080000   0.29548899   -3.4502522   0.44279025    -3.007462   0.13180289    10986.441     1000 
 1082000    0.3063663   -3.4498968    0.4590899   -2.9908069   0.13316164    10929.962     1000 
 1084000   0.30791645   -3.4728723   0.46141281   -3.0114595   0.12674394    11102.026     1000 
 1086000   0.30491989   -3.4673441   0.45692245   -3.0104217     0.136555    11029.199     1000 
 1088000   0.28781208   -3.4582918    0.4312864   -3.0270054   0.12614991    11053.226     1000 
 1090000   0.29282557   -3.4843085   0.43879912   -3.0455094   0.13622171    11026.876     1000 
 1092000   0.31129383   -3.4645782    0.4664738   -2.9981044   0.12762555    11070.085     1000 
 1094000   0.30560014   -3.4510119   0.45794181   -2.9930701   0.13994107    11070.725     1000 
 1096000   0.30427486   -3.4462609   0.45595588    -2.990305   0.13171651    11037.948     1000 
 1098000   0.29717866   -3.4638799   0.44532222   -3.0185577   0.12134745    11061.704     1000 
 1100000   0.29997978   -3.4172489    0.4495197   -2.9677292   0.13564653    11010.403     1000 
 1102000   0.28985469   -3.4963708   0.43434725   -3.0620235   0.12235414     11162.26     1000 
 1104000   0.31428793   -3.4889458   0.47096046   -3.0179854   0.12403062    11165.655     1000 
 1106000   0.29651204   -3.4877666   0.44432329   -3.0434433   0.13983005    11154.799     1000 
 1108000   0.29569432   -3.4791135   0.44309794   -3.0360156   0.12529297    11224.588     1000 
 1110000   0.30410304   -3.4839478   0.45569841   -3.0282494   0.13662981    11152.241     1000 
 1112000   0.29488708   -3.4396057   0.44188829   -2.9977174   0.14183689    11028.993     1000 
 1114000   0.29183432   -3.4833004   0.43731372   -3.0459866   0.13931989    11076.663     1000 
 1116000   0.29389766   -3.4929812   0.44040564   -3.0525756   0.11845156    11147.708     1000 
 1118000   0.29892112   -3.4791961    0.4479333   -3.0312628     0.134083    11092.061     1000 
 1120000   0.30547451   -3.4646213   0.45775355   -3.0068678   0.11970633    11168.223     1000 
 1122000   0.30289313   -3.4621919   0.45388535   -3.0083065    0.1387228    11051.151     1000 
 1124000   0.29743672   -3.4877655   0.44570892   -3.0420566   0.13812361    11106.865     1000 
 1126000   0.30316921   -3.4506787   0.45429906   -2.9963796   0.13989414    11048.301     1000 
 1128000   0.29656285   -3.4479723   0.44439942   -3.0035728    0.1352034    11065.065     1000 
 1130000    0.3045265   -3.4375012   0.45633296   -2.9811682   0.14049543    10999.614     1000 
 1132000   0.30758493   -3.4640024   0.46091602   -3.0030864   0.11906502    11009.641     1000 
 1134000   0.29414524    -3.451097   0.44077663   -3.0103204    0.1296476    11027.202     1000 
 1136000   0.29056552   -3.4897692   0.43541243   -3.0543568   0.12230958    11084.443     1000 
 1138000   0.30783252   -3.4755107   0.46128703   -3.0142236   0.13647393    11095.672     1000 
 1140000    0.3074656   -3.4394469    0.4607372   -2.9787097   0.13722733    11002.376     1000 
 1142000   0.30703632   -3.4396382   0.46009393   -2.9795443   0.13585063    11033.156     1000 
 1144000   0.29708029    -3.461102   0.44517481   -3.0159272   0.11986408    11086.277     1000 
 1146000   0.28895361   -3.4828319   0.43299698   -3.0498349   0.12240422    11058.011     1000 
 1148000   0.30042242   -3.4602506   0.45018299   -3.0100676   0.12931226    11091.359     1000 
 1150000   0.30130171   -3.4671155   0.45150061   -3.0156149   0.13607453     10931.72     1000 
 1152000   0.29729938   -3.4885594   0.44550312   -3.0430563   0.12735671    11093.893     1000 
 1154000   0.29354415   -3.4968351   0.43987591   -3.0569592   0.14026082    11041.101     1000 
 1156000   0.30030511   -3.5045931   0.45000721   -3.0545859   0.13663065    11068.696     1000 
 1158000   0.29607797   -3.4862554   0.44367284   -3.0425826   0.12581299    11140.736     1000 
 1160000   0.29249501     -3.50711   0.43830378   -3.0688062    0.1259688    11193.895     1000 
 1162000   0.29311464   -3.4935107   0.43923228   -3.0542784   0.12742441    11063.864     1000 
 1164000   0.29007529   -3.4729516   0.43467782   -3.0382737   0.13858147    11009.858     1000 
 1166000   0.30315684   -3.4618825   0.45428052    -3.007602   0.12587223    11056.197     1000 
 1168000   0.29546319   -3.4614679    0.4427516   -3.0187163   0.14551682    10984.863     1000 
 1170000   0.29155092   -3.4759863   0.43688906   -3.0390972   0.12599912    11015.482     1000 
 1172000    0.3014924   -3.4769568   0.45178636   -3.0251705   0.12384805    11063.247     1000 
 1174000   0.29431989   -3.4385555   0.44103836   -2.9975172   0.11983189    10992.717     1000 
 1176000   0.30144794   -3.4935901   0.45171973   -3.0418704   0.13175191    11036.083     1000 
 1178000   0.30444323   -3.4786447   0.45620818   -3.0224366   0.13634849    11144.956     1000 
 1180000   0.29527798   -3.4761601   0.44247405   -3.0336861   0.11952173    11124.888     1000 
 1182000   0.30203561   -3.4933728   0.45260036   -3.0407724   0.12789555    11177.095     1000 
 1184000   0.30147781   -3.4896422   0.45176449   -3.0378777   0.14274919    11079.879     1000 
 1186000   0.29481152   -3.4768628   0.44177506   -3.0350877   0.12962245    11135.043     1000 
 1188000   0.30822608   -3.4995353   0.46187678   -3.0376585   0.13271022    11135.643     1000 
 1190000   0.31547766   -3.4842306   0.47274328   -3.0114873   0.11807601    11200.717     1000 
 1192000   0.29859511   -3.4422069   0.44744478   -2.9947621   0.12283543    11090.346     1000 
 1194000   0.29342616   -3.4902152    0.4396991   -3.0505161   0.12647842    11097.884     1000 
 1196000   0.30528528   -3.4855713   0.45746999   -3.0281013   0.12086602     11173.76     1000 
 1198000   0.31203755   -3.4912175   0.46758827   -3.0236293   0.12615698    11139.256     1000 
 1200000   0.28981588   -3.4774953    0.4342891   -3.0432062   0.13781869    11118.973     1000 
 1202000   0.30606194   -3.4965128   0.45863382    -3.037879   0.12768671    11127.673     1000 
 1204000   0.30336338   -3.4690049   0.45459002   -3.0144148   0.12380157    11111.664     1000 
 1206000   0.29471823   -3.4954011   0.44163527   -3.0537658   0.12160742    11199.512     1000 
 1208000   0.28566824   -3.4633902   0.42807385   -3.0353164   0.12909454    11092.228     1000 
 1210000   0.29637008   -3.4971433   0.44411057   -3.0530328   0.13657364    11175.214     1000 
 1212000     0.283708   -3.4922058   0.42513644   -3.0670694   0.11659114    11165.196     1000 
 1214000   0.28248164   -3.4908473   0.42329874   -3.0675486   0.12634423    11149.077     1000 
 1216000   0.30322349   -3.4689844   0.45438041    -3.014604   0.14467534    11094.828     1000 
 1218000       0.2937    -3.498975   0.44010944   -3.0588656    0.1223725    11209.254     1000 
 1220000   0.30245404   -3.4954836   0.45322738   -3.0422563    0.1179739    11206.442     1000 
 1222000   0.29912558   -3.4982469   0.44823969   -3.0500073   0.12684154    11128.879     1000 
 1224000   0.28663982   -3.4926224   0.42952977   -3.0630927    0.1239544    11215.467     1000 
 1226000   0.30768073   -3.4799123   0.46105958   -3.0188527   0.12167831    11141.503     1000 
 1228000   0.30717698   -3.4525062   0.46030471   -2.9922015   0.12631747    11070.979     1000 
 1230000   0.28824169   -3.4688913   0.43193017   -3.0369611   0.15067465    11017.511     1000 
 1232000   0.30498927   -3.4695449   0.45702642   -3.0125185   0.12832215    11072.639     1000 
 1234000   0.30001118   -3.4684302   0.44956675   -3.0188634   0.12750847    11142.204     1000 
 1236000   0.30163259   -3.4406054   0.45199644    -2.988609   0.12274726    11209.874     1000 
 1238000   0.29934339   -3.4696414   0.44856607   -3.0210754   0.14526458    10957.972     1000 
 1240000   0.31294726   -3.4857964   0.46895147   -3.0168449   0.13592297    11076.868     1000 
 1242000   0.29936364   -3.4458363   0.44859641   -2.9972399    0.1425452    10980.733     1000 
 1244000   0.31037841   -3.4925498   0.46510205   -3.0274478   0.13980621     11085.56     1000 
 1246000   0.30342129   -3.4503765   0.45467681   -2.9956997   0.12386832    11076.704     1000 
 1248000   0.30095965   -3.4786506   0.45098804   -3.0276626   0.14022467    11074.415     1000 
 1250000   0.28815443   -3.4869573   0.43179942   -3.0551579   0.12083121    11098.392     1000 
 1252000   0.29866515   -3.4801435   0.44754973   -3.0325937   0.13271022    11188.254     1000 
 1254000   0.28880923   -3.4842774   0.43278064   -3.0514967    0.1222283    11162.025     1000 
 1256000   0.29590745   -3.4903811   0.44341731   -3.0469637   0.11950824    11167.528     1000 
 1258000     0.302428    -3.509704   0.45318835   -3.0565156   0.13155267    11142.898     1000 
 1260000   0.28958424   -3.4964459   0.43394198   -3.0625039   0.12767821    11131.278     1000 
 1262000   0.28835704   -3.4977683   0.43210302   -3.0656653   0.13098544    11178.957     1000 
 1264000   0.30871838   -3.4993923   0.46261449   -3.0367778   0.12735193    11162.733     1000 
 1266000   0.31153812   -3.4721377   0.46683987   -3.0052978   0.12133259    11136.987     1000 
 1268000   0.30207021   -3.4757486    0.4526522   -3.0230964   0.12958857    11055.295     1000 
 1270000   0.28854304   -3.4339856   0.43238174   -3.0016038   0.13290326    10979.332     1000 
 1272000   0.28709553   -3.4862914   0.43021265   -3.0560788   0.13139533    11157.665     1000 
 1274000   0.31087406   -3.4707456   0.46584478   -3.0049008   0.12460383    11046.438     1000 
 1276000   0.30121537   -3.4799224   0.45137123   -3.0285512   0.13111128    11052.062     1000 
 1278000   0.28459039   -3.4938613    0.4264587   -3.0674026   0.13475575    11057.718     1000 
 1280000   0.28443398     -3.49204   0.42622432   -3.0658157   0.12191912    11209.748     1000 
 1282000   0.30778108   -3.4952679   0.46120995    -3.034058   0.13069972    11139.961     1000 
 1284000   0.30476018   -3.4900804   0.45668314   -3.0333972   0.13404044    11186.599     1000 
 1286000   0.30353753    -3.486936   0.45485099    -3.032085   0.14195276    11130.843     1000 
 1288000   0.31063371   -3.4699095   0.46548462   -3.0044249   0.14056578     11094.06     1000 
 1290000   0.30009053   -3.4723454   0.44968566   -3.0226598   0.13737842    11043.891     1000 
 1292000   0.30095282   -3.4568469   0.45097781   -3.0058691   0.13667923    11135.683     1000 
 1294000   0.31477806   -3.4996418   0.47169493   -3.0279468   0.13114767      11143.7     1000 
 1296000   0.29021996   -3.4666322   0.43489461   -3.0317376   0.13963158    11085.944     1000 
 1298000   0.30123702   -3.4680082   0.45140368   -3.0166046    0.1283975    11115.074     1000 
 1300000    0.2987893   -3.4509453   0.44773576   -3.0032096   0.12647112    11047.777     1000 
 1302000   0.30629308    -3.457854   0.45898019   -2.9988739   0.12616384    11121.864     1000 
 1304000    0.2949823   -3.4427206   0.44203098   -3.0006896   0.12977752    11098.919     1000 
 1306000   0.30503209   -3.4864063   0.45709058   -3.0293157   0.11959729    11161.807     1000 
 1308000   0.30238704   -3.4701483   0.45312698   -3.0170213   0.11880818    11202.613     1000 
 1310000   0.31422371    -3.494335   0.47086423   -3.0234707   0.13654527    11081.149     1000 
 1312000   0.30917133   -3.5103493   0.46329323   -3.0470561    0.1378032    11140.853     1000 
 1314000   0.28946119   -3.4918374    0.4337576   -3.0580798   0.13351162    11132.251     1000 
 1316000   0.30097886   -3.4957609   0.45101682   -3.0447441    0.1255321    11090.199     1000 
 1318000   0.28822898   -3.4856034   0.43191113   -3.0536923   0.12804848    11111.139     1000 
 1320000   0.30650205   -3.4846434   0.45929332   -3.0253501   0.13463083      11109.2     1000 
 1322000   0.29754415   -3.4744182   0.44586991   -3.0285483   0.13894246    11089.185     1000 
 1324000   0.29656223   -3.5019812   0.44439851   -3.0575826   0.13123042    11190.251     1000 
 1326000   0.30783891   -3.5047963   0.46129661   -3.0434997   0.13596738    11216.399     1000 
 1328000   0.29481024   -3.5405247   0.44177315   -3.0987515   0.12185009    11238.376     1000 
 1330000   0.28465343   -3.4896404   0.42655317   -3.0630873   0.13754812    11135.233     1000 
 1332000   0.30249431    -3.522121   0.45328772   -3.0688332   0.13087124    11197.947     1000 
 1334000    0.3076231   -3.5225462   0.46097322    -3.061573   0.12231323    11165.229     1000 
 1336000   0.30644211   -3.5108968    0.4592035   -3.0516933   0.12402375    11234.136     1000 
 1338000   0.30332817   -3.4785991   0.45453727   -3.0240619   0.12965275    11116.984     1000 
 1340000    0.3007376   -3.4968529   0.45065529   -3.0461977   0.13230669    11095.492     1000 
 1342000   0.30251855   -3.4921436   0.45332404   -3.0388196   0.12203278    11162.336     1000 
 1344000    0.3027937   -3.4878865   0.45373636   -3.0341501   0.13335718    11089.691     1000 
 1346000    0.2971557   -3.5169745   0.44528781   -3.0716867   0.12977155    11181.895     1000 
 1348000   0.29624269   -3.4738085   0.44391966   -3.0298888   0.13223082    11110.735     1000 
 1350000   0.28939144    -3.483323   0.43365307     -3.04967   0.12254972    11178.368     1000 
 1352000   0.29694143    -3.497283   0.44496673   -3.0523163   0.12719589    11125.179     1000 
 1354000   0.30041734   -3.4731969   0.45017538   -3.0230215   0.12636375    11113.291     1000 
 1356000   0.30340322   -3.4684001   0.45464972   -3.0137504   0.12147242    11177.257     1000 
 1358000   0.28907318   -3.4743155   0.43317617   -3.0411393   0.12615731    11142.381     1000 
 1360000   0.29913712   -3.4865435   0.44825698   -3.0382865   0.12846788    11168.565     1000 
 1362000   0.28595525   -3.4944587   0.42850394   -3.0659548   0.12628355    11191.598     1000 
 1364000   0.29499174   -3.4461445   0.44204513   -3.0040994   0.13370921    11090.842     1000 
 1366000   0.29318532   -3.4728563    0.4393382   -3.0335181   0.13461395     11120.68     1000 
 1368000   0.29959048   -3.4680905   0.44893633   -3.0191542   0.13328366    11123.183     1000 
 1370000   0.30826605   -3.4286251   0.46193667   -2.9666884   0.12600176    11021.834     1000 
 1372000   0.28678472   -3.4470681    0.4297469   -3.0173212    0.1196086    11033.246     1000 
 1374000   0.31050748   -3.4668954   0.46529546   -3.0015999   0.12007071    11101.952     1000 
 1376000    0.2944037   -3.4617639   0.44116394      -3.0206   0.13027142    11023.817     1000 
 1378000   0.32921122   -3.4452944   0.49332301   -2.9519714   0.13745952    11036.518     1000 
 1380000   0.28991237    -3.446786   0.43443369   -3.0123523   0.11394553    11069.135     1000 
 1382000   0.29803566   -3.4498796   0.44660643   -3.0032732   0.13438416     11018.51     1000 
 1384000   0.30664307   -3.4600182   0.45950464   -3.0005136   0.13567049    11026.377     1000 
 1386000   0.29674899   -3.4688971   0.44467836   -3.0242188   0.11957887    11016.807     1000 
 1388000   0.29719265   -3.4840955   0.44534319   -3.0387523   0.12261994    11158.681     1000 
 1390000   0.30634425   -3.4744413   0.45905686   -3.0153844   0.12752032    11091.767     1000 
 1392000   0.30040011   -3.4584435   0.45014957   -3.0082939   0.12288773    11131.387     1000 
 1394000   0.29206257   -3.5052124   0.43765577   -3.0675567   0.14359094    11065.492     1000 
 1396000   0.29135601   -3.4915503   0.43659697   -3.0549533   0.12430006    11200.688     1000 
 1398000   0.29946939   -3.4740877   0.44875488   -3.0253329   0.13415649    11135.233     1000 
 1400000   0.29306048   -3.4677156   0.43915114   -3.0285645    0.1313118    11093.757     1000 
 1402000   0.29336066   -3.4775598   0.43960095   -3.0379589   0.12506558    11160.751     1000 
 1404000   0.29516323   -3.4803941   0.44230211    -3.038092   0.13230044    11073.379     1000 
 1406000   0.29899559   -3.4235982    0.4480449   -2.9755533   0.13022682    11047.351     1000 
 1408000   0.29648585   -3.4726339   0.44428405   -3.0283498   0.11778479    11139.472     1000 
 1410000   0.27894523   -3.4956337   0.41799943   -3.0776343   0.12550149    11188.388     1000 
 1412000   0.31308805   -3.4520087   0.46916245   -2.9828462   0.13702811    11039.855     1000 
 1414000   0.29336064   -3.4773493   0.43960092   -3.0377484   0.12666331    11214.562     1000 
 1416000   0.31017728   -3.4783501   0.46480066   -3.0135495   0.12010256    11210.101     1000 
 1418000   0.32103979   -3.4371255   0.48107812   -2.9560474   0.14451243    11113.793     1000 
 1420000   0.31258254   -3.4677775   0.46840493   -2.9993726    0.1267126    11117.878     1000 
 1422000   0.30046481   -3.4688564   0.45024652   -3.0186099   0.13810537    11081.897     1000 
 1424000   0.30621602   -3.4901553   0.45886471   -3.0312906   0.13005592    11116.847     1000 
 1426000    0.3023296   -3.4693523    0.4530409   -3.0163114   0.12702462    11053.827     1000 
 1428000   0.30570631    -3.462693   0.45810091   -3.0045921   0.12317278    11095.557     1000 
 1430000   0.29222096   -3.4816002   0.43789311   -3.0437071   0.12778419    11166.885     1000 
 1432000   0.29278192   -3.4607826    0.4387337   -3.0220489   0.13151904    11131.147     1000 
 1434000   0.30238815   -3.4596555   0.45312864   -3.0065269   0.14132367    11045.458     1000 
 1436000     0.294509   -3.4317223   0.44132174   -2.9904006   0.13279642    11018.384     1000 
 1438000   0.30718949   -3.4587263   0.46032344   -2.9984028    0.1190209    11144.611     1000 
 1440000    0.2981527   -3.4650253   0.44678182   -3.0182435   0.12843884    11087.846     1000 
 1442000   0.28396418   -3.4480152   0.42552033   -3.0224948   0.12455088    11058.292     1000 
 1444000    0.2993997   -3.4835193   0.44865045   -3.0348689   0.11960404    11116.912     1000 
 1446000   0.29036852   -3.4905699   0.43511723   -3.0554527   0.11806133    11149.876     1000 
 1448000    0.2948531   -3.4806117   0.44183737   -3.0387743   0.13669694    11103.947     1000 
 1450000   0.28882032   -3.4586353   0.43279726    -3.025838   0.12781741     11134.44     1000 
 1452000   0.30507824   -3.4632222   0.45715974   -3.0060625   0.13115303    11102.453     1000 
 1454000   0.29576803   -3.4707435   0.44320839   -3.0275351   0.12410637    11187.331     1000 
 1456000   0.29453591   -3.4596202   0.44136206   -3.0182581   0.13306353      11111.4     1000 
 1458000    0.2949147   -3.4814415   0.44192968   -3.0395118   0.12308517    11116.353     1000 
 1460000   0.29863585   -3.4934859   0.44750583   -3.0459801   0.13229161    11185.358     1000 
 1462000   0.30329701   -3.4640994   0.45449058   -3.0096089   0.12156545    11070.827     1000 
 1464000   0.30770708   -3.4803159   0.46109906   -3.0192168   0.12595386    11102.692     1000 
 1466000   0.29506408   -3.4713238   0.44215352   -3.0291702   0.13085057    11102.908     1000 
 1468000   0.30397979   -3.4336714   0.45551372   -2.9781576   0.12270702    11143.851     1000 
 1470000   0.29334152   -3.4615243   0.43957227    -3.021952   0.12875379    11137.356     1000 
 1472000   0.29351057   -3.4876211   0.43982559   -3.0477955    0.1366662    11111.205     1000 
 1474000   0.30731967   -3.4530037   0.46051852   -2.9924851   0.13480725    11042.922     1000 
 1476000   0.30305642   -3.4381602   0.45413004   -2.9840302   0.12414313    11122.611     1000 
 1478000   0.29138603   -3.4582544   0.43664197   -3.0216124   0.14234495    10951.748     1000 
 1480000   0.31051569   -3.4482229   0.46530776   -2.9829152   0.12058165    11150.364     1000 
 1482000   0.31212449   -3.4915562   0.46771854   -3.0238376   0.13651892    11169.224     1000 
 1484000   0.30166689   -3.4616789   0.45204784   -3.0096311   0.13557494     11040.99     1000 
 1486000   0.29507565   -3.4760053   0.44217086   -3.0338344   0.11491457    11168.909     1000 
 1488000   0.30613942   -3.4711665   0.45874993   -3.0124166   0.11808847    11131.457     1000 
 1490000   0.30567178   -3.4441952   0.45804917    -2.986146   0.12534932    11098.324     1000 
 1492000   0.29950306   -3.4476718   0.44880534   -2.9988665   0.14150105    10947.994     1000 
 1494000   0.29868794   -3.4685936   0.44758388   -3.0210097   0.13233588    11010.156     1000 
 1496000   0.30285221   -3.4437879   0.45382404   -2.9899639   0.11963853    11126.518     1000 
 1498000   0.28785011    -3.471345   0.43134338   -3.0400016   0.12293483    11076.357     1000 
 1500000   0.30538867   -3.4425595   0.45762493   -2.9849346   0.13216632    11097.845     1000 
 1502000   0.29951906   -3.4533265   0.44882931   -3.0044972   0.12832099    11064.113     1000 
 1504000   0.28806352   -3.4496429   0.43166318   -3.0179797   0.13472503    11008.126     1000 
 1506000   0.29908509   -3.4655687   0.44817901   -3.0173897   0.12699463    11069.766     1000 
 1508000   0.29226151   -3.4409075   0.43795387   -3.0029536   0.13728702     10979.06     1000 
 1510000    0.2922856    -3.440008   0.43798997    -3.002018   0.12055175    11120.764     1000 
 1512000   0.29873306   -3.4490051   0.44765148   -3.0013536   0.11454309    11122.283     1000 
 1514000   0.30152821   -3.4683193   0.45184003   -3.0164793    0.1378926    11123.209     1000 
 1516000   0.29314572   -3.5072034   0.43927886   -3.0679245    0.1328703    11170.755     1000 
 1518000   0.29683778    -3.502916   0.44481141   -3.0581045    0.1157923    11257.053     1000 
 1520000   0.29692971    -3.479277   0.44494918   -3.0343278   0.12573243    11144.849     1000 
 1522000    0.2980712   -3.4921893   0.44665969   -3.0455296   0.12988154    11165.208     1000 
 1524000    0.3019366   -3.4712198     0.452452   -3.0187678   0.13949528    11055.788     1000 
 1526000   0.30836133   -3.4525567   0.46207945   -2.9904773   0.14365941    11041.073     1000 
 1528000   0.28865517   -3.4958596   0.43254977   -3.0633098   0.13086033    11117.638     1000 
 1530000   0.29285679   -3.4487543    0.4388459   -3.0099084   0.13625161    11115.632     1000 
 1532000   0.31373474   -3.4284303    0.4701315   -2.9582987   0.12305005    11074.789     1000 
 1534000   0.29401388   -3.4819864    0.4405798   -3.0414066    0.1185167    11141.128     1000 
 1536000   0.31006848   -3.4589774   0.46463762   -2.9943398   0.13079905    11077.377     1000 
 1538000    0.3043246   -3.4375282   0.45603041   -2.9814978    0.1405967    10990.837     1000 
 1540000   0.29891004   -3.4304607   0.44791669    -2.982544   0.13131551    11120.169     1000 
 1542000    0.3050547   -3.4119546   0.45712447   -2.9548301   0.13510671     11076.21     1000 
 1544000   0.29904926    -3.437186   0.44812532   -2.9890607   0.12533108    10937.949     1000 
 1546000   0.30854952   -3.4460952   0.46236145   -2.9837338   0.12322386    11004.644     1000 
 1548000   0.29601419   -3.4516181   0.44357727   -3.0080408    0.1336663    10967.066     1000 
 1550000   0.30764254   -3.4725586   0.46100235   -3.0115562   0.13520786    11057.259     1000 
 1552000   0.30051598   -3.4654846   0.45032319   -3.0151614   0.13079195    11086.738     1000 
 1554000   0.31196719   -3.4370799   0.46748283   -2.9695971   0.11874566    11006.726     1000 
 1556000   0.30182803   -3.4763697   0.45228931   -3.0240804   0.13022426    11102.075     1000 
 1558000    0.2916294    -3.479132   0.43700666   -3.0421253   0.11296288    11182.342     1000 
 1560000   0.30447559   -3.4656264   0.45625668   -3.0093698   0.13640359    11095.565     1000 
 1562000   0.28410868   -3.4244732   0.42573686   -2.9987364   0.12047776    11098.631     1000 
 1564000   0.32060783   -3.4637706   0.48043083   -2.9833398   0.11995531     11162.78     1000 
 1566000   0.29122176   -3.4924868   0.43639581    -3.056091    0.1411856    11054.095     1000 
 1568000   0.30013382   -3.4945427   0.44975053   -3.0447921     0.131195    11092.511     1000 
 1570000   0.29927496   -3.4381439   0.44846353   -2.9896803   0.12584945    11011.293     1000 
 1572000   0.30261131   -3.5080152   0.45346305   -3.0545521   0.12245921     11150.16     1000 
 1574000   0.31076129   -3.4761045   0.46567579   -3.0104287   0.13248645    11041.769     1000 
 1576000   0.30516641    -3.476744   0.45729187   -3.0194521   0.14489841    11092.461     1000 
 1578000   0.30332396   -3.4849218   0.45453095   -3.0303908   0.14656336    11037.933     1000 
 1580000    0.2913656   -3.4777203   0.43661136   -3.0411089   0.13738137    11079.934     1000 
 1582000   0.28599223    -3.476301   0.42855936   -3.0477416    0.1314238    11121.301     1000 
 1584000   0.29325219   -3.5195285    0.4394384   -3.0800901   0.12416468    11192.987     1000 
 1586000    0.2989369    -3.496003   0.44795694    -3.048046   0.13609105    11143.316     1000 
 1588000   0.29095077    -3.492575   0.43598973   -3.0565852   0.13968814    11070.232     1000 
[...]
 2614000   0.29688508   -3.4819345   0.44488229   -3.0370522   0.12905978    11156.462     1000 
 2616000   0.29666918   -3.4992971   0.44455876   -3.0547383   0.12796739      11200.1     1000 
 2618000    0.3204082   -3.4810961   0.48013169   -3.0009644   0.13822768    11187.248     1000 
 2620000   0.29850911   -3.4940174    0.4473159   -3.0467015   0.13973121    11072.255     1000 
 2622000   0.29280147   -3.5033591   0.43876301   -3.0645961   0.12911481    11204.467     1000 
 2624000   0.30327335   -3.4637749   0.45445511   -3.0093198   0.14596534    11078.138     1000 
 2626000   0.31658979   -3.4993525    0.4744098   -3.0249427   0.13179088     11152.48     1000 
 2628000   0.30781043   -3.4895805   0.46125393   -3.0283266   0.13027807     11103.18     1000 
 2630000   0.30056822   -3.5097016   0.45040147   -3.0593001   0.13645561    11135.854     1000 
 2632000    0.2835702   -3.4875472   0.42492995   -3.0626173   0.11762338    11165.033     1000 
 2634000   0.29466973   -3.4664233   0.44156259   -3.0248607    0.1335589    11070.613     1000 
 2636000   0.30996709   -3.4840347   0.46448568    -3.019549   0.11026995    11147.309     1000 
 2638000   0.28981589   -3.4849181   0.43428911    -3.050629   0.12735768    11075.387     1000 
 2640000   0.30108611   -3.4881336   0.45117754   -3.0369561   0.13412871     11073.28     1000 
 2642000     0.300345   -3.4872765   0.45006698   -3.0372095   0.12459192    11148.387     1000 
 2644000   0.30413872   -3.4788467   0.45575187   -3.0230949   0.13167529    11123.537     1000 
 2646000   0.30789612    -3.500589   0.46138233   -3.0392067    0.1182107      11166.8     1000 
 2648000   0.30492385   -3.4578615    0.4569284   -3.0009331   0.12635836    11099.662     1000 
 2650000   0.30310905   -3.5005506   0.45420892   -3.0463417   0.13595527    11041.894     1000 
 2652000   0.30475991   -3.4961254   0.45668273   -3.0394427   0.14689739    11062.755     1000 
 2654000   0.29640531   -3.5004582   0.44416336   -3.0562948   0.12756365     11176.25     1000 
 2656000    0.2949214   -3.5115315   0.44193972   -3.0695918   0.13364732    11137.548     1000 
 2658000   0.30945243    -3.493038   0.46371446   -3.0293235   0.13797426    11078.437     1000 
 2660000    0.3071864   -3.4538037   0.46031882   -2.9934848   0.14156818    11057.189     1000 
 2662000   0.29573898   -3.4940121   0.44316486   -3.0508473     0.121896     11055.74     1000 
 2664000   0.29412258   -3.4613393   0.44074269   -3.0205967   0.12482635    11062.018     1000 
 2666000   0.30426713   -3.4661314    0.4559443   -3.0101871   0.12677511    11094.763     1000 
 2668000   0.31477288   -3.4635341   0.47168715   -2.9918469   0.14067788    11060.576     1000 
 2670000   0.29314358   -3.4446688   0.43927566   -3.0053932   0.13067546    11079.491     1000 
 2672000   0.29311506   -3.4866794   0.43923291   -3.0474465   0.11992983    11138.539     1000 
 2674000    0.3072084   -3.4748437   0.46035179   -3.0144919   0.12619218    11062.066     1000 
 2676000   0.28446941    -3.489695   0.42627742   -3.0634176   0.11715331    11112.658     1000 
 2678000   0.30923722   -3.4667407   0.46339198   -3.0033488   0.12829168    11045.915     1000 
 2680000   0.29971185   -3.4616167   0.44911821   -3.0124985   0.14129106    10982.066     1000 
 2682000   0.29976218   -3.4916115   0.44919363   -3.0424179   0.13432816    11026.207     1000 
 2684000   0.29888924   -3.4929794   0.44788553   -3.0450939   0.12540842    11162.237     1000 
 2686000     0.303556   -3.4816484   0.45487867   -3.0267698    0.1263403    11148.084     1000 
 2688000   0.29259159   -3.4890468    0.4384485   -3.0505983   0.12476485     11181.66     1000 
 2690000   0.28474815   -3.5057159    0.4266951   -3.0790208   0.12182787    11142.967     1000 
 2692000   0.30261673   -3.4869284   0.45347117   -3.0334572   0.13271173    11102.192     1000 
 2694000   0.30102245   -3.4710833   0.45108214   -3.0200012   0.12513032    11061.042     1000 
 2696000   0.29590341   -3.4696024   0.44341126   -3.0261912   0.12232545    11123.752     1000 
 2698000   0.31240531    -3.475563   0.46813936   -3.0074236   0.11898407    11166.641     1000 
 2700000   0.31360496   -3.4945111   0.46993703   -3.0245741   0.13006944    11093.972     1000 
 2702000   0.31353522   -3.4771245   0.46983252    -3.007292    0.1225266    11130.933     1000 
 2704000   0.30787067    -3.466958   0.46134421   -3.0056138   0.11929413    11108.126     1000 
 2706000   0.30033131   -3.4610402   0.45004646   -3.0109938   0.14584477      10967.2     1000 
 2708000   0.29484504   -3.4698151    0.4418253   -3.0279898   0.11776983    11176.216     1000 
 2710000   0.31939211   -3.5009054   0.47860907   -3.0222963   0.12227695     11121.58     1000 
 2712000   0.29191915    -3.487433   0.43744085   -3.0499921   0.12905339    11063.661     1000 
 2714000   0.29941751   -3.4973078   0.44867714   -3.0486306   0.13563188    10978.959     1000 
 2716000   0.29121826   -3.4923366   0.43639056    -3.055946   0.13628394    11000.106     1000 
 2718000    0.3039053   -3.4687114    0.4554021   -3.0133093   0.12445959    11145.058     1000 
 2720000   0.28409809   -3.4834764   0.42572099   -3.0577554   0.13290981    11146.284     1000 
 2722000   0.28583272   -3.4804217   0.42832033   -3.0521013   0.13307727    11065.664     1000 
 2724000   0.31452426   -3.5035048   0.47131461   -3.0321902   0.13827947    11130.033     1000 
 2726000    0.3072747   -3.4650352   0.46045114    -3.004584   0.13554904    11103.251     1000 
 2728000   0.31213772   -3.4668621   0.46773837   -2.9991237     0.133143    11102.189     1000 
 2730000   0.29311069   -3.5078928   0.43922637   -3.0686665   0.12441718     11095.91     1000 
 2732000   0.29909674   -3.5214328   0.44819647   -3.0732364    0.1383047    11071.183     1000 
 2734000   0.29350179   -3.4574668   0.43981244   -3.0176543   0.12816729    11082.327     1000 
 2736000    0.2917546   -3.4440808   0.43719427   -3.0068866   0.13080056    11041.367     1000 
 2738000   0.29591221   -3.4511443   0.44342444   -3.0077199   0.13042554    11083.041     1000 
 2740000   0.28932475   -3.4480419   0.43355314   -3.0144888   0.11579835    11161.086     1000 
 2742000   0.30342788   -3.4663602   0.45468668   -3.0116736   0.12679192    11185.857     1000 
 2744000   0.30381097   -3.4496079   0.45526074   -2.9943472   0.13651829    10970.682     1000 
 2746000    0.3059661   -3.4385687    0.4584902   -2.9800785   0.14209075    11000.372     1000 
 2748000   0.31111976   -3.5008753   0.46621297   -3.0346624     0.125936    11093.152     1000 
 2750000    0.3017436    -3.491607   0.45216279   -3.0394443   0.12730199    11045.963     1000 
 2752000   0.29004146   -3.4658955   0.43462712   -3.0312684   0.12549626    11087.472     1000 
 2754000   0.30714624   -3.4615065   0.46025864   -3.0012478   0.11717589    11090.659     1000 
 2756000   0.30469607   -3.4373262   0.45658706   -2.9807391   0.12440088    11108.243     1000 
 2758000   0.29554813   -3.4342956   0.44287888   -2.9914168   0.14173277    11019.379     1000 
 2760000   0.29704669   -3.4538115   0.44512447   -3.0086871   0.12613861    11018.527     1000 
 2762000   0.29687222   -3.5128368   0.44486303   -3.0679738   0.11445874     11094.38     1000 
 2764000   0.31478003   -3.4992299   0.47169787    -3.027532   0.14112668    11066.902     1000 
 2766000   0.30597042   -3.5074655   0.45849667   -3.0489689   0.11380999    11212.508     1000 
 2768000   0.31150851   -3.4491599    0.4667955   -2.9823644   0.14812611    10949.098     1000 
 2770000   0.31035758   -3.4982366   0.46507083   -3.0331658   0.13213134    11064.263     1000 
 2772000   0.30139804   -3.4700886   0.45164496   -3.0184437   0.12220761     11069.84     1000 
 2774000   0.28436096   -3.4788972    0.4261149   -3.0527823   0.12348418    11075.252     1000 
 2776000   0.29553551   -3.4861013   0.44285996   -3.0432413   0.12147381    11129.535     1000 
 2778000   0.29336595   -3.4542343   0.43960887   -3.0146254   0.12844954    10988.052     1000 
 2780000   0.30568579   -3.4561675   0.45807016   -2.9980974   0.12805628    11016.481     1000 
 2782000   0.29538683   -3.4696098   0.44263716   -3.0269726   0.11539428    11115.785     1000 
 2784000   0.30822192    -3.451492   0.46187055   -2.9896214   0.14009851    10978.623     1000 
 2786000   0.31455668   -3.4705962   0.47136319    -2.999233    0.1367051    11024.909     1000 
 2788000   0.29439551   -3.4563075   0.44115167   -3.0151558   0.12060885    11159.782     1000 
 2790000   0.29336471    -3.448833   0.43960702    -3.009226   0.13911256    11027.339     1000 
 2792000   0.30701524   -3.4854077   0.46006234   -3.0253454    0.1479397    11021.514     1000 
 2794000   0.28179512   -3.4554226   0.42226999   -3.0331526   0.13643905    10994.205     1000 
 2796000   0.31150306   -3.4680614   0.46678734    -3.001274   0.12389415    11119.522     1000 
 2798000   0.30000817   -3.4619824   0.44956224   -3.0124202   0.11896947    11123.966     1000 
 2800000   0.30288634    -3.465761   0.45387519   -3.0118859    0.1348553    11107.643     1000 
 2802000   0.30115091   -3.4666904   0.45127465   -3.0154158   0.12565934    11096.147     1000 
 2804000   0.30053676   -3.4727626   0.45035434   -3.0224083   0.12762827    11078.558     1000 
 2806000   0.29190082   -3.4505527   0.43741337   -3.0131393   0.12636924    11075.735     1000 
 2808000   0.29273323   -3.4486892   0.43866075   -3.0100284   0.13503001    11041.571     1000 
 2810000   0.30033177   -3.4519968   0.45004715   -3.0019496   0.11093424    11098.628     1000 
 2812000    0.2964213    -3.486085   0.44418732   -3.0418977   0.12041046    11150.456     1000 
 2814000   0.30286072   -3.4989862   0.45383679   -3.0451494   0.12687546     11187.81     1000 
 2816000   0.29745904   -3.4824822   0.44574237   -3.0367399   0.13329023    11010.634     1000 
 2818000   0.30161209   -3.4686199   0.45196571   -3.0166542   0.11782104    11133.809     1000 
 2820000   0.30338189   -3.4652323   0.45461776   -3.0106145   0.13671934    11080.723     1000 
 2822000   0.31020245   -3.4810812   0.46483838   -3.0162428    0.1397551    11077.395     1000 
 2824000   0.29222064   -3.4566982   0.43789263   -3.0188055   0.12829461    11054.938     1000 
 2826000   0.29130015    -3.476487   0.43651327   -3.0399737   0.13070245    11038.044     1000 
 2828000   0.29044442   -3.4863864   0.43523097   -3.0511555   0.11975367    11125.852     1000 
 2830000   0.29093112   -3.4610977   0.43596028   -3.0251374    0.1400358    11060.422     1000 
 2832000    0.2846629   -3.5102871   0.42656736   -3.0837198   0.11992041     11209.36     1000 
 2834000   0.30299404   -3.4807157   0.45403657   -3.0266791   0.12103123    11185.492     1000 
 2836000   0.30959422   -3.5048305   0.46392694   -3.0409036   0.12089057    11166.644     1000 
 2838000   0.30722995   -3.4935478   0.46038408   -3.0331637   0.13448411    11156.781     1000 
 2840000   0.29479989   -3.4722824   0.44175763   -3.0305248   0.12463171    11143.416     1000 
 2842000   0.30043695   -3.4549202   0.45020478   -3.0047155    0.1196015    11111.313     1000 
 2844000   0.31467172   -3.4819532   0.47153557   -3.0104176   0.12954877    11157.656     1000 
 2846000   0.30633664   -3.4968286   0.45904546   -3.0377832    0.1324407    11155.311     1000 
 2848000   0.30148744   -3.4728908   0.45177893   -3.0211119   0.13377652      11064.5     1000 
 2850000   0.30116361   -3.5035318   0.45129367   -3.0522382   0.11960901     11182.22     1000 
 2852000   0.30708171   -3.5409289   0.46016194   -3.0807669   0.12669533    11234.079     1000 
 2854000   0.31362976    -3.495386   0.46997419   -3.0254118   0.13069637    11133.255     1000 
 2856000   0.29097524   -3.4839657   0.43602639   -3.0479393   0.13986332    11107.685     1000 
 2858000   0.31304844   -3.5028052   0.46910309   -3.0337021   0.12770837    11112.239     1000 
 2860000   0.31032962   -3.4884719   0.46502894    -3.023443   0.13403258    11086.375     1000 
 2862000   0.30385682   -3.5070951   0.45532945   -3.0517657   0.12856751    11089.522     1000 
 2864000   0.29830489   -3.4805298   0.44700988   -3.0335199   0.13549857    11084.819     1000 
 2866000   0.28672121   -3.4855787   0.42965173   -3.0559269   0.14160871    11091.778     1000 
 2868000   0.28615022   -3.4969643    0.4287961   -3.0681682   0.13284901    11134.311     1000 
 2870000   0.29955315   -3.5154891   0.44888039   -3.0666087   0.13957646     11038.54     1000 
 2872000   0.30312789   -3.4924449   0.45423715   -3.0382078   0.13691487    11115.945     1000 
 2874000    0.3028529   -3.5049263   0.45382506   -3.0511012   0.12041499    11185.742     1000 
 2876000   0.28153395   -3.5034655   0.42187862   -3.0815868   0.13337542    11113.905     1000 
 2878000   0.29424604   -3.4739474    0.4409277   -3.0330197   0.12050487    11095.604     1000 
 2880000   0.29403675   -3.4698102   0.44061407   -3.0291961   0.12728625    11032.209     1000 
 2882000   0.29848849   -3.4532183   0.44728499   -3.0059333   0.13475558    10957.892     1000 
 2884000   0.30484368   -3.4338931   0.45680825   -2.9770848   0.12875893    10965.663     1000 
 2886000   0.30626343   -3.4473793   0.45893575   -2.9884436   0.13528164    10923.973     1000 
 2888000   0.31405649   -3.4440204   0.47061365   -2.9734067   0.13357165    10944.365     1000 
 2890000   0.30000602   -3.4702226   0.44955902   -3.0206636   0.12834312    11008.919     1000 
 2892000   0.27973735   -3.4851483   0.41918642   -3.0659619   0.13248889    11014.639     1000 
 2894000   0.30327381    -3.477101    0.4544558   -3.0226452   0.12673567      11160.4     1000 
 2896000   0.30431436   -3.4595503   0.45601507   -3.0035352   0.13669419    11079.161     1000 
 2898000   0.29180894    -3.482743    0.4372757   -3.0454673   0.12084269    11127.454     1000 
 2900000   0.29704277     -3.50415   0.44511858   -3.0590314   0.12515154    11148.514     1000 
 2902000   0.28155126   -3.4889003   0.42190457   -3.0669957   0.13470445    11048.431     1000 
 2904000   0.30380169   -3.4921218   0.45524683   -3.0368749   0.12975972    11186.127     1000 
 2906000    0.2990654   -3.4783273   0.44814949   -3.0301778   0.13130672    11159.541     1000 
 2908000   0.30098392   -3.4927486    0.4510244   -3.0417242   0.12161229    11204.705     1000 
 2910000    0.3031559   -3.5097908   0.45427911   -3.0555117   0.12824138    11133.279     1000 
 2912000   0.29184275   -3.4732568   0.43732636   -3.0359305   0.12240771    11110.189     1000 
 2914000    0.2988945   -3.4632149   0.44789341   -3.0153215   0.13457052    11072.795     1000 
 2916000    0.3039909   -3.4645929   0.45553036   -3.0090625   0.13331832    11031.559     1000 
 2918000   0.28487217   -3.5086401   0.42688094   -3.0817592   0.13569372    11092.394     1000 
 2920000   0.29257811   -3.4810062    0.4384283   -3.0425779   0.13254504    11101.209     1000 
 2922000   0.29764668   -3.4787097   0.44602354   -3.0326862   0.11981876    11163.037     1000 
 2924000   0.29541795   -3.4691572   0.44268379   -3.0264734   0.13969003    11066.308     1000 
 2926000   0.30276086   -3.4814808   0.45368715   -3.0277937   0.13714132    11094.017     1000 
 2928000   0.30614189     -3.45702   0.45875363   -2.9982664    0.1423389    10990.731     1000 
 2930000   0.29390925    -3.495114   0.44042302    -3.054691   0.11434487    11121.601     1000 
 2932000   0.30631892   -3.4767822    0.4590189   -3.0177633   0.14786155    10998.248     1000 
 2934000   0.29556533   -3.4436942   0.44290465   -3.0007895   0.14034478    10963.493     1000 
 2936000   0.30760284   -3.4626216   0.46094286   -3.0016787   0.13062615    11039.181     1000 
 2938000   0.30103548   -3.4501848   0.45110167   -2.9990831   0.13287878    10974.572     1000 
 2940000   0.31578502     -3.44826   0.47320386   -2.9750561   0.14504469    10964.464     1000 
 2942000   0.30531899     -3.49427    0.4575205   -3.0367495   0.13279841    11066.387     1000 
 2944000    0.2944367   -3.4555046    0.4412134   -3.0142912   0.13746697    11053.514     1000 
 2946000   0.28992618   -3.4477017   0.43445438   -3.0132474   0.12944227     11040.72     1000 
 2948000    0.3039292   -3.4693924   0.45543791   -3.0139545   0.11502054    11255.627     1000 
 2950000   0.29832798   -3.4823479   0.44704448   -3.0353034   0.12455512     11136.68     1000 
 2952000   0.30587596   -3.4526473   0.45835512   -2.9942922   0.13672835    11046.203     1000 
 2954000   0.30749258   -3.4749905   0.46077763   -3.0142129   0.12015175    11194.888     1000 
 2956000   0.29554275   -3.4875854    0.4428708   -3.0447146   0.13743754    11044.882     1000 
 2958000   0.30937375   -3.4549482   0.46359656   -2.9913517   0.11956964    11121.276     1000 
 2960000   0.30004189   -3.4728783   0.44961277   -3.0232655   0.12655282    11067.057     1000 
 2962000   0.29263098   -3.4245495   0.43850752    -2.986042   0.12951186    11086.524     1000 
 2964000   0.31081932    -3.441932   0.46576276   -2.9761693   0.13293311    11126.671     1000 
 2966000   0.29539492   -3.4710649   0.44264928   -3.0284156   0.14244034    11061.575     1000 
 2968000   0.30150717   -3.4268665   0.45180849    -2.975058   0.13075549    11121.125     1000 
 2970000   0.29603083   -3.4790834    0.4436022   -3.0354812   0.13035979    11047.542     1000 
 2972000    0.3004769   -3.4653053   0.45026463   -3.0150407   0.12380352    11148.648     1000 
 2974000   0.29220543   -3.4419635   0.43786983   -3.0040937   0.13717759    11080.398     1000 
 2976000   0.30366521   -3.4853639   0.45504232   -3.0303216   0.13319541    11180.742     1000 
 2978000    0.3034411   -3.4925644   0.45470649   -3.0378579   0.13728214    11096.983     1000 
 2980000   0.29481313   -3.5061544   0.44177747   -3.0643769    0.1169271    11205.828     1000 
 2982000   0.29229618   -3.4912258   0.43800582     -3.05322   0.12901591    11078.224     1000 
 2984000   0.30292723   -3.4948589   0.45393646   -3.0409224   0.12719585    11105.448     1000 
 2986000   0.29981564   -3.4625043   0.44927374   -3.0132306   0.13623092    11014.452     1000 
 2988000   0.31000966   -3.5060376   0.46454947   -3.0414881   0.12673338    11083.424     1000 
 2990000   0.29283467   -3.4810653   0.43881275   -3.0422526   0.12907215    11148.312     1000 
 2992000    0.3025472   -3.4721056   0.45336697   -3.0187386   0.13389794    11114.957     1000 
 2994000   0.30509495    -3.506044   0.45718479   -3.0488592   0.12727192    11112.726     1000 
 2996000   0.29088614   -3.4961625   0.43589288   -3.0602696    0.1356217    11169.758     1000 
 2998000   0.30058548   -3.5177334   0.45042734    -3.067306   0.13045918    11185.579     1000 
 3000000   0.30045754   -3.4865122   0.45023563   -3.0362766   0.13226977    11102.949     1000 
Loop time of 8523.74 on 1 procs for 3000000 steps with 1000 atoms

Performance: 152045.892 tau/day, 351.958 timesteps/s
100.0% CPU use with 1 MPI tasks x 1 OpenMP threads

MPI task timing breakdown:
Section |  min time  |  avg time  |  max time  |%varavg| %total
---------------------------------------------------------------
Pair    | 7746.5     | 7746.5     | 7746.5     |   0.0 | 90.88
Neigh   | 612.23     | 612.23     | 612.23     |   0.0 |  7.18
Comm    | 68.649     | 68.649     | 68.649     |   0.0 |  0.81
Output  | 0.032837   | 0.032837   | 0.032837   |   0.0 |  0.00
Modify  | 84.46      | 84.46      | 84.46      |   0.0 |  0.99
Other   |            | 11.89      |            |       |  0.14

Nlocal:        1000.00 ave        1000 max        1000 min
Histogram: 1 0 0 0 0 0 0 0 0 0
Nghost:        6112.00 ave        6112 max        6112 min
Histogram: 1 0 0 0 0 0 0 0 0 0
Neighs:        205160.0 ave      205160 max      205160 min
Histogram: 1 0 0 0 0 0 0 0 0 0

Total # of neighbors = 205160
Ave neighs/atom = 205.16000
Neighbor list builds = 150000
Dangerous builds not checked

Total wall time: 2:22:03
