LAMMPS (29 Sep 2021 - Update 2)
OMP_NUM_THREADS environment is not set. Defaulting to 1 thread. (src/comm.cpp:98)
  using 1 OpenMP thread(s) per MPI task
# ----------------------- Inicialização -----------------------

units			lj
atom_style 		atomic
dimension 		3
boundary 		p p p

# -------------------- Criação dos Átomos ---------------------

read_data 		topologia.txt
Reading data file ...
  orthogonal box = (0.0000000 0.0000000 0.0000000) to (21.540000 21.540000 21.540000)
  1 by 1 by 1 MPI processor grid
  reading atoms ...
  1000 atoms
  read_data CPU = 0.002 seconds

velocity 		all create ${temp} 87287 rot yes dist gaussian
velocity 		all create 0.56 87287 rot yes dist gaussian

# ------------------ Interação Interatômica -------------------

pair_style		table linear 1000
pair_coeff		1 1 force.table AA 5.0
WARNING: 2 of 1000 force values in table AA are inconsistent with -dE/dr.
WARNING:  Should only be flagged at inflection points (src/pair_table.cpp:465)
pair_coeff		1 2 force.table AB 5.0
WARNING: 1 of 1000 force values in table AB are inconsistent with -dE/dr.
WARNING:  Should only be flagged at inflection points (src/pair_table.cpp:465)
pair_coeff		2 2 force.table BB 5.0
pair_write		1 1 1000 r 0.008 5.0 table.check AA
Appending to table file table.check with DATE: 2023-06-19
Neighbor list info ...
  update every 1 steps, delay 10 steps, check yes
  max neighbors/atom: 2000, page size: 100000
  master list distance cutoff = 5.3
  ghost atom cutoff = 5.3
  binsize = 2.65, bins = 9 9 9
  1 neighbor lists, perpetual/occasional/extra = 1 0 0
  (1) pair table, perpetual
      attributes: half, newton on
      pair build: half/bin/atomonly/newton
      stencil: half/bin/3d
      bin: standard
pair_write		1 2 1000 r 0.008 5.0 table.check AB
Appending to table file table.check with DATE: 2023-06-19
pair_write		2 2 1000 r 0.008 5.0 table.check BB
Appending to table file table.check with DATE: 2023-06-19

neighbor 		0.3 bin
neigh_modify		every 20 delay 0 check no

# ------------------------- Ensemble --------------------------------------

fix 1			all npt temp ${temp} ${temp} 0.5 iso ${press} ${press} 5
fix 1			all npt temp 0.56 ${temp} 0.5 iso ${press} ${press} 5
fix 1			all npt temp 0.56 0.56 0.5 iso ${press} ${press} 5
fix 1			all npt temp 0.56 0.56 0.5 iso 0.13 ${press} 5
fix 1			all npt temp 0.56 0.56 0.5 iso 0.13 0.13 5

# ---------------------- Função de Distribuição Radial -----------------------

#compute RDF 		all rdf 2000 1 1 1 2 2 2
#fix 2 			all ave/time 1 2000 2000 c_RDF[*] file rdf.data mode vector

# ------------------------- Execução ---------------------------

timestep 		0.005
thermo_style		custom step temp pe ke etotal press vol atoms
thermo			2000
run			3000000
Per MPI rank memory allocation (min/avg/max) = 2.670 | 2.670 | 2.670 Mbytes
Step Temp PotEng KinEng TotEng Press Volume Atoms 
       0         0.56  0.064030556      0.83916   0.90319056   0.74001033    9993.9483     1000 
    2000   0.54690494   -1.8480619   0.81953705   -1.0285249   0.12060973    11719.709     1000 
    4000   0.53223175    -1.863598   0.79754928   -1.0660487   0.12916139    11637.404     1000 
    6000   0.54584422   -1.8472464   0.81794757   -1.0292989   0.12372289    11711.309     1000 
    8000   0.57609988   -1.9250938   0.86328567   -1.0618081   0.11960471    11674.828     1000 
   10000   0.54764644   -1.9035934   0.82064819   -1.0829452   0.11950632     11744.71     1000 
   12000   0.52649764   -1.8848652   0.78895671   -1.0959085   0.12197745    11646.295     1000 
   14000   0.58509831    -1.939431   0.87676981   -1.0626612   0.12947079    11779.284     1000 
   16000   0.57954294   -1.9021302   0.86844509   -1.0336851   0.13327073     11731.02     1000 
   18000   0.54153073   -1.8919943    0.8114838   -1.0805105   0.12661677    11535.706     1000 
   20000   0.55034662   -1.8484432   0.82469442   -1.0237488   0.14382673    11424.491     1000 
   22000   0.56164552   -1.9328124   0.84162582   -1.0911866   0.13578116    11675.957     1000 
   24000   0.55283271    -1.851527   0.82841982   -1.0231072   0.13904563    11453.904     1000 
   26000   0.55226182   -1.9155151   0.82756433   -1.0879508    0.1281423    11741.181     1000 
   28000   0.54053455   -1.8750058   0.80999102   -1.0650148   0.13464771    11574.517     1000 
   30000   0.54618246    -1.871162   0.81845442   -1.0527075   0.12027859    11679.823     1000 
   32000   0.55488233   -1.9300909   0.83149117   -1.0985997   0.12006185    11756.243     1000 
   34000   0.55213508   -1.8918096   0.82737441   -1.0644352   0.12246866    11857.725     1000 
   36000    0.5712149    -1.902717   0.85596552   -1.0467515   0.12166587    11805.313     1000 
   38000   0.54979202   -1.8755581   0.82386335   -1.0516947   0.12818356    11685.615     1000 
   40000   0.57557542    -1.895432   0.86249977   -1.0329322   0.13579934    11615.815     1000 
   42000   0.56332526   -1.8981709    0.8441429    -1.054028   0.14162995    11698.058     1000 
   44000   0.57821454   -1.8792715   0.86645448    -1.012817   0.13660143    11565.238     1000 
   46000   0.58167896   -1.8706314   0.87164593  -0.99898548    0.1314786    11604.602     1000 
   48000   0.55422674    -1.898271   0.83050877   -1.0677622   0.14466806    11567.512     1000 
   50000   0.55976683   -1.9211145   0.83881059   -1.0823039   0.11517564    11878.665     1000 
   52000   0.55329786   -1.8391155   0.82911684   -1.0099987   0.14204418    11422.069     1000 
   54000   0.57144784   -1.9107968   0.85631459   -1.0544822   0.13632844    11732.061     1000 
   56000   0.56750468   -1.8387159   0.85040577  -0.98831014   0.12896747    11741.924     1000 
   58000   0.58320101   -1.8868803   0.87392671   -1.0129536   0.14040473    11449.966     1000 
   60000   0.56757664   -1.8845823   0.85051359   -1.0340687    0.1383894    11617.792     1000 
   62000    0.5686741   -1.8719984   0.85215814   -1.0198403   0.13577715    11722.709     1000 
   64000   0.56841132   -1.9465972   0.85176436   -1.0948328   0.12031673    11788.237     1000 
   66000   0.53743078   -1.8398259   0.80534003   -1.0344858    0.1261889    11681.958     1000 
   68000   0.57823687   -1.9119074   0.86648794   -1.0454194    0.1291531    11772.933     1000 
   70000   0.56811577   -1.8338745   0.85132148  -0.98255306   0.13917672    11349.553     1000 
   72000   0.55091845   -1.8846115    0.8255513   -1.0590602   0.12895746    11718.723     1000 
   74000   0.55530952   -1.8625679   0.83213131   -1.0304365   0.12687039    11626.531     1000 
   76000   0.56915239   -1.8792517   0.85287486   -1.0263768   0.13081299    11766.641     1000 
   78000   0.53810588   -1.8613769   0.80635167   -1.0550252   0.15098174    11444.898     1000 
   80000   0.56218095   -1.9203682   0.84242816   -1.0779401   0.11070422    11796.483     1000 
   82000   0.57830218   -1.8928462   0.86658582   -1.0262604   0.13749348    11544.371     1000 
   84000   0.55656846   -1.8879582   0.83401784   -1.0539404    0.1416292    11609.353     1000 
   86000   0.55534255   -1.8508381   0.83218082   -1.0186573   0.12438542     11672.01     1000 
   88000   0.55710125   -1.8832949   0.83481622   -1.0484786   0.15109253    11407.568     1000 
   90000   0.56549973   -1.8912689   0.84740135   -1.0438676   0.13690754    11693.496     1000 
   92000   0.56920562   -1.8495312   0.85295462  -0.99657662   0.12479208    11807.723     1000 
   94000   0.56749591   -1.8845704   0.85039262   -1.0341778   0.13853528    11597.855     1000 
   96000   0.57726375   -1.8800129   0.86502973   -1.0149832   0.13575226    11649.296     1000 
   98000   0.54023774   -1.9307806   0.80954625   -1.1212344   0.12450621     11862.02     1000 
  100000   0.54904202   -1.8849969   0.82273947   -1.0622574   0.14015454    11559.948     1000 
  102000   0.58395018   -1.8987889   0.87504934   -1.0237396   0.13020834    11781.309     1000 
  104000   0.55954243   -1.8740512   0.83847433   -1.0355769   0.11504987    11748.668     1000 
  106000    0.5439578   -1.8892007   0.81512076   -1.0740799   0.13486947    11687.293     1000 
  108000   0.54475269   -1.8838325   0.81631191   -1.0675206   0.13882851    11531.359     1000 
  110000   0.57018554   -1.8902899   0.85442303   -1.0358668   0.14128748    11544.886     1000 
  112000    0.5661261   -1.9012907   0.84833995   -1.0529507   0.12802376     11698.45     1000 
  114000   0.55385955   -1.8987636   0.82995854    -1.068805   0.12453103    11777.418     1000 
  116000    0.5644845   -1.8692496   0.84588002   -1.0233695   0.12226721    11832.797     1000 
  118000   0.56444441   -1.8673858   0.84581995   -1.0215659     0.136451    11638.201     1000 
  120000   0.56130668   -1.8675319   0.84111807   -1.0264138   0.14028906    11590.666     1000 
  122000    0.5478048   -1.9033424   0.82088549   -1.0824569   0.13298321    11586.679     1000 
  124000   0.55390102   -1.9003612   0.83002068   -1.0703405    0.1301405    11572.682     1000 
  126000   0.56921746    -1.912965   0.85297236   -1.0599927   0.12941868    11697.328     1000 
  128000   0.53600729   -1.8570491   0.80320693   -1.0538421   0.11671753    11651.464     1000 
  130000   0.56969785   -1.8894156   0.85369223   -1.0357234   0.13857509     11538.07     1000 
  132000    0.5373497   -1.8808487   0.80521852   -1.0756302   0.12814963    11606.123     1000 
  134000    0.5491683   -1.9094953    0.8229287   -1.0865666   0.13561458     11575.18     1000 
  136000   0.57851793   -1.9225281   0.86690912    -1.055619    0.1311008    11607.912     1000 
  138000   0.55832151   -1.8865256   0.83664478   -1.0498808   0.12260594    11594.456     1000 
  140000   0.56094779   -1.8860007   0.84058027   -1.0454205   0.11432729    11719.266     1000 
  142000   0.56474424   -1.9143649   0.84626924   -1.0680957   0.12697026    11664.618     1000 
  144000    0.5641247   -1.9173946   0.84534086   -1.0720537    0.1407719    11630.872     1000 
  146000   0.56662036   -1.8746665    0.8490806   -1.0255859   0.13409382    11732.718     1000 
  148000   0.55549546   -1.9055305   0.83240995   -1.0731206    0.1408133     11528.92     1000 
  150000   0.54473884   -1.8967754   0.81629115   -1.0804842   0.13061176    11688.966     1000 
  152000   0.57010544   -1.9027221     0.854303   -1.0484191   0.13109638    11689.146     1000 
  154000   0.57972197   -1.9061264   0.86871337    -1.037413   0.13348561    11715.436     1000 
  156000   0.57502295   -1.8815635   0.86167189   -1.0198916   0.13326655    11695.609     1000 
  158000   0.56017193   -1.8944444   0.83941763   -1.0550267   0.11771645    11761.539     1000 
  160000    0.5659748   -1.8893217   0.84811325   -1.0412085    0.1237129    11800.079     1000 
  162000    0.5833098   -1.8437872   0.87408973  -0.96969748   0.13056915    11712.823     1000 
  164000   0.55421618   -1.9078041   0.83049294   -1.0773111   0.14488911    11647.802     1000 
  166000   0.54856166   -1.8979776   0.82201964    -1.075958   0.12037391    11525.636     1000 
  168000   0.57550022   -1.8829242   0.86238708   -1.0205371   0.10974119    11844.252     1000 
  170000    0.5569435   -1.8446613   0.83457984   -1.0100815   0.13905722    11589.119     1000 
  172000   0.55373249   -1.8309626   0.82976813   -1.0011945   0.13251736    11570.362     1000 
  174000   0.55163088   -1.8861395   0.82661888   -1.0595206   0.13147725    11661.512     1000 
  176000   0.53996079   -1.8903403   0.80913124   -1.0812091   0.12871422    11766.932     1000 
  178000   0.56153659   -1.9185671   0.84146257   -1.0771046   0.12201491    11700.639     1000 
  180000   0.55756426   -1.9096662   0.83551004   -1.0741562   0.12504376    11893.719     1000 
  182000   0.54643117   -1.8493647   0.81882711   -1.0305375   0.12856918    11781.865     1000 
  184000   0.54079081    -1.857569   0.81037503    -1.047194   0.12311135    11728.167     1000 
  186000   0.56630249   -1.9307275   0.84860428   -1.0821232   0.12914861    11785.839     1000 
  188000   0.55804078   -1.9334475    0.8362241   -1.0972234   0.11797216     11777.83     1000 
  190000   0.57887753   -1.9094827   0.86744798   -1.0420347   0.15226172    11443.779     1000 
  192000   0.57028697   -1.9402243   0.85457502   -1.0856492     0.137732    11765.549     1000 
  194000   0.56260275   -1.8630258   0.84306022   -1.0199656   0.11461438    11712.376     1000 
  196000   0.56841677   -1.9100954   0.85177253   -1.0583228   0.12297514    11897.831     1000 
  198000   0.55806347   -1.9223129   0.83625811   -1.0860548  0.098188959     11942.92     1000 
  200000   0.53784823   -1.8714217   0.80596558   -1.0654561   0.12575708    11679.477     1000 
  202000   0.57897394   -1.9005091   0.86759244   -1.0329167   0.13937381    11661.464     1000 
  204000   0.56461618   -1.8757608   0.84607734   -1.0296835   0.14196069    11558.347     1000 
  206000   0.56559361   -1.8813601   0.84754202   -1.0338181   0.14115266    11740.323     1000 
  208000   0.55860582   -1.8960463   0.83707082   -1.0589755   0.12847541    11659.207     1000 
  210000   0.56789185   -1.9033366   0.85098593   -1.0523507   0.13128016    11738.242     1000 
  212000   0.54256247   -1.9080231   0.81302987   -1.0949933   0.11689804    11851.877     1000 
  214000   0.54719121   -1.9154082   0.81996603   -1.0954422   0.11681559    11939.857     1000 
  216000   0.56068691   -1.8541833   0.84018934   -1.0139939   0.13605898    11617.646     1000 
  218000   0.57207557    -1.860212   0.85725524   -1.0029567   0.13469227    11567.191     1000 
  220000   0.54924891   -1.9046233   0.82304949   -1.0815738   0.13445827    11637.464     1000 
  222000   0.53875797   -1.9091388   0.80732882     -1.10181   0.13439252    11720.475     1000 
  224000   0.55558021   -1.9348216   0.83253695   -1.1022847   0.13725592    11648.217     1000 
  226000   0.58126226    -1.872673   0.87102149   -1.0016515   0.13183306    11573.389     1000 
  228000   0.57963046   -1.9002399   0.86857624   -1.0316636   0.12441595    11673.038     1000 
  230000    0.5458969   -1.9401924    0.8180265   -1.1221659   0.12417856    11775.213     1000 
  232000   0.57672106    -1.841498   0.86421651  -0.97728145   0.13033194    11613.794     1000 
  234000   0.57329045   -1.8473686   0.85907574   -0.9882929   0.14052983    11495.662     1000 
  236000   0.55675035   -1.9483091    0.8342904   -1.1140187   0.12453922    11935.612     1000 
  238000   0.56470397   -1.8735698    0.8462089   -1.0273609   0.12572906    11666.907     1000 
  240000   0.55156779   -1.8776023   0.82652433    -1.051078   0.14097945    11519.935     1000 
  242000   0.53858821    -1.821488   0.80707443   -1.0144136   0.14035311    11450.076     1000 
  244000    0.5382956   -1.9146702   0.80663595   -1.1080342   0.13663483    11598.514     1000 
  246000    0.5671612   -1.8463065   0.84989106  -0.99641541   0.13549656     11713.78     1000 
  248000   0.54513003   -1.9436738   0.81687735   -1.1267964    0.1132566    11938.452     1000 
  250000   0.54647574   -1.8646516    0.8188939   -1.0457577   0.12864024    11642.388     1000 
  252000   0.56155515   -1.9108669    0.8414904   -1.0693765   0.12793087    11678.877     1000 
  254000   0.56237914   -1.9404303   0.84272514   -1.0977052   0.12854018    11850.655     1000 
  256000   0.57255358   -1.8657651   0.85797154   -1.0077936   0.15003768    11351.523     1000 
  258000   0.54654824   -1.9015752   0.81900254   -1.0825726   0.13607752    11642.215     1000 
  260000   0.58303085   -1.8844753   0.87367173   -1.0108036   0.12422736    11760.693     1000 
  262000   0.56463252   -1.9212498   0.84610183    -1.075148   0.13964187    11731.941     1000 
  264000   0.56161091   -1.9246918   0.84157395   -1.0831178   0.13235326    11594.081     1000 
  266000   0.55553072   -1.9179409   0.83246278   -1.0854781   0.12701629    11735.109     1000 
  268000   0.54067723   -1.8697842   0.81020483   -1.0595794    0.1222958    11609.352     1000 
  270000   0.55190847   -1.9069974   0.82703485   -1.0799625   0.14128761    11712.269     1000 
  272000   0.55411623   -1.9150426   0.83034317   -1.0846994   0.13082008     11522.58     1000 
  274000   0.55143527   -1.9169191   0.82632575   -1.0905933   0.13032767    11696.438     1000 
  276000   0.54823154   -1.9290073   0.82152496   -1.1074823   0.12814224    11761.419     1000 
  278000   0.55350499   -1.8973227   0.82942723   -1.0678954   0.12937586    11738.344     1000 
  280000   0.54437764   -1.8484593   0.81574989   -1.0327094   0.14354046    11468.437     1000 
  282000   0.59488481   -1.9128404   0.89143489   -1.0214055   0.12621321     11770.12     1000 
  284000   0.57349963   -1.8713041   0.85938919   -1.0119149   0.12996248     11779.81     1000 
  286000   0.59409284   -1.9474152   0.89024812    -1.057167   0.11942346    11720.336     1000 
  288000   0.54770799   -1.8729605   0.82074042     -1.05222   0.12845107    11572.266     1000 
  290000   0.57051399     -1.86188   0.85491521   -1.0069648    0.1378522    11448.341     1000 
  292000   0.55192158   -1.8993276   0.82705449   -1.0722731   0.12419525    11810.102     1000 
  294000   0.57117741   -1.8476208   0.85590935  -0.99171149   0.12369608    11591.501     1000 
  296000   0.57678508   -1.9190541   0.86431245   -1.0547417   0.12316728    11719.364     1000 
  298000   0.56528444   -1.8619544   0.84707873   -1.0148757   0.12188804    11773.593     1000 
  300000   0.56040243   -1.9270796   0.83976303   -1.0873166   0.13310756     11557.12     1000 
  302000   0.56135444   -1.9311758   0.84118963   -1.0899862   0.12979237    11699.138     1000 
  304000   0.55431181   -1.9438158   0.83063625   -1.1131795   0.13130888    11708.288     1000 
  306000   0.56062638   -1.8656418   0.84009864   -1.0255432   0.14289526    11512.179     1000 
  308000   0.55211205   -1.9198778    0.8273399   -1.0925379   0.13379647     11688.48     1000 
  310000    0.5518725   -1.8667967   0.82698095   -1.0398157   0.12242746    11640.122     1000 
  312000   0.54712042   -1.8885671   0.81985995   -1.0687071   0.14226651    11505.036     1000 
  314000    0.5789807   -1.8606783   0.86760258  -0.99307569   0.13005213    11553.595     1000 
  316000    0.5343044   -1.8568125   0.80065514   -1.0561574    0.1409248    11561.051     1000 
  318000   0.55911773   -1.8999609   0.83783791    -1.062123   0.13267165    11602.983     1000 
  320000   0.55961368   -1.9308772    0.8385811   -1.0922961   0.13100123    11679.227     1000 
  322000   0.53779423   -1.8462381   0.80588466   -1.0403534   0.12053284    11847.439     1000 
  324000   0.56021082   -1.8931007   0.83947591   -1.0536248   0.14387594    11473.889     1000 
  326000   0.55501482   -1.8622747   0.83168971    -1.030585   0.12511286    11633.907     1000 
  328000   0.55188697   -1.9020409   0.82700263   -1.0750383     0.137607    11512.403     1000 
  330000    0.5732948   -1.8523411   0.85908226   -0.9932588   0.13643277    11511.691     1000 
  332000   0.57301903   -1.9014201   0.85866902   -1.0427511   0.12782602    11698.009     1000 
  334000   0.55310268   -1.9038052   0.82882436   -1.0749808   0.13129869    11632.427     1000 
  336000   0.54446199   -1.8827435   0.81587629   -1.0668672   0.12995151    11557.201     1000 
  338000   0.56245675   -1.8834988   0.84284144   -1.0406574   0.12606306    11710.902     1000 
  340000   0.56875567   -1.8882973   0.85228038   -1.0360169   0.14132503    11559.527     1000 
  342000   0.57936815   -1.9061265   0.86818318   -1.0379433   0.13295755    11727.402     1000 
  344000   0.59389423   -1.8771031    0.8899505  -0.98715259   0.11165088    11921.267     1000 
  346000   0.55927704   -1.8378139   0.83807664  -0.99973724   0.14338598    11512.019     1000 
  348000   0.56849641   -1.8931761   0.85189186   -1.0412843   0.12632242    11611.417     1000 
  350000   0.54057227   -1.8980882   0.81004755   -1.0880407   0.11550733    11726.309     1000 
  352000    0.5664946   -1.8612048   0.84889215   -1.0123126   0.13866711    11466.178     1000 
  354000    0.5744877   -1.8375677   0.86086982  -0.97669786   0.13398263    11710.263     1000 
  356000   0.54354925   -1.9438002   0.81450855   -1.1292917   0.11564492    11954.993     1000 
  358000   0.56661946   -1.8968418   0.84907926   -1.0477625   0.13101532    11618.438     1000 
  360000   0.53887921   -1.9270355    0.8075105    -1.119525   0.13819191    11639.199     1000 
  362000   0.59424489   -1.9275457   0.89047596   -1.0370697   0.14181808    11800.456     1000 
  364000    0.5728275   -1.8976067     0.858382   -1.0392247   0.12124896    11762.069     1000 
  366000   0.55434262   -1.8790905   0.83068242    -1.048408   0.13715616    11625.993     1000 
  368000   0.55809022   -1.8925485   0.83629819   -1.0562503   0.13122129    11717.449     1000 
  370000   0.58391788    -1.861808   0.87500094   -0.9868071   0.14633912    11580.088     1000 
  372000   0.54256784   -1.8661938   0.81303792   -1.0531559   0.12561707    11653.396     1000 
  374000   0.58145092   -1.9508986    0.8713042   -1.0795944   0.13276974    11683.511     1000 
  376000   0.53137949   -1.8840659   0.79627216   -1.0877937   0.13770308    11623.916     1000 
  378000   0.56036748   -1.8501152   0.83971066   -1.0104045   0.14115826    11711.301     1000 
  380000   0.56466246   -1.8919065    0.8461467   -1.0457598   0.12927633    11629.207     1000 
  382000   0.60267639   -1.9210903   0.90311057   -1.0179797   0.13446013    11637.147     1000 
  384000   0.55954249   -1.9587091   0.83847442   -1.1202347   0.11370213    11772.704     1000 
  386000    0.5497982   -1.8656507    0.8238726   -1.0417781   0.14567786    11600.788     1000 
  388000   0.57761802   -1.8860112    0.8655606   -1.0204506   0.14103955    11605.331     1000 
  390000   0.56006395   -1.9244113   0.83925583   -1.0851555   0.13864318    11667.197     1000 
  392000   0.54361285    -1.879277   0.81460386   -1.0646732   0.12635164    11575.918     1000 
  394000   0.56599766   -1.9107301    0.8481475   -1.0625826   0.11586319    11786.909     1000 
  396000   0.57196724   -1.9012745   0.85709291   -1.0441816    0.1427028    11615.154     1000 
  398000   0.53469204   -1.9041575   0.80123602   -1.1029215   0.12423915    11711.034     1000 
  400000   0.55513322   -1.8955855   0.83186713   -1.0637184   0.11453479    11904.546     1000 
  402000    0.5270609   -1.9577823   0.78980076   -1.1679815   0.13085089    11731.982     1000 
  404000   0.55319263   -1.9410537   0.82895915   -1.1120945   0.13691554    11633.213     1000 
  406000   0.53707709   -1.9472077   0.80481003   -1.1423977   0.11768845    11801.061     1000 
  408000   0.55592728   -1.9073665   0.83305704   -1.0743094   0.14597728    11590.355     1000 
  410000   0.56664487   -1.8683878   0.84911733   -1.0192704   0.12828236    11798.197     1000 
  412000   0.56551826   -1.8522708   0.84742911   -1.0048417   0.13603891    11542.202     1000 
  414000   0.56370839    -1.930343   0.84471703    -1.085626   0.12901443    11645.637     1000 
  416000   0.57155358   -1.8794658   0.85647304   -1.0229928   0.13636251    11626.655     1000 
  418000   0.56790772   -1.9370324   0.85100972   -1.0860227   0.11860261    11841.618     1000 
  420000   0.55541168   -1.9140645    0.8322844   -1.0817801   0.11857731    11767.333     1000 
  422000   0.57172882   -1.8951272   0.85673564   -1.0383915    0.1272416    11654.665     1000 
  424000   0.53688675   -1.8800365   0.80452479   -1.0755117   0.13560852    11554.005     1000 
  426000   0.56852331   -1.8881284   0.85193217   -1.0361962   0.12696417    11798.051     1000 
  428000   0.57504313   -1.8852837   0.86170214   -1.0235816   0.12649121    11762.578     1000 
  430000   0.54779729   -1.9135271   0.82087424   -1.0926529   0.13985732    11516.344     1000 
  432000   0.60570871    -1.921281   0.90765449   -1.0136265   0.14749555    11675.136     1000 
  434000   0.56086381   -1.8993383   0.84045441   -1.0588839   0.12934696     11802.29     1000 
  436000   0.53852442   -1.8833695   0.80697885   -1.0763906   0.13615218    11580.075     1000 
  438000     0.569043   -1.9495492   0.85271093   -1.0968383   0.13577518    11591.593     1000 
  440000   0.58732762   -1.9263413   0.88011044   -1.0462308   0.12992324    11723.864     1000 
  442000   0.55501845   -1.9029444   0.83169514   -1.0712493   0.12219932    11736.329     1000 
  444000   0.53659037   -1.8364275   0.80408067   -1.0323468   0.13310792      11660.7     1000 
  446000   0.52516816    -1.923555   0.78696449   -1.1365905   0.12455996    11758.591     1000 
  448000     0.541218   -1.8657854   0.81101518   -1.0547703   0.12995418    11568.767     1000 
  450000   0.56122466   -1.8907013   0.84099515   -1.0497062   0.14463696    11581.381     1000 
  452000   0.57124827   -1.8799961   0.85601554   -1.0239806   0.12581415    11686.744     1000 
  454000   0.57101549   -1.8797946   0.85566672   -1.0241278   0.13559035    11711.621     1000 
  456000    0.5889783   -1.8909403   0.88258399   -1.0083563   0.13334492    11652.752     1000 
  458000   0.57429128   -1.9159315   0.86057548    -1.055356   0.11579494    11911.928     1000 
  460000   0.54340839   -1.9141296   0.81429748   -1.0998321   0.12837636    11659.457     1000 
  462000   0.55153243   -1.8707307   0.82647134   -1.0442593   0.12441105    11654.707     1000 
  464000    0.5407357   -1.8987025   0.81029244     -1.08841   0.13961927    11602.418     1000 
  466000   0.54950391   -1.9001948    0.8234316   -1.0767632   0.12123843    11828.822     1000 
  468000    0.5584458   -1.9389495   0.83683103   -1.1021184    0.1362047    11659.538     1000 
  470000   0.56138644   -1.8726151   0.84123757   -1.0313775   0.14249891    11435.171     1000 
  472000   0.59029606   -1.9102059   0.88455865   -1.0256473   0.11323287    11895.406     1000 
  474000   0.55371457   -1.8073136   0.82974128  -0.97757232   0.13562572    11602.749     1000 
  476000   0.53681913   -1.8999145   0.80442347    -1.095491    0.1183406    11755.782     1000 
  478000   0.56127992   -1.9476201   0.84107797   -1.1065422   0.13529774    11735.681     1000 
  480000   0.56767828   -1.8901263    0.8506659   -1.0394604   0.11881593     11800.82     1000 
  482000   0.54365885   -1.9156971   0.81467279   -1.1010243   0.11316686      11796.3     1000 
  484000   0.59628131   -1.9081101   0.89352754   -1.0145825   0.13009869    11693.522     1000 
  486000   0.56407942   -1.9438095   0.84527302   -1.0985364   0.12270314    11815.745     1000 
  488000   0.57992245   -1.8624076   0.86901379  -0.99339376   0.12236276    11709.295     1000 
  490000   0.57132881   -1.8523039   0.85613622  -0.99616764   0.14620674    11547.853     1000 
  492000   0.53973205   -1.8293857   0.80878848   -1.0205972   0.13881751    11618.572     1000 
  494000   0.54614254   -1.9392441    0.8183946   -1.1208495   0.13940215    11605.714     1000 
  496000   0.54865799   -1.9132271     0.822164   -1.0910631    0.1174152    11729.575     1000 
  498000   0.54698897   -1.8616276   0.81966297   -1.0419647   0.13497565    11740.788     1000 
  500000   0.56861478   -1.9336033   0.85206924   -1.0815341   0.12224594    11736.323     1000 
  502000   0.54664105   -1.9183751   0.81914162   -1.0992335   0.11202312    11846.904     1000 
  504000   0.55815164    -1.929758   0.83639023   -1.0933678   0.14078778    11620.271     1000 
  506000   0.56196395   -1.8740142   0.84210297   -1.0319113   0.14410584    11627.392     1000 
  508000   0.57205702    -1.840688   0.85722744  -0.98346053   0.12881898    11670.858     1000 
  510000   0.56255115   -1.8306168    0.8429829  -0.98763385   0.13004401    11581.972     1000 
  512000   0.57672113   -1.9107118   0.86421662   -1.0464952   0.12955462    11581.322     1000 
  514000    0.5441903    -1.898338   0.81546916   -1.0828689   0.13944945     11617.58     1000 
  516000   0.56660522   -1.8841701   0.84905793   -1.0351121   0.13593121    11601.143     1000 
  518000   0.56932422   -1.9085101   0.85313235   -1.0553777   0.13173818    11547.061     1000 
  520000   0.57308531   -1.8603665   0.85876834   -1.0015982   0.12215912    11788.941     1000 
  522000   0.56305873   -1.8775024    0.8437435   -1.0337589   0.12296629    11715.893     1000 
  524000   0.57157747   -1.9005625   0.85650883   -1.0440536   0.12575794    11804.331     1000 
  526000    0.5513825   -1.9421831   0.82624667   -1.1159364   0.14682393    11484.215     1000 
  528000   0.54124441   -1.8676544   0.81105475   -1.0565997   0.12162093    11866.638     1000 
  530000   0.57174731   -1.8678189   0.85676334   -1.0110556     0.120872    11858.759     1000 
  532000   0.56237925   -1.8946752    0.8427253   -1.0519499    0.1336774    11663.456     1000 
  534000   0.56940594   -1.9052591   0.85325481   -1.0520042   0.12109868    11791.625     1000 
  536000   0.53938701   -1.8958614   0.80827143     -1.08759   0.12343812    11762.536     1000 
  538000   0.56202662   -1.8923758   0.84219689   -1.0501789   0.13940396     11671.03     1000 
  540000   0.56062457   -1.8862122   0.84009593   -1.0461163     0.129233    11485.696     1000 
  542000   0.55221472   -1.8666722   0.82749376   -1.0391784   0.13510619    11673.173     1000 
  544000   0.55043553   -1.9061006   0.82482765    -1.081273   0.13047092    11597.856     1000 
  546000   0.55419688   -1.9663892   0.83046403   -1.1359252   0.12778727    11735.626     1000 
  548000   0.55595571   -1.9412664   0.83309963   -1.1081668   0.14138134    11662.597     1000 
  550000   0.55937642   -1.8518554   0.83822557   -1.0136299    0.1406933    11476.232     1000 
  552000   0.56640203   -1.9008934   0.84875344     -1.05214   0.12495834    11765.086     1000 
  554000   0.52378805   -1.8669692    0.7848964   -1.0820728   0.13313688    11697.916     1000 
  556000   0.55776446   -1.9104955   0.83581004   -1.0746854   0.12348685    11668.747     1000 
  558000   0.57556052   -1.8495049   0.86247744  -0.98702747   0.13623261    11684.981     1000 
  560000   0.57204458   -1.8578668    0.8572088    -1.000658   0.11880224    11750.183     1000 
  562000   0.56874977   -1.8979743   0.85227153   -1.0457027   0.13631341    11476.205     1000 
  564000   0.55029369   -1.8804525   0.82461509   -1.0558374    0.1425382    11668.555     1000 
  566000   0.55170624   -1.8495669   0.82673181   -1.0228351   0.12054661     11744.77     1000 
  568000   0.55519977   -1.8311281   0.83196685  -0.99916126   0.12558117    11712.222     1000 
  570000   0.54648048   -1.8827387     0.818901   -1.0638377    0.1167923    11808.636     1000 
  572000   0.57536889    -1.869491   0.86219027   -1.0073007   0.12441341    11833.934     1000 
  574000   0.54324695   -1.8846223   0.81405556   -1.0705668   0.13493434    11616.518     1000 
  576000   0.54870542   -1.9073478   0.82223506   -1.0851127   0.12064679    11647.604     1000 
  578000   0.54788755   -1.9121319    0.8210095   -1.0911224   0.12506528    11713.818     1000 
  580000   0.55219066   -1.8945003    0.8274577   -1.0670426   0.12871013    11635.948     1000 
  582000   0.55652819   -1.9152592   0.83395749   -1.0813017   0.14372301    11711.137     1000 
  584000   0.55505039   -1.8961396     0.831743   -1.0643966   0.13803666    11540.308     1000 
  586000   0.53464769    -1.897061   0.80116956   -1.0958914   0.12984713    11588.687     1000 
  588000    0.5618957   -1.8584285   0.84200071   -1.0164277   0.12502774    11569.101     1000 
  590000   0.55499846    -1.913995    0.8316652   -1.0823298   0.12527622    11732.021     1000 
  592000   0.56876801   -1.8894572   0.85229886   -1.0371584   0.13448002    11633.528     1000 
  594000    0.5502932   -1.9111279   0.82461436   -1.0865136   0.12888772     11709.86     1000 
  596000   0.53896616   -1.8829252    0.8076408   -1.0752844   0.13369657     11689.76     1000 
  598000   0.53108807   -1.8653319   0.79583547   -1.0694964   0.12499945    11713.402     1000 
  600000   0.55290146   -1.8979974   0.82852284   -1.0694746   0.13700268    11646.003     1000 
  602000   0.55784874   -1.8625889   0.83593633   -1.0266526   0.12700776    11661.549     1000 
  604000   0.55417247   -1.8923913   0.83042745   -1.0619638   0.13682041    11669.093     1000 
  606000   0.57712615   -1.9080998   0.86482353   -1.0432763   0.12745692    11834.488     1000 
  608000   0.55053406   -1.8265544   0.82497529   -1.0015791    0.1331598    11532.556     1000 
  610000    0.5615709   -1.8741059   0.84151399   -1.0325919   0.12050234    11729.565     1000 
  612000   0.56124759   -1.8984627   0.84102951   -1.0574332   0.12696853    11753.086     1000 
  614000   0.57453936   -1.8926744   0.86094723   -1.0317272   0.12144487    11708.009     1000 
  616000   0.56661701   -1.8808812   0.84907559   -1.0318057   0.13836935    11734.492     1000 
  618000   0.54901059   -1.9120658   0.82269237   -1.0893734    0.1343724    11794.808     1000 
  620000   0.56621218   -1.9076634   0.84846895   -1.0591945   0.12566131    11672.204     1000 
  622000   0.57806222    -1.918482   0.86622623   -1.0522557   0.12767583    11690.953     1000 
  624000   0.57753688   -1.8922539   0.86543902   -1.0268148   0.11502542    11836.053     1000 
  626000   0.55299093   -1.9215151   0.82865691   -1.0928582   0.13487079    11545.709     1000 
  628000   0.54962363   -1.8772422   0.82361101   -1.0536312   0.12586048    11712.187     1000 
  630000   0.54172713   -1.9264655    0.8117781   -1.1146874   0.12550058    11617.205     1000 
  632000   0.53304182   -1.9033839   0.79876316   -1.1046208   0.12433228    11652.014     1000 
  634000   0.58179669   -1.9663865   0.87182234   -1.0945641   0.13148908    11688.543     1000 
  636000   0.55457663   -1.8589527   0.83103309   -1.0279197   0.12701808    11760.587     1000 
  638000    0.5524578    -1.891664   0.82785801    -1.063806   0.13017519     11755.19     1000 
  640000   0.54155298   -1.8925997   0.81151714   -1.0810826   0.12222128    11780.693     1000 
  642000   0.56338066   -1.8772731   0.84422591   -1.0330472   0.11964981    11767.049     1000 
  644000   0.57116613   -1.8842911   0.85589245   -1.0283987   0.11712922    11830.574     1000 
  646000   0.55127538   -1.8831549   0.82608615   -1.0570688    0.1242262    11874.478     1000 
  648000   0.54573639   -1.8639351   0.81778598   -1.0461491   0.13001877    11713.011     1000 
  650000   0.54298544    -1.881531   0.81366368   -1.0678673   0.13499721      11634.8     1000 
  652000   0.57344515   -1.8544511   0.85930756  -0.99514351   0.13328113    11533.414     1000 
  654000   0.56180794   -1.8818956    0.8418692   -1.0400264   0.12629597    11710.415     1000 
  656000   0.56359837   -1.9055863   0.84455216   -1.0610342   0.12735722    11724.165     1000 
  658000   0.55881823   -1.9165694   0.83738912   -1.0791802   0.12110746    11795.151     1000 
  660000   0.58602014   -1.9103791   0.87815119   -1.0322279   0.12705944    11743.073     1000 
  662000   0.57011268   -1.8511345   0.85431386  -0.99682067   0.14334907    11546.196     1000 
  664000   0.55986284   -1.8986878   0.83895447   -1.0597333   0.14094927    11379.823     1000 
  666000   0.55603387   -1.8649642   0.83321676   -1.0317474   0.13473218    11514.651     1000 
  668000   0.55868502   -1.9453977   0.83718951   -1.1082082   0.12996057    11779.013     1000 
  670000   0.55026216   -1.9534657   0.82456784   -1.1288978   0.12421679    11670.013     1000 
  672000   0.56359986   -1.8672188    0.8445544   -1.0226644   0.13443456    11601.591     1000 
  674000   0.56039765   -1.8726784   0.83975588   -1.0329225   0.13102208    11684.203     1000 
  676000   0.58483306   -1.9251023   0.87637234     -1.04873   0.12870565    11627.159     1000 
  678000    0.5409348   -1.8509687   0.81059079   -1.0403779   0.12769656    11529.362     1000 
  680000   0.54131935   -1.9618057   0.81116705   -1.1506387   0.12692504    11671.455     1000 
  682000     0.579067   -1.8948959    0.8677319    -1.027164   0.12573992     11778.76     1000 
  684000   0.56142143   -1.9043094   0.84129001   -1.0630194   0.11949004     11788.42     1000 
  686000    0.5704906   -1.9415388   0.85488016   -1.0866587   0.11814688    11902.118     1000 
  688000   0.55767812   -1.9119853   0.83568067   -1.0763046   0.12015878    11749.796     1000 
  690000   0.56406537   -1.8644049   0.84525196   -1.0191529   0.13978076    11489.823     1000 
  692000   0.56373646   -1.8500343   0.84475909   -1.0052752   0.14941689     11537.14     1000 
  694000   0.56945371    -1.940533   0.85332639   -1.0872066   0.12886811    11764.448     1000 
  696000   0.54718019   -1.8952697   0.81994951   -1.0753202   0.13219716    11581.592     1000 
  698000   0.56408377   -1.9410646   0.84527953   -1.0957851   0.12665746    11655.716     1000 
  700000   0.58218815   -1.8561904   0.87240894  -0.98378141   0.12532708     11599.25     1000 
  702000   0.57348235   -1.9370225   0.85936331   -1.0776592   0.13617065    11657.979     1000 
  704000    0.5867815   -1.8950565   0.87929208   -1.0157645   0.12749134    11742.643     1000 
  706000   0.56144371   -1.8588129    0.8413234   -1.0174895   0.14961574    11466.725     1000 
  708000   0.56451172   -1.8581327   0.84592081   -1.0122119   0.13976455    11528.498     1000 
  710000   0.55780383   -1.8656171   0.83586903   -1.0297481   0.13085552     11539.92     1000 
  712000   0.55075587   -1.9059677   0.82530768   -1.0806601   0.12227594    11700.834     1000 
  714000   0.56311406    -1.876416   0.84382642   -1.0325895   0.13253415    11599.559     1000 
  716000   0.56822356   -1.9092517   0.85148301   -1.0577687   0.12441229    11650.993     1000 
  718000   0.57357942   -1.8516882   0.85950877   -0.9921794   0.12728479    11659.511     1000 
  720000   0.55417045   -1.8804532   0.83042442   -1.0500287   0.11151855    11979.989     1000 
  722000     0.545368   -1.8713911   0.81723395   -1.0541571   0.13254037    11693.499     1000 
  724000   0.53981367    -1.891975   0.80891078   -1.0830643   0.13835466     11430.03     1000 
  726000   0.57509327   -1.8806496   0.86177726   -1.0188723   0.14106428    11605.429     1000 
  728000   0.56928527   -1.9183035   0.85307398   -1.0652295     0.117889    11937.076     1000 
  730000   0.59730448   -1.8606024   0.89506077  -0.96554159      0.13065    11593.867     1000 
  732000   0.54773158   -1.8986917   0.82077577   -1.0779159   0.12565075    11844.342     1000 
  734000   0.55564076   -1.9491385   0.83262768   -1.1165109    0.1254838     11871.75     1000 
  736000   0.56016857   -1.9053213    0.8394126   -1.0659087   0.13684332     11595.85     1000 
  738000    0.5418461   -1.9047056   0.81195639   -1.0927492   0.12763592    11624.593     1000 
  740000   0.55782966   -1.8680065   0.83590775   -1.0320987   0.13925348    11587.218     1000 
  742000    0.5580388   -1.9298537   0.83622114   -1.0936326   0.14268637    11543.486     1000 
  744000   0.55574863   -1.9273769   0.83278933   -1.0945876   0.13087689    11642.522     1000 
  746000   0.55896802   -1.9496487   0.83761358   -1.1120351    0.1300229    11690.951     1000 
  748000    0.5590593    -1.910827   0.83775035   -1.0730766   0.12698997    11755.466     1000 
  750000   0.57344327   -1.8737993   0.85930475   -1.0144946   0.13132573    11651.361     1000 
  752000   0.56926234   -1.9001511   0.85303961   -1.0471115   0.12342944    11744.766     1000 
  754000   0.55963341   -1.8658901   0.83861067   -1.0272794   0.13555189    11701.833     1000 
  756000   0.55980936   -1.9049354   0.83887432   -1.0660611   0.13118486     11675.79     1000 
  758000   0.57752368   -1.8737837   0.86541924   -1.0083645    0.1326324    11745.044     1000 
  760000   0.58050231   -1.8898087   0.86988271    -1.019926   0.11991289    11841.693     1000 
  762000   0.57947944   -1.8843877   0.86834994   -1.0160377   0.13282655    11587.711     1000 
  764000   0.56356688   -1.8841629   0.84450497    -1.039658   0.12818922    11812.846     1000 
  766000   0.57872929    -1.876803   0.86722585   -1.0095771    0.1433364     11676.68     1000 
  768000   0.56739285   -1.8317149   0.85023819  -0.98147668   0.13445597    11648.879     1000 
  770000    0.5604767   -1.9334147   0.83987434   -1.0935403   0.11580708    11742.159     1000 
  772000   0.56425021   -1.8805637   0.84552894   -1.0350348   0.11853685    11733.316     1000 
  774000   0.53534475   -1.8910102    0.8022141   -1.0887961   0.12468991    11758.691     1000 
  776000   0.57788116   -1.8302253   0.86595492  -0.96427037   0.12834062    11647.859     1000 
  778000   0.57229647   -1.8568757   0.85758626   -0.9992894   0.13549678    11606.692     1000 
  780000   0.57487441   -1.9060533    0.8614493    -1.044604   0.12217187    11807.999     1000 
  782000   0.54814486   -1.9251209   0.82139507   -1.1037259    0.1309545    11667.286     1000 
  784000   0.56705768   -1.8260723   0.84973594  -0.97633631   0.14116574    11529.266     1000 
  786000   0.57037287   -1.8830687   0.85470374    -1.028365   0.12956583    11763.286     1000 
  788000   0.54826453   -1.8665927    0.8215744   -1.0450183    0.1189423    11656.172     1000 
  790000    0.5563772   -1.8785577   0.83373123   -1.0448264    0.1302289    11468.544     1000 
  792000   0.57278283   -1.8712304   0.85831506   -1.0129153   0.13428311    11676.795     1000 
  794000   0.57479458   -1.8851991   0.86132968   -1.0238694   0.14287355    11670.283     1000 
  796000   0.55490009   -1.9165375   0.83151779   -1.0850197   0.12817731    11669.259     1000 
  798000   0.56058815   -1.9211816   0.84004135   -1.0811402   0.11943997    11803.092     1000 
  800000   0.54678091   -1.8608328   0.81935119   -1.0414816   0.13598781    11561.229     1000 
  802000   0.55813883   -1.8371885   0.83637104   -1.0008175   0.13592905    11674.224     1000 
  804000   0.55706184   -1.8867887   0.83475717   -1.0520315    0.1226174    11726.148     1000 
  806000   0.58034328    -1.938263    0.8696444   -1.0686186   0.13113674    11789.015     1000 
  808000   0.52699439   -1.8556602   0.78970109   -1.0659591   0.12816957    11486.263     1000 
  810000   0.57239237   -1.8964489   0.85772996   -1.0387189   0.13161988    11627.424     1000 
  812000   0.56597963   -1.8407932   0.84812047  -0.99267276   0.13264588    11542.079     1000 
  814000   0.57222872   -1.8898748   0.85748474     -1.03239   0.12636257    11775.988     1000 
  816000   0.58059436   -1.8555384   0.87002065  -0.98551773   0.13782655    11543.924     1000 
  818000    0.5541486   -1.9110821   0.83039168   -1.0806904   0.14561182    11545.941     1000 
  820000   0.56404966   -1.9476509   0.84522842   -1.1024224   0.13767367      11631.1     1000 
  822000   0.56764522   -1.9169451   0.85061636   -1.0663288   0.13637973    11653.449     1000 
  824000   0.55799983   -1.9273174   0.83616274   -1.0911547   0.13383953    11587.108     1000 
  826000    0.5612688   -1.9043382   0.84106129   -1.0632769   0.12850606    11750.021     1000 
  828000   0.55730626    -1.976986   0.83512343   -1.1418626   0.12907077    11676.198     1000 
  830000   0.56512771   -1.9217515   0.84684388   -1.0749077   0.12926475    11677.882     1000 
  832000     0.581991   -1.8535121   0.87211351  -0.98139855   0.13618483    11705.282     1000 
  834000   0.55996801   -1.9105769   0.83911206   -1.0714648   0.12928686    11758.252     1000 
  836000   0.58094396   -1.9166719   0.87054453   -1.0461274   0.13868757    11608.989     1000 
  838000   0.58341998    -1.866219   0.87425484  -0.99196416   0.12819476    11741.899     1000 
  840000   0.56183453   -1.8688843   0.84190905   -1.0269753   0.12502858    11664.783     1000 
  842000   0.56049193   -1.8792657   0.83989716   -1.0393685   0.13561018    11557.924     1000 
  844000   0.56333531   -1.8890632   0.84415796   -1.0449052    0.1332395    11671.591     1000 
  846000   0.57559367    -1.877703   0.86252711   -1.0151759   0.13501781    11612.437     1000 
  848000   0.55693592   -1.9249192   0.83456847   -1.0903508   0.13196769    11701.142     1000 
  850000   0.56358957    -1.864672   0.84453897   -1.0201331   0.13358069    11709.165     1000 
  852000   0.55876346   -1.9224736   0.83730704   -1.0851665   0.12007518    11810.137     1000 
  854000   0.55406679   -1.8556584   0.83026909   -1.0253893   0.13719059    11677.257     1000 
  856000   0.57080319   -1.8864005   0.85534859   -1.0310519   0.13447626    11653.835     1000 
  858000   0.54212998   -1.8682852   0.81238177   -1.0559034   0.13840391    11604.128     1000 
  860000   0.55175235   -1.8859208    0.8268009   -1.0591199    0.1354798    11688.259     1000 
  862000   0.56747624   -1.9181794   0.85036315   -1.0678162   0.13960439    11678.383     1000 
  864000   0.54503445   -1.8684125   0.81673413   -1.0516784   0.11566797    11636.637     1000 
  866000    0.5467294   -1.9118085     0.819274   -1.0925345   0.12351681    11682.522     1000 
  868000   0.55110565    -1.913978   0.82583181   -1.0881462    0.1312039    11829.195     1000 
  870000   0.58568009   -1.8434548   0.87764162  -0.96581316   0.13706509    11580.754     1000 
  872000   0.56823339   -1.9091921   0.85149773   -1.0576944   0.13071627    11762.892     1000 
  874000   0.57212982   -1.9113351   0.85733653   -1.0539986   0.12840278    11693.704     1000 
  876000   0.53836162     -1.87898   0.80673489   -1.0722451   0.12197508    11502.326     1000 
  878000   0.54628339    -1.847201   0.81860566   -1.0285953   0.13099863     11652.94     1000 
  880000   0.56644798    -1.898255    0.8488223   -1.0494327   0.12738608    11776.101     1000 
  882000   0.56409633   -1.9130325   0.84529835   -1.0677342   0.12736188    11715.366     1000 
  884000   0.53909221   -1.9537342   0.80782968   -1.1459045   0.11469865     11893.68     1000 
  886000   0.56022312   -1.9170621   0.83949434   -1.0775677   0.12607007    11868.046     1000 
  888000   0.54919272    -1.845522   0.82296529   -1.0225567   0.13334659    11632.594     1000 
  890000    0.5636907   -1.8927168   0.84469051   -1.0480263   0.12261726    11736.308     1000 
  892000   0.56824205   -1.8728415   0.85151071   -1.0213308   0.12097246    11551.992     1000 
  894000   0.54698421   -1.8872687   0.81965584   -1.0676128   0.12699675    11764.461     1000 
  896000   0.54822555   -1.8678645   0.82151599   -1.0463485   0.13593915     11486.91     1000 
  898000   0.54288577   -1.8982945   0.81351432   -1.0847802   0.13003259    11709.744     1000 
  900000   0.57371865   -1.9393828    0.8597174   -1.0796654   0.12330772    11788.909     1000 
  902000   0.57089512   -1.9337125   0.85548634   -1.0782261   0.14378803    11495.892     1000 
  904000   0.56672843   -1.8966994   0.84924255   -1.0474569    0.1308903    11793.835     1000 
  906000   0.55993734   -1.9360345    0.8390661   -1.0969684   0.12066973    11844.102     1000 
  908000   0.56187436   -1.8971691   0.84196874   -1.0552004    0.1291807    11887.316     1000 
  910000   0.57909318   -1.9522886   0.86777113   -1.0845175   0.12025673    11738.823     1000 
  912000    0.5645521   -1.8746116   0.84598132   -1.0286303   0.13087189    11716.292     1000 
  914000   0.57122597    -1.918047   0.85598211   -1.0620649    0.1235955    11853.921     1000 
  916000   0.55508123   -1.8945484   0.83178923   -1.0627591   0.13926362    11620.413     1000 
  918000   0.56954497   -1.8747364   0.85346313   -1.0212733   0.12549719    11817.082     1000 
  920000   0.55890598   -1.8866912   0.83752061   -1.0491706    0.1280588    11725.589     1000 
  922000   0.53250019   -1.9249933   0.79795153   -1.1270418   0.12839784     11647.06     1000 
  924000   0.55914123   -1.9096058   0.83787313   -1.0717327   0.12824379     11752.45     1000 
  926000    0.5714249   -1.8863509   0.85628021   -1.0300706   0.13392338    11571.593     1000 
  928000   0.57201654   -1.9218223   0.85716678   -1.0646555   0.10972199    11856.032     1000 
  930000   0.56631224    -1.900916   0.84861889   -1.0522971   0.13127449    11598.613     1000 
  932000   0.56459649   -1.8471992   0.84604783   -1.0011513   0.13728618    11695.819     1000 
  934000   0.55334589   -1.9086888   0.82918882      -1.0795   0.11745328    11934.564     1000 
  936000   0.55777265   -1.8800999   0.83582231   -1.0442776   0.12771496    11622.384     1000 
  938000   0.59095322   -1.8699468    0.8855434  -0.98440345   0.12622003    11619.423     1000 
  940000    0.5659972   -1.9323898   0.84814681    -1.084243   0.13055441     11653.09     1000 
  942000   0.56064566   -1.9225962   0.84012753   -1.0824687   0.12948963    11713.384     1000 
  944000   0.53174699   -1.8680564   0.79682286   -1.0712335   0.11790827    11699.904     1000 
  946000   0.53739289   -1.9109026   0.80528324   -1.1056193   0.11730471    11860.842     1000 
  948000   0.55809217   -1.9022505   0.83630111   -1.0659494   0.14047831    11578.985     1000 
  950000   0.56268365   -1.8949823   0.84318145   -1.0518009   0.12809112    11536.619     1000 
  952000   0.55640992    -1.833372   0.83378027  -0.99959178   0.13002178    11648.716     1000 
  954000   0.56512126   -1.8887043   0.84683421   -1.0418701   0.13094733    11534.574     1000 
  956000   0.55557282    -1.858958   0.83252587   -1.0264321   0.12830557    11756.339     1000 
  958000   0.56009655   -1.9188286   0.83930469    -1.079524   0.12660262    11881.652     1000 
  960000   0.60207286   -1.9444124   0.90220619   -1.0422063   0.12687016      11777.5     1000 
  962000   0.54518299    -1.909701   0.81695672   -1.0927443   0.11779203    11878.856     1000 
  964000   0.55157784   -1.8813265    0.8265394   -1.0547871   0.13127796    11601.982     1000 
  966000   0.55718277    -1.872105   0.83493838   -1.0371666   0.13126282    11651.995     1000 
  968000    0.5662289   -1.8461343     0.848494  -0.99764029   0.13196596    11570.706     1000 
  970000   0.57175751   -1.8915704   0.85677863   -1.0347918   0.12228009    11754.515     1000 
  972000   0.57264267   -1.8832882   0.85810504   -1.0251831   0.13370941    11797.741     1000 
  974000   0.57773882   -1.8434061   0.86574162  -0.97766452   0.14568871    11432.766     1000 
  976000   0.60632805   -1.9081518   0.90858259  -0.99956926   0.12433185    11771.979     1000 
  978000   0.57458321   -1.8782467   0.86101294   -1.0172337   0.12935896    11756.546     1000 
  980000   0.57476733   -1.9026118   0.86128884    -1.041323   0.12347773    11687.496     1000 
  982000   0.54890334    -1.865846   0.82253166   -1.0433143   0.12209548    11781.361     1000 
  984000   0.56777807   -1.9431653   0.85081544   -1.0923498   0.11922625    11813.817     1000 
  986000   0.53719753   -1.8512813    0.8049905   -1.0462908   0.13816989    11505.362     1000 
  988000   0.55286644   -1.9297951   0.82847036   -1.1013248   0.12970977    11788.924     1000 
  990000     0.599097   -1.8509427   0.89774686  -0.95319588   0.13551837    11590.407     1000 
  992000    0.5624847   -1.8854782   0.84288332   -1.0425949   0.12936416    11832.404     1000 
  994000   0.57885869   -1.8190833   0.86741975  -0.95166351   0.13144186    11669.292     1000 
  996000    0.5582482   -1.8979992   0.83653492   -1.0614643   0.12446006    11782.654     1000 
  998000    0.5719922    -1.946783   0.85713031   -1.0896527   0.12859154    11742.429     1000 
 1000000   0.56419302   -1.8795713   0.84544324   -1.0341281   0.13267442    11658.982     1000 
 1002000   0.58146854   -1.9213388    0.8713306   -1.0500082   0.13758348    11589.702     1000 
 1004000   0.55731506    -1.880415   0.83513661   -1.0452784    0.1413985    11602.356     1000 
 1006000   0.57707041   -1.8738741   0.86474001   -1.0091341   0.12754647    11619.512     1000 
 1008000   0.53876569   -1.9066207   0.80734039   -1.0992803   0.12573777    11877.945     1000 
 1010000   0.58656502   -1.9197182   0.87896768   -1.0407505   0.12791957    11699.434     1000 
 1012000   0.54739885   -1.9151367   0.82027717   -1.0948595   0.12155901    11673.842     1000 
 1014000      0.53784   -1.8873019   0.80595324   -1.0813487    0.1365001    11538.243     1000 
 1016000   0.56725375   -1.9092895   0.85002975   -1.0592598   0.13289747    11656.681     1000 
 1018000   0.56545157   -1.9337096   0.84732918   -1.0863805   0.13605538    11687.697     1000 
 1020000   0.56908553   -1.9027455   0.85277466   -1.0499708   0.13514297    11712.168     1000 
 1022000   0.56540162   -1.8926824   0.84725433   -1.0454281   0.14203082    11490.055     1000 
 1024000   0.55856097   -1.9215034   0.83700361   -1.0844998   0.12992896    11694.454     1000 
 1026000   0.53798398   -1.8612408   0.80616899   -1.0550718   0.12641648    11734.985     1000 
 1028000   0.57321359   -1.8395238   0.85896057   -0.9805632   0.13201666    11674.305     1000 
 1030000   0.54690521   -1.8854855   0.81953746   -1.0659481   0.13261517    11694.681     1000 
 1032000   0.56280677   -1.8979798   0.84336594   -1.0546139   0.13338627    11820.201     1000 
 1034000   0.54875906   -1.9278335   0.82231545   -1.1055181    0.1196236    11919.796     1000 
 1036000   0.53776415   -1.9395076   0.80583957   -1.1336681   0.11139642    11828.951     1000 
 1038000    0.5583757   -1.9174474   0.83672598   -1.0807215   0.13122765    11623.166     1000 
 1040000   0.54068198   -1.8585965   0.81021195   -1.0483845   0.12616071    11738.454     1000 
 1042000   0.55988702   -1.8793833    0.8389907   -1.0403926   0.12310141    11670.345     1000 
 1044000   0.56828854   -1.9118699   0.85158038   -1.0602895   0.12330093    11661.016     1000 
 1046000   0.54234392   -1.8824438   0.81270237   -1.0697414   0.11217135    11868.598     1000 
 1048000   0.55535779   -1.8494692   0.83220365   -1.0172656   0.12480464    11695.436     1000 
 1050000   0.54310252   -1.7847624   0.81383912  -0.97092329   0.13056192    11520.565     1000 
 1052000   0.56839682   -1.9542817   0.85174263   -1.1025391   0.12706834    11754.893     1000 
 1054000   0.55054949   -1.9019614   0.82499842    -1.076963   0.13272208    11670.183     1000 
 1056000   0.57461893   -1.8573194   0.86106646  -0.99625297   0.12341207    11834.379     1000 
 1058000    0.5801436   -1.8870243   0.86934518   -1.0176791    0.1216877    11767.932     1000 
 1060000   0.57747752   -1.8857308   0.86535006   -1.0203807   0.13133091    11683.774     1000 
 1062000   0.55431702    -1.866786   0.83064406   -1.0361419   0.12455565    11654.555     1000 
 1064000   0.53812543   -1.8876581   0.80638096   -1.0812772   0.13176188     11732.08     1000 
 1066000   0.55010793   -1.8865362   0.82433673   -1.0621995   0.13926779    11563.028     1000 
 1068000   0.54681476   -1.9151942   0.81940191   -1.0957923   0.10909426    11903.583     1000 
 1070000   0.56253489   -1.8748608   0.84295854   -1.0319023   0.12625823     11773.18     1000 
 1072000   0.56905611   -1.9259565   0.85273058   -1.0732259   0.12185266    11780.553     1000 
 1074000   0.55267737    -1.855937   0.82818704     -1.02775   0.12646455    11653.292     1000 
 1076000    0.5396744   -1.8946323   0.80870209   -1.0859302   0.13006101    11591.566     1000 
 1078000   0.54581242   -1.8599398   0.81789991   -1.0420399     0.144907     11508.27     1000 
 1080000    0.5628254    -1.906642   0.84339386   -1.0632481   0.13406158    11716.344     1000 
 1082000   0.57315471   -1.8457933   0.85887233  -0.98692093   0.13198617    11652.736     1000 
 1084000   0.56064339   -1.8540292   0.84012411   -1.0139051   0.13131424    11799.795     1000 
 1086000   0.55452349   -1.8658892   0.83095344   -1.0349357   0.11956227    11727.642     1000 
 1088000   0.56097642   -1.8730357   0.84062317   -1.0324125   0.13109902    11624.206     1000 
 1090000   0.56484261   -1.8477522   0.84641665   -1.0013356   0.12540026    11691.738     1000 
 1092000   0.56688242   -1.9394724    0.8494733   -1.0899991   0.12686856    11887.535     1000 
 1094000   0.56986298   -1.9332014   0.85393967   -1.0792617   0.13242897    11567.577     1000 
 1096000   0.56205044   -1.9496654   0.84223259   -1.1074328   0.13828765     11625.18     1000 
 1098000   0.54361788   -1.8827536   0.81461139   -1.0681422   0.11875956    11772.296     1000 
 1100000    0.5473156    -1.878693   0.82015242   -1.0585406   0.11572627    11924.159     1000 
 1102000   0.54039247   -1.8683025   0.80977812   -1.0585243   0.12695687    11710.657     1000 
 1104000    0.5428638   -1.8811159   0.81348141   -1.0676344   0.12709242    11757.073     1000 
 1106000   0.54178595   -1.8680336   0.81186625   -1.0561673    0.1453958     11524.09     1000 
 1108000   0.55186955   -1.9202197   0.82697652   -1.0932431   0.13219297    11568.383     1000 
 1110000   0.56075518   -1.9354569   0.84029163   -1.0951653   0.13160388    11725.746     1000 
 1112000   0.57397933   -1.9009241   0.86010803   -1.0408161   0.12713945    11686.208     1000 
 1114000   0.56774884   -1.8809284   0.85077164   -1.0301568   0.13457483    11479.413     1000 
 1116000   0.57793776   -1.8159592   0.86603973  -0.94991952    0.1377058    11587.478     1000 
 1118000    0.5660888   -1.8615837   0.84828406   -1.0132997   0.13229359    11721.193     1000 
 1120000   0.51831474   -1.9083739   0.77669463   -1.1316793   0.13201537    11546.573     1000 
 1122000   0.59168774   -1.9111404   0.88664409   -1.0244963   0.12268348    11812.665     1000 
 1124000   0.56263502   -1.9145308   0.84310857   -1.0714222   0.12584018    11755.318     1000 
 1126000     0.582325   -1.9121174   0.87261401   -1.0395034   0.13467773    11662.609     1000 
 1128000   0.59036346   -1.8746965   0.88465965  -0.99003682   0.13783909    11569.178     1000 
 1130000   0.58358244   -1.9739183   0.87449829     -1.09942   0.12448217    11769.895     1000 
 1132000   0.56274229   -1.9039362   0.84326932   -1.0606669   0.12642727    11745.724     1000 
 1134000   0.55451139   -1.9293889   0.83093531   -1.0984536   0.12920007    11832.476     1000 
 1136000    0.5639346   -1.9094774     0.845056   -1.0644214   0.12987514    11797.284     1000 
 1138000   0.57167624   -1.8947883   0.85665684   -1.0381315   0.13287869    11764.554     1000 
 1140000   0.53922163   -1.8838848   0.80802362   -1.0758612   0.12251473    11737.244     1000 
 1142000   0.57034305   -1.8993305   0.85465906   -1.0446714    0.1303535    11707.866     1000 
 1144000   0.55254769   -1.9459341   0.82799271   -1.1179414   0.13170036    11470.262     1000 
 1146000   0.53515195   -1.9416786    0.8019252   -1.1397534    0.1149695    11862.942     1000 
 1148000   0.54306679   -1.9107885   0.81378559   -1.0970029   0.13445068    11629.897     1000 
 1150000   0.57869278   -1.8991506   0.86717113   -1.0319795   0.12827749    11771.384     1000 
 1152000   0.55618569   -1.8582299   0.83344426   -1.0247857   0.12418489    11684.456     1000 
 1154000   0.56622278   -1.8410299   0.84848483  -0.99254507   0.12773691    11564.199     1000 
 1156000   0.57322459   -1.8795509   0.85897705   -1.0205738   0.13706117    11552.708     1000 
 1158000   0.52255186   -1.8899996   0.78304396   -1.1069557   0.12600521     11809.51     1000 
 1160000   0.56333982   -1.9485952   0.84416472   -1.1044305   0.12482668    11718.743     1000 
 1162000   0.57235747   -1.8809836   0.85767767   -1.0233059   0.13169946    11589.185     1000 
 1164000   0.55537446   -1.9137346   0.83222863    -1.081506   0.11513366    11876.984     1000 
 1166000   0.56444728   -1.9180173   0.84582425    -1.072193   0.14058386    11564.872     1000 
 1168000      0.55345   -1.9079027   0.82934482   -1.0785579   0.13046176    11667.909     1000 
 1170000   0.55078734   -1.9051175   0.82535482   -1.0797627    0.1237275    11752.176     1000 
 1172000   0.54436016   -1.8518864    0.8157237   -1.0361627   0.13521429    11679.207     1000 
 1174000   0.54858578   -1.9495178   0.82205579    -1.127462   0.12758861    11742.972     1000 
 1176000   0.57280383   -1.8706237   0.85834654   -1.0122772   0.12575764    11638.386     1000 
 1178000   0.55176033    -1.908643   0.82681286   -1.0818302   0.13368927    11435.954     1000 
 1180000   0.54988574   -1.9359729   0.82400377   -1.1119691   0.13855764    11479.569     1000 
 1182000   0.54735696    -1.889821    0.8202144   -1.0696066   0.13196267    11642.963     1000 
 1184000   0.56881639   -1.8363063   0.85237136  -0.98393495   0.13592386    11499.653     1000 
 1186000   0.57401795   -1.9271879   0.86016589    -1.067022   0.13618018     11654.41     1000 
 1188000   0.57607689    -1.868391   0.86325122   -1.0051398   0.14238564    11602.884     1000 
 1190000   0.55476087   -1.9086768   0.83130916   -1.0773677   0.13339905    11683.296     1000 
 1192000     0.561143   -1.8881578   0.84087279   -1.0472851   0.13490817    11643.554     1000 
 1194000   0.56436796   -1.8733241   0.84570539   -1.0276187    0.1347528    11719.127     1000 
 1196000   0.56074627   -1.9103209   0.84027829   -1.0700426   0.12939943    11698.479     1000 
 1198000   0.55697519   -1.8755193   0.83462732   -1.0408919   0.12216814    11715.316     1000 
 1200000    0.5665255   -1.8528497   0.84893846   -1.0039112   0.12496831    11609.509     1000 
 1202000   0.55416645    -1.897068   0.83041842   -1.0666496   0.12247442    11638.163     1000 
 1204000   0.55984022   -1.8628415   0.83892058   -1.0239209   0.12836162    11501.643     1000 
 1206000   0.55841569   -1.9311661   0.83678591   -1.0943802   0.13879819     11629.11     1000 
 1208000   0.57210494   -1.8441198   0.85729926   -0.9868205   0.13955584    11557.614     1000 
 1210000    0.5722239    -1.891711   0.85747751   -1.0342334   0.13606543    11522.015     1000 
 1212000   0.58556161   -1.9079446   0.87746407   -1.0304805   0.13439586    11649.794     1000 
 1214000    0.5638076   -1.9475284   0.84486568   -1.1026627   0.13089205    11685.117     1000 
 1216000   0.57450269   -1.9327835   0.86089228   -1.0718912   0.12858461    11804.842     1000 
 1218000    0.5663801    -1.892653   0.84872059   -1.0439324   0.14043357    11651.272     1000 
 1220000   0.55611761   -1.8811502   0.83334223    -1.047808   0.13313184    11657.546     1000 
 1222000   0.56660098   -1.9157131   0.84905157   -1.0666615   0.12618726    11899.596     1000 
 1224000    0.5767609   -1.9133129    0.8642762   -1.0490367   0.12042954    11803.313     1000 
 1226000    0.5858574   -1.8391573   0.87790732     -0.96125   0.14078178    11593.897     1000 
 1228000   0.54553905   -1.8918964   0.81749027   -1.0744061   0.12713052    11681.229     1000 
 1230000   0.54666785   -1.8940681   0.81918178   -1.0748863   0.12778621    11599.029     1000 
 1232000    0.5388804   -1.8793949   0.80751228   -1.0718826   0.12664264    11668.022     1000 
 1234000   0.55414305   -1.9379007   0.83038337   -1.1075173   0.13409847    11704.737     1000 
 1236000   0.57921663   -1.9298451   0.86795612    -1.061889   0.13418408     11729.08     1000 
 1238000   0.54589833   -1.9158049   0.81802865   -1.0977763   0.12924533    11544.108     1000 
 1240000   0.57373619    -1.904751   0.85974367   -1.0450074   0.13267285    11685.227     1000 
 1242000   0.59072905   -1.9497799   0.88520749   -1.0645724    0.1379958     11668.51     1000 
 1244000   0.57622647   -1.8983506   0.86347536   -1.0348752   0.13288612    11653.982     1000 
 1246000   0.56500547   -1.9552882    0.8466607   -1.1086275   0.14556716    11579.494     1000 
 1248000   0.56831669   -1.9275886   0.85162256   -1.0759661   0.12395009    11906.908     1000 
 1250000   0.56443397   -1.8594767    0.8458043   -1.0136725   0.12268414    11717.573     1000 
 1252000   0.56839774   -1.9257631   0.85174401   -1.0740191   0.13773522     11617.72     1000 
 1254000   0.55020412   -1.9290106   0.82448088   -1.1045297   0.12230338    11760.884     1000 
 1256000   0.56284306   -1.9129277   0.84342032   -1.0695074   0.13635564    11624.312     1000 
 1258000   0.55028948   -1.8631475   0.82460878   -1.0385388   0.12924827    11804.588     1000 
 1260000   0.55343342   -1.8852058   0.82931998   -1.0558858   0.12197083    11731.235     1000 
 1262000   0.56519401   -1.8638528   0.84694323   -1.0169096   0.12925894     11712.55     1000 
 1264000   0.56262246   -1.9058582   0.84308976   -1.0627684   0.13111574    11660.992     1000 
 1266000   0.56025627   -1.9635357   0.83954403   -1.1239917   0.12680839    11779.861     1000 
 1268000   0.54418367   -1.8950932   0.81545923   -1.0796339   0.13844115    11664.898     1000 
 1270000    0.5364094   -1.9075233   0.80380949   -1.1037138   0.12849723     11627.58     1000 
 1272000   0.55740647   -1.8974083   0.83527359   -1.0621348   0.12891721    11712.571     1000 
 1274000   0.57037934   -1.8491275   0.85471343  -0.99441402    0.1211885    11527.271     1000 
 1276000   0.55669315   -1.9550965   0.83420469   -1.1208919   0.11560924    11718.575     1000 
 1278000   0.51900437   -1.9099686   0.77772805   -1.1322405   0.11795131    11848.241     1000 
 1280000   0.57160823    -1.900558   0.85655494    -1.044003    0.1155504    11836.481     1000 
 1282000   0.53172537   -1.8711539   0.79679046   -1.0743634   0.14144941    11738.245     1000 
 1284000   0.56121785   -1.9187178   0.84098495   -1.0777328   0.12278095    11604.405     1000 
 1286000   0.56334738    -1.855149   0.84417606   -1.0109729   0.12880885    11635.632     1000 
 1288000   0.57510957   -1.8255822    0.8618017  -0.96378048   0.14513619    11513.919     1000 
 1290000   0.55854908   -1.8525378   0.83698579   -1.0155521   0.14490211    11542.173     1000 
 1292000   0.55775641   -1.9039432   0.83579799   -1.0681452   0.13427759    11644.021     1000 
 1294000   0.55778744   -1.8744284   0.83584447   -1.0385839   0.13233974    11713.038     1000 
 1296000   0.54207171   -1.8734001   0.81229445   -1.0611057   0.12530832    11824.352     1000 
 1298000   0.56541313   -1.8804337   0.84727157   -1.0331621   0.12636668    11692.123     1000 
 1300000    0.5431063   -1.8956158    0.8138448    -1.081771    0.1168912    11666.371     1000 
 1302000   0.56427788    -1.924486    0.8455704   -1.0789156   0.12831461    11742.448     1000 
 1304000   0.55417402    -1.883496   0.83042977   -1.0530662   0.11894605    11729.169     1000 
 1306000   0.57111201   -1.8479394   0.85581135   -0.9921281   0.13509946    11661.937     1000 
 1308000   0.56912443   -1.9012959   0.85283295   -1.0484629   0.12398125    11884.466     1000 
 1310000   0.60512149    -1.882167   0.90677455  -0.97539247   0.14143011    11706.211     1000 
 1312000   0.57014801   -1.8899969    0.8543668   -1.0356301   0.12083736    11892.474     1000 
 1314000   0.57082559   -1.8665765   0.85538214   -1.0111943   0.14308148    11551.612     1000 
 1316000   0.56077283   -1.9175475   0.84031809   -1.0772294   0.12275221    11742.088     1000 
 1318000   0.57902832   -1.8913254   0.86767393   -1.0236515   0.14124747    11711.682     1000 
 1320000   0.54359154   -1.8634954   0.81457192   -1.0489235   0.13821176    11479.684     1000 
 1322000   0.57537456   -1.8771236   0.86219877   -1.0149249   0.13979733    11576.372     1000 
 1324000   0.53148917   -1.8624133   0.79643651   -1.0659768    0.1167772    11619.719     1000 
 1326000    0.5633018   -1.8777621   0.84410775   -1.0336543   0.12582068    11653.311     1000 
 1328000   0.55481003   -1.9173302   0.83138283   -1.0859473   0.12025422    11858.482     1000 
 1330000   0.53613411   -1.9345618   0.80339696   -1.1311649    0.1190573    11753.046     1000 
 1332000   0.56055779   -1.8862836   0.83999585   -1.0462878   0.12810558    11720.399     1000 
 1334000   0.54207951   -1.9096567   0.81230614   -1.0973505   0.13256463    11628.886     1000 
 1336000   0.56147796   -1.9103347   0.84137473     -1.06896    0.1325785    11498.804     1000 
 1338000   0.56273563   -1.9177024   0.84325934   -1.0744431   0.11637787    11800.146     1000 
 1340000   0.57318266   -1.9244264   0.85891422   -1.0655122   0.13206317    11627.857     1000 
 1342000   0.57730451   -1.9070495   0.86509081   -1.0419587   0.12960339    11614.015     1000 
 1344000   0.56473946   -1.9100709   0.84626208   -1.0638088   0.13174809    11679.899     1000 
 1346000   0.56149709   -1.9316317   0.84140339   -1.0902283   0.11662479     11790.08     1000 
 1348000    0.5509796   -1.9313883   0.82564293   -1.1057453   0.13794194    11688.513     1000 
 1350000   0.56519646   -1.8999437    0.8469469   -1.0529968   0.14429925    11661.965     1000 
 1352000   0.54966294   -1.8611103   0.82366991   -1.0374404   0.11399591    11782.402     1000 
 1354000   0.55489722   -1.9358661   0.83151348   -1.1043526   0.11509371    11726.728     1000 
 1356000   0.54675256   -1.8906258   0.81930871   -1.0713171   0.11464581    11878.363     1000 
 1358000   0.57990496   -1.9165393   0.86898759   -1.0475517    0.1170783    11804.609     1000 
 1360000   0.56570329   -1.9784566   0.84770638   -1.1307502   0.12177003    11915.777     1000 
 1362000   0.55345482   -1.9053175   0.82935205   -1.0759655   0.12237804    11610.795     1000 
 1364000   0.56764397   -1.8724073   0.85061449   -1.0217928    0.1557757    11421.014     1000 
 1366000   0.56772755     -1.82756   0.85073974  -0.97682028   0.15041724    11465.922     1000 
 1368000   0.57151651   -1.9151718   0.85641749   -1.0587543    0.1315174    11664.754     1000 
 1370000   0.54758923   -1.9127934   0.82056246   -1.0922309    0.1288453    11710.808     1000 
 1372000   0.54366315   -1.8716827   0.81467923   -1.0570034   0.12734169    11684.949     1000 
 1374000   0.53369143   -1.9258472    0.7997366   -1.1261106   0.13302616     11620.87     1000 
 1376000   0.54144809   -1.8806024   0.81135996   -1.0692425   0.12572495    11554.162     1000 
 1378000   0.59941609   -1.8921644   0.89822502  -0.99393942   0.13761518    11647.171     1000 
 1380000   0.55060601   -1.8876595    0.8250831   -1.0625764   0.13327224    11600.631     1000 
 1382000   0.54214972   -1.8588808   0.81241136   -1.0464694   0.13324501    11402.759     1000 
 1384000   0.58327231   -1.9220706   0.87403356   -1.0480371   0.13403203    11693.621     1000 
 1386000    0.5625678   -1.9004057   0.84300785   -1.0573978   0.11656732    11937.241     1000 
 1388000   0.52818507   -1.8840789   0.79148532   -1.0925936   0.12409641     11650.47     1000 
 1390000    0.5478386   -1.8895894   0.82093615   -1.0686533   0.12791949    11815.606     1000 
 1392000   0.58452683   -1.9355464   0.87591345   -1.0596329   0.15705769     11551.98     1000 
 1394000   0.55168023   -1.9322379   0.82669282   -1.1055451   0.13573399    11419.787     1000 
 1396000   0.55034245   -1.9760652   0.82468816    -1.151377   0.11857703     11885.01     1000 
 1398000   0.54406259   -1.8813491   0.81527779   -1.0660713   0.13770365    11636.833     1000 
 1400000   0.54660157   -1.9307984   0.81908246    -1.111716   0.12713836    11805.778     1000 
 1402000    0.5817501    -1.898698   0.87175252   -1.0269454   0.13806138    11644.581     1000 
 1404000   0.56872845   -1.9166286   0.85223959    -1.064389   0.12182259    11785.835     1000 
 1406000    0.5675777   -1.9140973   0.85051518   -1.0635821   0.12061841    11834.587     1000 
 1408000   0.54933509   -1.8895081   0.82317863   -1.0663295   0.13289751    11711.338     1000 
 1410000   0.53895147   -1.9110947   0.80761878   -1.1034759   0.12457083     11621.19     1000 
 1412000   0.56487295   -1.9429166   0.84646212   -1.0964545   0.13637345    11696.397     1000 
 1414000   0.57985698   -1.9327151   0.86891568   -1.0637994   0.12152618    11767.513     1000 
 1416000   0.57720852   -1.8861991   0.86494696   -1.0212521   0.12091593    11837.415     1000 
 1418000   0.57008144   -1.8698232   0.85426703   -1.0155561   0.13289405     11710.95     1000 
 1420000   0.54993557   -1.9045626   0.82407845   -1.0804841   0.11664367    11589.187     1000 
 1422000   0.56529483   -1.9281199    0.8470943   -1.0810256   0.13289512    11771.599     1000 
 1424000   0.55697441   -1.9317418   0.83462615   -1.0971156   0.11950831     11789.11     1000 
 1426000   0.54371734   -1.9055627   0.81476043   -1.0908023   0.12292904    11749.433     1000 
 1428000   0.55270748   -1.9535746   0.82823216   -1.1253425   0.12306351    11717.889     1000 
 1430000   0.55482529   -1.8829987    0.8314057    -1.051593   0.12098038    11751.818     1000 
 1432000   0.56174447   -1.9048226   0.84177409   -1.0630485   0.12579442    11728.581     1000 
 1434000   0.54375228   -1.9179349   0.81481279   -1.1031221   0.13016149    11729.021     1000 
 1436000   0.57012455   -1.8596493   0.85433163   -1.0053177   0.12865842    11633.619     1000 
 1438000    0.5845047   -1.8947188   0.87588029   -1.0188385    0.1358476    11612.363     1000 
 1440000    0.5573879   -1.9025564   0.83524576   -1.0673107   0.12068255    11860.158     1000 
 1442000   0.54857882   -1.9000214   0.82204536    -1.077976   0.14145151    11540.808     1000 
 1444000   0.55562383   -1.8948913   0.83260231    -1.062289   0.12769706    11712.003     1000 
 1446000   0.53544983   -1.9005925   0.80237156    -1.098221   0.13740923    11475.663     1000 
 1448000   0.56324882   -1.9145361   0.84402835   -1.0705077    0.1419288    11729.995     1000 
 1450000   0.58612605   -1.9291704   0.87830988   -1.0508605   0.12671222    11655.187     1000 
 1452000   0.57237888   -1.8925655   0.85770976   -1.0348558   0.13666506    11626.917     1000 
 1454000   0.54385784   -1.8223499   0.81497097   -1.0073789   0.13719519    11476.065     1000 
 1456000   0.57645423   -1.9229981   0.86381666   -1.0591814   0.13122767    11727.748     1000 
 1458000   0.54813739    -1.886362   0.82138387   -1.0649781   0.12316084    11579.936     1000 
 1460000     0.577833   -1.9360876   0.86588275   -1.0702048   0.12266209    11848.521     1000 
 1462000   0.57069981   -1.9117356   0.85519367   -1.0565419   0.13173138    11525.894     1000 
 1464000   0.54848026   -1.9027829   0.82189766   -1.0808853   0.14048331    11510.769     1000 
 1466000   0.55778996   -1.8690314   0.83584825   -1.0331832   0.13761059    11583.936     1000 
 1468000   0.54591358   -1.8734934    0.8180515   -1.0554419   0.12700774    11653.897     1000 
 1470000   0.55706177   -1.8931952   0.83475707   -1.0584381    0.1239241    11704.623     1000 
 1472000   0.55682149   -1.9120425   0.83439701   -1.0776455   0.13526663    11696.488     1000 
 1474000   0.56043064   -1.9025629   0.83980531   -1.0627576   0.12524474    11708.757     1000 
 1476000   0.59729207   -1.9055116   0.89504217   -1.0104695    0.1471995    11731.445     1000 
 1478000   0.54665641   -1.8803473   0.81916463   -1.0611826   0.12551444    11769.852     1000 
 1480000     0.547158   -1.8937329   0.81991627   -1.0738166   0.13456539    11690.947     1000 
 1482000   0.52582424   -1.9278473   0.78794762   -1.1398997   0.12689762    11743.557     1000 
 1484000   0.57807955   -1.9090438    0.8662522   -1.0427916   0.13755279    11499.706     1000 
 1486000   0.55276114     -1.86788   0.82831257   -1.0395674   0.13513203    11525.076     1000 
 1488000   0.56619036   -1.9492836   0.84843626   -1.1008473   0.12413775    11750.679     1000 
 1490000   0.52821129   -1.8621711   0.79152461   -1.0706464    0.1304347    11576.063     1000 
 1492000   0.55601658   -1.9184979   0.83319084    -1.085307   0.12646896     11713.64     1000 
 1494000   0.54954537   -1.9478857   0.82349374   -1.1243919   0.12144446    11718.179     1000 
 1496000   0.55920855   -1.8574484   0.83797401   -1.0194744   0.12648169    11702.142     1000 
 1498000    0.5585175   -1.9623169   0.83693847   -1.1253784   0.12868937    11693.768     1000 
 1500000     0.561707   -1.8816664   0.84171794   -1.0399485   0.13357301    11721.735     1000 
 1502000    0.5288329   -1.8981813   0.79245611   -1.1057252   0.13299792    11595.453     1000 
 1504000   0.58120178   -1.9163635   0.87093087   -1.0454327   0.12302589    11718.622     1000 
 1506000   0.55770271   -1.8668828   0.83571751   -1.0311653   0.13275616    11526.478     1000 
 1508000   0.56082823   -1.9180935    0.8404011   -1.0776924   0.12017416    11956.402     1000 
 1510000   0.57446184   -1.9377987   0.86083107   -1.0769676   0.12283499    11697.811     1000 
 1512000   0.54604865   -1.9225563    0.8182539   -1.1043024   0.13059349    11715.076     1000 
 1514000   0.56816464   -1.9032863   0.85139471   -1.0518916   0.13443735    11566.003     1000 
 1516000   0.56920528   -1.8785297   0.85295411   -1.0255756   0.12873681    11764.902     1000 
 1518000   0.56766164   -1.9339122   0.85064097   -1.0832712    0.1266779    11749.076     1000 
 1520000   0.58318482   -1.8943489   0.87390246   -1.0204465   0.13072362    11686.879     1000 
 1522000   0.57446724   -1.8890607   0.86083916   -1.0282215   0.12841215    11695.394     1000 
 1524000   0.56333241   -1.8953952   0.84415361   -1.0512416   0.13213927    11838.435     1000 
 1526000    0.5676821   -1.8686095   0.85067162   -1.0179379   0.12629616    11605.139     1000 
 1528000   0.55503002   -1.8474021   0.83171248   -1.0156896   0.13931135    11592.944     1000 
 1530000   0.56516209   -1.8912102   0.84689539   -1.0443148   0.13565173    11651.479     1000 
 1532000   0.57355999   -1.9308932   0.85947965   -1.0714136   0.13128155    11743.419     1000 
 1534000   0.56852534   -1.8684087   0.85193523   -1.0164735   0.12537889    11704.988     1000 
 1536000   0.57211246    -1.867679   0.85731053   -1.0103685    0.1443684    11602.204     1000 
 1538000   0.57397272   -1.9095174   0.86009812   -1.0494192   0.12748101    11576.057     1000 
 1540000   0.57210328   -1.9517785   0.85729677   -1.0944818   0.12402086    11812.833     1000 
 1542000   0.55215871   -1.9048359   0.82740983   -1.0774261   0.13011163    11680.689     1000 
 1544000   0.53675813   -1.8998219   0.80433205   -1.0954898   0.12239501     11719.71     1000 
 1546000   0.54885573   -1.9524158   0.82246031   -1.1299554   0.11923511    11713.234     1000 
 1548000   0.56110452   -1.8968883   0.84081513   -1.0560732   0.12067568    11768.008     1000 
 1550000   0.54390168   -1.9165307   0.81503667   -1.1014941   0.13193881    11710.004     1000 
 1552000   0.56489158   -1.8408463   0.84649003  -0.99435631   0.12620731    11743.076     1000 
 1554000   0.55468383   -1.9010461   0.83119372   -1.0698524   0.11873131    11770.439     1000 
 1556000   0.55225216   -1.9097942   0.82754986   -1.0822443   0.12456088    11667.967     1000 
 1558000   0.57080648   -1.8646071   0.85535351   -1.0092536   0.13925495    11542.095     1000 
 1560000   0.54140807   -1.8846471       0.8113   -1.0733471   0.13110809    11503.317     1000 
 1562000   0.53808633   -1.8450683   0.80632237   -1.0387459   0.12746363    11489.673     1000 
 1564000   0.55132831   -1.8846881   0.82616548   -1.0585226   0.12832573    11692.074     1000 
 1566000   0.56474826   -1.8974314   0.84627527   -1.0511562   0.12313949    11858.384     1000 
 1568000   0.58107687   -1.8865767   0.87074369    -1.015833   0.13032517    11767.701     1000 
 1570000   0.54128624   -1.9021725   0.81111742   -1.0910551   0.14487848    11433.782     1000 
 1572000   0.57129469   -1.9177412    0.8560851   -1.0616561    0.1322279    11669.108     1000 
 1574000   0.55349693   -1.8744277   0.82941515   -1.0450126   0.12958886    11613.114     1000 
 1576000   0.57708589   -1.8732082    0.8647632    -1.008445    0.1324299    11678.518     1000 
 1578000   0.56755964   -1.8611742   0.85048812   -1.0106861   0.13415295    11528.001     1000 
 1580000    0.5410168   -1.8832201   0.81071367   -1.0725065   0.13300498    11560.635     1000 
 1582000   0.59267849   -1.8983209   0.88812872   -1.0101922   0.13888301    11620.075     1000 
 1584000   0.53128123   -1.9236804   0.79612492   -1.1275555   0.12554729    11668.188     1000 
 1586000   0.57093133   -1.9173405    0.8555406   -1.0617999   0.12062971    11789.733     1000 
 1588000   0.56025942   -1.9313197   0.83954874    -1.091771   0.12637712    11741.467     1000 
[...]
 2614000   0.54848763   -1.8694254   0.82190872   -1.0475167   0.12602223    11713.033     1000 
 2616000   0.54225345   -1.9025026   0.81256679   -1.0899358   0.12318172    11746.584     1000 
 2618000   0.56031834   -1.9035882   0.83963703   -1.0639512   0.13121587    11730.063     1000 
 2620000   0.55900664   -1.9099144   0.83767145   -1.0722429   0.12219027    11803.107     1000 
 2622000   0.55565377   -1.8654046   0.83264717   -1.0327574   0.13558761    11665.532     1000 
 2624000   0.54338425   -1.8630487    0.8142613   -1.0487874   0.12544751    11799.154     1000 
 2626000   0.56377925   -1.8741848   0.84482321   -1.0293616   0.13609636    11548.396     1000 
 2628000   0.53083193    -1.903926   0.79545164   -1.1084744   0.11575218     11740.04     1000 
 2630000   0.56450634    -1.956586   0.84591276   -1.1106733   0.12049338    11922.172     1000 
 2632000   0.56430173   -1.9048112   0.84560615   -1.0592051   0.12431658    11675.441     1000 
 2634000   0.56212427   -1.8694113   0.84234322    -1.027068   0.13215055    11717.747     1000 
 2636000    0.5566015   -1.8756929   0.83406735   -1.0416256   0.13211341     11635.84     1000 
 2638000   0.55001037   -1.8483147   0.82419053   -1.0241242   0.11689211    11741.124     1000 
 2640000   0.54159648   -1.9345747   0.81158232   -1.1229923   0.13939329    11769.477     1000 
 2642000   0.56266333   -1.8935466     0.843151   -1.0503956   0.14464949    11446.386     1000 
 2644000   0.59389863   -1.8952467    0.8899571   -1.0052896    0.1306908    11704.852     1000 
 2646000   0.57753184   -1.9256889   0.86543146   -1.0602575   0.13103284    11667.238     1000 
 2648000   0.54381077   -1.9140711   0.81490044   -1.0991706   0.12886562    11686.184     1000 
 2650000   0.56696681    -1.894472   0.84959976   -1.0448722   0.11993617    11938.833     1000 
 2652000   0.58348154   -1.8858576   0.87434708   -1.0115106   0.14476707    11561.902     1000 
 2654000   0.55285623   -1.9092025   0.82845506   -1.0807474   0.12178507     11644.81     1000 
 2656000   0.57523698   -1.9017345   0.86199261   -1.0397419   0.11943798     11867.89     1000 
 2658000     0.549025    -1.886589   0.82271396   -1.0638751   0.13657234    11655.499     1000 
 2660000    0.5575894   -1.9322139   0.83554771   -1.0966662   0.13928067    11654.001     1000 
 2662000   0.55732623   -1.8773018   0.83515336   -1.0421484   0.14480526    11571.766     1000 
 2664000   0.57122224   -1.8824508   0.85597653   -1.0264743   0.12036839     11671.07     1000 
 2666000   0.54699194   -1.8808851   0.81966742   -1.0612177    0.1301615    11545.795     1000 
 2668000   0.57304545   -1.8576513    0.8587086  -0.99894268   0.13166956    11712.171     1000 
 2670000   0.59837999   -1.8780969   0.89667241   -0.9814245   0.13442013    11637.484     1000 
 2672000   0.55601108   -1.8900323    0.8331826   -1.0568497   0.13131463    11639.884     1000 
 2674000   0.55385473   -1.8996792   0.82995132   -1.0697279   0.12436082    11630.715     1000 
 2676000   0.55499449   -1.9320961   0.83165924   -1.1004369   0.12835943    11745.435     1000 
 2678000   0.57552265   -1.9126385   0.86242069   -1.0502178   0.12416646    11848.731     1000 
 2680000   0.56069907   -1.9394115   0.84020756    -1.099204   0.12814979     11836.43     1000 
 2682000   0.54826308   -1.8888793   0.82157223    -1.067307   0.13381003    11725.055     1000 
 2684000   0.55265716   -1.9139439   0.82815676   -1.0857871   0.13040983     11581.95     1000 
 2686000   0.53032353   -1.8778574   0.79468981   -1.0831676   0.12857157    11690.024     1000 
 2688000   0.54843557   -1.8911569    0.8218307   -1.0693262   0.12968947    11702.956     1000 
 2690000   0.55822279   -1.8789255   0.83649685   -1.0424287   0.13163304    11692.443     1000 
 2692000    0.5614647   -1.8875696   0.84135485   -1.0462147   0.12738061    11708.029     1000 
 2694000    0.5500366   -1.8410547   0.82422984   -1.0168249   0.13553765    11560.506     1000 
 2696000   0.53460213   -1.8715912   0.80110129   -1.0704899   0.13733261    11762.225     1000 
 2698000   0.57397223   -1.9087751   0.86009738   -1.0486777   0.12667528    11711.375     1000 
 2700000   0.57535236   -1.9568659   0.86216551   -1.0947003   0.11929632    11916.953     1000 
 2702000   0.54646151   -1.8724875   0.81887257   -1.0536149    0.1258954    11729.538     1000 
 2704000   0.56540868   -1.9520251   0.84726491   -1.1047602   0.12052639    11739.264     1000 
 2706000   0.55800886   -1.9213164   0.83617628   -1.0851401   0.12668947    11594.744     1000 
 2708000   0.58930446   -1.8907534   0.88307274   -1.0076807   0.13315749    11662.483     1000 
 2710000    0.5590582   -1.9231609   0.83774872   -1.0854122   0.11897769    11775.957     1000 
 2712000   0.55816017   -1.9021588   0.83640302   -1.0657558   0.13389453    11663.239     1000 
 2714000   0.53992795   -1.9001905   0.80908203   -1.0911084   0.12842404    11798.568     1000 
 2716000   0.54737782   -1.9053032   0.82024566   -1.0850576   0.12030389     11731.41     1000 
 2718000   0.58492447   -1.8605418   0.87650932  -0.98403247   0.13375676     11614.34     1000 
 2720000   0.53438767   -1.8964516   0.80077993   -1.0956717   0.12716724    11793.818     1000 
 2722000   0.56358865   -1.9045089   0.84453759   -1.0599713   0.12563943    11699.968     1000 
 2724000   0.56315066   -1.8787952   0.84388127   -1.0349139   0.13885081     11626.74     1000 
 2726000   0.57430079   -1.9198498   0.86058974     -1.05926   0.12902135    11659.475     1000 
 2728000   0.53215572   -1.8798262   0.79743535   -1.0823909   0.13320028    11644.613     1000 
 2730000   0.57827073   -1.9039959   0.86653868   -1.0374572   0.13568785    11792.997     1000 
 2732000   0.57617069   -1.9033383   0.86339178   -1.0399465    0.1253092     11700.44     1000 
 2734000   0.55464775   -1.8815527   0.83113966    -1.050413   0.13917456    11596.256     1000 
 2736000   0.55293771   -1.8896786   0.82857716   -1.0611015   0.13298897    11688.452     1000 
 2738000   0.53738124   -1.9343939   0.80526579   -1.1291281   0.13740297     11658.73     1000 
 2740000   0.56272561   -1.8516504   0.84324433   -1.0084061   0.13126484    11552.443     1000 
 2742000   0.54810362   -1.9912379   0.82133327   -1.1699046   0.13237289    11769.819     1000 
 2744000   0.55487946   -1.8799028   0.83148687   -1.0484159   0.13466649    11608.857     1000 
 2746000   0.54227076    -1.935872   0.81259273   -1.1232793   0.11233578    11934.573     1000 
 2748000   0.53828151   -1.8865978   0.80661485   -1.0799829   0.13317608    11779.958     1000 
 2750000   0.54087346   -1.8454583   0.81049888   -1.0349594   0.13135744    11709.292     1000 
 2752000   0.55215223   -1.8833622   0.82740011   -1.0559621   0.11380912    11780.573     1000 
 2754000   0.57055434   -1.8939665   0.85497568   -1.0389908   0.12494754    11752.304     1000 
 2756000   0.57211647   -1.8414547   0.85731653  -0.98413817   0.12369919    11690.792     1000 
 2758000   0.55751667   -1.8593067   0.83543873    -1.023868   0.12675059    11864.579     1000 
 2760000   0.55823139   -1.8756255   0.83650973   -1.0391158   0.12568897    11689.653     1000 
 2762000   0.58867817   -1.8883484   0.88213424   -1.0062142   0.13084206    11637.484     1000 
 2764000   0.56887977   -1.9326593   0.85246634    -1.080193   0.12777001    11740.974     1000 
 2766000   0.58738311   -1.9185102    0.8801936   -1.0383166   0.12614399    11754.102     1000 
 2768000   0.54780263   -1.8747635   0.82088223   -1.0538813   0.14539447    11593.076     1000 
 2770000   0.56815855   -1.9182641   0.85138559   -1.0668785   0.13285513    11583.474     1000 
 2772000   0.58082413   -1.9445022   0.87036496   -1.0741373   0.12867637    11722.248     1000 
 2774000   0.56598766   -1.8553913   0.84813252   -1.0072587   0.11302486    11907.557     1000 
 2776000    0.5681445   -1.8938223   0.85136453   -1.0424578   0.12771614    11811.297     1000 
 2778000   0.56805496   -1.8652695   0.85123036   -1.0140392   0.13827048    11666.319     1000 
 2780000   0.53857462   -1.8834677   0.80705407   -1.0764136   0.13543836     11679.41     1000 
 2782000   0.53870746    -1.894276   0.80725313   -1.0870229   0.13334447    11690.848     1000 
 2784000   0.56172101   -1.8454237   0.84173893   -1.0036848   0.12570322    11649.273     1000 
 2786000   0.53441788    -1.874502   0.80082519   -1.0736768   0.12028268    11628.627     1000 
 2788000   0.58683653   -1.9559068   0.87937454   -1.0765322   0.12592443    11978.149     1000 
 2790000    0.5691468   -1.9022967   0.85286648   -1.0494302   0.12677226    11702.422     1000 
 2792000   0.58440185   -1.8896539   0.87572618   -1.0139277   0.10977493    11886.237     1000 
 2794000   0.54688309    -1.895304   0.81950432   -1.0757997   0.12265328    11678.038     1000 
 2796000   0.56947664   -1.8682919   0.85336074   -1.0149312   0.11862334    11667.451     1000 
 2798000   0.58317546   -1.8846593   0.87388843   -1.0107708   0.13031202    11706.061     1000 
 2800000   0.55431518   -1.9344578    0.8306413   -1.1038165   0.12724651    11800.139     1000 
 2802000   0.56682167   -1.8733248   0.84938228   -1.0239426   0.12663186    11688.132     1000 
 2804000   0.53655085   -1.8519674   0.80402145    -1.047946   0.13238953    11666.985     1000 
 2806000   0.56847631   -1.8799813   0.85186175   -1.0281195   0.13497128    11552.941     1000 
 2808000   0.53576263   -1.9255414    0.8028403   -1.1227011   0.13783183    11492.434     1000 
 2810000   0.56754295   -1.8917047   0.85046311   -1.0412416   0.14009044    11537.275     1000 
 2812000   0.52870715   -1.9075701   0.79226766   -1.1153024   0.14477113    11460.217     1000 
 2814000   0.57865761    -1.868335   0.86711843   -1.0012166   0.12512976    11670.248     1000 
 2816000   0.58049181   -1.9195535   0.86986698   -1.0496865   0.13644311    11710.357     1000 
 2818000   0.57159855   -1.8327108   0.85654043  -0.97617038    0.1336617    11591.312     1000 
 2820000   0.56919433   -1.9034244    0.8529377   -1.0504867   0.14361353        11569     1000 
 2822000    0.5624263   -1.9348002   0.84279581   -1.0920044   0.11794422      11963.9     1000 
 2824000   0.55299965   -1.9465473   0.82866998   -1.1178773   0.11999556    11901.096     1000 
 2826000   0.53155508   -1.9474106   0.79653529   -1.1508753   0.10955021     11997.71     1000 
 2828000   0.55509839   -1.8745237   0.83181494   -1.0427088   0.12308317    11794.857     1000 
 2830000   0.56150308    -1.928441   0.84141237   -1.0870287    0.1213045    11589.015     1000 
 2832000    0.5424897   -1.9153115   0.81292082   -1.1023907   0.13762998     11618.54     1000 
 2834000   0.58452801   -1.9019488   0.87591523   -1.0260336   0.14353713    11574.252     1000 
 2836000   0.55146225   -1.8975328   0.82636618   -1.0711666   0.14414334    11646.137     1000 
 2838000   0.54927152   -1.8940979   0.82308337   -1.0710145   0.12635003    11724.733     1000 
 2840000   0.55374293   -1.9208633   0.82978378   -1.0910795    0.1258884    11706.794     1000 
 2842000   0.57352673   -1.9345749    0.8594298   -1.0751451   0.13260156    11739.848     1000 
 2844000    0.5668598   -1.8977766   0.84943941   -1.0483371   0.13258826    11564.398     1000 
 2846000   0.60764255   -1.9211688   0.91055236   -1.0106165   0.13127759     11754.72     1000 
 2848000   0.56782575   -1.9027961   0.85088689   -1.0519092   0.13134084      11622.4     1000 
 2850000   0.53420343   -1.8673154   0.80050384   -1.0668116   0.14214448    11552.937     1000 
 2852000   0.55605968   -1.9265655   0.83325543     -1.09331   0.12851576    11716.831     1000 
 2854000   0.55191604   -1.9407641   0.82704619    -1.113718   0.11167713    11946.332     1000 
 2856000   0.58491329   -1.9117965   0.87649256   -1.0353039   0.12138996    11722.986     1000 
 2858000   0.54449802   -1.8500891   0.81593028   -1.0341588   0.13551145    11575.042     1000 
 2860000   0.59289949   -1.8285773   0.88845989  -0.94011744    0.1392941    11490.539     1000 
 2862000    0.5621466    -1.889507   0.84237668   -1.0471303   0.12640861     11674.86     1000 
 2864000   0.57279506   -1.8610007    0.8583334   -1.0026673   0.12809641    11756.971     1000 
 2866000   0.55564896   -1.9300194   0.83263997   -1.0973794    0.1442182    11490.251     1000 
 2868000   0.56703669   -1.8942958   0.84970447   -1.0445913    0.1376083    11672.239     1000 
 2870000     0.569488    -1.956767   0.85337777   -1.1033893   0.13551187    11670.749     1000 
 2872000   0.56115213   -1.9075365   0.84088647     -1.06665   0.12631916    11792.123     1000 
 2874000   0.56551971    -1.892299   0.84743128   -1.0448678   0.13667119    11575.252     1000 
 2876000   0.54550873    -1.864153   0.81744482   -1.0467082   0.12722212    11753.185     1000 
 2878000   0.53342817   -1.8875348   0.79934211   -1.0881927    0.1215052    11780.361     1000 
 2880000   0.57095896   -1.9090782     0.855582   -1.0534962   0.12414187    11694.708     1000 
 2882000   0.56752497   -1.9313391   0.85043616   -1.0809029   0.12797216    11844.151     1000 
 2884000   0.55007461   -1.8590661    0.8242868   -1.0347793   0.13586874    11586.456     1000 
 2886000   0.55268308   -1.9406668    0.8281956   -1.1124712   0.12423549    11651.889     1000 
 2888000   0.56496814   -1.8552524   0.84660476   -1.0086476   0.12921973    11574.455     1000 
 2890000   0.57516581   -1.9160838   0.86188597   -1.0541979     0.127415    11802.034     1000 
 2892000   0.54256557   -1.8784273   0.81303451   -1.0653928   0.13063876    11703.033     1000 
 2894000   0.56000714   -1.8877699    0.8391707   -1.0485992    0.1385843    11671.561     1000 
 2896000   0.58934858    -1.883546   0.88313885   -1.0004071   0.12720283    11640.367     1000 
 2898000   0.55906251   -1.8814724   0.83775517   -1.0437173    0.1364952    11676.602     1000 
 2900000   0.55046409   -1.9195515   0.82487044   -1.0946811   0.12120741    11796.111     1000 
 2902000   0.56841898   -1.9071215   0.85177584   -1.0553456   0.13934643    11766.925     1000 
 2904000   0.54632313   -1.8835828   0.81866521   -1.0649176   0.13195817    11709.883     1000 
 2906000   0.58175327   -1.8588377   0.87175727  -0.98708041   0.12952983    11631.828     1000 
 2908000   0.56130616   -1.8610915   0.84111728   -1.0199742   0.13357601    11594.313     1000 
 2910000   0.58627357   -1.8556261   0.87853094  -0.97709516   0.14195637    11538.376     1000 
 2912000   0.55993537    -1.913154   0.83906316   -1.0740909   0.13765418    11687.201     1000 
 2914000   0.58678562   -1.8997445   0.87929826   -1.0204462   0.13019974    11637.119     1000 
 2916000   0.54629414   -1.8773235   0.81862176   -1.0587018   0.12529313    11761.099     1000 
 2918000    0.5587359   -1.8312595   0.83726575   -0.9939937    0.1332501    11624.136     1000 
 2920000   0.56431373   -1.8317238   0.84562413  -0.98609971   0.14223751    11496.667     1000 
 2922000   0.57485815   -1.8831533   0.86142493   -1.0217284   0.13132425    11712.634     1000 
 2924000   0.57001733   -1.9065501   0.85417097   -1.0523791   0.12881851    11546.451     1000 
 2926000   0.56975627   -1.9157375   0.85377977   -1.0619577   0.12167571     11710.32     1000 
 2928000   0.56580256   -1.9053263   0.84785514   -1.0574711   0.12947931    11735.259     1000 
 2930000   0.54994351   -1.8737114   0.82409034   -1.0496211   0.12744469    11744.616     1000 
 2932000   0.58931212   -1.8669431   0.88308422  -0.98385885   0.13214033    11622.476     1000 
 2934000   0.55385605   -1.8535298   0.82995329   -1.0235765   0.13990739    11536.174     1000 
 2936000   0.55897928   -1.8897127   0.83763044   -1.0520822    0.1393085    11618.447     1000 
 2938000   0.55582366   -1.8728945   0.83290176   -1.0399928   0.13323346    11565.526     1000 
 2940000   0.55306459   -1.8272972   0.82876729  -0.99852988   0.12706687    11481.627     1000 
 2942000    0.5388943   -1.9118004   0.80753311   -1.1042673   0.11708714    11856.045     1000 
 2944000   0.55379163   -1.8710196   0.82985676   -1.0411628   0.12984221    11601.752     1000 
 2946000   0.54241239   -1.8515568   0.81280497   -1.0387519   0.14139472    11481.485     1000 
 2948000   0.56305462   -1.8992071   0.84373735   -1.0554698   0.12194254    11818.804     1000 
 2950000   0.56580846    -1.867567   0.84786398    -1.019703   0.12891049    11704.572     1000 
 2952000   0.55588804   -1.9540471   0.83299822   -1.1210488   0.12188292    11815.287     1000 
 2954000   0.56654534   -1.8980974    0.8489682   -1.0491292   0.12278113    11603.027     1000 
 2956000   0.58013855   -1.8850795   0.86933762   -1.0157419   0.12584009    11822.894     1000 
 2958000   0.60326947   -1.8841308    0.9039993  -0.98013149   0.15016711    11563.084     1000 
 2960000    0.5380267   -1.8824426   0.80623301   -1.0762096   0.12425972    11676.224     1000 
 2962000   0.58512376   -1.8977761   0.87680795   -1.0209682   0.12724374    11800.904     1000 
 2964000   0.55438498   -1.8611181   0.83074589   -1.0303722   0.12094248    11609.313     1000 
 2966000   0.58618222   -1.8901095   0.87839406   -1.0117155    0.1267932    11727.757     1000 
 2968000   0.56027514    -1.903225    0.8395723   -1.0636528    0.1381332    11614.637     1000 
 2970000   0.56525138   -1.9063508    0.8470292   -1.0593216   0.13398436    11729.795     1000 
 2972000   0.56222495   -1.8818898   0.84249408   -1.0393957   0.13010405    11751.756     1000 
 2974000   0.59625581   -1.8969362   0.89348934   -1.0034469   0.12672273    11645.847     1000 
 2976000   0.54963004   -1.9217102   0.82362062   -1.0980896   0.12830051    11687.878     1000 
 2978000    0.5867247    -1.839546   0.87920696  -0.96033907   0.14360382    11609.274     1000 
 2980000   0.57360547    -1.883362    0.8595478   -1.0238142   0.13194991    11780.803     1000 
 2982000   0.57930193   -1.8852243   0.86808395   -1.0171403   0.13285133    11712.513     1000 
 2984000   0.54366662   -1.8501905   0.81468443   -1.0355061    0.1311616    11512.808     1000 
 2986000   0.56004663   -1.8888007   0.83922987   -1.0495708   0.13140767    11745.674     1000 
 2988000    0.5590919   -1.9074552   0.83779921    -1.069656   0.13211613    11647.412     1000 
 2990000   0.55348161    -1.908495   0.82939219   -1.0791028   0.12979988    11621.855     1000 
 2992000   0.53111123   -1.8744274   0.79587017   -1.0785572   0.14286554    11494.471     1000 
 2994000   0.55153368   -1.9345423   0.82647323   -1.1080691   0.13623297    11740.554     1000 
 2996000    0.5584989   -1.8694814    0.8369106   -1.0325708    0.1337196    11636.988     1000 
 2998000   0.57271612   -1.9626826   0.85821511   -1.1044675   0.14254021     11722.53     1000 
 3000000   0.56675434   -1.9046009   0.84928137   -1.0553195   0.12636732    11768.894     1000 
Loop time of 3255.66 on 1 procs for 3000000 steps with 1000 atoms

Performance: 398075.776 tau/day, 921.472 timesteps/s
99.8% CPU use with 1 MPI tasks x 1 OpenMP threads

MPI task timing breakdown:
Section |  min time  |  avg time  |  max time  |%varavg| %total
---------------------------------------------------------------
Pair    | 2650.6     | 2650.6     | 2650.6     |   0.0 | 81.41
Neigh   | 283.35     | 283.35     | 283.35     |   0.0 |  8.70
Comm    | 73.929     | 73.929     | 73.929     |   0.0 |  2.27
Output  | 0.14528    | 0.14528    | 0.14528    |   0.0 |  0.00
Modify  | 233.92     | 233.92     | 233.92     |   0.0 |  7.19
Other   |            | 13.73      |            |       |  0.42

Nlocal:        1000.00 ave        1000 max        1000 min
Histogram: 1 0 0 0 0 0 0 0 0 0
Nghost:        2168.00 ave        2168 max        2168 min
Histogram: 1 0 0 0 0 0 0 0 0 0
Neighs:        26595.0 ave       26595 max       26595 min
Histogram: 1 0 0 0 0 0 0 0 0 0

Total # of neighbors = 26595
Ave neighs/atom = 26.595000
Neighbor list builds = 150000
Dangerous builds not checked

Total wall time: 0:54:15
