LAMMPS (3 Mar 2020)
# ----------------------- Inicialização -----------------------

units			lj
atom_style 		atomic
dimension 		3
boundary 		p p p

# -------------------- Criação dos Átomos ---------------------

read_data 		topologia.txt
  orthogonal box = (0 0 0) to (21.54 21.54 21.54)
  1 by 2 by 2 MPI processor grid
  reading atoms ...
  1000 atoms
  read_data CPU = 0.00216552 secs

velocity 		all create ${temp} 87287 rot yes dist gaussian
velocity 		all create 0.38 87287 rot yes dist gaussian

# ------------------ Interação Interatômica -------------------

pair_style		table linear 1300
pair_coeff		1 1 force.table AA 6.5
WARNING: 2 of 1300 force values in table are inconsistent with -dE/dr.
  Should only be flagged at inflection points (src/pair_table.cpp:483)
pair_coeff		1 2 force.table AB 6.5
WARNING: 1 of 1300 force values in table are inconsistent with -dE/dr.
  Should only be flagged at inflection points (src/pair_table.cpp:483)
pair_coeff		2 2 force.table BB 6.5
pair_write		1 1 1600 r 0.008 6.5 table.check AA
Neighbor list info ...
  update every 1 steps, delay 10 steps, check yes
  max neighbors/atom: 2000, page size: 100000
  master list distance cutoff = 6.8
  ghost atom cutoff = 6.8
  binsize = 3.4, bins = 7 7 7
  1 neighbor lists, perpetual/occasional/extra = 1 0 0
  (1) pair table, perpetual
      attributes: half, newton on
      pair build: half/bin/atomonly/newton
      stencil: half/bin/3d/newton
      bin: standard
pair_write		1 2 1600 r 0.008 6.5 table.check AB
pair_write		2 2 1600 r 0.008 6.5 table.check BB

neighbor 		0.3 bin
neigh_modify	every 20 delay 0 check no

# ------------------------- Ensemble --------------------------------------

fix 1			all npt temp ${temp} ${temp} 0.5 iso ${press} ${press} 5
fix 1			all npt temp 0.38 ${temp} 0.5 iso ${press} ${press} 5
fix 1			all npt temp 0.38 0.38 0.5 iso ${press} ${press} 5
fix 1			all npt temp 0.38 0.38 0.5 iso 0.13 ${press} 5
fix 1			all npt temp 0.38 0.38 0.5 iso 0.13 0.13 5

# ---------------------- Função de Distribuição Radial -----------------------

#compute RDF 	all rdf 2000 1 1 1 2 2 2
#fix 2 			all ave/time 1 2000 2000 c_RDF[*] file rdf.data mode vector

# ------------------------- Execução ---------------------------

timestep 		0.005
thermo_style	custom step temp pe ke etotal press vol atoms
thermo			2000
run				3000000
Per MPI rank memory allocation (min/avg/max) = 2.675 | 2.675 | 2.675 Mbytes
Step Temp PotEng KinEng TotEng Press Volume Atoms 
       0         0.38    1.0512803      0.56943    1.6207103    1.2996151    9993.9483     1000 
    2000   0.38941603   -2.5232823   0.58353992   -1.9397424   0.13202979    11695.674     1000 
    4000   0.37520509   -2.5090954   0.56224483   -1.9468506   0.12365231    11720.376     1000 
    6000    0.3803913   -2.5262388   0.57001637   -1.9562224   0.14973952    11539.788     1000 
    8000   0.37673264     -2.60269   0.56453386   -2.0381561   0.11879265    11722.046     1000 
   10000    0.4078117   -2.5705102   0.61110584   -1.9594043   0.13545116    11687.987     1000 
   12000   0.37356646   -2.5559066   0.55978935   -1.9961173    0.1278663    11596.989     1000 
   14000   0.37859672   -2.5844457   0.56732719   -2.0171185   0.13234164    11536.476     1000 
   16000   0.39166977   -2.5241446   0.58691714   -1.9372274   0.13179673    11610.623     1000 
   18000   0.38612203     -2.59274   0.57860386   -2.0141362   0.13156602    11648.805     1000 
   20000   0.39441482   -2.6010695   0.59103061   -2.0100389   0.12664193    11683.457     1000 
   22000   0.39076512   -2.5943665   0.58556154    -2.008805   0.13745222    11653.278     1000 
   24000   0.37773541   -2.5842743   0.56603652   -2.0182378   0.13413987    11604.191     1000 
   26000   0.37499093   -2.5765718   0.56192392   -2.0146479    0.1411679    11474.793     1000 
   28000   0.38480589   -2.5719367   0.57663163   -1.9953051   0.11981737    11675.863     1000 
   30000   0.39395246   -2.5401346   0.59033777   -1.9497968   0.14017938    11597.339     1000 
   32000   0.37441207   -2.5681277   0.56105649   -2.0070712   0.12950694    11634.511     1000 
   34000   0.38976297   -2.5975443   0.58405981   -2.0134845   0.11577311    11773.659     1000 
   36000   0.38814073   -2.5743401   0.58162889   -1.9927112   0.12589891    11632.615     1000 
   38000   0.38843486   -2.5759688   0.58206963   -1.9938992   0.13792297    11556.956     1000 
   40000   0.37731096    -2.567142   0.56540048   -2.0017415   0.12061844    11679.598     1000 
   42000   0.37842146   -2.5511533   0.56706456   -1.9840888   0.12533821    11610.666     1000 
   44000    0.3835818   -2.5971063   0.57479733    -2.022309   0.12040051    11663.585     1000 
   46000    0.3835187   -2.6048823   0.57470277   -2.0301795   0.14835886    11506.141     1000 
   48000   0.37118473   -2.6133442   0.55622031   -2.0571239   0.12567504    11555.387     1000 
   50000   0.37446219   -2.5954439   0.56113159   -2.0343123   0.11927915    11696.654     1000 
   52000   0.37102158   -2.5603752   0.55597584   -2.0043994   0.14198743    11538.304     1000 
   54000   0.37121081   -2.6064914    0.5562594    -2.050232   0.14401662    11503.502     1000 
   56000   0.37711276   -2.6232724   0.56510347   -2.0581689   0.10777438    11744.025     1000 
   58000   0.37613243   -2.5852187   0.56363444   -2.0215842   0.12648459    11567.057     1000 
   60000   0.38159711   -2.6108318   0.57182328   -2.0390086   0.13489619    11645.617     1000 
   62000   0.37389324   -2.5935916   0.56027903   -2.0333125   0.12668495    11606.794     1000 
   64000   0.38091622    -2.629697   0.57080296   -2.0588941   0.13428878     11541.94     1000 
   66000   0.39359855   -2.5417739   0.58980742   -1.9519665   0.13797136    11501.468     1000 
   68000   0.38994133   -2.6013438   0.58432708   -2.0170167   0.12034873    11643.669     1000 
   70000    0.3813107    -2.564639   0.57139409   -1.9932449   0.13221103    11520.398     1000 
   72000   0.36553236   -2.6020511   0.54775025   -2.0543008   0.12810706    11587.127     1000 
   74000   0.37565769   -2.5774593   0.56292305   -2.0145363   0.13382965    11589.336     1000 
   76000   0.38918747   -2.5606912   0.58319743   -1.9774938   0.13375193    11677.176     1000 
   78000   0.37441167   -2.6226205   0.56105589   -2.0615646   0.12752162     11770.92     1000 
   80000   0.38657082   -2.6042321   0.57927638   -2.0249557    0.1340429    11606.403     1000 
   82000   0.38064133   -2.5868102   0.57039103   -2.0164192   0.13607856    11585.437     1000 
   84000   0.38084404   -2.5834142   0.57069479   -2.0127194   0.15427035    11536.741     1000 
   86000   0.39049343   -2.6480508    0.5851544   -2.0628964   0.13785093    11566.102     1000 
   88000   0.38901441   -2.5991967   0.58293809   -2.0162586   0.13847391     11574.48     1000 
   90000     0.363155   -2.6446823   0.54418777   -2.1004946   0.12262109    11711.019     1000 
   92000   0.39631838   -2.5958903    0.5938831   -2.0020072   0.12344169    11543.876     1000 
   94000    0.3650017   -2.6249275   0.54695505   -2.0779724   0.11891476    11643.674     1000 
   96000   0.40727093   -2.6187986   0.61029549   -2.0085031   0.13480157    11567.302     1000 
   98000    0.3917268   -2.5677261   0.58700261   -1.9807235   0.12134181    11643.424     1000 
  100000   0.38303286   -2.5890283   0.57397473   -2.0150535   0.12654367     11612.58     1000 
  102000   0.36508223   -2.5758146   0.54707572   -2.0287388      0.12734     11578.81     1000 
  104000   0.36709001   -2.6131439   0.55008438   -2.0630595   0.12680052    11696.533     1000 
  106000    0.3990211   -2.5833933   0.59793311   -1.9854602   0.13866013    11550.071     1000 
  108000   0.39218834   -2.6334956   0.58769423   -2.0458014   0.12563617    11621.201     1000 
  110000   0.36882723   -2.6379983   0.55268761   -2.0853107   0.11435154    11835.126     1000 
  112000   0.37609977   -2.5842383    0.5635855   -2.0206528   0.13724725    11568.143     1000 
  114000   0.39228539   -2.5882843   0.58783966   -2.0004446   0.12321895    11768.376     1000 
  116000   0.38778528   -2.6177849   0.58109625   -2.0366886   0.13593688    11597.372     1000 
  118000   0.40703367   -2.6035185   0.60993995   -1.9935786    0.1327812    11567.588     1000 
  120000      0.38113   -2.6023271    0.5711233   -2.0312038   0.13283358    11577.846     1000 
  122000   0.39076669   -2.6048221   0.58556389   -2.0192582   0.12856588    11566.562     1000 
  124000   0.37213234   -2.6187612   0.55764031   -2.0611209   0.12003454     11694.08     1000 
  126000   0.38459763   -2.5930522   0.57631955   -2.0167327   0.13765149    11553.014     1000 
  128000   0.39328798   -2.5718705   0.58934203   -1.9825285   0.11578929    11647.783     1000 
  130000   0.37317465   -2.6065831   0.55920221   -2.0473809    0.1179455    11724.435     1000 
  132000      0.37718   -2.6140085   0.56520423   -2.0488043   0.12225987    11710.102     1000 
  134000    0.3928258   -2.6013977   0.58864946   -2.0127483   0.12083891    11677.297     1000 
  136000   0.38526275   -2.5957595   0.57731623   -2.0184433   0.12446927    11685.137     1000 
  138000   0.38511114   -2.5530341   0.57708904   -1.9759451   0.14403845    11503.939     1000 
  140000   0.36598643   -2.6253176   0.54843067   -2.0768869   0.12208562    11638.896     1000 
  142000    0.3788688   -2.5886163    0.5677349   -2.0208814   0.12895958    11654.043     1000 
  144000   0.39951911   -2.5978025   0.59867939   -1.9991231   0.13859933    11540.111     1000 
  146000   0.38641008   -2.6054805    0.5790355    -2.026445   0.13372301    11563.216     1000 
  148000   0.38066187   -2.6105259   0.57042181   -2.0401041   0.13425599    11608.492     1000 
  150000   0.39378112    -2.558395   0.59008101    -1.968314   0.11764538    11550.944     1000 
  152000   0.38998722   -2.6052977   0.58439585   -2.0209019    0.1274118    11631.427     1000 
  154000   0.39980178   -2.5902927   0.59910297   -1.9911897   0.12873613    11690.928     1000 
  156000   0.38364239   -2.5748982   0.57488812   -2.0000101   0.13948181    11612.061     1000 
  158000   0.37263695    -2.610349   0.55839647   -2.0519525   0.12685347    11622.851     1000 
  160000   0.37685861    -2.608228   0.56472263   -2.0435054   0.13755221    11503.105     1000 
  162000   0.38090671   -2.5875314    0.5707887   -2.0167427   0.13122796    11583.193     1000 
  164000   0.37356795   -2.5919494   0.55979157   -2.0321578   0.13870792    11540.313     1000 
  166000   0.36794627   -2.5949646   0.55136748   -2.0435972   0.12839408    11498.418     1000 
  168000   0.37412787   -2.6088325   0.56063061   -2.0482019   0.12887332    11667.963     1000 
  170000   0.37778107   -2.5837755   0.56610494   -2.0176706   0.12409873    11644.209     1000 
  172000   0.39322719   -2.5819412   0.58925095   -1.9926902   0.13927275    11473.605     1000 
  174000   0.39071001   -2.6174605   0.58547895   -2.0319815   0.12236449    11598.957     1000 
  176000   0.38430889   -2.6084054   0.57588687   -2.0325185    0.1327551    11608.626     1000 
  178000   0.38848756   -2.5465521   0.58214861   -1.9644034    0.1237848    11622.946     1000 
  180000   0.37984672   -2.5647943   0.56920031    -1.995594   0.13317452    11580.502     1000 
  182000   0.39964074   -2.5892553   0.59886165   -1.9903936   0.12324442    11698.775     1000 
  184000    0.3832068   -2.5481008   0.57423539   -1.9738654   0.12826224    11585.554     1000 
  186000   0.35979484   -2.6015014   0.53915256   -2.0623489   0.12496797    11681.941     1000 
  188000   0.38438672   -2.5829457   0.57600349   -2.0069422   0.13004778     11567.25     1000 
  190000   0.37127279    -2.569576   0.55635228   -2.0132237    0.1249848    11649.434     1000 
  192000   0.37792992   -2.5431309   0.56632798   -1.9768029    0.1345356    11604.421     1000 
  194000   0.38395838   -2.5722395   0.57536163   -1.9968779   0.12206407    11622.234     1000 
  196000   0.37363989   -2.5598154   0.55989938    -1.999916   0.12881526    11556.313     1000 
  198000   0.36029891   -2.6004861   0.53990791   -2.0605782   0.12768892    11621.615     1000 
  200000   0.38622536    -2.626021    0.5787587   -2.0472623   0.13376839    11623.687     1000 
  202000   0.37231962   -2.5830909   0.55792096     -2.02517   0.13336271    11601.465     1000 
  204000   0.38369814   -2.6056049   0.57497167   -2.0306333   0.11754599    11646.584     1000 
  206000    0.3934796   -2.5599321   0.58962918   -1.9703029   0.13994774    11567.786     1000 
  208000   0.36261925   -2.5922322   0.54338494   -2.0488473   0.13186425    11585.789     1000 
  210000   0.38648205   -2.6107856   0.57914335   -2.0316422   0.12443547    11671.445     1000 
  212000   0.37932472   -2.6358941   0.56841809    -2.067476   0.12083977    11629.412     1000 
  214000   0.38726873   -2.5846556   0.58032219   -2.0043334   0.12535857    11572.625     1000 
  216000   0.37363866   -2.6324102   0.55989752   -2.0725127   0.12016317    11639.112     1000 
  218000   0.40215664   -2.5810984   0.60263173   -1.9784667   0.14230985    11486.713     1000 
  220000   0.37434464   -2.6391195   0.56095544    -2.078164   0.13076618    11674.402     1000 
  222000   0.38186834   -2.5739338    0.5722297   -2.0017041   0.12840768    11622.941     1000 
  224000   0.38641548   -2.6721049    0.5790436   -2.0930613   0.11686806    11765.294     1000 
  226000   0.36934901   -2.5663135   0.55346949    -2.012844   0.12529277    11594.834     1000 
  228000   0.37239511    -2.573375   0.55803407   -2.0153409   0.12667992    11702.301     1000 
  230000   0.37535936   -2.6531102     0.562476   -2.0906342   0.11811649    11767.418     1000 
  232000   0.38089973    -2.621364   0.57077825   -2.0505858   0.12009954    11761.894     1000 
  234000   0.37815832   -2.6405616   0.56667024   -2.0738914    0.1162649    11640.058     1000 
  236000   0.38354796   -2.5883302   0.57474662   -2.0135835   0.13205309    11620.942     1000 
  238000     0.382346   -2.5706161   0.57294548   -1.9976706   0.13881048    11592.247     1000 
  240000   0.37049001   -2.5846769   0.55517927   -2.0294976   0.12828272    11705.822     1000 
  242000   0.37772885   -2.5752325   0.56602668   -2.0092058   0.15112162    11490.272     1000 
  244000   0.36634303   -2.5852253   0.54896503   -2.0362603   0.12817185    11685.109     1000 
  246000   0.38149057   -2.6089472   0.57166362   -2.0372836   0.13809329    11569.972     1000 
  248000   0.39057349   -2.6176959   0.58527437   -2.0324215   0.11571594    11740.825     1000 
  250000   0.38279906    -2.591321   0.57362439   -2.0176966   0.13025907     11657.34     1000 
  252000   0.37169838   -2.5682457   0.55699002   -2.0112557   0.13477235    11565.505     1000 
  254000   0.36651117   -2.5960567   0.54921698   -2.0468397   0.11121871    11696.231     1000 
  256000   0.39137089    -2.603353   0.58646928   -2.0168837   0.13640028     11612.48     1000 
  258000   0.38557332   -2.5793048   0.57778162   -2.0015232   0.12454543    11679.471     1000 
  260000   0.40983175   -2.6204457   0.61413287   -2.0063129   0.12816618     11668.75     1000 
  262000    0.3901465   -2.6232886   0.58463453    -2.038654   0.12082575    11675.608     1000 
  264000   0.38212345   -2.5564164   0.57261199   -1.9838044   0.12239701    11602.504     1000 
  266000   0.36600097   -2.6220303   0.54845246   -2.0735778   0.13359274    11619.012     1000 
  268000   0.38421593   -2.5827656   0.57574756    -2.007018   0.13265655    11549.002     1000 
  270000   0.35454184   -2.5616876   0.53128095   -2.0304067   0.11671943    11723.258     1000 
  272000   0.36155472    -2.590888   0.54178975   -2.0490983   0.11643822    11731.096     1000 
  274000   0.38393949   -2.5538299   0.57533333   -1.9784966   0.11538132    11730.344     1000 
  276000   0.37138289   -2.5824973   0.55651727     -2.02598   0.13443054     11644.05     1000 
  278000   0.36981746   -2.5573791   0.55417146   -2.0032076   0.13938569    11449.178     1000 
  280000   0.36908225   -2.6450174   0.55306976   -2.0919477   0.13108326     11626.33     1000 
  282000    0.3789575   -2.5578925   0.56786781   -1.9900247   0.13511754    11486.805     1000 
  284000    0.3803167   -2.5874655   0.56990458   -2.0175609   0.12869636    11648.198     1000 
  286000   0.37350158   -2.5847022   0.55969212     -2.02501   0.13520008    11526.333     1000 
  288000   0.37487322   -2.5827135   0.56174752    -2.020966   0.14044662    11477.068     1000 
  290000    0.3742698   -2.5947311   0.56084329   -2.0338878     0.122248    11608.649     1000 
  292000   0.37690215   -2.6050302   0.56478787   -2.0402423   0.13124902    11601.061     1000 
  294000    0.3812816   -2.6069422   0.57135047   -2.0355917   0.11955755    11666.245     1000 
  296000   0.38458471   -2.5873102   0.57630019     -2.01101   0.12605287    11578.089     1000 
  298000   0.36897967    -2.561811   0.55291604   -2.0088949   0.12445275    11633.895     1000 
  300000   0.36807511   -2.6066717   0.55156056   -2.0551111   0.12496339    11612.228     1000 
  302000   0.38100323   -2.6080496   0.57093334   -2.0371162   0.12229076    11693.306     1000 
  304000   0.39037188   -2.5742267   0.58497226   -1.9892545   0.14176324     11602.32     1000 
  306000   0.38367907   -2.5768343   0.57494309   -2.0018912    0.1284046    11535.704     1000 
  308000   0.38797851   -2.6167295    0.5813858   -2.0353437   0.13150389    11529.435     1000 
  310000   0.38408005   -2.5938287   0.57554396   -2.0182848   0.12769884    11572.554     1000 
  312000   0.36384885   -2.5761057    0.5452275   -2.0308782   0.12323918    11606.683     1000 
  314000   0.38592668   -2.5948005   0.57831113   -2.0164894   0.12690101    11598.321     1000 
  316000   0.37184659   -2.5706733   0.55721212   -2.0134612   0.13513816    11566.452     1000 
  318000   0.37761525   -2.5737604   0.56585645   -2.0079039   0.12698678    11612.136     1000 
  320000   0.38720288   -2.5789187   0.58022352   -1.9986952   0.14208384    11535.093     1000 
  322000   0.39786355   -2.6026943   0.59619852   -2.0064958   0.12788531    11632.328     1000 
  324000    0.3778854   -2.6221562   0.56626127   -2.0558949   0.14240515    11563.599     1000 
  326000   0.38400074   -2.5716742   0.57542511   -1.9962491    0.1403677     11508.27     1000 
  328000   0.36381021   -2.5531717    0.5451696   -2.0080021   0.12751854    11590.751     1000 
  330000   0.38417844   -2.6207066    0.5756914   -2.0450152   0.13102355    11571.677     1000 
  332000   0.39712199    -2.568219   0.59508731   -1.9731317   0.13558298    11546.775     1000 
  334000   0.39651889   -2.6150735   0.59418356   -2.0208899    0.1385066    11606.563     1000 
  336000   0.37282444    -2.591852   0.55867743   -2.0331746   0.14006308    11466.344     1000 
  338000   0.38130215   -2.5877199   0.57138127   -2.0163387   0.13927484    11514.841     1000 
  340000   0.37845418   -2.6088888   0.56711359   -2.0417752   0.11978233    11668.623     1000 
  342000   0.39714718   -2.6161202   0.59512505   -2.0209952   0.14021867    11595.443     1000 
  344000   0.39404719   -2.6473901   0.59047972   -2.0569104   0.13086139    11652.277     1000 
  346000   0.37812144   -2.6127524   0.56661497   -2.0461374   0.12035165    11642.197     1000 
  348000    0.3749074   -2.6333706   0.56179874   -2.0715718    0.1204472    11723.429     1000 
  350000   0.38186037   -2.6088873   0.57221776   -2.0366695   0.13368729    11641.147     1000 
  352000   0.38740698   -2.5883929   0.58052937   -2.0078635   0.13228502    11509.443     1000 
  354000   0.38490554   -2.6061599   0.57678095    -2.029379   0.12902496    11612.484     1000 
  356000   0.38015306    -2.599426   0.56965937   -2.0297667   0.13426076    11557.285     1000 
  358000   0.38274858   -2.6049202   0.57354875   -2.0313714   0.12951877     11547.62     1000 
  360000   0.37745358   -2.5816273   0.56561419   -2.0160131   0.14083254    11533.728     1000 
  362000   0.40118583   -2.5905366   0.60117697   -1.9893597   0.14386447    11538.995     1000 
  364000   0.37334941   -2.5335253    0.5594641   -1.9740612   0.15248692    11357.461     1000 
  366000   0.35695522   -2.6332454    0.5348974    -2.098348   0.12509973     11625.87     1000 
  368000   0.39043379   -2.6388471   0.58506504    -2.053782    0.1254162    11693.885     1000 
  370000   0.39924833   -2.5861619   0.59827362   -1.9878883   0.13611757    11529.898     1000 
  372000   0.38067464   -2.5869089   0.57044095   -2.0164679   0.13813055     11589.35     1000 
  374000   0.37289204   -2.5746794   0.55877872   -2.0159007   0.12990733    11520.965     1000 
  376000   0.37900888   -2.6014783   0.56794481   -2.0335335   0.12426115    11654.304     1000 
  378000   0.38706591   -2.6222076   0.58001827   -2.0421893   0.11415701    11734.607     1000 
  380000   0.37373519   -2.6393204   0.56004218   -2.0792782   0.11683312        11812     1000 
  382000   0.39435986   -2.6197067   0.59094826   -2.0287585   0.12216083    11723.679     1000 
  384000   0.36676847   -2.6154582   0.54960256   -2.0658557   0.13168708    11597.428     1000 
  386000    0.3733969   -2.5990269   0.55953525   -2.0394916   0.13754478    11563.284     1000 
  388000   0.38647498   -2.6129817   0.57913276   -2.0338489   0.13065089     11678.76     1000 
  390000   0.38235376   -2.6383836   0.57295711   -2.0654265   0.12047855    11673.163     1000 
  392000   0.38224378    -2.591532    0.5727923   -2.0187397   0.12078461      11710.4     1000 
  394000   0.37872232   -2.6277681    0.5675154   -2.0602527   0.12015637    11689.885     1000 
  396000   0.37761386   -2.6010057   0.56585436   -2.0351514   0.13257859    11643.321     1000 
  398000   0.38921935   -2.5556421   0.58324519   -1.9723969   0.13278614    11631.081     1000 
  400000   0.40340478   -2.5649916   0.60450207   -1.9604895   0.13902333    11522.225     1000 
  402000   0.38151432   -2.6350944   0.57169921   -2.0633952    0.1323237    11599.058     1000 
  404000   0.37116481   -2.5645372   0.55619047   -2.0083467   0.13241836    11509.264     1000 
  406000   0.37204196   -2.5815783   0.55750488   -2.0240734   0.12585518    11611.059     1000 
  408000   0.38315893   -2.5891177   0.57416365   -2.0149541   0.11572856    11724.591     1000 
  410000   0.39684973   -2.6011393   0.59467932     -2.00646   0.11902208    11690.272     1000 
  412000    0.3656852   -2.5911136   0.54797927   -2.0431343   0.13040284    11610.487     1000 
  414000   0.38401993   -2.5553045   0.57545387   -1.9798507   0.13153985    11523.143     1000 
  416000   0.37903536   -2.5769013   0.56798449   -2.0089168   0.11810449    11681.884     1000 
  418000    0.3896181   -2.5887695   0.58384272   -2.0049268   0.12410842    11638.392     1000 
  420000   0.36987643   -2.5944574   0.55425982   -2.0401976   0.13251663    11671.243     1000 
  422000   0.38893601   -2.5463851    0.5828206   -1.9635645   0.14846978    11412.436     1000 
  424000   0.37722198    -2.582841   0.56526714   -2.0175738   0.13072473    11670.923     1000 
  426000   0.37729451   -2.5924505   0.56537583   -2.0270747   0.13336997     11556.42     1000 
  428000   0.37928583   -2.6034365   0.56835981   -2.0350767   0.12916893    11630.373     1000 
  430000   0.37232116   -2.6371669   0.55792326   -2.0792437   0.12372298    11726.084     1000 
  432000   0.39855709   -2.5996323   0.59723781   -2.0023945   0.12748683    11630.496     1000 
  434000   0.38336889    -2.591532   0.57447828   -2.0170538   0.12256723    11678.763     1000 
  436000   0.38037088   -2.5291781   0.56998576   -1.9591924   0.13848092        11536     1000 
  438000   0.37146714   -2.5640248   0.55664351   -2.0073813   0.13699792    11519.705     1000 
  440000   0.38629403   -2.5558533   0.57886161   -1.9769916   0.12940823    11522.371     1000 
  442000   0.36595661   -2.5735206   0.54838597   -2.0251346    0.1284286    11619.003     1000 
  444000   0.37591596   -2.6054849   0.56331007   -2.0421748   0.12536176    11726.143     1000 
  446000   0.38817399   -2.6468198   0.58167872   -2.0651411   0.12076081    11652.319     1000 
  448000   0.37563264   -2.6125931   0.56288552   -2.0497076   0.13585029    11598.869     1000 
  450000   0.35256544   -2.6065868   0.52831931   -2.0782675   0.13210303    11570.031     1000 
  452000   0.38699506   -2.5939959   0.57991209   -2.0140838    0.1335309    11660.952     1000 
  454000   0.35713284    -2.602638   0.53516356   -2.0674744   0.13869763    11576.288     1000 
  456000   0.38852881   -2.5978557   0.58221042   -2.0156452   0.13926315    11538.801     1000 
  458000   0.37103766    -2.638342   0.55599994   -2.0823421   0.12362157    11702.051     1000 
  460000   0.36383423   -2.6184554   0.54520559   -2.0732498   0.12435006    11680.456     1000 
  462000   0.39467554   -2.6213331   0.59142129   -2.0299118   0.12446478    11615.421     1000 
  464000   0.39180212   -2.6600923   0.58711548   -2.0729768   0.12826187    11658.203     1000 
  466000   0.38644283   -2.6511871   0.57908458   -2.0721025   0.12528831     11709.16     1000 
  468000   0.38731626   -2.5848906   0.58039341   -2.0044972   0.12602028    11684.172     1000 
  470000   0.38525246   -2.6639981   0.57730082   -2.0866973   0.13381362    11555.757     1000 
  472000   0.38190708   -2.6201003   0.57228776   -2.0478125   0.13784826    11625.702     1000 
  474000   0.37123225   -2.6168424   0.55629153   -2.0605508   0.13024973    11621.784     1000 
  476000   0.37503668    -2.567882   0.56199246   -2.0058895   0.13142046    11634.377     1000 
  478000   0.37691079   -2.6146547   0.56480082   -2.0498539   0.13468745    11570.609     1000 
  480000   0.38023187   -2.5655256   0.56977746   -1.9957482   0.13230505    11584.152     1000 
  482000   0.38375022     -2.62979   0.57504971   -2.0547403   0.12816926     11606.37     1000 
  484000   0.39657987   -2.6277565   0.59427494   -2.0334815   0.12995466    11626.045     1000 
  486000   0.39560721   -2.6457854    0.5928174    -2.052968   0.13285958     11586.55     1000 
  488000    0.3613567   -2.5627859   0.54149301   -2.0212929   0.13364759    11502.276     1000 
  490000   0.37291916   -2.5976724   0.55881937   -2.0388531   0.13954933     11666.25     1000 
  492000   0.39211056   -2.5604489   0.58757767   -1.9728713   0.12436102    11766.229     1000 
  494000    0.3760977   -2.6070642   0.56358241   -2.0434818   0.13115842    11618.563     1000 
  496000   0.37563776   -2.5558385   0.56289319   -1.9929454   0.14251357     11420.12     1000 
  498000    0.3776612   -2.6195824   0.56592531   -2.0536571   0.12699486    11603.928     1000 
  500000   0.37729264   -2.6263019   0.56537301   -2.0609289   0.14793015    11527.655     1000 
  502000   0.37514068   -2.5861247    0.5621483   -2.0239764    0.1350292    11573.107     1000 
  504000   0.37813453   -2.5694793    0.5666346   -2.0028447   0.12933952    11742.153     1000 
  506000   0.37415212   -2.6015727   0.56066695   -2.0409057    0.1366453    11579.691     1000 
  508000   0.37157926   -2.5921441   0.55681151   -2.0353325   0.13093883    11593.153     1000 
  510000   0.38581365   -2.5666269   0.57814175   -1.9884852    0.1348683    11592.153     1000 
  512000   0.37550624   -2.6669537    0.5626961   -2.1042576   0.12177633    11692.699     1000 
  514000   0.37985003   -2.6131816   0.56920528   -2.0439763   0.11826197    11706.756     1000 
  516000   0.38826976   -2.6265182   0.58182223    -2.044696   0.12660988    11673.563     1000 
  518000   0.40002513   -2.5784217   0.59943765    -1.978984   0.13132446    11554.531     1000 
  520000   0.37922341   -2.5837597   0.56826627   -2.0154935    0.1369928    11513.919     1000 
  522000   0.39064097   -2.6118828    0.5853755   -2.0265073   0.13461037     11599.62     1000 
  524000   0.39964873   -2.6127606   0.59887362    -2.013887   0.13554534    11607.232     1000 
  526000   0.38350833   -2.5713851   0.57468723   -1.9966979   0.12677849    11588.605     1000 
  528000   0.39079224   -2.5668545   0.58560217   -1.9812523   0.12475618    11589.526     1000 
  530000   0.38787696   -2.5726935   0.58123362   -1.9914599   0.12641133    11682.461     1000 
  532000   0.37255292   -2.6313719   0.55827055   -2.0731013   0.12388556    11660.404     1000 
  534000   0.39094604   -2.6052855   0.58583265   -2.0194529   0.12048201    11650.035     1000 
  536000   0.36183619   -2.6618429   0.54221154   -2.1196314   0.13738837    11612.751     1000 
  538000   0.40350847    -2.613156   0.60465745   -2.0084986   0.12048862    11732.398     1000 
  540000   0.39844423   -2.5631929   0.59706868   -1.9661242    0.1333798    11511.318     1000 
  542000   0.39404095   -2.5913769   0.59047036   -2.0009066   0.12580821    11691.668     1000 
  544000   0.38348351   -2.5920016   0.57465005   -2.0173516   0.13377497     11554.78     1000 
  546000   0.38786762   -2.5772868   0.58121963   -1.9960672   0.13677045    11702.786     1000 
  548000   0.36109519   -2.5587155   0.54110114   -2.0176144   0.13322968    11547.567     1000 
  550000   0.38455045   -2.5675041   0.57624885   -1.9912552   0.13358179    11516.789     1000 
  552000   0.40000971   -2.6037655   0.59941456    -2.004351   0.12153529    11704.726     1000 
  554000   0.37291089   -2.5864025   0.55880696   -2.0275956   0.13768319    11587.636     1000 
  556000   0.38425158   -2.5676945   0.57580099   -1.9918935   0.14650961    11594.046     1000 
  558000   0.39247803   -2.5665957   0.58812833   -1.9784673   0.12588154    11617.535     1000 
  560000   0.37559203   -2.6400387   0.56282466   -2.0772141   0.11423191    11715.956     1000 
  562000   0.37260962   -2.6153464   0.55835552   -2.0569909   0.13283432    11547.673     1000 
  564000    0.3693534   -2.5774509   0.55347607   -2.0239748   0.12345439    11616.177     1000 
  566000   0.37627777   -2.5678262   0.56385224   -2.0039739   0.12680033    11561.331     1000 
  568000   0.38873281   -2.5963394   0.58251611   -2.0138232   0.13491582    11599.845     1000 
  570000   0.38036903   -2.6435677   0.56998299   -2.0735847   0.13109946    11573.438     1000 
  572000   0.35234894   -2.5711585   0.52799488   -2.0431636   0.13253012    11599.635     1000 
  574000   0.37546989   -2.5529146   0.56264162    -1.990273   0.13190309    11613.188     1000 
  576000   0.39070047    -2.607534   0.58546465   -2.0220693   0.11189832     11691.87     1000 
  578000   0.38042243   -2.5840979   0.57006301   -2.0140349   0.12438541    11640.521     1000 
  580000   0.38896222   -2.6376898   0.58285988   -2.0548299   0.13444821    11600.081     1000 
  582000   0.38979555   -2.6425033   0.58410864   -2.0583947   0.12573136    11680.211     1000 
  584000   0.37672176   -2.5636171   0.56451756   -1.9990995   0.12765458    11625.072     1000 
  586000   0.39353932   -2.5674261   0.58971868   -1.9777074   0.13337148    11535.712     1000 
  588000   0.37700909   -2.5936776   0.56494812   -2.0287295   0.12551506    11641.841     1000 
  590000   0.38200375   -2.6201284   0.57243262   -2.0476958   0.12778233    11687.357     1000 
  592000   0.38048048   -2.6375706      0.57015   -2.0674206   0.13598354    11706.961     1000 
  594000   0.37394092   -2.5910021   0.56035047   -2.0306516    0.1243274    11686.381     1000 
  596000    0.3814031   -2.6142015   0.57153255    -2.042669   0.13851361    11615.692     1000 
  598000    0.3721565    -2.556242   0.55767652   -1.9985655   0.13429275    11549.384     1000 
  600000   0.39116148     -2.61274   0.58615548   -2.0265845   0.13263322    11651.226     1000 
  602000   0.38771507   -2.6032582   0.58099104   -2.0222672   0.12490208    11722.238     1000 
  604000   0.38011021    -2.620705   0.56959515   -2.0511098   0.10738057    11765.909     1000 
  606000   0.37406603     -2.61236   0.56053794    -2.051822   0.13192932    11568.072     1000 
  608000   0.37575603    -2.590791   0.56307042   -2.0277206   0.12206156    11662.899     1000 
  610000   0.39207042   -2.6448214   0.58751753   -2.0573038   0.12547851    11696.075     1000 
  612000    0.3691193   -2.6422988   0.55312528   -2.0891735   0.12129313    11663.981     1000 
  614000    0.3910756   -2.6002873   0.58602679   -2.0142605   0.13539067    11607.771     1000 
  616000   0.38846651   -2.6193091   0.58211707    -2.037192   0.13353975    11705.132     1000 
  618000   0.37592598   -2.6047887   0.56332508   -2.0414636   0.14202561    11603.188     1000 
  620000   0.37099108   -2.5446066   0.55593014   -1.9886765   0.13475622    11515.338     1000 
  622000   0.38039019    -2.638232    0.5700147   -2.0682173   0.13148525    11661.301     1000 
  624000   0.38660809    -2.554348   0.57933223   -1.9750158   0.14555124    11457.315     1000 
  626000   0.38369161   -2.5621178   0.57496188    -1.987156   0.13049037    11654.944     1000 
  628000   0.38452117    -2.621843   0.57620498    -2.045638    0.1445353    11512.746     1000 
  630000   0.37837926     -2.56622   0.56700132   -1.9992186   0.13380793    11568.083     1000 
  632000    0.3804236   -2.5789235   0.57006477   -2.0088587   0.12863618    11576.623     1000 
  634000   0.37312459   -2.5998421    0.5591272   -2.0407149   0.12717016    11607.777     1000 
  636000   0.37247558   -2.6198625   0.55815466   -2.0617079   0.12910341    11631.663     1000 
  638000   0.37516619   -2.6641484   0.56218653   -2.1019619   0.12625197    11638.681     1000 
  640000   0.37483322   -2.5930908   0.56168758   -2.0314032   0.12172878    11680.694     1000 
  642000   0.37662071     -2.60525   0.56436614   -2.0408838   0.12903721    11695.294     1000 
  644000   0.37888519    -2.612556   0.56775946   -2.0447965   0.13111177    11603.977     1000 
  646000   0.39101768   -2.6286825   0.58593999   -2.0427425   0.12646112    11665.178     1000 
  648000   0.38864136   -2.5736837   0.58237907   -1.9913047   0.11734597    11634.703     1000 
  650000   0.39105205   -2.6279488    0.5859915   -2.0419573   0.12464052    11702.166     1000 
  652000   0.37409465   -2.5742395   0.56058083   -2.0136586   0.14147906    11652.628     1000 
  654000   0.37431962    -2.579192   0.56091796    -2.018274   0.13166463    11612.654     1000 
  656000   0.36887263   -2.5936569   0.55275564   -2.0409013    0.1492346    11497.609     1000 
  658000   0.40459859   -2.5660139   0.60629099   -1.9597229   0.13918148    11544.726     1000 
  660000   0.38368721   -2.5945366   0.57495528   -2.0195813   0.13101927    11610.676     1000 
  662000    0.3884813   -2.5928343   0.58213923   -2.0106951   0.12975593    11517.107     1000 
  664000   0.36841467   -2.6002758   0.55206938   -2.0482064   0.11603195     11728.55     1000 
  666000   0.38655062   -2.5911015    0.5792461   -2.0118555   0.13047956    11713.779     1000 
  668000   0.37911138   -2.5567106    0.5680984   -1.9886122   0.12379377    11607.146     1000 
  670000   0.38424839   -2.6177953   0.57579621   -2.0419991   0.11860001    11700.199     1000 
  672000   0.38002877   -2.6062307   0.56947312   -2.0367576   0.14520789    11596.676     1000 
  674000    0.3710052   -2.6305067   0.55595129   -2.0745555   0.11822059     11603.72     1000 
  676000   0.38990282    -2.596504   0.58426938   -2.0122346    0.1321746    11661.973     1000 
  678000     0.366244   -2.6181858   0.54881663   -2.0693691   0.12667363    11617.832     1000 
  680000    0.3783533   -2.5909364   0.56696242    -2.023974   0.14075035    11576.958     1000 
  682000   0.38712951   -2.6018771   0.58011358   -2.0217636   0.11758136    11782.314     1000 
  684000   0.37777873   -2.6075509   0.56610142   -2.0414494   0.13499961    11642.113     1000 
  686000   0.38231799    -2.544858   0.57290351   -1.9719545    0.1474986    11519.708     1000 
  688000   0.36384737   -2.6491527   0.54522528   -2.1039275    0.1321047     11583.02     1000 
  690000   0.36749311   -2.6177163   0.55068843   -2.0670279   0.14800791    11474.152     1000 
  692000   0.39194055   -2.6062127   0.58732291   -2.0188898   0.14445417      11590.8     1000 
  694000   0.36425033   -2.6264991   0.54582913     -2.08067   0.12193616    11715.269     1000 
  696000   0.38359947   -2.6199887    0.5748238   -2.0451649   0.13645097    11520.492     1000 
  698000    0.3461227   -2.5814172   0.51866487   -2.0627523   0.13467606    11645.302     1000 
  700000   0.36871629   -2.5951633   0.55252136   -2.0426419   0.10285507    11866.663     1000 
  702000   0.38096898   -2.5811184   0.57088201   -2.0102364   0.11756409    11633.821     1000 
  704000    0.3795948    -2.596968   0.56882282   -2.0281452   0.12858978    11608.109     1000 
  706000   0.37707514   -2.5689654    0.5650471   -2.0039183   0.11929341    11592.468     1000 
  708000   0.38893489   -2.6266182   0.58281894   -2.0437992   0.12902017    11618.615     1000 
  710000   0.37761421   -2.6235933   0.56585489   -2.0577384   0.14156617    11516.616     1000 
  712000   0.36502472   -2.6053197   0.54698955   -2.0583302   0.13928776    11583.302     1000 
  714000   0.37309114   -2.5756971   0.55907707     -2.01662   0.13202007    11668.087     1000 
  716000   0.39047259   -2.5877049   0.58512318   -2.0025817   0.13351913    11490.893     1000 
  718000   0.39504072    -2.541525   0.59196852   -1.9495564   0.13038091    11583.954     1000 
  720000   0.36653117   -2.5835496   0.54924695   -2.0343026   0.12983763     11627.69     1000 
  722000   0.37755625   -2.5846753   0.56576805   -2.0189073   0.14712585    11544.373     1000 
  724000   0.38646346   -2.5402456    0.5791155   -1.9611301   0.13160437      11607.6     1000 
  726000   0.39546922   -2.6245156   0.59261063    -2.031905   0.12936669    11648.712     1000 
  728000   0.38658459   -2.5938934   0.57929701   -2.0145964   0.12254611    11758.041     1000 
  730000   0.38065942   -2.5667962   0.57041813    -1.996378   0.13407231     11522.12     1000 
  732000   0.37674576   -2.5814385   0.56455352   -2.0168849   0.12709816    11596.248     1000 
  734000   0.38626687   -2.6155965    0.5788209   -2.0367756    0.1188746    11718.983     1000 
  736000   0.38280042   -2.6475321   0.57362642   -2.0739057   0.12447738    11702.461     1000 
  738000   0.37940515   -2.6109103   0.56853862   -2.0423716   0.12581628    11613.803     1000 
  740000   0.37589505   -2.5994197   0.56327873   -2.0361409   0.13924051     11574.02     1000 
  742000    0.3786813    -2.578082   0.56745393   -2.0106281    0.1247721     11584.96     1000 
  744000   0.40191419   -2.5956151   0.60226842   -1.9933467   0.13870786    11608.199     1000 
  746000   0.38786103   -2.6450089   0.58120976   -2.0637992   0.13298738    11564.042     1000 
  748000   0.38046378   -2.6033652   0.57012498   -2.0332402   0.14096631    11500.862     1000 
  750000   0.38630976   -2.6137163   0.57888517   -2.0348311   0.13152132    11601.206     1000 
  752000    0.3623849   -2.6051524   0.54303377   -2.0621186   0.11975184    11676.172     1000 
  754000   0.37917645   -2.6001852   0.56819592   -2.0319893   0.11720757    11641.539     1000 
  756000   0.37199859   -2.6233899   0.55743989   -2.0659501   0.14609877    11481.705     1000 
  758000   0.39016832   -2.6249144   0.58466723   -2.0402472   0.13503749     11544.92     1000 
  760000   0.39191448   -2.6356022   0.58728385   -2.0483184   0.12918094    11596.259     1000 
  762000   0.38297934   -2.6208305   0.57389454    -2.046936   0.13413322    11594.003     1000 
  764000    0.3856973   -2.5590336   0.57796741   -1.9810661   0.13285747    11563.106     1000 
  766000   0.38414392   -2.5967309   0.57563967   -2.0210912   0.12758594    11651.184     1000 
  768000   0.37916037   -2.5771444   0.56817181   -2.0089726   0.13168455    11574.401     1000 
  770000   0.38331466   -2.5991869   0.57439702   -2.0247899    0.1058126    11752.542     1000 
  772000   0.38420085   -2.5843078   0.57572497   -2.0085828    0.1355583    11533.412     1000 
  774000   0.40855762    -2.573322    0.6122236   -1.9610984   0.12190174    11654.133     1000 
  776000   0.38703807   -2.6069894   0.57997655   -2.0270129    0.1348169    11507.708     1000 
  778000   0.37396031   -2.6119644   0.56037952   -2.0515849    0.1461605    11446.392     1000 
  780000   0.38493407   -2.6240802    0.5768237   -2.0472565   0.12447623    11674.764     1000 
  782000   0.38306898   -2.5972683   0.57402887   -2.0232394   0.12771609    11625.072     1000 
  784000   0.38983667   -2.5929226   0.58417025   -2.0087524   0.11719886    11789.503     1000 
  786000   0.38401466   -2.5796069   0.57544597    -2.004161   0.13479002    11516.407     1000 
  788000   0.38812331   -2.6087075   0.58160277   -2.0271048    0.1282364    11652.826     1000 
  790000   0.38736694   -2.6166992   0.58046936   -2.0362299   0.14042884    11562.876     1000 
  792000   0.38545849   -2.6183737   0.57760955   -2.0407641   0.13440958    11558.553     1000 
  794000   0.39804225   -2.5881235   0.59646632   -1.9916572    0.1321365    11588.667     1000 
  796000   0.37137511   -2.6271996   0.55650561    -2.070694   0.11173772    11726.394     1000 
  798000   0.38174089   -2.5801669   0.57203872   -2.0081282     0.139116    11539.964     1000 
  800000    0.3733462   -2.6107955   0.55945928   -2.0513362    0.1257691    11607.092     1000 
  802000   0.38802607   -2.5812788   0.58145707   -1.9998218   0.13929078     11562.85     1000 
  804000   0.39271823   -2.5807316   0.58848827   -1.9922433   0.12190216    11619.481     1000 
  806000   0.37896161   -2.6212443   0.56787398   -2.0533704   0.12433004    11666.032     1000 
  808000   0.38168589    -2.595116   0.57195631   -2.0231597   0.12246558    11682.247     1000 
  810000   0.39279456   -2.6120405   0.58860265   -2.0234379   0.14222413    11545.066     1000 
  812000   0.37228581   -2.5643383   0.55787029    -2.006468    0.1300997    11588.374     1000 
  814000   0.37629096   -2.5967994     0.563872   -2.0329274   0.12375879    11698.359     1000 
  816000    0.4013446   -2.5662674   0.60141488   -1.9648525   0.14079099    11636.957     1000 
  818000   0.37552807   -2.6136279   0.56272881   -2.0508991   0.11233863    11706.422     1000 
  820000   0.37409248   -2.5807881   0.56057758   -2.0202105   0.13720988    11648.326     1000 
  822000   0.38351039   -2.5871848   0.57469031   -2.0124945   0.14167931    11551.238     1000 
  824000    0.3832977   -2.5975602    0.5743716   -2.0231886   0.12252278    11718.869     1000 
  826000   0.39447278   -2.6017021   0.59111746   -2.0105847   0.13508963    11588.005     1000 
  828000   0.38758383   -2.5796791   0.58079437   -1.9988848    0.1303842     11631.22     1000 
  830000   0.39834511   -2.5583463   0.59692014   -1.9614262   0.12790563    11574.487     1000 
  832000   0.38017453   -2.5597543   0.56969154   -1.9900628   0.12164908    11711.532     1000 
  834000   0.37190414   -2.6134257   0.55729835   -2.0561274   0.14310936    11541.042     1000 
  836000   0.37923978   -2.5877825   0.56829081   -2.0194917   0.14235062    11521.927     1000 
  838000    0.3910063    -2.643342   0.58592294    -2.057419    0.1364338    11646.325     1000 
  840000   0.36992198   -2.6293495   0.55432808   -2.0750214   0.14137105    11513.048     1000 
  842000   0.37824771   -2.6042702   0.56680419    -2.037466      0.11898    11610.393     1000 
  844000   0.38428102   -2.6280172    0.5758451   -2.0521721   0.13352558    11613.113     1000 
  846000   0.38037992   -2.5754463   0.56999931    -2.005447   0.13144328     11543.77     1000 
  848000   0.38224982   -2.6172599   0.57280136   -2.0444585   0.12390123    11585.804     1000 
  850000   0.36780709   -2.5652809   0.55115892    -2.014122   0.13620823    11608.831     1000 
  852000   0.36919774   -2.6022814   0.55324281   -2.0490386   0.12374036    11708.876     1000 
  854000   0.38444161   -2.5909285   0.57608575   -2.0148427   0.14479684    11494.555     1000 
  856000   0.37611088   -2.6235897   0.56360215   -2.0599875   0.12344797      11715.9     1000 
  858000   0.38553859    -2.616833   0.57772958   -2.0391035   0.13790603    11541.705     1000 
  860000   0.37204985   -2.6132779    0.5575167   -2.0557612   0.12607136    11566.544     1000 
  862000   0.38140208   -2.6410311   0.57153101      -2.0695   0.11679662    11770.184     1000 
  864000   0.37071204   -2.6078207   0.55551199   -2.0523087   0.13272507    11631.871     1000 
  866000   0.37209989   -2.6051198   0.55759169   -2.0475281   0.12736128    11633.609     1000 
  868000   0.37519774    -2.618445   0.56223381   -2.0562112   0.12834716    11716.867     1000 
  870000   0.38930256   -2.5839403   0.58336989   -2.0005704   0.12563874    11622.609     1000 
  872000   0.38027331   -2.6401313   0.56983955   -2.0702918   0.12823328     11677.94     1000 
  874000   0.37570216   -2.5808592   0.56298969   -2.0178695    0.1330662    11583.672     1000 
  876000   0.37376386   -2.5641242   0.56008515   -2.0040391   0.13536351    11577.153     1000 
  878000   0.38529495   -2.6432984   0.57736449   -2.0659339   0.12520134      11724.2     1000 
  880000   0.37616715   -2.5988215   0.56368648    -2.035135   0.13175171    11504.443     1000 
  882000   0.37579199    -2.626855    0.5631243   -2.0637307   0.12740286    11653.016     1000 
  884000   0.37602183   -2.5960833   0.56346871   -2.0326146   0.13076174    11646.644     1000 
  886000   0.39019093   -2.5873146    0.5847011   -2.0026135   0.12726623    11624.586     1000 
  888000   0.37613992   -2.5839918   0.56364568   -2.0203461   0.13147095    11563.673     1000 
  890000   0.37539045   -2.5750014    0.5625226   -2.0124789   0.14225896    11519.851     1000 
  892000   0.38172965   -2.6224011   0.57202188   -2.0503792    0.1156229    11806.237     1000 
  894000   0.38662237   -2.6135539   0.57935362   -2.0342003   0.11521676    11690.076     1000 
  896000   0.38027236   -2.6031622   0.56983814   -2.0333241     0.130439    11668.235     1000 
  898000   0.38434407   -2.6031624   0.57593958   -2.0272228   0.13459612    11631.962     1000 
  900000    0.3881043   -2.6370302   0.58157429    -2.055456   0.12110129    11727.088     1000 
  902000   0.35861653   -2.5548624   0.53738687   -2.0174755   0.12744551    11554.774     1000 
  904000   0.37527193   -2.6270257   0.56234498   -2.0646807   0.13078317    11609.712     1000 
  906000   0.37953934   -2.6217321    0.5687397   -2.0529924   0.13347608    11618.898     1000 
  908000   0.37354172   -2.6137241   0.55975226   -2.0539718   0.12002654    11773.216     1000 
  910000   0.39217751   -2.6112009   0.58767801   -2.0235229   0.11964255    11704.097     1000 
  912000   0.38714074   -2.6110146   0.58013041   -2.0308842   0.12270784    11666.941     1000 
  914000   0.39286861   -2.6010001   0.58871361   -2.0122865   0.12226568    11682.252     1000 
  916000   0.38718646   -2.5903621    0.5801989   -2.0101632   0.14459879    11596.142     1000 
  918000     0.389126   -2.6037663   0.58310531    -2.020661   0.13401852    11600.814     1000 
  920000   0.36851608   -2.6298495   0.55222135   -2.0776281   0.13245106    11594.922     1000 
  922000   0.39195347   -2.5838151   0.58734227   -1.9964728   0.12493077    11679.069     1000 
  924000   0.37619245   -2.6000707   0.56372438   -2.0363464   0.13180863    11591.539     1000 
  926000   0.37738194   -2.6192751   0.56550683   -2.0537683   0.13270344    11704.319     1000 
  928000   0.36244531   -2.5903093    0.5431243    -2.047185   0.13624036    11568.203     1000 
  930000   0.37361382   -2.5980426   0.55986032   -2.0381823   0.12989158     11648.08     1000 
  932000   0.38737734   -2.5862854   0.58048495   -2.0058005   0.13121263    11566.305     1000 
  934000   0.37729963   -2.6559441    0.5653835   -2.0905606   0.13239204    11676.785     1000 
  936000   0.36085951   -2.5921953   0.54074797   -2.0514473   0.12872607    11580.411     1000 
  938000   0.38263618   -2.5633024   0.57338032   -1.9899221   0.12530769    11602.276     1000 
  940000   0.38983037   -2.5801591   0.58416081   -1.9959983   0.13384139    11591.979     1000 
  942000   0.38878857   -2.5812172   0.58259967   -1.9986175   0.12257637    11616.583     1000 
  944000   0.38975825   -2.5799887   0.58405274    -1.995936   0.13711252    11527.072     1000 
  946000   0.37848627   -2.5791449   0.56716168   -2.0119832   0.13521007    11567.877     1000 
  948000   0.37328822   -2.5991914    0.5593724    -2.039819   0.13079013    11616.614     1000 
  950000    0.3785273    -2.596357   0.56722316   -2.0291338   0.11904229    11648.622     1000 
  952000   0.36642148   -2.5891857   0.54908258   -2.0401031   0.14095947    11593.275     1000 
  954000   0.37787308   -2.6296944    0.5662428   -2.0634516   0.12824803    11599.286     1000 
  956000   0.36677786    -2.558524   0.54961662   -2.0089074   0.12733437    11640.431     1000 
  958000   0.36945294   -2.6217428   0.55362523   -2.0681176   0.15015212    11548.785     1000 
  960000   0.38213977   -2.5608422   0.57263644   -1.9882058   0.13291383    11518.357     1000 
  962000   0.36844233   -2.5888717   0.55211083   -2.0367609   0.14343383    11508.378     1000 
  964000   0.37796048   -2.6124337   0.56637377   -2.0460599   0.14072473    11568.177     1000 
  966000   0.38578323   -2.5989283   0.57809617   -2.0208321   0.13620093    11666.036     1000 
  968000   0.37980948    -2.606035    0.5691445   -2.0368905   0.12805161     11571.99     1000 
  970000   0.36920509   -2.5681574   0.55325383   -2.0149036   0.13304012    11636.931     1000 
  972000   0.38956588   -2.5931719   0.58376448   -2.0094074   0.12270045    11678.781     1000 
  974000   0.38274975   -2.5967144   0.57355051   -2.0231639   0.13156267    11658.486     1000 
  976000   0.37887864   -2.6146148   0.56774964   -2.0468652   0.13414554    11655.467     1000 
  978000   0.41039518   -2.5632679   0.61497717   -1.9482907   0.13178373    11576.991     1000 
  980000   0.36499359   -2.5818824    0.5469429   -2.0349395   0.13158559    11558.383     1000 
  982000   0.39022112   -2.5788996   0.58474636   -1.9941532   0.14285427    11542.986     1000 
  984000    0.3755156   -2.5894124   0.56271013   -2.0267023   0.12706657    11708.749     1000 
  986000   0.38915948   -2.6476113   0.58315548   -2.0644559   0.12323374    11742.331     1000 
  988000   0.37284027   -2.6106963   0.55870115   -2.0519952   0.13348734    11642.929     1000 
  990000   0.36997849   -2.6068236   0.55441276   -2.0524109   0.14224594    11607.286     1000 
  992000   0.37763722    -2.628679   0.56588937   -2.0627897   0.12477973    11683.685     1000 
  994000   0.38059706   -2.6222673    0.5703247   -2.0519426    0.1275277    11649.831     1000 
  996000     0.390398   -2.5655523    0.5850114   -1.9805409   0.12147389    11700.472     1000 
  998000   0.37935124   -2.6893821   0.56845783   -2.1209243   0.12663179    11697.274     1000 
 1000000   0.38554113   -2.5966484   0.57773338    -2.018915   0.12544854    11694.329     1000 
 1002000   0.35738095   -2.5741301   0.53553535   -2.0385947   0.13037396    11635.859     1000 
 1004000   0.38489632   -2.6040279   0.57676713   -2.0272607    0.1325937    11632.324     1000 
 1006000   0.36972829    -2.608609   0.55403784   -2.0545712    0.1131117    11712.661     1000 
 1008000   0.38889513   -2.6385731   0.58275936   -2.0558138   0.12128752    11763.987     1000 
 1010000   0.38170433   -2.5850543   0.57198394   -2.0130704   0.12888044     11585.13     1000 
 1012000   0.38317483   -2.5728259   0.57418748   -1.9986384   0.13157415    11527.194     1000 
 1014000    0.3794609   -2.6011017   0.56862216   -2.0324795   0.14187604    11578.592     1000 
 1016000   0.38232674   -2.6050491   0.57291662   -2.0321325   0.14104877    11599.445     1000 
 1018000   0.36059888    -2.609424   0.54035742   -2.0690666   0.11771959    11678.304     1000 
 1020000   0.37385831    -2.603629   0.56022668   -2.0434023   0.13740929    11505.113     1000 
 1022000   0.37410288   -2.6171387   0.56059317   -2.0565455   0.12973185    11648.865     1000 
 1024000   0.37827224   -2.5778673   0.56684095   -2.0110264   0.13179266    11560.474     1000 
 1026000   0.38325314   -2.5882144   0.57430484   -2.0139096   0.12397766    11614.582     1000 
 1028000   0.39789885   -2.6260448   0.59625143   -2.0297934   0.11876822     11669.81     1000 
 1030000   0.38227512   -2.6167441   0.57283927   -2.0439048   0.12249117    11736.548     1000 
 1032000   0.38694928   -2.5323971    0.5798435   -1.9525536   0.13051609    11557.492     1000 
 1034000   0.37892243   -2.5972746   0.56781526   -2.0294594   0.12972627    11661.119     1000 
 1036000   0.36464174   -2.5863375   0.54641565   -2.0399219   0.12920109     11626.65     1000 
 1038000   0.38502982   -2.6234077   0.57696718   -2.0464405   0.12869497    11637.181     1000 
 1040000   0.35566107   -2.6255346   0.53295812   -2.0925765   0.12143463    11684.565     1000 
 1042000   0.37997679   -2.6177082   0.56939523    -2.048313   0.12787677    11692.887     1000 
 1044000   0.37134903   -2.5761482   0.55646653   -2.0196816   0.14286373    11432.031     1000 
 1046000   0.39933292   -2.6126946   0.59840038   -2.0142943   0.13108754    11686.103     1000 
 1048000   0.37667258   -2.6163907   0.56444386   -2.0519468    0.1321941     11666.59     1000 
 1050000   0.36335191    -2.622422   0.54448284   -2.0779392   0.12323686     11647.67     1000 
 1052000    0.3885464   -2.5957282   0.58223679   -2.0134914   0.12798905    11658.584     1000 
 1054000   0.37355263   -2.6044907   0.55976861   -2.0447221   0.13527375    11647.722     1000 
 1056000   0.36771612   -2.5921907    0.5510226   -2.0411681   0.12866207    11676.728     1000 
 1058000    0.3607153   -2.5983431   0.54053187   -2.0578112   0.11934976    11658.181     1000 
 1060000   0.39834159   -2.6075423   0.59691487   -2.0106274   0.13686698     11532.26     1000 
 1062000   0.38066216   -2.6221705   0.57042224   -2.0517483   0.12710651    11601.144     1000 
 1064000   0.38072166   -2.6260484    0.5705114    -2.055537   0.11465873    11724.085     1000 
 1066000   0.38085985   -2.6216332   0.57071848   -2.0509147   0.12995336    11611.817     1000 
 1068000   0.40957624   -2.6271157      0.61375   -2.0133657   0.12993634    11654.164     1000 
 1070000   0.37827887   -2.6145281   0.56685089   -2.0476772    0.1367927     11559.18     1000 
 1072000   0.38962574   -2.6251029   0.58385417   -2.0412487   0.13905965    11661.566     1000 
 1074000   0.36995549   -2.5862713    0.5543783    -2.031893   0.13482658    11537.006     1000 
 1076000   0.37763815   -2.6193689   0.56589077   -2.0534782    0.1271597    11504.136     1000 
 1078000   0.38047672   -2.5936657   0.57014437   -2.0235214   0.12516779    11617.864     1000 
 1080000   0.37471064     -2.57852   0.56150389   -2.0170161   0.12952161    11596.408     1000 
 1082000   0.37446418    -2.565308   0.56113457   -2.0041734   0.11946504    11711.466     1000 
 1084000   0.36912852   -2.5815406   0.55313908   -2.0284015   0.11693904    11591.718     1000 
 1086000   0.39069065    -2.591021   0.58544994   -2.0055711   0.13055442    11634.148     1000 
 1088000   0.37942024   -2.5869948   0.56856123   -2.0184335   0.13866247    11490.047     1000 
 1090000   0.39022052   -2.5680663   0.58474545   -1.9833209   0.13542536    11616.569     1000 
 1092000   0.39418203   -2.5532866   0.59068177   -1.9626049   0.14113953     11441.95     1000 
 1094000   0.39142022   -2.5977923    0.5865432   -2.0112491   0.13815936    11483.223     1000 
 1096000   0.38306046   -2.6225778    0.5740161   -2.0485617    0.1320374    11578.176     1000 
 1098000   0.38185883   -2.5912694   0.57221546    -2.019054   0.12465853    11610.495     1000 
 1100000   0.36800827   -2.5735559    0.5514604   -2.0220955   0.12536687    11623.719     1000 
 1102000   0.36981082   -2.5672986   0.55416152   -2.0131371    0.1336245    11574.194     1000 
 1104000   0.38301926   -2.5866296   0.57395437   -2.0126752   0.12047863    11616.907     1000 
 1106000   0.37949439   -2.5840644   0.56867235    -2.015392   0.12960982    11552.111     1000 
 1108000   0.36575294   -2.5891345   0.54808079   -2.0410537   0.12523581    11642.601     1000 
 1110000   0.37673139   -2.6095631   0.56453198   -2.0450311   0.13397204     11649.42     1000 
 1112000   0.37180966   -2.6289055   0.55715677   -2.0717487   0.13362846    11592.663     1000 
 1114000   0.38186286   -2.5813194   0.57222149    -2.009098   0.13221642    11608.466     1000 
 1116000    0.3870417   -2.5843882   0.57998199   -2.0044062   0.12075954    11675.128     1000 
 1118000   0.39329149   -2.6013629    0.5893473   -2.0120156   0.12517431    11686.594     1000 
 1120000   0.39578843   -2.5719947   0.59308896   -1.9789057   0.13692098    11566.272     1000 
 1122000   0.37811734   -2.5997207   0.56660883   -2.0331118   0.12307378    11687.368     1000 
 1124000    0.3704121   -2.5893132   0.55506253   -2.0342506   0.12283233    11652.074     1000 
 1126000   0.37427243   -2.6478053   0.56084724   -2.0869581   0.11029475    11678.029     1000 
 1128000   0.39986608   -2.6145309   0.59919931   -2.0153316   0.12711525     11657.92     1000 
 1130000   0.38119758   -2.5533291   0.57122458   -1.9821045   0.12115489    11635.256     1000 
 1132000   0.36841563   -2.5790507   0.55207083   -2.0269799   0.13194772     11559.07     1000 
 1134000   0.38319497     -2.59655   0.57421767   -2.0223323   0.12723238     11599.68     1000 
 1136000   0.38945378   -2.5957454    0.5835965   -2.0121489   0.13031984    11619.954     1000 
 1138000   0.37594359   -2.5819387   0.56335147   -2.0185872   0.11866175    11689.827     1000 
 1140000   0.37680197   -2.5739152   0.56463776   -2.0092774   0.12063564    11690.168     1000 
 1142000   0.37967606   -2.5948073   0.56894457   -2.0258627    0.1334791    11566.787     1000 
 1144000   0.39194458   -2.5796764   0.58732895   -1.9923475   0.14260756    11494.235     1000 
 1146000   0.38383282   -2.5655359   0.57517348   -1.9903625   0.12141189    11570.333     1000 
 1148000   0.39011115   -2.5638251   0.58458157   -1.9792435    0.1465678    11515.208     1000 
 1150000   0.39160139   -2.5978608   0.58681468   -2.0110461   0.13260022    11561.452     1000 
 1152000   0.37059141   -2.5806273   0.55533123   -2.0252961   0.13548501    11567.891     1000 
 1154000   0.37480566    -2.576142   0.56164628   -2.0144957   0.13639282    11524.175     1000 
 1156000   0.38588104   -2.5518188   0.57824273   -1.9735761   0.12818275      11513.8     1000 
 1158000   0.37520915    -2.621094   0.56225091   -2.0588431   0.12562924    11593.778     1000 
 1160000   0.37666055    -2.579444   0.56442584   -2.0150181   0.13593269    11482.192     1000 
 1162000   0.38226864   -2.6001434   0.57282956   -2.0273138   0.13544627    11661.013     1000 
 1164000   0.39113888   -2.6346857   0.58612161   -2.0485641   0.12635576    11643.372     1000 
 1166000   0.39895657   -2.6150199   0.59783643   -2.0171834    0.1273218    11667.379     1000 
 1168000   0.37622803   -2.5996982    0.5637777   -2.0359205   0.13798168    11550.691     1000 
 1170000   0.37966756   -2.6142907   0.56893184   -2.0453589   0.13585655     11698.87     1000 
 1172000   0.37083188   -2.5531337   0.55569157   -1.9974421   0.12363563    11613.157     1000 
 1174000   0.37653507    -2.586557    0.5642378   -2.0223192     0.133878    11594.832     1000 
 1176000   0.37874941   -2.5966616   0.56755599   -2.0291056   0.12590086    11541.369     1000 
 1178000   0.37791566   -2.6206456   0.56630662    -2.054339   0.13426612    11636.706     1000 
 1180000   0.36360511   -2.6233709   0.54486226   -2.0785086   0.12122166    11726.529     1000 
 1182000    0.3856792   -2.6259751   0.57794027   -2.0480348   0.13410021    11588.936     1000 
 1184000   0.37540668   -2.6035321   0.56254691   -2.0409851   0.13558158    11614.102     1000 
 1186000   0.38880656   -2.5805614   0.58262664   -1.9979348   0.12952094    11604.699     1000 
 1188000   0.37144764   -2.5790403    0.5566143   -2.0224261   0.12749466    11513.932     1000 
 1190000   0.37232623   -2.5545673   0.55793085   -1.9966364   0.14118947    11505.223     1000 
 1192000     0.373796   -2.5710243   0.56013331    -2.010891   0.12570683    11621.575     1000 
 1194000   0.37686506   -2.6268914   0.56473229   -2.0621591   0.11367314    11726.897     1000 
 1196000   0.37693188   -2.5514281   0.56483242   -1.9865957   0.13329799      11458.2     1000 
 1198000   0.37888647   -2.6073622   0.56776137   -2.0396008   0.13644045    11569.774     1000 
 1200000   0.38417947   -2.5771599   0.57569294   -2.0014669   0.13382897    11548.428     1000 
 1202000    0.3961925   -2.5921063   0.59369446   -1.9984119   0.14048706     11557.88     1000 
 1204000   0.36964513   -2.6032189   0.55391323   -2.0493057   0.13458313    11554.568     1000 
 1206000   0.37883186    -2.583813   0.56767955   -2.0161335   0.13075043    11632.282     1000 
 1208000   0.35599824   -2.5964497   0.53346336   -2.0629863   0.14301054    11505.801     1000 
 1210000   0.36035172    -2.573445   0.53998705   -2.0334579   0.13131837    11630.179     1000 
 1212000   0.37823361   -2.6445613   0.56678307   -2.0777782   0.11971901    11682.913     1000 
 1214000   0.37844688    -2.565776   0.56710265   -1.9986734   0.12838087    11547.414     1000 
 1216000   0.37247505   -2.5859398   0.55815386   -2.0277859   0.13127818    11565.838     1000 
 1218000   0.37325965    -2.588442   0.55932959   -2.0291124   0.12677195    11653.867     1000 
 1220000   0.38141354   -2.6081941   0.57154818   -2.0366459   0.12915806    11558.395     1000 
 1222000   0.36567279   -2.6145705   0.54796067   -2.0666099   0.13527497    11649.588     1000 
 1224000   0.37668609   -2.5513708   0.56446411   -1.9869067   0.11863563    11666.919     1000 
 1226000   0.37971643   -2.6167012   0.56900506   -2.0476962   0.12817118    11707.989     1000 
 1228000   0.40418771   -2.6638403   0.60567528    -2.058165    0.1438547    11561.129     1000 
 1230000   0.38417422   -2.6078109   0.57568507   -2.0321259   0.14376646      11535.5     1000 
 1232000   0.39630971   -2.6292444   0.59387011   -2.0353742   0.12689601    11562.155     1000 
 1234000   0.36835202    -2.572427    0.5519755   -2.0204515   0.13839799    11556.457     1000 
 1236000   0.37180315   -2.6068506   0.55714702   -2.0497036   0.12679197    11543.235     1000 
 1238000   0.37427858   -2.5910324   0.56085645   -2.0301759   0.13588345    11522.145     1000 
 1240000   0.39047792   -2.6308066   0.58513116   -2.0456755   0.11950573    11746.904     1000 
 1242000   0.39044753   -2.5460843   0.58508562   -1.9609987   0.13249566    11665.957     1000 
 1244000    0.3836676   -2.6070146   0.57492589   -2.0320887   0.12457462    11734.371     1000 
 1246000   0.36465828   -2.6457781   0.54644043   -2.0993376   0.12659161    11715.242     1000 
 1248000    0.3771425   -2.6276924   0.56514803   -2.0625444   0.14511322    11604.074     1000 
 1250000   0.36839316    -2.593409   0.55203716   -2.0413718   0.12422123    11643.838     1000 
 1252000   0.39646815   -2.6062221   0.59410752   -2.0121146   0.13492869    11677.651     1000 
 1254000   0.37461227   -2.6014183   0.56135648   -2.0400618   0.12181076    11695.494     1000 
 1256000   0.38337388   -2.5799298   0.57448577    -2.005444   0.12831877    11681.228     1000 
 1258000   0.37563587   -2.6227588   0.56289034   -2.0598685   0.12822126     11611.76     1000 
 1260000   0.37963985   -2.6301004   0.56889032   -2.0612101   0.13208711     11692.26     1000 
 1262000   0.37922714   -2.6241496   0.56827187   -2.0558777   0.12998936    11708.662     1000 
 1264000   0.37886625   -2.5926702   0.56773108   -2.0249391   0.12161717    11749.271     1000 
 1266000   0.38485013   -2.6309309   0.57669792    -2.054233   0.12799005     11623.48     1000 
 1268000   0.39193375   -2.6221669   0.58731273   -2.0348542     0.132867      11580.6     1000 
 1270000   0.36820222   -2.6177761   0.55175103   -2.0660251   0.13822938    11501.444     1000 
 1272000   0.36933684   -2.5978028   0.55345126   -2.0443516   0.12646405    11642.388     1000 
 1274000   0.37783846   -2.5926404   0.56619093   -2.0264494   0.13030196    11537.353     1000 
 1276000    0.3816606   -2.5908935   0.57191841   -2.0189751   0.14103952    11542.426     1000 
 1278000   0.38471964   -2.5889669   0.57650238   -2.0124645   0.13199845    11596.359     1000 
 1280000   0.39572735   -2.6611804   0.59299743    -2.068183   0.13223806    11594.127     1000 
 1282000   0.39249339    -2.561364   0.58815135   -1.9732126   0.13499628    11590.043     1000 
 1284000   0.39351036   -2.5841123   0.58967527    -1.994437   0.12237712    11612.711     1000 
 1286000   0.37614375   -2.6257215   0.56365141   -2.0620701   0.12321949    11707.855     1000 
 1288000   0.38397424   -2.5931442    0.5753854   -2.0177588   0.13505794    11581.311     1000 
 1290000   0.37144683   -2.6108234   0.55661308   -2.0542103   0.12805455    11583.437     1000 
 1292000   0.38403433   -2.5697761   0.57547545   -1.9943007     0.127849     11585.95     1000 
 1294000    0.3684809   -2.5442184   0.55216862   -1.9920497    0.1477598    11405.132     1000 
 1296000   0.35937858     -2.62105   0.53852881   -2.0825212   0.12632809    11649.662     1000 
 1298000   0.37004603   -2.6187682   0.55451397   -2.0642543   0.13855644    11564.632     1000 
 1300000   0.36744355   -2.6078723   0.55061416   -2.0572582   0.12371667    11608.275     1000 
 1302000   0.37821103   -2.6745038   0.56674922   -2.1077545   0.11453351    11718.791     1000 
 1304000   0.38928934   -2.6320246   0.58335008   -2.0486745   0.12701982    11687.268     1000 
 1306000   0.39846977   -2.5684252   0.59710695   -1.9713183   0.13208917    11618.655     1000 
 1308000   0.39391853    -2.575669   0.59028692    -1.985382   0.14246434    11584.254     1000 
 1310000   0.37929102   -2.5820565   0.56836759   -2.0136889   0.13048281    11645.835     1000 
 1312000   0.38569016   -2.5990953    0.5779567   -2.0211386   0.13293542    11576.061     1000 
 1314000   0.36595146   -2.6147098   0.54837826   -2.0663315   0.13817768     11531.66     1000 
 1316000   0.38463966   -2.6149545   0.57638253    -2.038572   0.12334582    11712.552     1000 
 1318000    0.3983005   -2.6184426   0.59685331   -2.0215893   0.11839512    11677.682     1000 
 1320000   0.38008113   -2.6027587   0.56955158   -2.0332071   0.13574529    11619.009     1000 
 1322000   0.38689046   -2.5911256   0.57975535   -2.0113703   0.11636195    11665.441     1000 
 1324000   0.37028362   -2.5661613   0.55487001   -2.0112913   0.11787024    11654.308     1000 
 1326000   0.36588377   -2.6265004   0.54827683   -2.0782236   0.13065548    11594.094     1000 
 1328000   0.37420945   -2.6184426   0.56075286   -2.0576897   0.12370576    11729.535     1000 
 1330000   0.38126695   -2.6213052   0.57132852   -2.0499766   0.13045256    11607.975     1000 
 1332000   0.38759527   -2.5920644   0.58081151   -2.0112529   0.13343457    11567.141     1000 
 1334000    0.3774888   -2.6069935   0.56566697   -2.0413266   0.13758106    11563.158     1000 
 1336000   0.37709011    -2.581162   0.56506953   -2.0160924    0.1281342    11620.551     1000 
 1338000   0.37264239   -2.5450669   0.55840462   -1.9866622   0.12970652    11569.349     1000 
 1340000   0.38652135   -2.5979268   0.57920225   -2.0187245   0.12981027    11539.302     1000 
 1342000   0.37965515   -2.6116458   0.56891325   -2.0427326   0.12123139    11728.129     1000 
 1344000   0.37379635   -2.5803222   0.56013383   -2.0201884   0.12254747    11666.897     1000 
 1346000     0.370725   -2.6315933   0.55553141   -2.0760619   0.12964728    11550.809     1000 
 1348000    0.3755494    -2.624506   0.56276077   -2.0617452   0.11825434    11724.409     1000 
 1350000   0.36371192    -2.612571   0.54502231   -2.0675487   0.12271649    11590.683     1000 
 1352000   0.37924496    -2.659454   0.56829858   -2.0911554   0.13450032    11663.423     1000 
 1354000   0.38586613   -2.6381575   0.57822039   -2.0599372   0.12509601    11643.653     1000 
 1356000   0.35553955    -2.605333   0.53277602   -2.0725569   0.12141103    11550.323     1000 
 1358000   0.36141553   -2.6014487   0.54158117   -2.0598675   0.12306663     11664.26     1000 
 1360000   0.37503638   -2.5646108   0.56199202   -2.0026188   0.14019744    11533.455     1000 
 1362000   0.36954197   -2.6138687   0.55375865     -2.06011   0.13280432    11597.665     1000 
 1364000   0.36706522   -2.5514609   0.55004724   -2.0014136   0.12101383    11694.984     1000 
 1366000    0.3767395   -2.6045813   0.56454415   -2.0400372   0.12630949     11535.82     1000 
 1368000   0.37908546   -2.6446804   0.56805957   -2.0766209   0.12639197    11658.416     1000 
 1370000   0.37774983   -2.6384631   0.56605813    -2.072405    0.1347598    11564.464     1000 
 1372000   0.37994034     -2.60087    0.5693406   -2.0315294   0.12342591     11647.12     1000 
 1374000   0.38590898   -2.6030083    0.5782846   -2.0247237   0.12975629    11756.247     1000 
 1376000   0.37229829   -2.5903699   0.55788898   -2.0324809   0.12892035    11618.509     1000 
 1378000   0.38041193   -2.5913719   0.57004728   -2.0213246   0.13293245    11613.255     1000 
 1380000   0.38427579    -2.620071   0.57583727   -2.0442338   0.14442127    11581.414     1000 
 1382000   0.36253743   -2.5832667   0.54326233   -2.0400044   0.12961472     11637.94     1000 
 1384000   0.38909765   -2.6088065   0.58306284   -2.0257437   0.12916006    11642.955     1000 
 1386000   0.37256706   -2.6028738   0.55829174   -2.0445821   0.13019913    11521.594     1000 
 1388000   0.39719808   -2.5716267   0.59520133   -1.9764254   0.13800894    11512.798     1000 
 1390000   0.37771762   -2.5778724   0.56600986   -2.0118626   0.13448481    11472.876     1000 
 1392000   0.37961829   -2.6159556     0.568858   -2.0470976   0.12926859    11670.763     1000 
 1394000   0.38444656   -2.6045848   0.57609317   -2.0284916   0.11811336    11710.237     1000 
 1396000   0.38011508    -2.530034   0.56960245   -1.9604315   0.12886805    11601.135     1000 
 1398000   0.38734752   -2.6043558   0.58044025   -2.0239155   0.14124669     11606.64     1000 
 1400000   0.38161827   -2.6003432   0.57185497   -2.0284882    0.1321268    11692.708     1000 
 1402000   0.37228179   -2.5690826   0.55786426   -2.0112184   0.13441244    11554.623     1000 
 1404000   0.37123008   -2.5914551   0.55628828   -2.0351668   0.11420997    11709.396     1000 
 1406000   0.38356986   -2.5815221   0.57477943   -2.0067427    0.1294221    11541.865     1000 
 1408000   0.37234859   -2.5871768   0.55796436   -2.0292125   0.13176742    11540.604     1000 
 1410000    0.3931084   -2.6134156   0.58907294   -2.0243427   0.13132472    11704.935     1000 
 1412000   0.38066066    -2.601223   0.57041999    -2.030803   0.12024131    11705.953     1000 
 1414000   0.37581076   -2.5970816   0.56315243   -2.0339291     0.122189    11674.067     1000 
 1416000   0.36034331   -2.5901355   0.53997446   -2.0501611   0.12793703    11564.754     1000 
 1418000   0.39612244    -2.559019   0.59358948   -1.9654296   0.13336551    11528.834     1000 
 1420000    0.3830538    -2.606408   0.57400612   -2.0324019   0.13222713    11641.053     1000 
 1422000   0.38185932   -2.5796488   0.57221619   -2.0074326   0.13330187    11562.263     1000 
 1424000   0.37598586   -2.5664852   0.56341482   -2.0030704   0.12847505    11621.565     1000 
 1426000    0.3733581   -2.5915574   0.55947712   -2.0320803   0.14540459    11500.917     1000 
 1428000   0.36568677   -2.6199738   0.54798163   -2.0719921   0.11811015    11796.468     1000 
 1430000   0.39130845   -2.5939475   0.58637571   -2.0075718   0.13146766    11561.534     1000 
 1432000   0.39589979    -2.587855   0.59325584   -1.9945992   0.11928532    11762.601     1000 
 1434000   0.35936339    -2.605181   0.53850604   -2.0666749   0.13218355    11586.012     1000 
 1436000   0.38925112   -2.5860791    0.5832928   -2.0027863   0.13469566     11562.21     1000 
 1438000   0.38659704   -2.6344269   0.57931566   -2.0551112   0.13931145     11751.69     1000 
 1440000   0.39239249   -2.6185494   0.58800015   -2.0305492   0.13580188    11587.625     1000 
 1442000   0.36946299   -2.5986325   0.55364029   -2.0449922   0.13865331    11646.346     1000 
 1444000   0.37450103   -2.5759358   0.56118979    -2.014746   0.12804587    11565.537     1000 
 1446000   0.38006489   -2.5865984   0.56952724   -2.0170711   0.12720337    11604.852     1000 
 1448000   0.37589937   -2.5959417    0.5632852   -2.0326565   0.13447501    11621.538     1000 
 1450000   0.36592002   -2.6028931   0.54833115    -2.054562   0.12857683    11651.956     1000 
 1452000   0.36663959   -2.5992796   0.54940943   -2.0498702   0.13008142    11658.077     1000 
 1454000   0.39818417   -2.5552604   0.59667898   -1.9585814   0.12985942    11576.846     1000 
 1456000   0.37664306   -2.6045036   0.56439962    -2.040104   0.12625027     11727.98     1000 
 1458000   0.39298725   -2.6178923   0.58889139   -2.0290009   0.13001832    11661.042     1000 
 1460000   0.38049786   -2.6210198   0.57017605   -2.0508438   0.13783505    11638.111     1000 
 1462000   0.38851881   -2.5989923   0.58219544   -2.0167969   0.14216018    11503.228     1000 
 1464000   0.36533852    -2.597379   0.54745978   -2.0499192   0.14069702     11503.55     1000 
 1466000   0.38157518   -2.5749591    0.5717904   -2.0031687   0.13288176    11596.788     1000 
 1468000   0.37531496   -2.5874679   0.56240947   -2.0250584   0.14827916    11476.855     1000 
 1470000   0.37751328   -2.5715189   0.56570364   -2.0058153   0.12540579    11663.616     1000 
 1472000   0.36982676   -2.5461526    0.5541854   -1.9919672   0.12311495    11584.765     1000 
 1474000   0.36937969   -2.5956075   0.55351546    -2.042092   0.12737868    11608.389     1000 
 1476000   0.38606438   -2.6038525   0.57851747    -2.025335   0.12634708    11609.659     1000 
 1478000   0.39576547   -2.6129951   0.59305456   -2.0199405    0.1415963    11519.971     1000 
 1480000   0.37477701   -2.5591266   0.56160334   -1.9975233   0.12464479    11625.657     1000 
 1482000   0.38190429   -2.5977665   0.57228358   -2.0254829   0.11175374    11790.834     1000 
 1484000   0.37518486   -2.6305186   0.56221451    -2.068304   0.13490651    11538.785     1000 
 1486000    0.3801566   -2.5940069   0.56966466   -2.0243423   0.13924716    11525.765     1000 
 1488000   0.38417005   -2.5916172   0.57567882   -2.0159384   0.12468954    11683.781     1000 
 1490000   0.37575457   -2.5533705   0.56306822   -1.9903023   0.13174801    11551.371     1000 
 1492000   0.40517657   -2.6075857    0.6071571   -2.0004286    0.1383219     11592.48     1000 
 1494000   0.36252839   -2.6311446    0.5432488   -2.0878958   0.13893351      11600.6     1000 
 1496000    0.3704371   -2.5875654       0.5551   -2.0324654   0.14005482    11487.448     1000 
 1498000   0.38956265   -2.5998527   0.58375964   -2.0160931   0.13341788    11556.729     1000 
 1500000   0.38406662   -2.5857832   0.57552383   -2.0102593   0.12451931    11638.807     1000 
 1502000   0.38161356    -2.578411   0.57184792    -2.006563    0.1228578    11584.104     1000 
 1504000   0.37790066   -2.5695873   0.56628414   -2.0033032   0.13447254    11534.186     1000 
 1506000   0.37204415   -2.5940689   0.55750816   -2.0365608   0.13602301     11618.79     1000 
 1508000   0.38663342   -2.5495617   0.57937018   -1.9701915   0.13609469    11542.201     1000 
 1510000   0.37992073   -2.5644719   0.56931122   -1.9951606   0.12551738    11529.959     1000 
 1512000   0.39110093   -2.6306956   0.58606475   -2.0446309    0.1381547    11651.873     1000 
 1514000   0.38153564   -2.5999868   0.57173116   -2.0282556   0.13640499    11549.705     1000 
 1516000   0.37085309   -2.5666152   0.55572336   -2.0108919   0.12592301    11637.905     1000 
 1518000   0.37872503   -2.5989218   0.56751945   -2.0314024   0.11684921    11748.516     1000 
 1520000   0.37209804   -2.5811786   0.55758891   -2.0235897   0.13708199    11589.803     1000 
 1522000   0.38193636   -2.6576483   0.57233164   -2.0853166    0.1249295    11703.307     1000 
 1524000   0.37697291   -2.5923504   0.56489391   -2.0274565   0.13384443    11643.026     1000 
 1526000   0.37861029   -2.5868006   0.56734752   -2.0194531   0.14047882    11577.045     1000 
 1528000   0.37201608   -2.6034318   0.55746609   -2.0459657   0.13428818    11666.101     1000 
 1530000   0.37807803   -2.6173775   0.56654992   -2.0508276    0.1390109    11550.893     1000 
 1532000   0.36890106   -2.6205714   0.55279824   -2.0677732   0.12151343    11726.781     1000 
 1534000    0.3806904   -2.6153391   0.57046457   -2.0448746   0.13582032    11581.195     1000 
 1536000   0.37835794   -2.5822714   0.56696937   -2.0153021   0.11302787    11770.882     1000 
 1538000   0.37839571   -2.5889028   0.56702598   -2.0218768   0.12303216    11651.399     1000 
 1540000   0.37783701   -2.5712769   0.56618876   -2.0050881   0.13654067      11505.2     1000 
 1542000   0.37901701   -2.6044482   0.56795699   -2.0364912   0.14134482    11490.103     1000 
 1544000   0.37489617   -2.5982389   0.56178191    -2.036457   0.13433311    11535.604     1000 
 1546000   0.37481141   -2.6038852    0.5616549   -2.0422303   0.12221141    11640.046     1000 
 1548000   0.37934903   -2.6016934   0.56845452   -2.0332389   0.12631035    11656.918     1000 
 1550000    0.3886508   -2.6514061   0.58239322   -2.0690128   0.12691132    11702.996     1000 
 1552000   0.38321642   -2.6039663   0.57424981   -2.0297165   0.13222351     11624.17     1000 
 1554000   0.40079351   -2.5696313   0.60058907   -1.9690423   0.13373821    11678.356     1000 
 1556000   0.38442887    -2.620427   0.57606666   -2.0443604   0.13174793     11622.57     1000 
 1558000   0.37760125   -2.5798934   0.56583547   -2.0140579   0.12186212    11598.873     1000 
 1560000   0.36752195   -2.6369242   0.55073164   -2.0861926   0.10990246    11729.403     1000 
 1562000   0.38532359   -2.6199995   0.57740739   -2.0425921   0.11795695    11672.687     1000 
 1564000   0.38829004   -2.6010725   0.58185263   -2.0192199   0.13046703    11629.732     1000 
 1566000   0.38326697   -2.6045426   0.57432555   -2.0302171   0.12154866     11771.68     1000 
 1568000   0.39974549   -2.6156416   0.59901862    -2.016623   0.14676812    11530.632     1000 
 1570000   0.38987814   -2.6082256   0.58423239   -2.0239932   0.12974174    11648.717     1000 
 1572000   0.38107564   -2.6231388   0.57104184    -2.052097   0.13813185    11625.905     1000 
 1574000   0.38474704   -2.5659459   0.57654345   -1.9894025   0.13084049    11592.257     1000 
 1576000   0.37791969   -2.6190197   0.56631266    -2.052707   0.13584725    11590.734     1000 
 1578000   0.38178335   -2.6185866   0.57210235   -2.0464843   0.12770025    11678.265     1000 
 1580000   0.36444295   -2.6409481   0.54611776   -2.0948303    0.1245267    11710.408     1000 
 1582000   0.36965889   -2.6145975   0.55393384   -2.0606637   0.12994583    11571.244     1000 
 1584000   0.38584702   -2.6246313   0.57819176   -2.0464395   0.12829961    11628.611     1000 
 1586000   0.37378139   -2.5817739   0.56011142   -2.0216625   0.12416865    11675.245     1000 
 1588000   0.36996373   -2.5665859   0.55439065   -2.0121953   0.12242276     11610.91     1000 
 1590000   0.37269429   -2.5921878   0.55848239   -2.0337055   0.13746684     11483.25     1000 
 1592000   0.38072677    -2.605575   0.57051907   -2.0350559   0.13622338    11600.549     1000 
 1594000   0.36918011   -2.5769374    0.5532164    -2.023721   0.13529688    11556.762     1000 
 1596000   0.37825813   -2.6202128   0.56681981    -2.053393   0.13811732     11497.29     1000 
[...]
 2612000    0.3720844   -2.5907632   0.55756847   -2.0331948   0.14169134    11562.601     1000 
 2614000   0.37868592   -2.6094147   0.56746085   -2.0419539   0.12933579    11540.786     1000 
 2616000   0.37410688   -2.5945555   0.56059915   -2.0339563   0.13551292    11536.701     1000 
 2618000   0.37998146   -2.5835178   0.56940222   -2.0141156   0.14214308    11548.011     1000 
 2620000    0.3906424   -2.5955556   0.58537764    -2.010178   0.12366158    11725.377     1000 
 2622000   0.39880763   -2.6094652   0.59761323    -2.011852    0.1244608    11708.043     1000 
 2624000   0.38175395   -2.5892307   0.57205829   -2.0171724   0.13784794    11514.571     1000 
 2626000   0.37764843   -2.6281941   0.56590618    -2.062288    0.1304387    11593.706     1000 
 2628000   0.37312685   -2.5759195   0.55913058   -2.0167889   0.12247413     11678.27     1000 
 2630000   0.37641041   -2.5905631   0.56405099   -2.0265121   0.14751404    11473.226     1000 
 2632000   0.36586767   -2.5895781    0.5482527   -2.0413254   0.12829831    11565.531     1000 
 2634000   0.36455973   -2.5797451   0.54629276   -2.0334523   0.12484949    11680.383     1000 
 2636000   0.37232369   -2.5812308   0.55792705   -2.0233038   0.14133948    11479.397     1000 
 2638000   0.38096342   -2.5936351   0.57087369   -2.0227615   0.13095924    11637.393     1000 
 2640000   0.37890182   -2.5855593   0.56778438   -2.0177749   0.13324286    11626.166     1000 
 2642000   0.37634984   -2.5868216   0.56396023   -2.0228614   0.12750109    11752.749     1000 
 2644000   0.38132327   -2.5725177   0.57141292   -2.0011048   0.15091333    11463.842     1000 
 2646000   0.38312198   -2.6093989   0.57410829   -2.0352906   0.12945838    11643.367     1000 
 2648000   0.36878433   -2.5599998   0.55262331   -2.0073765   0.12856739    11607.706     1000 
 2650000   0.38600214    -2.600562    0.5784242   -2.0221378   0.12697887    11694.146     1000 
 2652000   0.37163921   -2.5758912   0.55690136   -2.0189898   0.13732793    11559.936     1000 
 2654000   0.37873283   -2.5740616   0.56753114   -2.0065305   0.12179726    11643.356     1000 
 2656000    0.3816308    -2.611606   0.57187376   -2.0397322   0.12065545    11732.413     1000 
 2658000   0.38088864   -2.6174713   0.57076162   -2.0467097   0.14099086     11536.12     1000 
 2660000   0.37949293   -2.5812896   0.56867015   -2.0126195   0.12552594    11697.965     1000 
 2662000   0.38989047   -2.6335138   0.58425087   -2.0492629   0.12228877    11682.465     1000 
 2664000   0.39363345   -2.5834555   0.58985972   -1.9935958    0.1426748    11608.447     1000 
 2666000   0.39116083    -2.603199   0.58615451   -2.0170445   0.13107976     11621.92     1000 
 2668000   0.39345304   -2.6235186   0.58958937   -2.0339292   0.13541536    11667.264     1000 
 2670000   0.37484725   -2.5707791    0.5617086   -2.0090705   0.12849298    11610.048     1000 
 2672000   0.38943473   -2.5753271   0.58356795   -1.9917592   0.12542411    11582.387     1000 
 2674000   0.38788734   -2.5965029   0.58124917   -2.0152537   0.11843937    11696.969     1000 
 2676000   0.37299623   -2.6168152   0.55893485   -2.0578803   0.12274196     11674.11     1000 
 2678000   0.37987596   -2.5792111   0.56924412    -2.009967   0.13514766    11526.223     1000 
 2680000    0.3710949   -2.6030068    0.5560857   -2.0469211   0.14020821    11546.834     1000 
 2682000   0.36562432   -2.5932374   0.54788805   -2.0453494   0.11776631    11700.697     1000 
 2684000   0.38001156   -2.6035133   0.56944732    -2.034066   0.12804137    11552.399     1000 
 2686000   0.38377029   -2.6202239   0.57507978   -2.0451441   0.13219743    11541.798     1000 
 2688000   0.37720652   -2.5855925   0.56524397   -2.0203485   0.12828522    11583.428     1000 
 2690000   0.37495582   -2.5965685   0.56187129   -2.0346972   0.14417161    11599.659     1000 
 2692000   0.39590043   -2.6176867   0.59325679   -2.0244299   0.13474896    11684.077     1000 
 2694000   0.38470102   -2.5963649   0.57647448   -2.0198904   0.12780916    11667.241     1000 
 2696000   0.37322279   -2.6019787   0.55927435   -2.0427043   0.12993355    11656.117     1000 
 2698000   0.37106404   -2.6161765   0.55603946   -2.0601371   0.13604669    11605.398     1000 
 2700000   0.37832263   -2.6356535   0.56691646    -2.068737   0.12018871    11721.583     1000 
 2702000   0.37640367   -2.5735777   0.56404089   -2.0095368   0.14389035    11431.919     1000 
 2704000   0.38461759   -2.6295123   0.57634946   -2.0531628   0.12323404    11752.729     1000 
 2706000   0.38247066   -2.6273593   0.57313229   -2.0542271   0.13152732    11604.351     1000 
 2708000   0.38085906   -2.5845005    0.5707173   -2.0137832   0.14562103    11510.708     1000 
 2710000   0.38579378   -2.5836477   0.57811198   -2.0055357   0.12659492    11592.573     1000 
 2712000   0.36342156   -2.5829032   0.54458721    -2.038316    0.1349088    11530.507     1000 
 2714000   0.36314034   -2.5963881    0.5441658   -2.0522223   0.13439561    11562.259     1000 
 2716000   0.37479676   -2.6327295   0.56163295   -2.0710965    0.1237653    11711.987     1000 
 2718000   0.36863918   -2.6235863   0.55240582   -2.0711805    0.1325457    11638.721     1000 
 2720000   0.37634274   -2.6087657   0.56394959   -2.0448161   0.13549042    11613.729     1000 
 2722000   0.38332093   -2.6153478   0.57440641   -2.0409414   0.13547816    11585.291     1000 
 2724000   0.37872915     -2.59399   0.56752564   -2.0264643   0.12677272    11602.512     1000 
 2726000   0.37440958   -2.6196973   0.56105276   -2.0586446   0.12865383    11659.997     1000 
 2728000    0.3772857     -2.59112   0.56536262   -2.0257574    0.1402077     11616.99     1000 
 2730000   0.36295166   -2.5832997   0.54388307   -2.0394167   0.12101055    11723.612     1000 
 2732000   0.38055423   -2.5969723   0.57026052   -2.0267118   0.12502301    11685.727     1000 
 2734000   0.38512673   -2.5968251    0.5771124   -2.0197127   0.13455462    11574.519     1000 
 2736000   0.37608039   -2.5858785   0.56355647   -2.0223221   0.13538885    11646.092     1000 
 2738000   0.38364758   -2.6029235    0.5748959   -2.0280276   0.13388763    11556.576     1000 
 2740000   0.37466296   -2.5554189   0.56143244   -1.9939865   0.12871122    11600.473     1000 
 2742000   0.37489478   -2.6185128   0.56177983    -2.056733   0.12908838    11606.973     1000 
 2744000    0.3871006   -2.5999509   0.58007025   -2.0198807    0.1261876    11593.894     1000 
 2746000   0.37654641   -2.5994432    0.5642548   -2.0351884   0.13487127    11581.415     1000 
 2748000   0.38166196   -2.5963958   0.57192044   -2.0244754   0.13206234    11559.296     1000 
 2750000   0.35984229   -2.6030322   0.53922367   -2.0638085   0.13302821    11643.704     1000 
 2752000    0.3632226    -2.613022   0.54428907   -2.0687329   0.13228334    11565.287     1000 
 2754000   0.39512715   -2.5892542   0.59209804   -1.9971561    0.1476855    11548.306     1000 
 2756000   0.37628433   -2.5921117   0.56386207   -2.0282496   0.12198266    11627.158     1000 
 2758000   0.38714434    -2.611497   0.58013579   -2.0313612   0.13196312    11638.444     1000 
 2760000   0.37183249   -2.6224578   0.55719098   -2.0652668    0.1299887    11739.461     1000 
 2762000   0.38694081   -2.5300948   0.57983081    -1.950264   0.12514965    11679.301     1000 
 2764000   0.38136612   -2.5915961   0.57147713   -2.0201189   0.13341024    11630.187     1000 
 2766000   0.37487704   -2.6398588   0.56175325   -2.0781056   0.12345593    11675.062     1000 
 2768000   0.38156626   -2.6216302   0.57177705   -2.0498531   0.12094641    11608.708     1000 
 2770000   0.36469041   -2.6492181   0.54648859   -2.1027295   0.11797583    11780.193     1000 
 2772000    0.3795245    -2.639497   0.56871746   -2.0707796   0.13970297    11553.423     1000 
 2774000   0.38818141   -2.6252443   0.58168985   -2.0435544   0.12519541    11695.635     1000 
 2776000   0.39045553   -2.5875079   0.58509761   -2.0024103   0.14054602    11453.573     1000 
 2778000   0.38221483   -2.6186805   0.57274892   -2.0459316   0.14164163    11581.116     1000 
 2780000   0.37067087    -2.599059    0.5554503   -2.0436087   0.12583675    11655.462     1000 
 2782000   0.39426825    -2.558627   0.59081097    -1.967816   0.13312604    11618.171     1000 
 2784000   0.39139047   -2.5806519   0.58649863   -1.9941533   0.14168659    11546.605     1000 
 2786000   0.36418223   -2.6217079   0.54572708   -2.0759808   0.12993205    11551.837     1000 
 2788000   0.38904574    -2.611683   0.58298505   -2.0286979    0.1246635    11654.047     1000 
 2790000   0.37021183   -2.6223799   0.55476243   -2.0676175   0.12520093    11619.279     1000 
 2792000   0.37252425    -2.614283   0.55822759   -2.0560554   0.12952446     11714.81     1000 
 2794000   0.38315165   -2.5810588   0.57415275   -2.0069061   0.12831301    11614.767     1000 
 2796000   0.36549311   -2.5646615   0.54769142   -2.0169701   0.12350391    11616.969     1000 
 2798000    0.3638022   -2.5293097   0.54515759   -1.9841521    0.1439857    11476.834     1000 
 2800000   0.38066257   -2.6128018   0.57042287   -2.0423789   0.13629386    11539.515     1000 
 2802000   0.37580174   -2.5771268    0.5631389   -2.0139879    0.1146108     11711.84     1000 
 2804000   0.37927195   -2.6012798   0.56833901   -2.0329408   0.14051691    11583.408     1000 
 2806000   0.36785778    -2.624186   0.55123488   -2.0729511   0.12494948    11573.568     1000 
 2808000   0.36596402   -2.6128312   0.54839709   -2.0644341   0.12972415    11571.542     1000 
 2810000   0.37674605   -2.5918572   0.56455395   -2.0273032   0.12738476    11676.624     1000 
 2812000    0.3822729   -2.6110842   0.57283594   -2.0382483   0.13198277    11688.057     1000 
 2814000   0.38207155   -2.5758649   0.57253422   -2.0033307   0.12888562    11638.642     1000 
 2816000   0.38596769   -2.5963971   0.57837259   -2.0180245   0.12687773    11707.394     1000 
 2818000   0.37807318    -2.625601   0.56654266   -2.0590583   0.13348749    11570.084     1000 
 2820000   0.37347739   -2.5965102   0.55965588   -2.0368543   0.12756031    11650.202     1000 
 2822000   0.36751729   -2.6322371   0.55072465   -2.0815124    0.1131937     11767.29     1000 
 2824000   0.37384838   -2.5873471   0.56021179   -2.0271353   0.12356245    11674.423     1000 
 2826000   0.37324376    -2.581985   0.55930578   -2.0226792   0.13715827    11542.211     1000 
 2828000   0.36667928   -2.5683257   0.54946891   -2.0188567   0.13153996    11663.958     1000 
 2830000   0.37206626   -2.6373796   0.55754129   -2.0798383   0.11618912    11672.935     1000 
 2832000   0.38917915   -2.5889836   0.58318496   -2.0057987   0.13114225     11650.83     1000 
 2834000   0.37371008   -2.5742836   0.56000455   -2.0142791   0.13982132    11633.323     1000 
 2836000   0.38779476   -2.6087627   0.58111044   -2.0276523   0.12292649    11660.425     1000 
 2838000   0.39793418   -2.6264939   0.59630437   -2.0301895     0.139798    11554.108     1000 
 2840000   0.38352737   -2.6067249   0.57471576   -2.0320092   0.14482346    11503.428     1000 
 2842000   0.38252842   -2.5850004   0.57321884   -2.0117816   0.13495855    11570.332     1000 
 2844000   0.38118726   -2.6458837    0.5712091   -2.0746746   0.13351001    11672.736     1000 
 2846000    0.3772775   -2.5550127   0.56535033   -1.9896623   0.13886092    11605.405     1000 
 2848000   0.39179969   -2.5949159   0.58711184    -2.007804   0.13838531    11654.919     1000 
 2850000   0.36274755   -2.5433878    0.5435772   -1.9998106   0.12848115    11545.681     1000 
 2852000   0.38012296   -2.5871205   0.56961425   -2.0175062   0.13954473    11505.104     1000 
 2854000   0.37651006   -2.5953303   0.56420032   -2.0311299   0.14435364    11496.093     1000 
 2856000   0.38116132   -2.6151082   0.57117024    -2.043938   0.13345516    11575.684     1000 
 2858000   0.37988892   -2.5897075   0.56926354   -2.0204439   0.14159023    11618.448     1000 
 2860000   0.37596606   -2.6051199   0.56338514   -2.0417348   0.13807926    11594.091     1000 
 2862000   0.37679022   -2.5832612   0.56462014    -2.018641   0.11463248    11710.122     1000 
 2864000   0.37839907   -2.5970191     0.567031   -2.0299881   0.12493362    11773.195     1000 
 2866000   0.38457504   -2.6097391    0.5762857   -2.0334534   0.12375473    11657.401     1000 
 2868000    0.3936755   -2.6116564   0.58992274   -2.0217337   0.13840951    11577.496     1000 
 2870000   0.38894184   -2.6241093   0.58282935     -2.04128    0.1326603    11574.024     1000 
 2872000    0.3787967   -2.6254226   0.56762685   -2.0577957   0.12820609    11618.118     1000 
 2874000    0.4000508   -2.5964151   0.59947612    -1.996939   0.13499025    11595.689     1000 
 2876000   0.36364519   -2.6223827   0.54492231   -2.0774604   0.12157814    11653.618     1000 
 2878000    0.3792856   -2.5776303   0.56835947   -2.0092708   0.12846375    11682.194     1000 
 2880000   0.37271779   -2.6016886   0.55851762    -2.043171   0.14153738    11611.817     1000 
 2882000   0.37076993   -2.6333713   0.55559875   -2.0777725   0.12519973    11716.006     1000 
 2884000   0.37965587   -2.6001665   0.56891433   -2.0312521    0.1342054     11616.49     1000 
 2886000   0.36506514   -2.6248618   0.54705012   -2.0778117   0.12557961    11705.717     1000 
 2888000   0.37713399   -2.6036677   0.56513529   -2.0385324   0.14297679    11516.658     1000 
 2890000   0.38974785   -2.6173023   0.58403715   -2.0332651   0.13046321    11615.428     1000 
 2892000    0.3724312   -2.6264821   0.55808816   -2.0683939   0.12609999    11657.833     1000 
 2894000    0.3957973   -2.6002352   0.59310225    -2.007133   0.13227099    11598.565     1000 
 2896000   0.38170475   -2.5996246   0.57198457   -2.0276401   0.13637289    11564.514     1000 
 2898000   0.38647017   -2.5799917   0.57912556   -2.0008661   0.12839469     11567.23     1000 
 2900000   0.38835946   -2.6467576   0.58195665    -2.064801   0.12178826    11696.751     1000 
 2902000   0.38250217   -2.6041667    0.5731795   -2.0309872   0.12732599    11541.831     1000 
 2904000   0.38811766   -2.5865836   0.58159431   -2.0049893   0.12814284    11568.867     1000 
 2906000   0.38324379    -2.600116   0.57429082   -2.0258252   0.12895814    11709.057     1000 
 2908000   0.36072136   -2.5784489   0.54054095    -2.037908    0.1303245    11583.966     1000 
 2910000   0.37913201   -2.6183956   0.56812932   -2.0502663   0.11989237    11658.744     1000 
 2912000   0.37966034    -2.544151   0.56892102     -1.97523   0.12864933    11517.929     1000 
 2914000   0.37362488   -2.6087034   0.55987688   -2.0488265   0.13336066    11568.978     1000 
 2916000   0.37492114   -2.5772558   0.56181933   -2.0154365   0.12785715    11631.615     1000 
 2918000   0.37899776   -2.6105387   0.56792814   -2.0426105   0.13346125    11613.394     1000 
 2920000   0.37600502   -2.6057753   0.56344352   -2.0423318   0.13730627     11528.17     1000 
 2922000   0.38011821   -2.6161519   0.56960713   -2.0465448     0.131935    11492.305     1000 
 2924000   0.37964615    -2.611003   0.56889976   -2.0421032   0.13529068    11548.502     1000 
 2926000   0.36108104   -2.5820627   0.54107994   -2.0409828   0.12640675    11528.092     1000 
 2928000   0.38431388   -2.5750335   0.57589435   -1.9991391    0.1439182    11526.589     1000 
 2930000   0.37866069   -2.5659458   0.56742304   -1.9985228   0.12969752    11573.608     1000 
 2932000   0.36975698   -2.6044691   0.55408083   -2.0503883   0.11317531    11737.674     1000 
 2934000   0.38637385   -2.6301465   0.57898122   -2.0511652   0.12410482    11683.736     1000 
 2936000   0.37449331    -2.528083   0.56117823   -1.9669048   0.13526475    11592.195     1000 
 2938000   0.37664314   -2.5640967   0.56439974    -1.999697   0.11627762    11725.376     1000 
 2940000   0.38839912   -2.5570653   0.58201609   -1.9750492   0.13456483     11545.62     1000 
 2942000   0.38377945   -2.5744161    0.5750935   -1.9993226   0.12995597     11597.15     1000 
 2944000   0.38084333   -2.6049104   0.57069373   -2.0342167   0.12129784    11677.572     1000 
 2946000   0.38998077   -2.6027554   0.58438618   -2.0183692   0.14894161    11375.477     1000 
 2948000   0.36453814   -2.6051717   0.54626041   -2.0589113   0.13045183    11658.296     1000 
 2950000   0.39445548   -2.5847943   0.59109153   -1.9937027   0.13441287    11563.324     1000 
 2952000   0.37596451   -2.5985197   0.56338282   -2.0351369   0.13174508    11546.642     1000 
 2954000   0.37603613   -2.5756476   0.56349014   -2.0121575   0.11904765    11594.469     1000 
 2956000   0.38001783   -2.5885863   0.56945672   -2.0191296   0.13148012    11516.658     1000 
 2958000   0.38522476    -2.589911   0.57725931   -2.0126517   0.12902081    11675.262     1000 
 2960000   0.39009491   -2.5837034   0.58455723   -1.9991462   0.12809238    11690.399     1000 
 2962000   0.37887533   -2.5412044   0.56774469   -1.9734598   0.12964431    11642.415     1000 
 2964000   0.39178473   -2.5942777   0.58708942   -2.0071882   0.12465563    11628.548     1000 
 2966000    0.3813218   -2.6049197   0.57141071    -2.033509   0.12882386    11599.529     1000 
 2968000   0.37617693   -2.5752581   0.56370113    -2.011557   0.12460186    11616.609     1000 
 2970000    0.3650566   -2.6186707   0.54703731   -2.0716334   0.12684104    11588.888     1000 
 2972000   0.39061016   -2.6408629   0.58532933   -2.0555336   0.14217632    11580.619     1000 
 2974000   0.39025691   -2.6228371   0.58479998   -2.0380371   0.12585073    11689.528     1000 
 2976000   0.38478471   -2.5811188   0.57659989   -2.0045189   0.13523415    11584.121     1000 
 2978000   0.36768839   -2.6001585   0.55098105   -2.0491774   0.12467544    11652.398     1000 
 2980000   0.38229828    -2.583542   0.57287397    -2.010668   0.12362132    11697.229     1000 
 2982000   0.37407594   -2.5583783   0.56055279   -1.9978255   0.12883518    11502.951     1000 
 2984000   0.38200315   -2.5744435   0.57243172   -2.0020118   0.13613418    11597.641     1000 
 2986000    0.3741177   -2.6168616   0.56061537   -2.0562462   0.12818107    11654.254     1000 
 2988000   0.37591221   -2.5815841   0.56330444   -2.0182796   0.11712523    11708.882     1000 
 2990000   0.40683633   -2.5833131   0.60964424   -1.9736689   0.12213506    11661.472     1000 
 2992000   0.37612302   -2.5884001   0.56362035   -2.0247797   0.13355202     11577.73     1000 
 2994000   0.37984401   -2.6239393   0.56919625    -2.054743   0.11639752    11585.297     1000 
 2996000   0.38327013    -2.563626   0.57433029   -1.9892958   0.13219669    11655.048     1000 
 2998000   0.37947784   -2.5930512   0.56864754   -2.0244036   0.12682303    11622.749     1000 
 3000000   0.37326355   -2.5629445   0.55933543    -2.003609   0.13257631    11577.538     1000 
Loop time of 1077.07 on 4 procs for 3000000 steps with 1000 atoms

Performance: 1203263.489 tau/day, 2785.332 timesteps/s
95.2% CPU use with 4 MPI tasks x no OpenMP threads

MPI task timing breakdown:
Section |  min time  |  avg time  |  max time  |%varavg| %total
---------------------------------------------------------------
Pair    | 793.26     | 796.31     | 802.17     |  12.2 | 73.93
Neigh   | 74.907     | 75.281     | 75.703     |   3.3 |  6.99
Comm    | 147.97     | 153.66     | 157.19     |  27.7 | 14.27
Output  | 0.023949   | 0.026605   | 0.034317   |   2.7 |  0.00
Modify  | 45.053     | 45.12      | 45.206     |   0.9 |  4.19
Other   |            | 6.667      |            |       |  0.62

Nlocal:    250 ave 257 max 242 min
Histogram: 1 0 0 0 1 0 0 1 0 1
Nghost:    1691 ave 1700 max 1681 min
Histogram: 1 0 0 1 0 0 0 1 0 1
Neighs:    14237.5 ave 14624 max 13536 min
Histogram: 1 0 0 0 0 0 0 1 1 1

Total # of neighbors = 56950
Ave neighs/atom = 56.95
Neighbor list builds = 150000
Dangerous builds not checked

Total wall time: 0:17:57
