LAMMPS (29 Sep 2021 - Update 2)
OMP_NUM_THREADS environment is not set. Defaulting to 1 thread. (src/comm.cpp:98)
  using 1 OpenMP thread(s) per MPI task
# ----------------------- Inicialização -----------------------

units			lj
atom_style 		atomic
dimension 		3
boundary 		p p p

# -------------------- Criação dos Átomos ---------------------

read_data 		topologia.txt
Reading data file ...
  orthogonal box = (0.0000000 0.0000000 0.0000000) to (21.540000 21.540000 21.540000)
  1 by 1 by 1 MPI processor grid
  reading atoms ...
  1000 atoms
  read_data CPU = 0.002 seconds

velocity 		all create ${temp} 87287 rot yes dist gaussian
velocity 		all create 0.64 87287 rot yes dist gaussian

# ------------------ Interação Interatômica -------------------

pair_style		table linear 2000
pair_coeff		1 1 force.table AA 10.0
WARNING: 3 of 2000 force values in table AA are inconsistent with -dE/dr.
WARNING:  Should only be flagged at inflection points (src/pair_table.cpp:465)
pair_coeff		1 2 force.table AB 10.0
WARNING: 1 of 2000 force values in table AB are inconsistent with -dE/dr.
WARNING:  Should only be flagged at inflection points (src/pair_table.cpp:465)
pair_coeff		2 2 force.table BB 10.0
pair_write		1 1 2000 r 0.008 10.0 table.check AA
Appending to table file table.check with DATE: 2023-07-15
Neighbor list info ...
  update every 1 steps, delay 10 steps, check yes
  max neighbors/atom: 2000, page size: 100000
  master list distance cutoff = 10.3
  ghost atom cutoff = 10.3
  binsize = 5.15, bins = 5 5 5
  1 neighbor lists, perpetual/occasional/extra = 1 0 0
  (1) pair table, perpetual
      attributes: half, newton on
      pair build: half/bin/atomonly/newton
      stencil: half/bin/3d
      bin: standard
pair_write		1 2 2000 r 0.008 10.0 table.check AB
Appending to table file table.check with DATE: 2023-07-15
pair_write		2 2 2000 r 0.008 10.0 table.check BB
Appending to table file table.check with DATE: 2023-07-15

neighbor 		0.3 bin
neigh_modify		every 20 delay 0 check no

# ------------------------- Ensemble --------------------------------------

fix 1			all npt temp ${temp} ${temp} 0.5 iso ${press} ${press} 5
fix 1			all npt temp 0.64 ${temp} 0.5 iso ${press} ${press} 5
fix 1			all npt temp 0.64 0.64 0.5 iso ${press} ${press} 5
fix 1			all npt temp 0.64 0.64 0.5 iso 0.13 ${press} 5
fix 1			all npt temp 0.64 0.64 0.5 iso 0.13 0.13 5

# ---------------------- Função de Distribuição Radial -----------------------

#compute RDF 		all rdf 2000 1 1 1 2 2 2
#fix 2 			all ave/time 1 2000 2000 c_RDF[*] file rdf.data mode vector

# ------------------------- Execução ---------------------------

timestep 		0.005
thermo_style		custom step temp pe ke etotal press vol atoms
thermo			2000
run			3000000
Per MPI rank memory allocation (min/avg/max) = 3.614 | 3.614 | 3.614 Mbytes
Step Temp PotEng KinEng TotEng Press Volume Atoms 
       0         0.64    1.4404838      0.95904    2.3995238    1.6603506    9993.9483     1000 
    2000   0.66617458   -2.2386418   0.99826261   -1.2403792   0.13348996    11268.274     1000 
    4000   0.64126034   -2.3033676   0.96092862    -1.342439   0.12352941    11192.345     1000 
    6000   0.64770198   -2.3059174   0.97058142    -1.335336   0.12092786    11139.912     1000 
    8000   0.63772633   -2.2893887    0.9556329   -1.3337558   0.12620126     11240.24     1000 
   10000   0.63569562   -2.2615547   0.95258989   -1.3089648   0.13525016    10863.988     1000 
   12000    0.6378599   -2.2965322   0.95583306   -1.3406991   0.11151708    11108.132     1000 
   14000   0.66782635   -2.3103886    1.0007378   -1.3096508   0.12885327    11226.052     1000 
   16000   0.65286369   -2.2993369   0.97831624   -1.3210207   0.11805737    11207.042     1000 
   18000   0.61984675   -2.2778624   0.92884035   -1.3490221   0.13418512    10978.127     1000 
   20000   0.66266386   -2.2995238    0.9930018    -1.306522   0.12611717    11282.124     1000 
   22000   0.63260928    -2.283303   0.94796501    -1.335338   0.14223476    11081.991     1000 
   24000   0.66662483   -2.2749735    0.9989373   -1.2760362   0.11318737    11242.245     1000 
   26000   0.64370493   -2.2806778   0.96459183    -1.316086   0.14288705    10941.958     1000 
   28000   0.68175466   -2.3128616    1.0216094   -1.2912522   0.15646974     10928.42     1000 
   30000   0.62831845   -2.2444413    0.9415352   -1.3029061   0.11367301    11077.025     1000 
   32000    0.6395791   -2.2155266   0.95840928   -1.2571173   0.12629647     10960.63     1000 
   34000   0.62903612   -2.2861533   0.94261062   -1.3435427   0.12934746     11090.68     1000 
   36000   0.62491709   -2.2790699   0.93643826   -1.3426316   0.13849243     11029.85     1000 
   38000   0.65122462   -2.2864263    0.9758601   -1.3105662   0.12088356    11249.503     1000 
   40000    0.6317378   -2.3156917   0.94665909   -1.3690326   0.10324069    11213.157     1000 
   42000   0.60758844   -2.2824146   0.91047128   -1.3719433   0.12031328    11141.835     1000 
   44000   0.64554548   -2.3039931    0.9673499   -1.3366432   0.11980874    11097.011     1000 
   46000   0.63046492    -2.309605   0.94475168   -1.3648533    0.1415098    10953.046     1000 
   48000   0.63409439    -2.328146   0.95019044   -1.3779555   0.12998105    11192.312     1000 
   50000   0.65643259   -2.3274573   0.98366423   -1.3437931   0.11840202    11117.889     1000 
   52000   0.65460698   -2.3086625   0.98092856    -1.327734   0.13686253    11167.793     1000 
   54000   0.63387011   -2.2789058   0.94985436   -1.3290514   0.14770163    10955.268     1000 
   56000   0.65862864   -2.2702571   0.98695502   -1.2833021    0.1213638    11003.825     1000 
   58000   0.65134064   -2.3029918   0.97603395   -1.3269578   0.12654793    11231.986     1000 
   60000   0.62704682   -2.2850075   0.93962967   -1.3453778   0.11699233    11161.316     1000 
   62000   0.60949879   -2.2721048   0.91333393   -1.3587709   0.12218168    11207.852     1000 
   64000   0.62665449   -2.3125595   0.93904175   -1.3735177    0.1290103    11003.373     1000 
   66000   0.64062937   -2.3017102   0.95998311    -1.341727   0.13461593    10977.271     1000 
   68000   0.66803284   -2.2707872    1.0010472     -1.26974   0.13504619    11058.458     1000 
   70000   0.64739425   -2.2977423   0.97012028    -1.327622    0.1336482    11069.174     1000 
   72000     0.637316   -2.2929243   0.95501802   -1.3379063   0.12265354    11007.598     1000 
   74000   0.67506672   -2.2645522    1.0115875   -1.2529647   0.14408171     10975.19     1000 
   76000    0.6250759   -2.2528965   0.93667624   -1.3162202   0.11674778    11161.149     1000 
   78000   0.63714637   -2.2682654   0.95476383   -1.3135016   0.11886911    10925.233     1000 
   80000   0.60669272   -2.3259076   0.90912905   -1.4167786   0.12760941    11055.397     1000 
   82000   0.68415531   -2.2879561    1.0252067   -1.2627494   0.14142865     11168.17     1000 
   84000   0.63382783   -2.3124346     0.949791   -1.3626436   0.13057719    11183.852     1000 
   86000   0.62925207   -2.2959051   0.94293423   -1.3529709   0.13009095    11050.666     1000 
   88000   0.62918312   -2.2411084   0.94283091   -1.2982775   0.13084386    11198.167     1000 
   90000   0.63978708   -2.2377181   0.95872094   -1.2789972   0.14940382    10857.459     1000 
   92000   0.64277139   -2.3347685   0.96319292   -1.3715756   0.14236664    11064.251     1000 
   94000   0.64340752   -2.3237408   0.96414616   -1.3595946    0.1173953    11306.244     1000 
   96000   0.63036536   -2.2478352   0.94460249   -1.3032327   0.12217858    11061.249     1000 
   98000   0.64203273   -2.2779635   0.96208605   -1.3158775    0.1294143    11059.469     1000 
  100000   0.60921273   -2.1900915   0.91290528   -1.2771862   0.11756731    11104.328     1000 
  102000   0.66573533   -2.2758768   0.99760439   -1.2782725   0.13370336    11112.756     1000 
  104000   0.65360529   -2.3070223   0.97942753   -1.3275948   0.12704657    11057.806     1000 
  106000   0.64436492   -2.2730533   0.96558083   -1.3074724   0.12472291    11221.644     1000 
  108000   0.64694947   -2.2287397   0.96945377   -1.2592859   0.13326806    11060.739     1000 
  110000   0.64639349   -2.2664122   0.96862065   -1.2977915   0.13027259    10895.286     1000 
  112000    0.6100808   -2.2706501   0.91420608    -1.356444   0.11416705    11046.591     1000 
  114000   0.62688642   -2.2561821    0.9393893   -1.3167928   0.12708378    11106.509     1000 
  116000   0.60909073   -2.2751072   0.91272247   -1.3623848   0.12917481    10968.292     1000 
  118000   0.63549127   -2.2360004   0.95228367   -1.2837167   0.13880381    10929.581     1000 
  120000    0.6310089   -2.2940141   0.94556684   -1.3484473   0.13901832     11113.18     1000 
  122000   0.62930226   -2.2804992   0.94300944   -1.3374898   0.13639526    11076.572     1000 
  124000   0.62350309   -2.2799827   0.93431938   -1.3456634   0.13900219    11001.201     1000 
  126000   0.62848616   -2.2797558   0.94178651   -1.3379693   0.12428841    10980.648     1000 
  128000   0.66246316   -2.2720493   0.99270105   -1.2793482    0.1237681    11121.153     1000 
  130000   0.62125508   -2.2948677   0.93095073    -1.363917   0.13833269    11180.523     1000 
  132000   0.65042527   -2.2501534   0.97466226   -1.2754911   0.14243744    10940.683     1000 
  134000    0.6349625   -2.2294774    0.9514913   -1.2779861   0.14233358    10895.787     1000 
  136000   0.66671233   -2.2407376   0.99906842   -1.2416692   0.13431912    11121.284     1000 
  138000    0.6329677   -2.3088985    0.9485021   -1.3603964   0.12384977    10978.032     1000 
  140000     0.631169   -2.2232436   0.94580675   -1.2774369   0.12706569    11057.531     1000 
  142000   0.62981636   -2.2620808   0.94377981    -1.318301   0.14183185    10946.822     1000 
  144000   0.64531543   -2.2584015   0.96700517   -1.2913963   0.12364155    11113.662     1000 
  146000   0.62712362   -2.2929778   0.93974475    -1.353233   0.12690893    11073.619     1000 
  148000   0.66545503   -2.2742077   0.99718436   -1.2770234   0.13342361    11332.073     1000 
  150000   0.63228819   -2.2661694   0.94748386   -1.3186855   0.13555718    11064.088     1000 
  152000   0.62094727   -2.2634445   0.93048949    -1.332955    0.1264285    11020.123     1000 
  154000   0.63712706   -2.2571752    0.9547349   -1.3024403     0.108511    11315.071     1000 
  156000   0.62520285   -2.3066672   0.93686647   -1.3698008   0.12655561    11051.591     1000 
  158000   0.66292099    -2.248426    0.9933871   -1.2550389   0.14974442    10915.705     1000 
  160000   0.61773636   -2.2687428   0.92567794   -1.3430649   0.12179227    11100.724     1000 
  162000   0.66429752   -2.3112643   0.99544983   -1.3158144   0.12904083    11013.546     1000 
  164000   0.61922444   -2.2833765   0.92790783   -1.3554686   0.12147831    11117.922     1000 
  166000   0.63481163   -2.2770043   0.95126523    -1.325739   0.12130346    11010.715     1000 
  168000   0.66123369    -2.311507   0.99085869   -1.3206483   0.11382407    11275.356     1000 
  170000   0.65464715   -2.2828461   0.98098876   -1.3018573   0.14405468    11056.125     1000 
  172000   0.65484648   -2.2945804   0.98128744    -1.313293    0.1298128    11040.084     1000 
  174000   0.65503447   -2.2851469   0.98156915   -1.3035778     0.133847    11098.898     1000 
  176000   0.63741168   -2.2684131    0.9551614   -1.3132517   0.13618214    11206.823     1000 
  178000   0.61633696   -2.2431887   0.92358093   -1.3196078   0.12221414    10974.623     1000 
  180000   0.63603409   -2.3020519   0.95309709   -1.3489548    0.1092609    11256.671     1000 
  182000   0.65212527   -2.2471901   0.97720971   -1.2699804   0.15816714    10969.409     1000 
  184000   0.64239192   -2.2817199   0.96262429   -1.3190957   0.12902718    10831.094     1000 
  186000    0.6480685     -2.33867   0.97113065   -1.3675393   0.11833705    11105.927     1000 
  188000   0.62238921   -2.2663072   0.93265024    -1.333657   0.12570879    10979.559     1000 
  190000   0.64050637   -2.2613154    0.9597988   -1.3015166   0.13330763    11254.206     1000 
  192000   0.64082925   -2.2338989   0.96028262   -1.2736163   0.13817716    11029.219     1000 
  194000   0.62912789   -2.3055639   0.94274814   -1.3628157   0.14679922    10977.999     1000 
  196000   0.63479328   -2.2797908   0.95123773   -1.3285531   0.12683963    11101.841     1000 
  198000   0.71465664   -2.2895144     1.070913   -1.2186014   0.13689151    11055.003     1000 
  200000   0.66910918   -2.2617744    1.0026601   -1.2591143   0.12497935    10958.203     1000 
  202000    0.6384038   -2.3025851   0.95664809   -1.3459371   0.13384218    11089.729     1000 
  204000   0.64171471   -2.2956629   0.96160949   -1.3340535   0.12005077    11095.749     1000 
  206000   0.64247507   -2.3007712   0.96274889   -1.3380223   0.12826623    11236.375     1000 
  208000   0.62392213    -2.281968   0.93494731   -1.3470207   0.11772157    10978.429     1000 
  210000   0.63272293   -2.3158311   0.94813531   -1.3676958   0.14117625    11036.283     1000 
  212000   0.63280064   -2.2759824   0.94825176   -1.3277306     0.121667    10936.745     1000 
  214000   0.61604153   -2.3084949   0.92313824   -1.3853566   0.12047919    11263.776     1000 
  216000   0.60773967   -2.2613275   0.91069789   -1.3506296   0.12116392    11265.005     1000 
  218000   0.64509109   -2.2481361     0.966669   -1.2814671   0.13434673    11042.297     1000 
  220000   0.63857612   -2.3034864   0.95690632   -1.3465801   0.12227041     11005.15     1000 
  222000   0.62096526   -2.2513618   0.93051644   -1.3208454   0.12608031    11026.824     1000 
  224000   0.65535279   -2.2234801   0.98204616   -1.2414339   0.13242389    11022.521     1000 
  226000   0.64018482   -2.2262899   0.95931695   -1.2669729   0.13172462    11005.612     1000 
  228000   0.65998842   -2.3282489   0.98899264   -1.3392562   0.12954124    11206.978     1000 
  230000   0.63634771   -2.3211636   0.95356705   -1.3675966    0.1297205    11093.942     1000 
  232000   0.64475941   -2.2848957   0.96617198   -1.3187237   0.12219858     11089.78     1000 
  234000   0.65671097   -2.2540109   0.98408139   -1.2699295   0.12892859    11002.006     1000 
  236000   0.62420706   -2.3024208   0.93537428   -1.3670465   0.12226635    11106.698     1000 
  238000    0.6479234   -2.2510009   0.97091321   -1.2800877   0.12473073    11164.241     1000 
  240000     0.632549   -2.3182889   0.94787468   -1.3704142   0.13052934    11094.083     1000 
  242000   0.64239746   -2.2303835    0.9626326   -1.2677509   0.13089313    11106.566     1000 
  244000   0.62359804   -2.2548988   0.93446166   -1.3204372   0.11942664     11130.53     1000 
  246000   0.64431671   -2.2559095   0.96550859   -1.2904009   0.14620752    10878.881     1000 
  248000   0.61441303   -2.2881997   0.92069793   -1.3675017   0.12107776    11085.572     1000 
  250000   0.64935329   -2.2922265   0.97305591   -1.3191706   0.12201552    11137.296     1000 
  252000   0.64360115   -2.2940798   0.96443632   -1.3296435   0.13089627    11129.478     1000 
  254000   0.65952517   -2.3158772   0.98829847   -1.3275787   0.11924732    11245.421     1000 
  256000      0.64011   -2.3035225   0.95920483   -1.3443177   0.12981018    11122.522     1000 
  258000   0.66133783     -2.27625   0.99101473   -1.2852353   0.13183574    11048.255     1000 
  260000   0.63297375    -2.305816   0.94851116   -1.3573049   0.12383244    11163.348     1000 
  262000   0.67510133   -2.3125578    1.0116393   -1.3009185   0.12663624    11270.617     1000 
  264000   0.65063576   -2.2923416   0.97497768    -1.317364   0.11765572    11088.011     1000 
  266000   0.62523302    -2.290942   0.93691168   -1.3540304   0.13479031    11213.633     1000 
  268000   0.66019825   -2.2307476   0.98930708   -1.2414405   0.13620052    11068.006     1000 
  270000   0.64295109   -2.3199199   0.96346221   -1.3564577   0.13296895    11164.266     1000 
  272000   0.64199566   -2.2995878    0.9620305   -1.3375573   0.11303873    11297.161     1000 
  274000   0.64077653   -2.2831627   0.96020363   -1.3229591   0.15366275    10952.934     1000 
  276000   0.63242519   -2.2628064   0.94768915   -1.3151172   0.13161723    11096.179     1000 
  278000   0.62712307   -2.2980665   0.93974392   -1.3583226   0.12386613    11086.566     1000 
  280000   0.63198895    -2.289732   0.94703544   -1.3426966   0.13733456     10870.97     1000 
  282000   0.64690662   -2.2772815   0.96938957   -1.3078919   0.13696576    10953.665     1000 
  284000   0.63265434   -2.2564996   0.94803253   -1.3084671   0.11548743    11377.224     1000 
  286000   0.62260282   -2.3284154   0.93297032   -1.3954451   0.12455375    11039.059     1000 
  288000   0.64145522   -2.2432037   0.96122065   -1.2819831   0.13613672    10872.323     1000 
  290000   0.64913209   -2.3472439   0.97272444   -1.3745195   0.11738513    11337.379     1000 
  292000   0.64940544   -2.3021892   0.97313405   -1.3290552   0.13073983    11208.986     1000 
  294000   0.64454857   -2.3012562   0.96585604   -1.3354001   0.13163572    11137.468     1000 
  296000   0.62938188   -2.2711648   0.94312875   -1.3280361   0.12808843    11108.544     1000 
  298000   0.63906616   -2.2748372   0.95764064   -1.3171966   0.13573294    11087.153     1000 
  300000   0.61500485   -2.2657259   0.92158477   -1.3441411   0.12771179    11097.914     1000 
  302000   0.66236149   -2.3132415    0.9925487   -1.3206928   0.13216746    11084.963     1000 
  304000   0.64763998   -2.2563136   0.97048851   -1.2858251   0.11009414    11069.641     1000 
  306000   0.64508085   -2.2952231   0.96665365   -1.3285695   0.11704203    11148.379     1000 
  308000   0.63948725    -2.324043   0.95827164   -1.3657714   0.12912973    11188.087     1000 
  310000   0.62482844   -2.2748905   0.93630542    -1.338585   0.13491108    10984.197     1000 
  312000   0.64723595   -2.3080607   0.96988307   -1.3381776   0.13164593    11148.509     1000 
  314000   0.62288528   -2.2784508   0.93339359   -1.3450573   0.11053979     11200.69     1000 
  316000   0.65463897   -2.3673149    0.9809765   -1.3863384   0.11204929    11395.983     1000 
  318000   0.61715837   -2.3005181   0.92481182   -1.3757063   0.12666756    11075.393     1000 
  320000   0.64382378   -2.3204446   0.96476993   -1.3556746   0.11103252      11144.9     1000 
  322000   0.62117901   -2.2896382   0.93083675   -1.3588014   0.14364569    10993.414     1000 
  324000   0.63308897   -2.2988342   0.94868383   -1.3501504    0.1184257    11150.331     1000 
  326000   0.61882982    -2.298635   0.92731648   -1.3713185   0.14724818    10961.905     1000 
  328000   0.65245401   -2.3279037   0.97770233   -1.3502014   0.14275725    10989.806     1000 
  330000   0.63590563   -2.3362126   0.95290459    -1.383308   0.11611935    11246.247     1000 
  332000   0.64921204   -2.2576306   0.97284425   -1.2847864   0.12587115    10976.022     1000 
  334000   0.64927911   -2.2793839   0.97294475   -1.3064392   0.12451454    11263.631     1000 
  336000   0.62973663    -2.311277   0.94366034   -1.3676167   0.12489582    11205.692     1000 
  338000   0.67683966   -2.2729733    1.0142442   -1.2587291   0.12991803    10933.989     1000 
  340000   0.63373621   -2.2834427   0.94965372    -1.333789   0.12633872    11036.284     1000 
  342000   0.64161888   -2.2973701   0.96146589   -1.3359042   0.13049571    11160.748     1000 
  344000   0.62908788   -2.3020328   0.94268819   -1.3593446   0.13638338    10947.187     1000 
  346000   0.63979661   -2.2446294   0.95873522   -1.2858942   0.12955086      11023.6     1000 
  348000   0.64334806   -2.2948832   0.96405707   -1.3308262   0.13077836    11074.909     1000 
  350000   0.64061434   -2.2504686   0.95996058    -1.290508   0.13381565    10992.246     1000 
  352000   0.63367652   -2.3172267   0.94956427   -1.3676625   0.13506209    11240.339     1000 
  354000   0.62049846   -2.3415756   0.92981694   -1.4117586   0.10821299    11303.328     1000 
  356000   0.66174075    -2.268513   0.99161851   -1.2768945   0.13040525     11181.55     1000 
  358000    0.6441855   -2.2519306   0.96531198   -1.2866186   0.12212701    11156.818     1000 
  360000   0.66771733    -2.262366    1.0005744   -1.2617916   0.14368323    11027.193     1000 
  362000   0.65526341   -2.2312717   0.98191222   -1.2493595   0.14046324    11117.814     1000 
  364000    0.6177654   -2.2824224   0.92572146    -1.356701   0.12884475    11138.938     1000 
  366000   0.62729204   -2.2521059   0.93999712   -1.3121088    0.1321423    11142.867     1000 
  368000   0.62656748   -2.2758748   0.93891136   -1.3369634   0.12215847    11195.051     1000 
  370000   0.67801675   -2.2982602    1.0160081   -1.2822521   0.12947229    11233.011     1000 
  372000   0.63015653   -2.2815596   0.94428956   -1.3372701   0.13357832    10886.663     1000 
  374000   0.68543739   -2.2350033    1.0271279   -1.2078754    0.1443058    10805.176     1000 
  376000   0.63346301   -2.2772318   0.94924432   -1.3279875   0.13662369    11009.317     1000 
  378000   0.67334007   -2.2566525    1.0090001   -1.2476525   0.13942568    11001.786     1000 
  380000   0.63107928   -2.3160234    0.9456723   -1.3703511   0.14428772    11082.243     1000 
  382000   0.65115631   -2.2902732   0.97575773   -1.3145155   0.13620491    11042.955     1000 
  384000   0.63662348   -2.2778703   0.95398028     -1.32389   0.12977402    11069.539     1000 
  386000   0.64046299   -2.3070401    0.9597338   -1.3473063   0.13622588     10953.24     1000 
  388000   0.62588492   -2.3222479   0.93788856   -1.3843594   0.13032853     10872.86     1000 
  390000   0.66815013    -2.234149     1.001223    -1.232926   0.13863777    11038.916     1000 
  392000    0.6382591   -2.3162654   0.95643126   -1.3598342   0.10182737    11393.851     1000 
  394000   0.64600413    -2.302282    0.9680372   -1.3342448   0.11823282    10996.514     1000 
  396000   0.66003671   -2.3191877   0.98906502   -1.3301227   0.12782687    11103.686     1000 
  398000   0.64741668   -2.2782638    0.9701539   -1.3081099   0.12628211    10987.106     1000 
  400000   0.62206007   -2.3008428   0.93215702   -1.3686858   0.14043579     10828.53     1000 
  402000   0.62570111   -2.2608821   0.93761311    -1.323269   0.13164963    10792.666     1000 
  404000   0.62394502   -2.2803855   0.93498161   -1.3454039   0.11019397    11119.589     1000 
  406000   0.66411706   -2.3066272   0.99517942   -1.3114477   0.12340942    11169.696     1000 
  408000   0.64773464   -2.3282517   0.97063036   -1.3576213   0.12381597    11123.087     1000 
  410000   0.63094919   -2.2847404   0.94547736   -1.3392631   0.13008245    11064.602     1000 
  412000   0.64173356   -2.3722971   0.96163774   -1.4106594   0.13162409    11106.748     1000 
  414000   0.66542933    -2.256332   0.99714585   -1.2591861   0.12179402    11000.523     1000 
  416000   0.64067031   -2.2785633   0.96004446   -1.3185188   0.13830018    10875.581     1000 
  418000    0.6377423   -2.2653485   0.95565684   -1.3096917   0.12099065    11202.862     1000 
  420000   0.61154551   -2.2652036   0.91640095   -1.3488026   0.14015406    10783.518     1000 
  422000   0.64039572   -2.3230489   0.95963299   -1.3634159   0.14275056    10941.027     1000 
  424000   0.63061201   -2.2517453    0.9449721   -1.3067732   0.13837981    10823.001     1000 
  426000   0.62761821   -2.2443855   0.94048588   -1.3038997   0.14225856     10952.14     1000 
  428000   0.65366638   -2.3397051   0.97951906    -1.360186    0.1267665    11232.636     1000 
  430000   0.63905624   -2.2998768   0.95762578    -1.342251   0.13682631    11098.957     1000 
  432000   0.66671985   -2.2633407    0.9990797    -1.264261   0.11775803    11269.847     1000 
  434000   0.64669986   -2.2685956   0.96907974   -1.2995159   0.12258488    11104.807     1000 
  436000   0.64407935   -2.3037734   0.96515291   -1.3386205   0.12303905    11142.403     1000 
  438000   0.64552237   -2.2948288   0.96731527   -1.3275136   0.14394892    10786.614     1000 
  440000   0.61955197   -2.3244614   0.92839862   -1.3960628   0.14110834     11098.01     1000 
  442000   0.62505423   -2.2829471   0.93664376   -1.3463033   0.13658586    11087.878     1000 
  444000   0.63292317   -2.3093545   0.94843537   -1.3609192   0.12133613     11205.46     1000 
  446000   0.64019893    -2.298035    0.9593381   -1.3386969   0.14236287    11020.854     1000 
  448000   0.63773179   -2.2638797   0.95564108   -1.3082386   0.12970199    10992.598     1000 
  450000   0.66026185   -2.3073855   0.98940239   -1.3179831   0.13643318    11151.209     1000 
  452000   0.64615282   -2.2368162      0.96826   -1.2685562   0.13475012     11062.14     1000 
  454000   0.63058665   -2.2734378   0.94493409   -1.3285037   0.13246778    11028.537     1000 
  456000    0.6356492    -2.333227   0.95252033   -1.3807067   0.13850146    10979.921     1000 
  458000   0.63592385   -2.3036765   0.95293189   -1.3507447   0.12066251    11167.258     1000 
  460000   0.65946138   -2.2930694   0.98820287   -1.3048665   0.14070491    11002.171     1000 
  462000   0.63516031   -2.2851687   0.95178773    -1.333381   0.15124089    10918.151     1000 
  464000   0.64537216   -2.2910907   0.96709019   -1.3240005   0.11304755    11212.144     1000 
  466000   0.63828421   -2.3352388   0.95646889   -1.3787699   0.12606921    11067.786     1000 
  468000   0.64645131   -2.2589482   0.96870729   -1.2902409   0.12609235    10903.101     1000 
  470000   0.62339881   -2.2691626   0.93416312   -1.3349995   0.15106273     10931.04     1000 
  472000   0.62852694   -2.3114514   0.94184762   -1.3696037   0.13493699    11034.837     1000 
  474000   0.64728871    -2.303659   0.96996213   -1.3336968   0.12021545    11093.275     1000 
  476000   0.64675339   -2.2568337   0.96915996   -1.2876738   0.13709645    10916.262     1000 
  478000   0.61217032   -2.2669182   0.91733723    -1.349581   0.13396504    10810.925     1000 
  480000   0.64298204    -2.350606   0.96350858   -1.3870974   0.13084089    11156.668     1000 
  482000   0.64658419   -2.2500277    0.9689064   -1.2811213   0.11893257    11218.885     1000 
  484000   0.65952916   -2.2210889   0.98830444   -1.2327844   0.13705636    10917.898     1000 
  486000   0.65563316    -2.313685    0.9824663   -1.3312187   0.13004813    11110.994     1000 
  488000   0.63662412   -2.2638541   0.95398125   -1.3098729   0.13519781    10833.574     1000 
  490000    0.6516708   -2.2850325    0.9765287   -1.3085038    0.1378381    11075.883     1000 
  492000    0.6311153   -2.2918004   0.94572627   -1.3460741    0.1195707     11114.37     1000 
  494000   0.62683821   -2.2653908   0.93931706   -1.3260737   0.13852035    10840.671     1000 
  496000    0.6286095   -2.2528927   0.94197133   -1.3109214   0.14839705    10905.136     1000 
  498000   0.65579601   -2.2659023   0.98271032    -1.283192   0.13109737    11175.024     1000 
  500000   0.63206398   -2.2963706   0.94714787   -1.3492227   0.12593072    11103.292     1000 
  502000     0.625245   -2.2838875   0.93692964   -1.3469578   0.14000269    11036.629     1000 
  504000   0.65636042   -2.3201645   0.98355609   -1.3366084   0.11586611    11063.907     1000 
  506000   0.62455497   -2.2771904   0.93589563   -1.3412948   0.13065057    11120.923     1000 
  508000   0.67139747   -2.2857239    1.0060891   -1.2796347   0.13007125    11350.446     1000 
  510000   0.65645697   -2.2684811   0.98370077   -1.2847803   0.14697795    10985.377     1000 
  512000   0.64553978   -2.2990622   0.96734136   -1.3317208    0.1242751    11041.877     1000 
  514000   0.61303359   -2.2820869   0.91863083   -1.3634561   0.11823214     11046.53     1000 
  516000   0.62268094   -2.2354323   0.93308738   -1.3023449   0.12577571    11064.957     1000 
  518000   0.66358178    -2.244727    0.9943773   -1.2503497   0.11665166    11101.825     1000 
  520000   0.65915006   -2.2708853   0.98773636    -1.283149   0.13549371     11003.41     1000 
  522000   0.63855586   -2.3259089   0.95687595    -1.369033   0.15708641    10837.352     1000 
  524000   0.65592031   -2.3285701   0.98289658   -1.3456736   0.12324179    10920.246     1000 
  526000   0.63111181   -2.2817025   0.94572104   -1.3359815   0.14352835    10991.734     1000 
  528000   0.64464745   -2.2459892    0.9660042    -1.279985    0.1411959    10934.255     1000 
  530000   0.63449179   -2.2799501   0.95078595   -1.3291642   0.13128473     10990.77     1000 
  532000   0.63623013   -2.3079188   0.95339085    -1.354528   0.13066243    11192.754     1000 
  534000   0.64311882   -2.2771378   0.96371356   -1.3134242   0.13738448    10901.342     1000 
  536000   0.64656475   -2.3278735   0.96887728   -1.3589962   0.13761958    11104.556     1000 
  538000   0.63524446   -2.3049043   0.95191383   -1.3529905   0.12515226    11100.216     1000 
  540000   0.60765172   -2.2853998   0.91056611   -1.3748337   0.12346377     11173.91     1000 
  542000   0.64753888   -2.3154769   0.97033701   -1.3451399   0.14323878    10941.188     1000 
  544000    0.6434293   -2.3316753   0.96417881   -1.3674965   0.13175684    11115.265     1000 
  546000   0.63777157   -2.2357842   0.95570069   -1.2800835   0.13073704     11121.36     1000 
  548000   0.63959793   -2.3211881   0.95843749   -1.3627506   0.13285036    11080.234     1000 
  550000   0.63786088   -2.2867128   0.95583453   -1.3308783   0.13132704    11104.324     1000 
  552000   0.60929436   -2.3302855    0.9130276   -1.4172579   0.12142681    11387.072     1000 
  554000   0.62031286   -2.2358079   0.92953883   -1.3062691   0.12552947    11017.385     1000 
  556000   0.64430002   -2.2803799   0.96548359   -1.3148963   0.12703134    11076.906     1000 
  558000   0.62422689   -2.2469323     0.935404   -1.3115283   0.12882186    10983.357     1000 
  560000   0.63988494   -2.2984901   0.95886759   -1.3396226   0.13225985    11065.213     1000 
  562000   0.63834568   -2.2564011     0.956561   -1.2998401   0.13165755    10907.891     1000 
  564000     0.638984   -2.3008898   0.95751753   -1.3433723   0.13963201    11036.986     1000 
  566000   0.64124803   -2.2975878   0.96091017   -1.3366776   0.12947118     10998.02     1000 
  568000   0.62652211   -2.2561607   0.93884338   -1.3173173   0.13465313    11013.281     1000 
  570000   0.66771354   -2.2798403    1.0005687   -1.2792716   0.15465442    11011.828     1000 
  572000   0.65027982    -2.289406    0.9744443   -1.3149617   0.12585273    11117.859     1000 
  574000    0.6476159   -2.3075798   0.97045242   -1.3371274   0.13236264    11006.112     1000 
  576000   0.65017746   -2.2649454   0.97429092   -1.2906545   0.12967835    11237.069     1000 
  578000   0.61826052   -2.2699194   0.92646338    -1.343456   0.11437217    11132.223     1000 
  580000   0.63324454   -2.2917838   0.94891695   -1.3428668   0.13045968    11170.342     1000 
  582000   0.65082025     -2.25244   0.97525415   -1.2771858    0.1406305    10827.837     1000 
  584000   0.64832979   -2.3336959   0.97152219   -1.3621737   0.13306423    11083.557     1000 
  586000   0.64850737   -2.3126104   0.97178829   -1.3408221   0.14538244    11049.998     1000 
  588000   0.63556525   -2.3015696   0.95239453   -1.3491751   0.11730182    11146.063     1000 
  590000   0.66026539   -2.2749825   0.98940769   -1.2855748   0.13431951    11088.623     1000 
  592000   0.64449499    -2.247887   0.96577575   -1.2821113   0.13173129    11081.481     1000 
  594000   0.63465365   -2.2813305   0.95102849    -1.330302   0.13796903    11220.366     1000 
  596000   0.63935778   -2.2729116   0.95807763   -1.3148339   0.12086182    11141.806     1000 
  598000   0.64235257   -2.2367418   0.96256533   -1.2741765   0.14217546    10899.857     1000 
  600000   0.64588644   -2.3163384   0.96786084   -1.3484775   0.12390805    11007.804     1000 
  602000   0.62542061   -2.2768178   0.93719279    -1.339625   0.12622723      10912.3     1000 
  604000   0.65790924   -2.2923885     0.985877   -1.3065115   0.14721739    10837.071     1000 
  606000   0.62492846   -2.2861191    0.9364553   -1.3496638   0.12404605    11067.243     1000 
  608000   0.65725165    -2.280541    0.9848916   -1.2956494   0.13101138    11178.953     1000 
  610000   0.64262093   -2.3049806   0.96296747   -1.3420131   0.14012602    11077.109     1000 
  612000   0.63287739   -2.2787387   0.94836677    -1.330372   0.11726676    11257.651     1000 
  614000   0.61042491   -2.2777121   0.91472173   -1.3629904   0.13216801    11326.915     1000 
  616000   0.62030934   -2.2639901   0.92953354   -1.3344565   0.14079599    11028.839     1000 
  618000   0.65388028   -2.3160358    0.9798396   -1.3361962   0.12790521    11306.776     1000 
  620000   0.66222447   -2.3137016   0.99234336   -1.3213582   0.12929075    11043.863     1000 
  622000   0.62239458   -2.2530468   0.93265827   -1.3203886   0.13724271     11076.31     1000 
  624000   0.63522762   -2.3090612   0.95188859   -1.3571726   0.13131515    11093.236     1000 
  626000   0.64494841   -2.2690278   0.96645519   -1.3025726   0.12900891    11035.038     1000 
  628000   0.63335501   -2.2364542   0.94908248   -1.2873718   0.12846622    11123.352     1000 
  630000   0.63566667   -2.2978841   0.95254651   -1.3453376   0.11072525    11236.189     1000 
  632000    0.6410209   -2.3028618   0.96056982    -1.342292   0.13707956    11079.289     1000 
  634000   0.65097356   -2.2453321   0.97548389   -1.2698482    0.1341615    11012.343     1000 
  636000   0.66096861   -2.3277431   0.99046146   -1.3372817   0.13531692    11126.372     1000 
  638000    0.6521094   -2.2967961   0.97718593   -1.3196102   0.13411317    11117.316     1000 
  640000   0.64425533   -2.2914462   0.96541661   -1.3260296   0.12160508    11103.926     1000 
  642000    0.6544279   -2.2804558    0.9806602   -1.2997956   0.12480196    11079.954     1000 
  644000   0.64639835   -2.2516195   0.96862793   -1.2829916   0.13956794    10975.575     1000 
  646000   0.66877333   -2.3253593    1.0021568   -1.3232025    0.1482303    11103.931     1000 
  648000   0.61229469   -2.3172026    0.9175236    -1.399679   0.11592236     11000.26     1000 
  650000   0.66050836    -2.247279   0.98977178   -1.2575072   0.12467119     10993.61     1000 
  652000   0.66123824   -2.2780683    0.9908655   -1.2872028   0.12103962    11107.266     1000 
  654000   0.61839767   -2.2732627   0.92666891   -1.3465938   0.13891765    10978.899     1000 
  656000   0.67626831   -2.2648307    1.0133881   -1.2514426   0.14156786      10937.4     1000 
  658000   0.62200557   -2.3252245   0.93207534   -1.3931492   0.13310438    10973.409     1000 
  660000    0.6298872   -2.2893347   0.94388597   -1.3454487   0.13490127    11125.546     1000 
  662000   0.63134313   -2.2536978   0.94606768   -1.3076301   0.11646935    11099.698     1000 
  664000   0.62276921   -2.2547396   0.93321966     -1.32152   0.12096331    11181.925     1000 
  666000   0.61108537   -2.2738897   0.91571142   -1.3581783    0.1161133     11030.36     1000 
  668000   0.64553033   -2.3144927    0.9673272   -1.3471655   0.13544269    11050.845     1000 
  670000     0.639162   -2.2946691   0.95778426   -1.3368848    0.1237095     11274.42     1000 
  672000   0.63867184   -2.2359761   0.95704976   -1.2789263   0.12927352    11008.856     1000 
  674000   0.62588052   -2.3188338   0.93788195   -1.3809518   0.13133645    11141.733     1000 
  676000   0.63585598   -2.2942141   0.95283019   -1.3413839   0.13050044    11082.241     1000 
  678000   0.64931177   -2.2355059   0.97299368   -1.2625122   0.17021898    10688.082     1000 
  680000   0.62500515   -2.2702786   0.93657022   -1.3337084   0.12866835    11203.039     1000 
  682000   0.63563011   -2.2837287   0.95249172   -1.3312369   0.11395575    11254.962     1000 
  684000   0.63469178   -2.2976574   0.95108563   -1.3465717   0.12655055    11221.859     1000 
  686000   0.62716371   -2.2763343   0.93980482   -1.3365294   0.13926916    10931.931     1000 
  688000   0.63223882   -2.2937283   0.94740987   -1.3463184   0.15164185    11018.561     1000 
  690000   0.61537804   -2.3541106     0.922144   -1.4319666   0.12473188    11164.338     1000 
  692000   0.66960673   -2.2526066    1.0034057   -1.2492009   0.12030511    11094.879     1000 
  694000   0.62093775   -2.2550711   0.93047521   -1.3245959   0.12805487    10963.456     1000 
  696000   0.61332479   -2.2442901    0.9190672   -1.3252229   0.13289242    10980.689     1000 
  698000   0.64617115   -2.3224894   0.96828746   -1.3542019   0.13481151    11077.241     1000 
  700000   0.62854827    -2.267827   0.94187958   -1.3259475   0.13010038    10878.592     1000 
  702000   0.62664573   -2.3099287   0.93902863      -1.3709   0.11773488    11340.692     1000 
  704000   0.63389044    -2.278679   0.94988482   -1.3287941   0.13502131    11001.128     1000 
  706000   0.64349139   -2.2274926   0.96427185   -1.2632207   0.12982798    10887.847     1000 
  708000   0.62557221   -2.2741808   0.93741996   -1.3367609   0.11731117    11156.325     1000 
  710000   0.66777235   -2.2424833    1.0006569   -1.2418265   0.15579284    10730.277     1000 
  712000   0.62808773   -2.2705526   0.94118947   -1.3293631   0.11763402    11058.364     1000 
  714000   0.63584426   -2.2943229   0.95281262   -1.3415103   0.12050662    11238.586     1000 
  716000   0.62797107   -2.2522511   0.94101464   -1.3112365   0.12576851    11078.608     1000 
  718000   0.67307249   -2.3094148    1.0085991   -1.3008157    0.1287348     11123.79     1000 
  720000   0.65433447   -2.2997627   0.98052021   -1.3192425   0.12093897    11192.922     1000 
  722000   0.65615231   -2.2790713   0.98324424   -1.2958271   0.14167942    10997.869     1000 
  724000   0.61574638   -2.3346957   0.92269595   -1.4119997   0.11671011    11174.857     1000 
  726000   0.67794353   -2.2886269    1.0158984   -1.2727285   0.13735864    11031.426     1000 
  728000   0.63282417   -2.1889389   0.94828702   -1.2406519   0.13412372    11061.998     1000 
  730000   0.63482884    -2.280595   0.95129102    -1.329304    0.1419542    11076.148     1000 
  732000   0.63669277   -2.2948963   0.95408411   -1.3408122   0.13223091    11181.808     1000 
  734000   0.66309479   -2.2637396   0.99364754   -1.2700921   0.12588602    11128.905     1000 
  736000   0.66954324   -2.2762944    1.0033105   -1.2729838   0.14030164     11091.52     1000 
  738000   0.64797585   -2.2332267   0.97099181   -1.2622349   0.15037242    10728.354     1000 
  740000   0.62357959   -2.1996465   0.93443402   -1.2652125   0.12876347    10834.605     1000 
  742000   0.64711721   -2.3373914   0.96970513   -1.3676863   0.11143396    11255.886     1000 
  744000   0.66563879   -2.2920055   0.99745973   -1.2945458   0.14566844    10970.375     1000 
  746000   0.61530816   -2.2496878   0.92203928   -1.3276485   0.12176444    10966.526     1000 
  748000   0.67293298   -2.2753031    1.0083901    -1.266913   0.11284083    11051.272     1000 
  750000   0.65931641   -2.3108419   0.98798564   -1.3228562   0.14471992    10952.437     1000 
  752000   0.63774827   -2.2517681   0.95566578   -1.2961023   0.12130987    11166.045     1000 
  754000   0.63372559     -2.22981   0.94963779   -1.2801722   0.11568138     10973.27     1000 
  756000   0.61432605   -2.2765273   0.92056759   -1.3559597   0.12485749    11004.131     1000 
  758000   0.63737873   -2.2899961   0.95511203   -1.3348841   0.13539691    11019.575     1000 
  760000   0.61359093   -2.2745382     0.919466   -1.3550722    0.1383154    10934.128     1000 
  762000   0.60856581   -2.2829896   0.91193586   -1.3710537    0.1256284     11259.18     1000 
  764000   0.64536501   -2.2618098   0.96707947   -1.2947304     0.148983    11016.736     1000 
  766000   0.62927188   -2.3045307   0.94296391   -1.3615668   0.15094539    11064.052     1000 
  768000   0.65664779   -2.2404948   0.98398672   -1.2565081   0.14244565    10905.855     1000 
  770000   0.65786596   -2.2909168   0.98581214   -1.3051047   0.13465911    11051.037     1000 
  772000   0.61736705   -2.3136732   0.92512452   -1.3885487   0.12571534    11084.272     1000 
  774000   0.63881162   -2.2511901   0.95725922   -1.2939309   0.14257083    11136.419     1000 
  776000    0.6572843   -2.3239901   0.98494052   -1.3390496    0.1339152    11078.441     1000 
  778000   0.63752618   -2.2913972   0.95533298   -1.3360642   0.12063211    11163.795     1000 
  780000   0.65029383   -2.2752959    0.9744653   -1.3008306    0.1428116    11068.756     1000 
  782000   0.62913382   -2.2653822   0.94275703   -1.3226252   0.12896874    10866.339     1000 
  784000   0.62391193   -2.2832408   0.93493203   -1.3483088   0.13301841    11217.863     1000 
  786000   0.65421258   -2.2731287   0.98033756   -1.2927912   0.13976238    10908.186     1000 
  788000    0.6459541   -2.2779999   0.96796221   -1.3100377   0.12038308    11073.217     1000 
  790000   0.64484579   -2.2831085   0.96630142   -1.3168071   0.13370765    11091.266     1000 
  792000   0.66630592   -2.3114046   0.99845942   -1.3129452   0.12331206    11302.302     1000 
  794000    0.6638236   -2.2212098   0.99473966   -1.2264701   0.13586725    11073.497     1000 
  796000   0.64759255   -2.2742584   0.97041744   -1.3038409   0.13101808    10941.677     1000 
  798000   0.63323136   -2.2912748   0.94889719   -1.3423777   0.13964035    10999.125     1000 
  800000   0.65994383   -2.2623402   0.98892584   -1.2734144   0.14622978    10879.801     1000 
  802000   0.65401294   -2.3190299   0.98003838   -1.3389915   0.13038386    11012.424     1000 
  804000   0.63597854   -2.2513691   0.95301384   -1.2983552   0.12245682    11009.073     1000 
  806000   0.66060483   -2.2984217   0.98991633   -1.3085054   0.13440815    10977.393     1000 
  808000   0.65143866   -2.2762996   0.97618083   -1.3001188   0.11331343    11260.537     1000 
  810000    0.6606544    -2.250387   0.98999061   -1.2603964   0.15977001    10747.857     1000 
  812000   0.63472999   -2.2689239    0.9511429    -1.317781   0.14022635    10992.445     1000 
  814000   0.63098061   -2.2466964   0.94552445   -1.3011719   0.12454897    10891.951     1000 
  816000    0.6460177   -2.2837325   0.96805753    -1.315675   0.13079104    11054.854     1000 
  818000   0.65283975   -2.2703731   0.97828037   -1.2920927   0.12895173    10948.218     1000 
  820000   0.62210139   -2.2337271   0.93221893   -1.3015082   0.13215422    10923.234     1000 
  822000   0.60822581   -2.2473085   0.91142637   -1.3358821   0.13454781    11022.467     1000 
  824000   0.65895268    -2.255334    0.9874406   -1.2678934   0.11959212    11223.983     1000 
  826000   0.64152144    -2.326838   0.96131988   -1.3655181   0.14959228    11155.096     1000 
  828000   0.60645381    -2.282958   0.90877103    -1.374187   0.11235629    11128.772     1000 
  830000   0.64358399   -2.2992077    0.9644106   -1.3347971   0.11984647    11145.344     1000 
  832000   0.62490239   -2.3234401   0.93641623   -1.3870239   0.12522476    11099.019     1000 
  834000   0.67111629   -2.3117063    1.0056678   -1.3060386   0.14408752    10956.929     1000 
  836000   0.63993995   -2.2875407   0.95895002   -1.3285907   0.13236123    11145.319     1000 
  838000   0.66650851   -2.2431741     0.998763   -1.2444111   0.14277213    10949.238     1000 
  840000   0.63951108   -2.2970581   0.95830736   -1.3387507   0.11936699    11162.139     1000 
  842000   0.65830083   -2.2606505    0.9864638   -1.2741867   0.13096179    11073.868     1000 
  844000   0.63402128   -2.2925364   0.95008089   -1.3424555   0.13516576    11318.376     1000 
  846000    0.6252191   -2.2936019   0.93689082   -1.3567111   0.13250581    10943.282     1000 
  848000   0.64982983   -2.3144654      0.97377   -1.3406954   0.12118215    11344.077     1000 
  850000   0.65696411   -2.2650773   0.98446072   -1.2806165   0.13411576    10931.595     1000 
  852000   0.62230863   -2.3335625   0.93252948   -1.4010331   0.12323149    11218.888     1000 
  854000   0.63638929   -2.2743275   0.95362935   -1.3206981   0.13842129    11073.911     1000 
  856000   0.64662506    -2.246458   0.96896765   -1.2774903   0.13987219    10930.117     1000 
  858000   0.64645524   -2.2813215   0.96871317   -1.3126083   0.13310434    11145.365     1000 
  860000   0.65924573    -2.283757   0.98787973   -1.2958773   0.14428132    10867.882     1000 
  862000   0.64158114   -2.2407982   0.96140933   -1.2793889   0.12736414    11137.525     1000 
  864000   0.63109351   -2.2839404   0.94569363   -1.3382467   0.13625833    10955.667     1000 
  866000   0.64554515   -2.2975564   0.96734941    -1.330207   0.12329876    11058.359     1000 
  868000   0.65915762   -2.2801979   0.98774769   -1.2924502    0.1292506    11150.853     1000 
  870000   0.64167785   -2.2935576   0.96155425   -1.3320033   0.12324833     11217.61     1000 
  872000    0.6425402   -2.2775297   0.96284649   -1.3146832    0.1222328    11177.942     1000 
  874000   0.61469687   -2.3279285   0.92112325   -1.4068053   0.12711386    11089.408     1000 
  876000   0.64756493   -2.2264685   0.97037604   -1.2560925   0.12286617     11155.95     1000 
  878000   0.63904959   -2.2301657    0.9576158   -1.2725499    0.1260527    10940.751     1000 
  880000   0.65085969   -2.2751588   0.97531324   -1.2998456   0.12569607    11132.758     1000 
  882000   0.64473552   -2.3036251   0.96613618   -1.3374889    0.1220046    11099.275     1000 
  884000   0.66311354   -2.2662036   0.99367564    -1.272528   0.12630408    11136.186     1000 
  886000   0.65357979   -2.2515066   0.97938931   -1.2721173   0.13647494    10991.976     1000 
  888000   0.62322451   -2.3539516   0.93390193   -1.4200496   0.12482154    11307.151     1000 
  890000   0.65452758   -2.3120731   0.98080958   -1.3312635   0.12666238    11266.409     1000 
  892000   0.64925985   -2.2576856   0.97291588   -1.2847697   0.11011956     11063.35     1000 
  894000   0.64567635    -2.276922   0.96754601    -1.309376    0.1368664    10961.583     1000 
  896000   0.62173709   -2.3523009   0.93167304   -1.4206278   0.11052948    11222.416     1000 
  898000    0.6664262   -2.2986238   0.99863966   -1.2999842   0.11349483    11219.846     1000 
  900000   0.65380753   -2.2718009   0.97973058   -1.2920703   0.12212768    11170.663     1000 
  902000   0.62466328   -2.2615734   0.93605792   -1.3255154   0.13253753    11096.296     1000 
  904000   0.64712222   -2.2392542   0.96971264   -1.2695415   0.13581986    10727.348     1000 
  906000   0.62540184   -2.2880082   0.93716466   -1.3508435   0.13027174    11175.473     1000 
  908000    0.6348886   -2.3033108   0.95138057   -1.3519302   0.12756022    11167.666     1000 
  910000     0.639126    -2.291961   0.95773031   -1.3342306   0.14358929    10864.103     1000 
  912000   0.64257018   -2.2849652   0.96289141   -1.3220738   0.13977397    11149.315     1000 
  914000   0.65163579   -2.2999168   0.97647623   -1.3234406   0.12518978    11075.169     1000 
  916000   0.63563463   -2.2463355    0.9524985    -1.293837   0.13890486    11206.816     1000 
  918000   0.61668656   -2.2589016   0.92410481   -1.3347968    0.1436236     10890.03     1000 
  920000   0.65111378   -2.2596699     0.975694   -1.2839759   0.13085062    11047.185     1000 
  922000   0.64456345   -2.2771594   0.96587833   -1.3112811   0.15063075    10883.606     1000 
  924000    0.6361547   -2.2757468   0.95327782    -1.322469   0.12554702    11055.031     1000 
  926000   0.65010842   -2.2795283   0.97418747   -1.3053409   0.11693137    11153.558     1000 
  928000   0.66556191   -2.2836659   0.99734452   -1.2863214    0.1367577    11119.454     1000 
  930000   0.65068252   -2.2388292   0.97504776   -1.2637814   0.12168738    11046.059     1000 
  932000   0.64227722   -2.3016124   0.96245242     -1.33916   0.13645547    10966.402     1000 
  934000    0.6408852   -2.3124715   0.96036647    -1.352105   0.13111795    10932.363     1000 
  936000   0.61880583   -2.2145858   0.92728053   -1.2873053    0.1303974     11037.69     1000 
  938000   0.66337547   -2.2799417   0.99406815   -1.2858736   0.12503464    11121.998     1000 
  940000   0.67278785   -2.2452564    1.0081726   -1.2370838   0.12848574    11132.623     1000 
  942000   0.64252177   -2.3079984   0.96281887   -1.3451795   0.13036719    10990.156     1000 
  944000   0.62886284   -2.3151584   0.94235097   -1.3728074   0.12526369    11272.497     1000 
  946000   0.64012223   -2.3143999   0.95922316   -1.3551767   0.13029643    11127.255     1000 
  948000   0.63847972   -2.2864755   0.95676185   -1.3297136   0.12602666    11075.489     1000 
  950000   0.62424063   -2.2410511   0.93542458   -1.3056265   0.12282812    11094.865     1000 
  952000   0.62753685   -2.2876267   0.94036397   -1.3472627   0.13623189    11074.503     1000 
  954000   0.63717878   -2.3230676   0.95481241   -1.3682552   0.12820608    11181.854     1000 
  956000   0.61025229   -2.2972851   0.91446305   -1.3828221   0.12638277    11159.048     1000 
  958000   0.66161785   -2.3093154   0.99143436    -1.317881   0.12228839    11149.684     1000 
  960000    0.6446174   -2.2402304   0.96595917   -1.2742712   0.12670401    11016.025     1000 
  962000   0.62678092   -2.2758162   0.93923121    -1.336585   0.14282457    10976.668     1000 
  964000   0.65050202   -2.2479841   0.97477728   -1.2732068   0.13377144    11295.949     1000 
  966000   0.63422931   -2.2799586   0.95039262   -1.3295659   0.12593124    11288.442     1000 
  968000   0.65171389   -2.2402631   0.97659326   -1.2636698    0.1307973    10859.234     1000 
  970000   0.65409204   -2.3235353   0.98015692   -1.3433784   0.11925102    11260.539     1000 
  972000   0.63543641   -2.2692355   0.95220147    -1.317034   0.12923051    11011.824     1000 
  974000   0.63299163   -2.3065681   0.94853795   -1.3580301   0.11083952    11294.776     1000 
  976000   0.65513256   -2.3025906   0.98171614   -1.3208744   0.12110921    10914.523     1000 
  978000   0.64318919   -2.3178919     0.963819   -1.3540729   0.13346445    11150.638     1000 
  980000   0.63721338   -2.2501065   0.95486425   -1.2952423    0.1377453     10878.89     1000 
  982000    0.6541315   -2.2775516   0.98021605   -1.2973356   0.12454004    11288.789     1000 
  984000   0.61561439   -2.2544887   0.92249817   -1.3319906   0.12023792    11154.031     1000 
  986000   0.62082398   -2.3038351   0.93030473   -1.3735304   0.11892562     11056.43     1000 
  988000   0.62837435   -2.3062215   0.94161896   -1.3646025   0.14791935    10991.931     1000 
  990000   0.62785841   -2.2815432   0.94084582   -1.3406973   0.14077664    11042.409     1000 
  992000   0.60844656   -2.3327599   0.91175717   -1.4210028   0.11419188     11238.77     1000 
  994000   0.66897959   -2.2686693    1.0024659   -1.2662034   0.14615556    10959.228     1000 
  996000   0.61721944   -2.3004732   0.92490334   -1.3755698   0.12643281    11028.338     1000 
  998000   0.63003778   -2.2583743   0.94411161   -1.3142627   0.13975629    10947.859     1000 
 1000000   0.64058982   -2.3339839   0.95992385     -1.37406    0.1400243    11120.093     1000 
 1002000   0.60025764   -2.2724488   0.89948607   -1.3729627   0.12511111    11222.391     1000 
 1004000   0.64608288   -2.2715045   0.96815519   -1.3033493   0.13970964     10798.24     1000 
 1006000    0.6650943   -2.2457214   0.99664381   -1.2490776   0.14771037    10804.363     1000 
 1008000   0.63965298   -2.3101661   0.95851999   -1.3516461   0.12717449    11174.294     1000 
 1010000   0.62918171   -2.3199427   0.94282879   -1.3771139   0.13415923    11050.724     1000 
 1012000   0.64678493   -2.2364602   0.96920721    -1.267253   0.13534617    10834.789     1000 
 1014000   0.63961507   -2.3114109   0.95846319   -1.3529478   0.12146651    11022.431     1000 
 1016000   0.64708033   -2.3088188   0.96964988   -1.3391689   0.13788007    11040.864     1000 
 1018000   0.64338097    -2.323596   0.96410638   -1.3594896   0.13903511    10961.735     1000 
 1020000   0.62932597   -2.2803825   0.94304496   -1.3373376   0.11651709    11166.964     1000 
 1022000   0.62703814   -2.2755499   0.93961666   -1.3359332   0.12277901    11041.048     1000 
 1024000   0.64581731   -2.3028261   0.96775724   -1.3350689   0.12452651    11088.692     1000 
 1026000   0.64277042   -2.2957612   0.96319147   -1.3325698   0.11419994    11438.006     1000 
 1028000   0.62561311   -2.3457038   0.93748124   -1.4082225    0.1321712     10951.01     1000 
 1030000   0.64684567   -2.2945343   0.96929824   -1.3252361   0.12357241    11047.524     1000 
 1032000   0.62054936    -2.235124   0.92989321   -1.3052308    0.1328283    10956.757     1000 
 1034000   0.64211687   -2.2407568   0.96221212   -1.2785447   0.12790962    11157.269     1000 
 1036000   0.63062374   -2.2306235   0.94498968   -1.2856338   0.14768892    10777.266     1000 
 1038000   0.61891996   -2.2677553   0.92745156   -1.3403037   0.12514945    10972.506     1000 
 1040000   0.64329895   -2.3039529   0.96398347   -1.3399695   0.15236669    10925.615     1000 
 1042000   0.66493716   -2.1988306   0.99640834   -1.2024223   0.15218929    10787.786     1000 
 1044000   0.64925505   -2.3374644   0.97290869   -1.3645557   0.11237331    11246.091     1000 
 1046000     0.658706    -2.263731   0.98707094   -1.2766601   0.11712069    11190.892     1000 
 1048000   0.62793372   -2.2877182   0.94095868   -1.3467596   0.11965829     11069.66     1000 
 1050000   0.65462611   -2.3287289   0.98095722   -1.3477717   0.12190753    11146.861     1000 
 1052000   0.63198047    -2.281601   0.94702274   -1.3345782   0.12142254    10985.704     1000 
 1054000   0.61066617    -2.276685   0.91508325   -1.3616018   0.12409551    11217.087     1000 
 1056000    0.6315677   -2.2981765   0.94640419   -1.3517723   0.13140283    11007.144     1000 
 1058000   0.64325372   -2.2371251   0.96391569   -1.2732094   0.12760912    10981.526     1000 
 1060000   0.65051052   -2.2655883   0.97479001   -1.2907983   0.13297116    11013.401     1000 
 1062000   0.64602353   -2.2625579   0.96806626   -1.2944916   0.10923811    11299.688     1000 
 1064000   0.63128924   -2.2991156   0.94598693   -1.3531287   0.12054571    11321.166     1000 
 1066000   0.64770329   -2.2836515   0.97058339   -1.3130681   0.15526036    10889.956     1000 
 1068000   0.67395064   -2.3210286     1.009915   -1.3111135   0.12695772    11144.484     1000 
 1070000   0.66102466   -2.3155158   0.99054546   -1.3249703   0.11780122    11163.356     1000 
 1072000    0.6375223   -2.2504602   0.95532717    -1.295133   0.13241852    11051.727     1000 
 1074000   0.62742278   -2.3325244   0.94019304   -1.3923314   0.11665156    11304.012     1000 
 1076000   0.65031807   -2.2732934   0.97450163   -1.2987918   0.13397346    11113.057     1000 
 1078000   0.63376594   -2.3316474   0.94969826   -1.3819491   0.12811853    11180.559     1000 
 1080000   0.62312963   -2.2855503   0.93375975   -1.3517906   0.12660415    11051.921     1000 
 1082000   0.64066132   -2.2486127   0.96003099   -1.2885818   0.13871015    10935.078     1000 
 1084000   0.61967679   -2.2527747   0.92858567    -1.324189   0.14010708    10920.757     1000 
 1086000   0.65838036   -2.3257164   0.98658296   -1.3391334   0.12875465    11088.082     1000 
 1088000   0.64517709   -2.2886906   0.96679787   -1.3218927   0.13949097    11058.552     1000 
 1090000   0.62396704   -2.2898717   0.93501461   -1.3548571   0.12253721     11053.85     1000 
 1092000   0.62500422   -2.2372794   0.93656883   -1.3007106   0.13358698    10984.478     1000 
 1094000   0.62599954   -2.2824053   0.93806031    -1.344345   0.12376684    11166.597     1000 
 1096000   0.63819608   -2.2352959   0.95633683   -1.2789591    0.1163764    11066.644     1000 
 1098000   0.62480716    -2.299521   0.93627353   -1.3632475   0.11792805    11206.669     1000 
 1100000   0.62292393   -2.2369627   0.93345151   -1.3035112   0.12910225    10946.685     1000 
 1102000   0.66685514   -2.3589033   0.99928242   -1.3596208   0.12839845    11251.735     1000 
 1104000   0.64198332   -2.3071758     0.962012   -1.3451638   0.12841413    10992.487     1000 
 1106000   0.64384959   -2.2906332   0.96480861   -1.3258246   0.12578419    11027.713     1000 
 1108000   0.61598501   -2.3073396   0.92305354   -1.3842861   0.12252229    11100.138     1000 
 1110000    0.6532799   -2.2990026   0.97893993   -1.3200627   0.12753157    10993.189     1000 
 1112000     0.645756   -2.2614461   0.96766537   -1.2937807   0.13804028     11019.02     1000 
 1114000   0.63526232   -2.3307211   0.95194058   -1.3787805   0.12657096    11221.836     1000 
 1116000    0.6482244   -2.3325509   0.97136426   -1.3611866    0.1255522    11301.466     1000 
 1118000   0.64098355    -2.313947   0.96051384   -1.3534331   0.15736318    10963.574     1000 
 1120000   0.63643548   -2.2498401   0.95369857   -1.2961416     0.121143    11168.672     1000 
 1122000   0.65882995   -2.3177509   0.98725669   -1.3304942   0.12471481    11171.117     1000 
 1124000   0.62702677   -2.2858107   0.93959961   -1.3462111   0.13274136     11126.85     1000 
 1126000   0.64320692   -2.3118842   0.96384557   -1.3480386    0.1346389    10989.764     1000 
 1128000    0.6680219   -2.2810898    1.0010308   -1.2800589   0.11670379    11176.618     1000 
 1130000   0.63481119   -2.3210685   0.95126456   -1.3698039   0.12463552    11099.374     1000 
 1132000   0.63098303   -2.2265609   0.94552806   -1.2810328    0.1324959    11016.256     1000 
 1134000    0.6279978   -2.2501657    0.9410547    -1.309111   0.13687731    11043.242     1000 
 1136000   0.61851642    -2.290341   0.92684686   -1.3634942   0.12033906    11104.641     1000 
 1138000   0.63401672    -2.263923   0.95007405   -1.3138489   0.15237818    10996.008     1000 
 1140000   0.63964426   -2.3180795   0.95850692   -1.3595726   0.13865752    10996.338     1000 
 1142000   0.66662325   -2.3295879   0.99893494    -1.330653   0.14800511    10893.331     1000 
 1144000   0.63838697   -2.2958629   0.95662287     -1.33924   0.14539545    10961.326     1000 
 1146000   0.65114999   -2.2836274   0.97574825   -1.3078792   0.12448082    11103.138     1000 
 1148000   0.63142223   -2.2665069   0.94618621   -1.3203207   0.13942959    10983.316     1000 
 1150000   0.63344845    -2.256977    0.9492225   -1.3077545   0.13019829    11046.253     1000 
 1152000   0.64880085   -2.2297821   0.97222807    -1.257554   0.13014928    10848.311     1000 
 1154000   0.65097477   -2.3282356    0.9754857   -1.3527499   0.13669131    10932.783     1000 
 1156000   0.62594885    -2.352726   0.93798435   -1.4147417   0.13770131    11128.515     1000 
 1158000   0.64122126   -2.2919291   0.96087006   -1.3310591   0.13316837      11100.8     1000 
 1160000   0.65421932   -2.3014611   0.98034765   -1.3211135   0.12768411    10965.002     1000 
 1162000   0.64825789   -2.2850929   0.97141445   -1.3136784   0.13169076    10993.511     1000 
 1164000   0.61678472   -2.2581977   0.92425191   -1.3339458    0.1469884    11107.044     1000 
 1166000   0.61718567   -2.2483117   0.92485272    -1.323459   0.13670703    10815.879     1000 
 1168000   0.62729125   -2.2895652   0.93999594   -1.3495692   0.12872418    11120.724     1000 
 1170000   0.62847518   -2.3162629   0.94177006   -1.3744929    0.1287652    11169.131     1000 
 1172000   0.66038136   -2.3248805   0.98958147    -1.335299   0.12590576    11198.948     1000 
 1174000   0.63413364   -2.2867985   0.95024926   -1.3365493   0.12859504    11103.282     1000 
 1176000   0.64126744   -2.2772135   0.96093927   -1.3162742   0.14061145    10815.831     1000 
 1178000   0.62705651   -2.2445904   0.93964417   -1.3049462    0.1243156    10977.068     1000 
 1180000    0.6464536   -2.3038591   0.96871071   -1.3351484   0.12761707    11240.677     1000 
 1182000   0.62762536   -2.3003354   0.94049661   -1.3598388   0.12126837    11126.052     1000 
 1184000   0.63318921   -2.3106652   0.94883404   -1.3618311   0.12430515    11114.683     1000 
 1186000   0.62795678   -2.2580072   0.94099323    -1.317014   0.13621007    11140.717     1000 
 1188000   0.63151488   -2.2390752   0.94632505   -1.2927501   0.13690322    10906.338     1000 
 1190000   0.66790759   -2.3074612    1.0008595   -1.3066017   0.12420002    11085.434     1000 
 1192000   0.64814968   -2.3133514   0.97125229   -1.3420991   0.12622607     11113.02     1000 
 1194000   0.63079098   -2.2866476   0.94524028   -1.3414074    0.1350659    11003.841     1000 
 1196000   0.66781902    -2.285491    1.0007268   -1.2847642   0.13154991    11031.901     1000 
 1198000   0.63025713   -2.2549678    0.9444403   -1.3105275   0.13736148    11061.611     1000 
 1200000   0.64025657   -2.2606699   0.95942447   -1.3012454    0.1287759    10916.808     1000 
 1202000   0.63682348   -2.2812222   0.95427998   -1.3269422   0.15327664    10902.792     1000 
 1204000   0.66582422   -2.2650219   0.99773759   -1.2672843   0.13469715    11095.972     1000 
 1206000   0.63776971   -2.3058028   0.95569791   -1.3501049   0.12501644    11014.936     1000 
 1208000    0.6418484    -2.352926   0.96180982   -1.3911162   0.12918935    11208.087     1000 
 1210000   0.62601287    -2.300998   0.93808029   -1.3629177   0.11704453     11062.63     1000 
 1212000   0.60832282   -2.2974529   0.91157174   -1.3858812   0.13325137    10992.929     1000 
 1214000   0.62066314   -2.2486769   0.93006372   -1.3186132   0.12874779    11111.208     1000 
 1216000   0.64430324   -2.2886694    0.9654884    -1.323181   0.12018477    10833.045     1000 
 1218000   0.62606485   -2.2552194   0.93815817   -1.3170613   0.12537793    11137.608     1000 
 1220000   0.62013268   -2.2648913   0.92926882   -1.3356225   0.13301645    11043.552     1000 
 1222000   0.60850247   -2.3144321   0.91184095   -1.4025912   0.12151283    11236.987     1000 
 1224000   0.59771172   -2.2875122   0.89567101   -1.3918412   0.13308607    10903.788     1000 
 1226000    0.6499942   -2.2775081   0.97401631   -1.3034918   0.11750943    11277.851     1000 
 1228000   0.65935851   -2.3377893   0.98804872   -1.3497406   0.11648068    11323.124     1000 
 1230000   0.60881206   -2.3131759   0.91230487   -1.4008711    0.1235437     11031.21     1000 
 1232000   0.64647408   -2.3140317   0.96874141   -1.3452903   0.12764234    11222.443     1000 
 1234000   0.63461177   -2.3233429   0.95096574   -1.3723771   0.14771321     10945.43     1000 
 1236000   0.62941475   -2.3098953   0.94317801   -1.3667172   0.13129251    10954.067     1000 
 1238000   0.63068014   -2.3130582   0.94507419    -1.367984   0.16066867    10910.127     1000 
 1240000   0.64777253   -2.2617257   0.97068714   -1.2910385   0.13117159    11110.083     1000 
 1242000   0.65510229   -2.2193612   0.98167079   -1.2376905   0.12799554    11095.365     1000 
 1244000   0.66121147   -2.2647938   0.99082539   -1.2739685   0.13724983    11042.476     1000 
 1246000    0.6381317   -2.3257803   0.95624036   -1.3695399   0.12606946    11301.149     1000 
 1248000   0.63853664   -2.2798739   0.95684716   -1.3230268   0.13660453    11023.261     1000 
 1250000   0.65840312   -2.3013951   0.98661708    -1.314778   0.13547088    11108.787     1000 
 1252000   0.63955557   -2.2687624   0.95837402   -1.3103884     0.133969    11061.382     1000 
 1254000   0.62084849   -2.2470397   0.93034147   -1.3166982   0.12597933    11178.172     1000 
 1256000   0.64348709   -2.2772989   0.96426541   -1.3130335   0.12747841    11058.747     1000 
 1258000   0.65733776   -2.3549045   0.98502063   -1.3698839   0.14162445    11192.746     1000 
 1260000   0.63462472   -2.2930578   0.95098514   -1.3420726   0.14095246    11037.648     1000 
 1262000   0.64088707    -2.308399   0.96036927   -1.3480297   0.12222114    11093.333     1000 
 1264000   0.62757605   -2.2725699   0.94042271   -1.3321472    0.1331311    11069.497     1000 
 1266000   0.60599041   -2.3006933   0.90807663   -1.3926167   0.12177823    11146.104     1000 
 1268000   0.64857688    -2.253936   0.97189246   -1.2820436   0.15948337    10852.699     1000 
 1270000   0.65833966   -2.2857922   0.98652198   -1.2992702   0.14370667    10947.394     1000 
 1272000   0.62717724   -2.2740071   0.93982509    -1.334182   0.12834479    11267.914     1000 
 1274000   0.61862457   -2.2459455   0.92700892   -1.3189365   0.12552679    11166.748     1000 
 1276000   0.66769792   -2.3332892    1.0005453   -1.3327438   0.12718475    11179.331     1000 
 1278000   0.65721124   -2.3479148   0.98483104   -1.3630838   0.13012044    10996.252     1000 
 1280000   0.65483419   -2.2420716   0.98126904   -1.2608026   0.14965078    10891.642     1000 
 1282000   0.62417217   -2.2967605   0.93532199   -1.3614385   0.13388791     10858.53     1000 
 1284000   0.64017786   -2.2935455   0.95930653    -1.334239   0.12193711    11084.768     1000 
 1286000   0.63261838     -2.27371   0.94797864   -1.3257314   0.12625845    11254.184     1000 
 1288000   0.62297181   -2.3101264   0.93352326   -1.3766031   0.13008785    10921.797     1000 
 1290000   0.64222933   -2.3320945   0.96238065   -1.3697138   0.10898382      11288.3     1000 
 1292000   0.63424258   -2.2516772   0.95041251   -1.3012647   0.13294415     10947.91     1000 
 1294000   0.65284275   -2.2763369   0.97828487   -1.2980521    0.1166949    11274.992     1000 
 1296000   0.64293771   -2.3007539   0.96344215   -1.3373118   0.11139513    11308.794     1000 
 1298000   0.65621172   -2.2944668   0.98333326   -1.3111336   0.12267126    11189.039     1000 
 1300000   0.62753999   -2.2501981   0.94036867   -1.3098294   0.12614455    11202.889     1000 
 1302000   0.63288834   -2.2890098   0.94838318   -1.3406266   0.13675583    10825.849     1000 
 1304000   0.66209187   -2.3065644   0.99214467   -1.3144197   0.12850472    11121.217     1000 
 1306000   0.59756021   -2.2814066   0.89544398   -1.3859626   0.12070426    11008.845     1000 
 1308000    0.6292542    -2.332079   0.94293743   -1.3891416   0.12928116    11053.061     1000 
 1310000     0.627514   -2.2517393   0.94032973   -1.3114095   0.12584225    11063.761     1000 
 1312000    0.6536074   -2.2834116   0.97943069   -1.3039809   0.13214602    11287.348     1000 
 1314000   0.67384538   -2.3374762    1.0097573   -1.3277189   0.13097153    11387.162     1000 
 1316000   0.65629903   -2.2898214    0.9834641   -1.3063573   0.13832762     11056.92     1000 
 1318000   0.61517654    -2.251861   0.92184205    -1.330019   0.12261461    11143.857     1000 
 1320000   0.64250987   -2.3005587   0.96280105   -1.3377576   0.12433687    11152.231     1000 
 1322000   0.65828293    -2.302768   0.98643697    -1.316331   0.13857632    11160.599     1000 
 1324000   0.65255436   -2.2802944    0.9778527   -1.3024417   0.13181305     11072.49     1000 
 1326000   0.65529933   -2.2575626   0.98196605   -1.2755965    0.1221635    10910.075     1000 
 1328000   0.64095149   -2.2893108   0.96046581    -1.328845   0.13423084    10880.658     1000 
 1330000   0.63280568   -2.2494915   0.94825931   -1.3012322   0.13090127    11176.651     1000 
 1332000   0.64204399     -2.31987   0.96210292   -1.3577671   0.12186771    11054.421     1000 
 1334000   0.63538611   -2.2901378   0.95212609   -1.3380118    0.1294396    11070.147     1000 
 1336000   0.61970771   -2.2721882     0.928632   -1.3435562   0.13738357    10865.652     1000 
 1338000   0.65122746   -2.2502614   0.97586435    -1.274397   0.11798764    11247.482     1000 
 1340000   0.64319864   -2.3201121   0.96383317   -1.3562789   0.13304179    11130.741     1000 
 1342000    0.6341608   -2.2658891   0.95028997   -1.3155992   0.12775642    10954.334     1000 
 1344000   0.65019214   -2.2762706   0.97431293   -1.3019577   0.14694263    11004.067     1000 
 1346000   0.66197901   -2.2939867   0.99197555   -1.3020111   0.12678431     11131.92     1000 
 1348000   0.67632091   -2.2448993    1.0134669   -1.2314324   0.12557428    11208.582     1000 
 1350000      0.62326   -2.2846298   0.93395511   -1.3506747   0.14423597    11174.322     1000 
 1352000    0.6454252   -2.2388495   0.96716966   -1.2716798    0.1227482    11130.558     1000 
 1354000   0.62856659   -2.2610538   0.94190703   -1.3191468    0.1177334    11224.701     1000 
 1356000   0.62123671   -2.2252901   0.93092321   -1.2943669   0.14284324    10951.402     1000 
 1358000   0.62532926   -2.2957462    0.9370559   -1.3586903   0.13184698    11046.647     1000 
 1360000   0.63977573    -2.262921   0.95870393   -1.3042171   0.13177732    11024.459     1000 
 1362000   0.64289406   -2.2603174   0.96337675   -1.2969406   0.13598632    10914.844     1000 
 1364000   0.63018863     -2.24102   0.94433767   -1.2966823   0.10910539    11170.189     1000 
 1366000    0.6486798   -2.2701882   0.97204668   -1.2981415    0.1359624    11179.654     1000 
 1368000   0.59938605   -2.2547618   0.89817999   -1.3565818   0.10805995    11056.394     1000 
 1370000   0.63029323   -2.2949179    0.9444944   -1.3504235     0.115894    11316.997     1000 
 1372000    0.6379864     -2.27517   0.95602262   -1.3191474   0.14221165    11018.933     1000 
 1374000   0.60444323   -2.2387148   0.90575819   -1.3329566    0.1228373      10823.9     1000 
 1376000   0.63015548   -2.2514715   0.94428799   -1.3071835   0.13723067    10922.284     1000 
 1378000   0.61450466   -2.2329582   0.92083523    -1.312123   0.14025616    10875.224     1000 
 1380000   0.63714939   -2.2784392   0.95476837   -1.3236709   0.12652768    11233.756     1000 
 1382000   0.61371402   -2.2989088   0.91965046   -1.3792584    0.1122121    11261.152     1000 
 1384000   0.62950617   -2.3091455     0.943315   -1.3658305   0.13157656     11160.84     1000 
 1386000   0.66468377   -2.2500315   0.99602862   -1.2540029   0.14281715    10977.119     1000 
 1388000    0.6377237   -2.2764261   0.95562897   -1.3207971    0.1373245    11037.477     1000 
 1390000    0.6365166    -2.278585   0.95382012   -1.3247649   0.12668174    10967.063     1000 
 1392000   0.65381866   -2.2486844   0.97974726   -1.2689371    0.1481808    10931.268     1000 
 1394000   0.64383447   -2.3196232   0.96478595   -1.3548373   0.12180455    11218.419     1000 
 1396000    0.6536412   -2.2720014   0.97948134     -1.29252   0.13303652    11009.787     1000 
 1398000   0.64681501   -2.2850696    0.9692523   -1.3158173   0.13513304    10980.357     1000 
 1400000   0.65401092   -2.2826765   0.98003536   -1.3026411   0.13458396    11048.553     1000 
 1402000   0.64629281   -2.2778928   0.96846978    -1.309423   0.12422908    11251.992     1000 
 1404000   0.63953266   -2.2819515    0.9583397   -1.3236118    0.1253519     11137.43     1000 
 1406000   0.64585746   -2.3042361    0.9678174   -1.3364187   0.12816537    11050.459     1000 
 1408000   0.63348015   -2.2222894   0.94927001   -1.2730194   0.14597669    11019.936     1000 
 1410000   0.62316757    -2.272407   0.93381661   -1.3385904   0.13390772    11188.525     1000 
 1412000   0.63255558   -2.2443423   0.94788454   -1.2964578   0.12126291    11133.664     1000 
 1414000   0.63358892   -2.3209169   0.94943299   -1.3714839     0.128051    11146.541     1000 
 1416000   0.63478142   -2.2961266   0.95121996   -1.3449066   0.12399242    11185.947     1000 
 1418000   0.61630867   -2.2851008   0.92353854   -1.3615623   0.12772785     11016.21     1000 
 1420000   0.60919026   -2.2966491   0.91287161   -1.3837775   0.10573833    11134.859     1000 
 1422000   0.64702773   -2.2202588   0.96957106   -1.2506878   0.14051144    10950.895     1000 
 1424000    0.6123134   -2.3249552   0.91755163   -1.4074036   0.12296576     11158.01     1000 
 1426000   0.63078707   -2.2502618   0.94523443   -1.3050274   0.12079265     11051.29     1000 
 1428000    0.6193315   -2.3110093   0.92806825    -1.382941   0.11993638      11212.7     1000 
 1430000   0.66752214   -2.2281492    1.0002819   -1.2278673   0.12690375    11007.069     1000 
 1432000   0.64482355   -2.2727678   0.96626809   -1.3064997    0.1277105    11056.159     1000 
 1434000   0.60949656    -2.274685   0.91333059   -1.3613544   0.15276807    10854.662     1000 
 1436000    0.6554673   -2.2389047   0.98221775   -1.2566869    0.1483039    10906.774     1000 
 1438000   0.66225171   -2.3186003   0.99238419   -1.3262161   0.14595148    10883.501     1000 
 1440000   0.62455346   -2.3047237   0.93589336   -1.3688303    0.1413724    10929.467     1000 
 1442000   0.63150302   -2.2960588   0.94630727   -1.3497516    0.1321211    10828.708     1000 
 1444000   0.63455897   -2.2860706   0.95088662    -1.335184   0.13741743    11111.733     1000 
 1446000     0.647958   -2.2405483   0.97096506   -1.2695833    0.1357352    10852.862     1000 
 1448000   0.59323845   -2.2488083   0.88896781   -1.3598405   0.11974954    11211.908     1000 
 1450000    0.6026591   -2.2673767   0.90308466   -1.3642921   0.13089932    10900.197     1000 
 1452000    0.6297605   -2.3029326    0.9436961   -1.3592365   0.13835746    10894.614     1000 
 1454000   0.62667258   -2.3117087   0.93906886   -1.3726398   0.12996861    11081.734     1000 
 1456000   0.64325367    -2.297833   0.96391562   -1.3339173    0.1190865    11150.223     1000 
 1458000   0.61848373   -2.3178042   0.92679787   -1.3910063   0.12549807    10972.153     1000 
 1460000   0.63714732   -2.2965042   0.95476526   -1.3417389   0.13483987    10997.346     1000 
 1462000    0.6384191   -2.2959091   0.95667103    -1.339238   0.12765249    11074.265     1000 
 1464000   0.65522528   -2.3054318   0.98185509   -1.3235767   0.14285207    11208.313     1000 
 1466000   0.62973419   -2.3331624   0.94365668   -1.3895057   0.12422714    11286.082     1000 
 1468000   0.63401564   -2.3187081   0.95007244   -1.3686357   0.13311124    11026.433     1000 
 1470000   0.61940631   -2.3357712   0.92818035   -1.4075908   0.12648622    10988.505     1000 
 1472000    0.6414781   -2.3035644   0.96125493   -1.3423095   0.12563873    10949.307     1000 
 1474000   0.63739575   -2.2468926   0.95513752    -1.291755   0.12070913    11145.662     1000 
 1476000   0.64846474   -2.3050746   0.97172441   -1.3333502   0.11628354    11319.231     1000 
 1478000    0.6250649   -2.3008041   0.93665976   -1.3641443   0.11502642    11129.454     1000 
 1480000   0.63500407   -2.2934438    0.9515536   -1.3418902   0.14694912    11190.252     1000 
 1482000   0.62059946   -2.2786307   0.92996829   -1.3486624   0.13135118    11258.184     1000 
 1484000   0.63870167   -2.2370047   0.95709445   -1.2799102    0.1171699    11215.685     1000 
 1486000   0.61623128   -2.2752308   0.92342258   -1.3518082   0.13045292    11092.002     1000 
 1488000   0.63281416   -2.2864713   0.94827202   -1.3381993   0.13456199    10998.224     1000 
 1490000   0.63587491   -2.2674006   0.95285855   -1.3145421   0.11534313    11217.856     1000 
 1492000   0.66072035   -2.2975577   0.99008944   -1.3074683    0.1372898    11204.229     1000 
 1494000   0.63846215   -2.3042145   0.95673553    -1.347479   0.13224829    11087.015     1000 
 1496000   0.66318343   -2.2502957   0.99378038   -1.2565153   0.13108029     11029.14     1000 
 1498000    0.6566642   -2.2810775    0.9840113   -1.2970662   0.12539227    11076.041     1000 
 1500000   0.61622399   -2.3274505   0.92341166   -1.4040388   0.12460007    11148.337     1000 
 1502000   0.64874115   -2.3229947   0.97213861   -1.3508561   0.13506167    11189.886     1000 
 1504000    0.6376451   -2.3333136   0.95551118   -1.3778024   0.12249351    11073.845     1000 
 1506000   0.63789942   -2.3408404   0.95589228   -1.3849481   0.12701534    11141.679     1000 
 1508000   0.61401589   -2.2532885   0.92010282   -1.3331857   0.14613364    11017.739     1000 
 1510000   0.64179557   -2.2594061   0.96173067   -1.2976755   0.14441999    10708.865     1000 
 1512000   0.63032171   -2.2574232   0.94453708   -1.3128861   0.11377858    11024.574     1000 
 1514000   0.66186917   -2.2709548   0.99181095   -1.2791438   0.13756657    11091.333     1000 
 1516000   0.62712892    -2.280114   0.93975269   -1.3403614   0.13377776    11106.717     1000 
 1518000   0.64890309   -2.3360139   0.97238128   -1.3636326   0.11523789    11213.789     1000 
 1520000   0.66349038   -2.2674087   0.99424033   -1.2731684   0.14582642    10962.494     1000 
 1522000   0.66508753   -2.3154568   0.99663366   -1.3188232   0.12948871    11366.563     1000 
 1524000   0.64883066   -2.2558875   0.97227274   -1.2836148   0.14244177    10965.948     1000 
 1526000   0.63514374   -2.2722288    0.9517629   -1.3204659   0.14000434    11015.345     1000 
 1528000   0.63895147   -2.2685435   0.95746878   -1.3110747   0.11621032    11262.817     1000 
 1530000   0.64820292   -2.2934902   0.97133207   -1.3221582    0.1301698    11084.144     1000 
 1532000   0.62929921   -2.2930453   0.94300486   -1.3500404   0.13052839    11194.601     1000 
 1534000   0.63594896   -2.3188176   0.95296951   -1.3658481   0.14371022    10981.725     1000 
 1536000   0.67165595   -2.2683794    1.0064764    -1.261903   0.12204851    10945.027     1000 
 1538000   0.65234101   -2.2698637     0.977533   -1.2923307   0.13514304    11098.374     1000 
 1540000   0.62748196   -2.2684529   0.94028171   -1.3281712   0.11204843    11066.532     1000 
 1542000    0.6631937   -2.3040152   0.99379576   -1.3102194   0.14209763    10987.996     1000 
 1544000   0.64730085   -2.3070937   0.96998033   -1.3371134   0.12028346    11199.298     1000 
 1546000   0.64358941   -2.3188203   0.96441873   -1.3544016   0.12682454     11200.11     1000 
 1548000   0.65093303   -2.3158042   0.97542315   -1.3403811   0.12234235    11234.746     1000 
 1550000   0.64127492   -2.2654768   0.96095047   -1.3045263   0.14436209    10732.475     1000 
 1552000   0.66680453   -2.2504632   0.99920659   -1.2512566   0.12646171    11148.125     1000 
 1554000   0.64064792   -2.2733695    0.9600109   -1.3133586    0.1323616    10882.387     1000 
 1556000   0.64518304   -2.3020221   0.96680678   -1.3352153   0.11709644    11153.596     1000 
 1558000   0.66856032   -2.2690292    1.0018376   -1.2671915   0.13780896    11049.563     1000 
 1560000   0.64476682   -2.2583024   0.96618308   -1.2921193   0.11665698    11083.109     1000 
 1562000   0.68963168   -2.3205761    1.0334131    -1.287163   0.14161306    11015.152     1000 
 1564000   0.63275262   -2.2446023    0.9481798   -1.2964225   0.12988618    11121.483     1000 
 1566000   0.62344774   -2.2742542   0.93423644   -1.3400177   0.11319855    11223.439     1000 
 1568000   0.61690692   -2.3138868   0.92443502   -1.3894518   0.12175438     11084.17     1000 
 1570000   0.60739358   -2.2778282   0.91017928   -1.3676489   0.10717445    10993.947     1000 
 1572000   0.62018889   -2.2831056   0.92935305   -1.3537525   0.13340046    10977.273     1000 
 1574000   0.64798597   -2.2896631   0.97100697   -1.3186562   0.12556127    11064.142     1000 
 1576000   0.62811154   -2.3097928   0.94122514   -1.3685676   0.14413791    10969.677     1000 
 1578000   0.63442185   -2.2476848   0.95068115   -1.2970037   0.12378985    11035.509     1000 
 1580000   0.64146432    -2.297816   0.96123429   -1.3365817   0.11850263    11313.908     1000 
 1582000   0.65755252   -2.2972744   0.98534245   -1.3119319   0.11547077    11088.479     1000 
 1584000   0.61028854   -2.2792444   0.91451737    -1.364727   0.12053849    11038.512     1000 
 1586000   0.63998551   -2.2792652   0.95901829   -1.3202469   0.12129105    11149.383     1000 
 1588000   0.61645174   -2.2934172   0.92375293   -1.3696643   0.14430215    11051.868     1000 
[...]
 2614000   0.65058027   -2.2866236   0.97489454   -1.3117291   0.13637895    11024.739     1000 
 2616000   0.64429525   -2.3276268   0.96547643   -1.3621504   0.13947716    11032.991     1000 
 2618000   0.61783169   -2.3485159   0.92582079   -1.4226951   0.12913402    11108.107     1000 
 2620000    0.6384216   -2.3436619   0.95667477   -1.3869871   0.13270225    11097.771     1000 
 2622000   0.64326394   -2.2748288   0.96393102   -1.3108978    0.1294897    10943.098     1000 
 2624000    0.5956913   -2.2843506   0.89264342   -1.3917072   0.12048101     11164.57     1000 
 2626000   0.64519225   -2.2663327   0.96682059   -1.2995121   0.12107701    11064.338     1000 
 2628000   0.63683118   -2.2536676   0.95429152   -1.2993761   0.12909295    10760.826     1000 
 2630000   0.64031064   -2.2842252   0.95950549   -1.3247197   0.14898881    10811.351     1000 
 2632000   0.64483424   -2.2858151   0.96628411    -1.319531   0.13245643     10962.23     1000 
 2634000   0.63641199   -2.2952182   0.95366337   -1.3415548   0.12503645    11189.761     1000 
 2636000   0.63044326   -2.3136717   0.94471923   -1.3689525   0.12831972    11096.702     1000 
 2638000   0.64933296   -2.2508752   0.97302544   -1.2778498   0.13741941    11001.819     1000 
 2640000   0.63393403   -2.2729035   0.94995014   -1.3229534   0.11730189    11245.406     1000 
 2642000   0.63947813   -2.2982752   0.95825798   -1.3400172   0.12434295    11213.915     1000 
 2644000   0.64151018   -2.2908298     0.961303   -1.3295268   0.12772578    10990.849     1000 
 2646000   0.63410261   -2.3012562   0.95020277   -1.3510534   0.13708635    11076.466     1000 
 2648000   0.62166769   -2.3068746   0.93156903   -1.3753056   0.11291041    11293.464     1000 
 2650000    0.6287842   -2.3183429   0.94223313   -1.3761098    0.1340723     11099.67     1000 
 2652000    0.6128007   -2.2558359   0.91828185   -1.3375541   0.12821091     11055.78     1000 
 2654000   0.64631381    -2.281612   0.96850124   -1.3131107   0.12583177    11129.332     1000 
 2656000   0.63065215   -2.2942998   0.94503225   -1.3492676   0.12781134    11020.309     1000 
 2658000   0.61620937   -2.2598282   0.92338974   -1.3364385   0.13332922    11065.442     1000 
 2660000   0.65075432   -2.3007912   0.97515534   -1.3256359   0.13954534    10962.628     1000 
 2662000    0.6768445   -2.2792602    1.0142515   -1.2650087   0.13743314    11227.754     1000 
 2664000   0.68126124   -2.3160587      1.02087   -1.2951888   0.12652748     11121.25     1000 
 2666000   0.67073631   -2.2989416    1.0050984   -1.2938432   0.13410747    11075.036     1000 
 2668000    0.6891251   -2.2993057     1.032654   -1.2666517   0.12716141    11059.225     1000 
 2670000   0.64748975   -2.3140665   0.97026339   -1.3438031   0.13932564    11140.292     1000 
 2672000   0.64276012   -2.2988895   0.96317604   -1.3357134   0.13474509    11095.364     1000 
 2674000    0.6585781   -2.3374076   0.98687928   -1.3505284   0.13300551    11084.176     1000 
 2676000   0.64682699   -2.2638802   0.96927025   -1.2946099   0.13573005    11000.909     1000 
 2678000   0.66701612   -2.2630678   0.99952365   -1.2635441   0.12543388    11259.645     1000 
 2680000    0.6341656   -2.2892374   0.95029715   -1.3389402   0.12691925    11115.922     1000 
 2682000   0.61814271   -2.2758557   0.92628686   -1.3495688   0.13528475    10987.726     1000 
 2684000    0.6257837   -2.2940214   0.93773688   -1.3562845   0.12676404    10967.072     1000 
 2686000   0.66608992   -2.2683227   0.99813574    -1.270187   0.12324442    11090.122     1000 
 2688000   0.62820539    -2.257175   0.94136577   -1.3158092   0.12968421    10947.817     1000 
 2690000   0.64762028   -2.3339264   0.97045899   -1.3634674   0.11389763    11071.337     1000 
 2692000   0.64358236   -2.2651881   0.96440817   -1.3007799   0.13991004    10917.116     1000 
 2694000   0.65345656   -2.3491878   0.97920466   -1.3699832   0.13679732    11021.719     1000 
 2696000   0.60455102   -2.2971065    0.9059197   -1.3911868   0.12749402    11044.671     1000 
 2698000   0.64411544   -2.2752682   0.96520699   -1.3100612   0.14165003    11141.441     1000 
 2700000   0.65778465   -2.2715734    0.9856903   -1.2858831   0.11901895     11170.82     1000 
 2702000   0.63804825   -2.3254749   0.95611531   -1.3693596   0.12465424     11120.66     1000 
 2704000   0.63330233   -2.3220897   0.94900354   -1.3730861   0.11401325    11168.054     1000 
 2706000   0.65537303   -2.2916625   0.98207648    -1.309586   0.13295414    10978.139     1000 
 2708000   0.60322139   -2.3550009   0.90392725   -1.4510736   0.10896248    11375.798     1000 
 2710000   0.62170683   -2.3130864   0.93162769   -1.3814587   0.14609911    10924.029     1000 
 2712000   0.60872652   -2.2979659    0.9121767   -1.3857892    0.1399112    10929.175     1000 
 2714000   0.66857835   -2.2609403    1.0018647   -1.2590757   0.12007799    11046.856     1000 
 2716000    0.6314061   -2.2184923   0.94616205   -1.2723303   0.12747796    10872.979     1000 
 2718000   0.65122477   -2.2494123   0.97586032    -1.273552   0.14150101    10978.055     1000 
 2720000   0.64077659   -2.3256865   0.96020371   -1.3654828   0.13482089    11007.589     1000 
 2722000   0.65456877   -2.2742635    0.9808713   -1.2933922   0.13282347    10937.249     1000 
 2724000   0.63640852   -2.2800201   0.95365816    -1.326362   0.13611874    11101.945     1000 
 2726000   0.64973368   -2.3102165   0.97362591   -1.3365906   0.12436288    11135.154     1000 
 2728000   0.61905246   -2.2667213   0.92765011   -1.3390711   0.13155273    11080.743     1000 
 2730000   0.66673222   -2.2617785   0.99909823   -1.2626802   0.14597741    10872.117     1000 
 2732000    0.6352993   -2.3008009     0.951996   -1.3488049   0.13000211    11008.567     1000 
 2734000   0.63622136    -2.269599   0.95337771   -1.3162213   0.11122144    11218.348     1000 
 2736000   0.62871143   -2.3114854   0.94212408   -1.3693613   0.12835176    11087.762     1000 
 2738000   0.67224918   -2.3174187    1.0073654   -1.3100533   0.12049705    11131.371     1000 
 2740000   0.63613839   -2.2437892   0.95325338   -1.2905358   0.12844192    11158.243     1000 
 2742000   0.62638622   -2.2754722   0.93863975   -1.3368325   0.13583731    11102.537     1000 
 2744000   0.65718643   -2.3103791   0.98479386   -1.3255853   0.13393448    11116.103     1000 
 2746000   0.64274721   -2.2500817   0.96315669    -1.286925   0.13202891    10946.328     1000 
 2748000   0.62740481    -2.270953   0.94016611   -1.3307869   0.13651333    11111.727     1000 
 2750000   0.62263833   -2.2589422   0.93302354   -1.3259186   0.14554533    10851.501     1000 
 2752000   0.65618028   -2.2621704   0.98328616   -1.2788842   0.13988158    10904.771     1000 
 2754000   0.62619285   -2.2789132   0.93834998   -1.3405632   0.12475691    11029.493     1000 
 2756000   0.64028832   -2.3178299   0.95947205   -1.3583579   0.12321935    11066.134     1000 
 2758000   0.63799743    -2.333312   0.95603915   -1.3772728   0.12788847    11132.486     1000 
 2760000    0.6270832   -2.3424589   0.93968418   -1.4027747   0.13578743    10987.743     1000 
 2762000   0.68483287    -2.328904    1.0262221   -1.3026819   0.12854771    11243.256     1000 
 2764000   0.60370924   -2.2309244    0.9046583   -1.3262661   0.14053466    10917.098     1000 
 2766000   0.64595627   -2.2927165   0.96796547    -1.324751   0.12694021      11227.9     1000 
 2768000   0.65403027   -2.2813996   0.98006435   -1.3013352   0.12782489    11076.248     1000 
 2770000   0.62175915   -2.2448496   0.93170608   -1.3131435   0.12100888    11103.011     1000 
 2772000   0.65226529   -2.2803803   0.97741954   -1.3029607   0.13077961    11030.348     1000 
 2774000   0.66208216   -2.2304636   0.99213012   -1.2383335   0.14146521    11018.664     1000 
 2776000   0.64539177   -2.2846011   0.96711957   -1.3174815   0.13036271    11094.871     1000 
 2778000   0.64057413    -2.312261   0.95990033   -1.3523607   0.11247345    11136.038     1000 
 2780000   0.64330412   -2.2865221   0.96399122   -1.3225309   0.12727158    11053.408     1000 
 2782000   0.63505479   -2.3233716   0.95162961    -1.371742   0.13327931    11055.406     1000 
 2784000   0.61411769   -2.2682222   0.92025536   -1.3479668   0.13370756    10883.869     1000 
 2786000   0.65237132   -2.2943957   0.97757843   -1.3168173   0.12946612    11091.218     1000 
 2788000   0.61825984    -2.250206   0.92646238   -1.3237436   0.12148541    11077.437     1000 
 2790000   0.62809262   -2.3112289   0.94119679   -1.3700321   0.12559391    11068.429     1000 
 2792000   0.66356575    -2.274968   0.99435328   -1.2806147   0.11657631    11038.718     1000 
 2794000    0.6404292   -2.3005069   0.95968316   -1.3408237   0.12306343    11212.002     1000 
 2796000   0.64502812   -2.2409883   0.96657464   -1.2744137   0.13297083    10917.607     1000 
 2798000   0.64003372   -2.2739185   0.95909053    -1.314828   0.13462755    10925.818     1000 
 2800000   0.62433041   -2.2986767   0.93555912   -1.3631176   0.12128579    11282.922     1000 
 2802000    0.6569278   -2.3237064   0.98440631   -1.3393001    0.1436777    11002.655     1000 
 2804000   0.64755063   -2.3074807   0.97035462   -1.3371261   0.13660811    11069.874     1000 
 2806000    0.6274554   -2.2648959   0.94024192    -1.324654   0.13978468    10979.774     1000 
 2808000   0.64926747   -2.3079744   0.97292731   -1.3350471   0.12183696    11145.523     1000 
 2810000   0.64802737   -2.2438628   0.97106902   -1.2727938   0.11721243    11289.554     1000 
 2812000   0.64878243   -2.2822752   0.97220046   -1.3100747   0.12109872    11036.283     1000 
 2814000   0.64920374   -2.3098165   0.97283181   -1.3369847    0.1157198    11212.333     1000 
 2816000   0.63021572    -2.302878   0.94437826   -1.3584997   0.11561075    11241.785     1000 
 2818000   0.64983348   -2.3062286   0.97377547   -1.3324532   0.10381451    11298.959     1000 
 2820000    0.6493402   -2.2823366   0.97303629   -1.3093003   0.14900241    10947.516     1000 
 2822000   0.64050986   -2.2913129   0.95980402   -1.3315089    0.1148299     11092.06     1000 
 2824000   0.64163748   -2.3002635   0.96149377   -1.3387697   0.12056568    11137.117     1000 
 2826000   0.66120428   -2.3015988   0.99081461   -1.3107842   0.11217226    11142.941     1000 
 2828000    0.6571838   -2.2651094   0.98478992   -1.2803195   0.13413225    10944.682     1000 
 2830000   0.64024345   -2.3068701   0.95940481   -1.3474653    0.1173954    11209.443     1000 
 2832000   0.64709681   -2.3130858   0.96967457   -1.3434112   0.13213702    11068.162     1000 
 2834000    0.6077138   -2.2839279   0.91065913   -1.3732687   0.11038936    11108.796     1000 
 2836000   0.63235516   -2.3105627    0.9475842   -1.3629785   0.13692049    11132.467     1000 
 2838000   0.65293164   -2.2759725   0.97841807   -1.2975544   0.13458162    10925.182     1000 
 2840000   0.63643987   -2.2707481   0.95370515   -1.3170429   0.13151871    11014.696     1000 
 2842000   0.62820857   -2.3363711   0.94137055   -1.3950006    0.1394067    11117.059     1000 
 2844000   0.66706031   -2.2610869   0.99958987    -1.261497    0.1287956    11072.664     1000 
 2846000    0.6463012   -2.3012875   0.96848235   -1.3328052   0.12799765    11062.144     1000 
 2848000   0.66778054   -2.3053764    1.0006691   -1.3047073   0.12314509    11099.619     1000 
 2850000   0.65511789   -2.2687596   0.98169416   -1.2870655   0.12628868    11172.644     1000 
 2852000   0.64772851   -2.3089771   0.97062117    -1.338356   0.14538606    11015.243     1000 
 2854000   0.62356188   -2.2477862   0.93440747   -1.3133787   0.12943067    11065.816     1000 
 2856000   0.63872842   -2.2871767   0.95713454   -1.3300422   0.13570752    10859.634     1000 
 2858000   0.66491499   -2.2659449   0.99637511   -1.2695698   0.13929202    10922.158     1000 
 2860000   0.63814683   -2.3061739   0.95626302   -1.3499109   0.11503575    11183.308     1000 
 2862000   0.65066325   -2.2472627   0.97501888   -1.2722439   0.13279928    11046.013     1000 
 2864000   0.62938524   -2.3148663   0.94313379   -1.3717325   0.11261207    11152.423     1000 
 2866000   0.64780476   -2.3421819   0.97073543   -1.3714465   0.13202975    11245.938     1000 
 2868000   0.61999411   -2.3648021   0.92906118    -1.435741   0.11171805    11154.338     1000 
 2870000    0.6267898   -2.3495805   0.93924451    -1.410336    0.1136034    11229.607     1000 
 2872000   0.66006548   -2.2906532   0.98910812   -1.3015451   0.14244852    11086.104     1000 
 2874000   0.63864588   -2.2666827   0.95701085   -1.3096718   0.13368139    11022.856     1000 
 2876000   0.64893194   -2.2556756   0.97242451   -1.2832511   0.14475837    11085.216     1000 
 2878000   0.62127599   -2.2414171   0.93098207    -1.310435   0.14118766    10845.356     1000 
 2880000     0.668737   -2.2315939    1.0021024   -1.2294915     0.144277    10924.389     1000 
 2882000   0.65057891   -2.3218628    0.9748925   -1.3469703   0.11591743    11181.669     1000 
 2884000   0.63748847   -2.3118603   0.95527647   -1.3565839   0.13891662    10932.882     1000 
 2886000   0.61222813   -2.3120305   0.91742386   -1.3946067   0.13270332    11184.995     1000 
 2888000   0.62571606   -2.2916798   0.93763551   -1.3540442   0.11795023    11049.499     1000 
 2890000   0.63302263   -2.2892378    0.9485844   -1.3406534   0.10747679    11166.217     1000 
 2892000   0.64557301   -2.2993851   0.96739115   -1.3319939   0.13055041    10972.791     1000 
 2894000   0.66653128   -2.2578904   0.99879712   -1.2590932   0.13507552    11209.632     1000 
 2896000   0.64999734   -2.2996513   0.97402102   -1.3256303    0.1149864    11357.412     1000 
 2898000   0.64004913   -2.2752343   0.95911362   -1.3161207   0.12254034    11202.099     1000 
 2900000   0.64341734   -2.2640107   0.96416089   -1.2998498   0.13230236    10962.187     1000 
 2902000   0.63502714   -2.2792156   0.95158818   -1.3276274     0.124562    11250.353     1000 
 2904000   0.68478977   -2.3195664    1.0261575   -1.2934089   0.15067246    11172.001     1000 
 2906000   0.64564054   -2.2805118   0.96749235   -1.3130194   0.14538949    11043.626     1000 
 2908000   0.62663253   -2.3103874   0.93900884   -1.3713786   0.11787716    11008.175     1000 
 2910000   0.65489476   -2.3433147   0.98135979   -1.3619549   0.12756593    11235.341     1000 
 2912000   0.62432872   -2.2979969   0.93555658   -1.3624404   0.12079668    11169.781     1000 
 2914000   0.64076339   -2.2798153   0.96018394   -1.3196314   0.13351355    11089.404     1000 
 2916000   0.65344365   -2.2715142   0.97918531   -1.2923289   0.12402373    11099.204     1000 
 2918000   0.64576471   -2.3029943   0.96767842   -1.3353158   0.11802969    11249.582     1000 
 2920000   0.64438307   -2.3117322   0.96560803   -1.3461242   0.13803436    11010.201     1000 
 2922000   0.62034065   -2.2941429   0.92958047   -1.3645624   0.13128342    11211.462     1000 
 2924000   0.62425548   -2.2096193   0.93544684   -1.2741724   0.12800458    10969.645     1000 
 2926000   0.64735088   -2.2636586    0.9700553   -1.2936033   0.13385167    11215.213     1000 
 2928000   0.63758342   -2.2667907   0.95541876   -1.3113719   0.12780076    11170.293     1000 
 2930000   0.64825421   -2.3170596   0.97140894   -1.3456506   0.13078873    11119.587     1000 
 2932000   0.64931807    -2.278047   0.97300313   -1.3050439   0.13889605    11014.761     1000 
 2934000   0.65712795   -2.2901882   0.98470623    -1.305482   0.13187137    10864.807     1000 
 2936000   0.63006915   -2.2551781   0.94415863   -1.3110195   0.12560909    11021.702     1000 
 2938000    0.6266959   -2.2282386    0.9391038   -1.2891348   0.13514941    10891.845     1000 
 2940000   0.68871323   -2.3213349    1.0320368   -1.2892981   0.14182323    11214.017     1000 
 2942000   0.65806805   -2.2601935   0.98611497   -1.2740786   0.14472964     11021.19     1000 
 2944000   0.63975066   -2.2750464   0.95866637     -1.31638   0.14651841    10866.969     1000 
 2946000   0.65301953   -2.2871019   0.97854977   -1.3085522   0.12855675    10897.946     1000 
 2948000   0.65163958   -2.2840811   0.97648191   -1.3075992   0.14411505     10950.52     1000 
 2950000   0.63422817   -2.2956352   0.95039091   -1.3452443   0.13089636    11055.665     1000 
 2952000   0.61675697   -2.2792433   0.92421032    -1.355033   0.12004465    11159.324     1000 
 2954000   0.64813091   -2.2722801   0.97122416    -1.301056   0.13407175    10818.828     1000 
 2956000   0.63457292    -2.338222   0.95090752   -1.3873145   0.13232632    11268.262     1000 
 2958000   0.64401767   -2.2949984   0.96506048    -1.329938    0.1464734    10981.572     1000 
 2960000   0.65339694   -2.2907972   0.97911532   -1.3116819   0.12235564     11177.13     1000 
 2962000   0.62879712   -2.3066018   0.94225248   -1.3643493   0.11784012    11095.531     1000 
 2964000    0.6304763   -2.3037243   0.94476874   -1.3589555   0.13435331    11066.184     1000 
 2966000   0.63084779   -2.2613658   0.94532541   -1.3160404   0.12379978    11137.495     1000 
 2968000   0.62486787   -2.2592951    0.9363645   -1.3229306   0.13078488    11076.346     1000 
 2970000   0.63687912   -2.3112831   0.95436337   -1.3569198   0.12100237    11209.927     1000 
 2972000   0.61505664   -2.2980191   0.92166238   -1.3763567   0.11522382    11006.979     1000 
 2974000   0.63862602   -2.3198273   0.95698109   -1.3628462   0.11392907     11036.79     1000 
 2976000   0.64704429   -2.3226408   0.96959587    -1.353045   0.11718205    11077.491     1000 
 2978000   0.61162417   -2.2802038   0.91651882    -1.363685   0.13516552    11000.751     1000 
 2980000   0.63773368   -2.3009415   0.95564392   -1.3452976   0.11816301    10996.338     1000 
 2982000   0.61750146   -2.3123891   0.92532593   -1.3870631   0.13235031    11087.832     1000 
 2984000   0.61370109   -2.3300115   0.91963109   -1.4103804    0.1078042    11259.603     1000 
 2986000   0.62850054   -2.2513983   0.94180806   -1.3095903   0.11892369    11131.622     1000 
 2988000    0.6264408   -2.2446399   0.93872154   -1.3059183   0.12653143    11111.237     1000 
 2990000   0.63633033   -2.2577377   0.95354101   -1.3041966    0.1409517    11171.379     1000 
 2992000   0.65966993   -2.2529374   0.98851539    -1.264422   0.12836447    11112.869     1000 
 2994000   0.65889476   -2.3096139   0.98735379   -1.3222601   0.12443966    11277.406     1000 
 2996000    0.6302952   -2.3265225   0.94449735   -1.3820251   0.12936563    11037.016     1000 
 2998000    0.6256537   -2.2328303   0.93754207   -1.2952882   0.12184748    11008.144     1000 
 3000000   0.64593487   -2.2710721    0.9679334   -1.3031387   0.12487589    11202.146     1000 
Loop time of 14317.3 on 1 procs for 3000000 steps with 1000 atoms

Performance: 90519.929 tau/day, 209.537 timesteps/s
100.0% CPU use with 1 MPI tasks x 1 OpenMP threads

MPI task timing breakdown:
Section |  min time  |  avg time  |  max time  |%varavg| %total
---------------------------------------------------------------
Pair    | 13119      | 13119      | 13119      |   0.0 | 91.63
Neigh   | 933.6      | 933.6      | 933.6      |   0.0 |  6.52
Comm    | 109.42     | 109.42     | 109.42     |   0.0 |  0.76
Output  | 0.047833   | 0.047833   | 0.047833   |   0.0 |  0.00
Modify  | 138.68     | 138.68     | 138.68     |   0.0 |  0.97
Other   |            | 16.25      |            |       |  0.11

Nlocal:        1000.00 ave        1000 max        1000 min
Histogram: 1 0 0 0 0 0 0 0 0 0
Nghost:        6126.00 ave        6126 max        6126 min
Histogram: 1 0 0 0 0 0 0 0 0 0
Neighs:        203838.0 ave      203838 max      203838 min
Histogram: 1 0 0 0 0 0 0 0 0 0

Total # of neighbors = 203838
Ave neighs/atom = 203.83800
Neighbor list builds = 150000
Dangerous builds not checked

Total wall time: 3:58:37
