LAMMPS (29 Sep 2021 - Update 2)
OMP_NUM_THREADS environment is not set. Defaulting to 1 thread. (src/comm.cpp:98)
  using 1 OpenMP thread(s) per MPI task
# ----------------------- Inicialização -----------------------

units			lj
atom_style 		atomic
dimension 		3
boundary 		p p p

# -------------------- Criação dos Átomos ---------------------

read_data 		topologia.txt
Reading data file ...
  orthogonal box = (0.0000000 0.0000000 0.0000000) to (21.540000 21.540000 21.540000)
  1 by 1 by 1 MPI processor grid
  reading atoms ...
  1000 atoms
  read_data CPU = 0.002 seconds

velocity 		all create ${temp} 87287 rot yes dist gaussian
velocity 		all create 0.75 87287 rot yes dist gaussian

# ------------------ Interação Interatômica -------------------

pair_style		table linear 2000
pair_coeff		1 1 force.table AA 10.0
WARNING: 3 of 2000 force values in table AA are inconsistent with -dE/dr.
WARNING:  Should only be flagged at inflection points (src/pair_table.cpp:465)
pair_coeff		1 2 force.table AB 10.0
WARNING: 1 of 2000 force values in table AB are inconsistent with -dE/dr.
WARNING:  Should only be flagged at inflection points (src/pair_table.cpp:465)
pair_coeff		2 2 force.table BB 10.0
pair_write		1 1 2000 r 0.008 10.0 table.check AA
Appending to table file table.check with DATE: 2023-07-15
Neighbor list info ...
  update every 1 steps, delay 10 steps, check yes
  max neighbors/atom: 2000, page size: 100000
  master list distance cutoff = 10.3
  ghost atom cutoff = 10.3
  binsize = 5.15, bins = 5 5 5
  1 neighbor lists, perpetual/occasional/extra = 1 0 0
  (1) pair table, perpetual
      attributes: half, newton on
      pair build: half/bin/atomonly/newton
      stencil: half/bin/3d
      bin: standard
pair_write		1 2 2000 r 0.008 10.0 table.check AB
Appending to table file table.check with DATE: 2023-07-15
pair_write		2 2 2000 r 0.008 10.0 table.check BB
Appending to table file table.check with DATE: 2023-07-15

neighbor 		0.3 bin
neigh_modify		every 20 delay 0 check no

# ------------------------- Ensemble --------------------------------------

fix 1			all npt temp ${temp} ${temp} 0.5 iso ${press} ${press} 5
fix 1			all npt temp 0.75 ${temp} 0.5 iso ${press} ${press} 5
fix 1			all npt temp 0.75 0.75 0.5 iso ${press} ${press} 5
fix 1			all npt temp 0.75 0.75 0.5 iso 0.13 ${press} 5
fix 1			all npt temp 0.75 0.75 0.5 iso 0.13 0.13 5

# ---------------------- Função de Distribuição Radial -----------------------

#compute RDF 		all rdf 2000 1 1 1 2 2 2
#fix 2 			all ave/time 1 2000 2000 c_RDF[*] file rdf.data mode vector

# ------------------------- Execução ---------------------------

timestep 		0.005
thermo_style		custom step temp pe ke etotal press vol atoms
thermo			2000
run			3000000
Per MPI rank memory allocation (min/avg/max) = 3.614 | 3.614 | 3.614 Mbytes
Step Temp PotEng KinEng TotEng Press Volume Atoms 
       0         0.75   0.86229263     1.123875    1.9861676    1.3139258    9993.9483     1000 
    2000   0.74383248   -1.8555661     1.114633  -0.74093317   0.13010531    11542.494     1000 
    4000   0.73229582   -1.8336549    1.0973453  -0.73630957   0.12875511    11375.661     1000 
    6000   0.73780946    -1.845575    1.1056075  -0.73996749   0.13965052    11531.463     1000 
    8000   0.75429831   -1.9030014     1.130316  -0.77268541   0.13927461    11435.312     1000 
   10000   0.76767338   -1.9498311    1.1503586  -0.79947259   0.13255333    11438.838     1000 
   12000    0.7501014   -1.9196899    1.1240269    -0.795663   0.12578001    11538.058     1000 
   14000   0.73236505   -1.9173736     1.097449  -0.81992457   0.11395529    11709.469     1000 
   16000   0.77851361   -1.9212926    1.1666026  -0.75468997   0.14695364    11266.879     1000 
   18000   0.78547719   -1.9494167    1.1770376  -0.77237909   0.13519572    11330.892     1000 
   20000    0.7606688   -1.8949706    1.1398622  -0.75510837    0.1284967    11392.738     1000 
   22000   0.77567163   -1.9382773    1.1623439  -0.77593338    0.1328992    11342.111     1000 
   24000   0.76867653   -1.8650691    1.1518618  -0.71320731   0.12972377    11249.901     1000 
   26000   0.75561673   -1.9424987    1.1322917  -0.81020708   0.14028644    11312.868     1000 
   28000   0.71369711   -1.9103706    1.0694751  -0.84089552   0.11698463    11584.215     1000 
   30000   0.73586188    -1.877279     1.102689  -0.77458995   0.14684809    11316.729     1000 
   32000   0.77960524   -1.9097949    1.1682385   -0.7415564   0.12152737     11485.23     1000 
   34000   0.72114895   -1.9464984    1.0806417  -0.86585665   0.10729455    11630.096     1000 
   36000   0.75994224   -1.9224107    1.1387735  -0.78363722   0.14358467    11185.856     1000 
   38000   0.76777907   -1.9600714    1.1505169  -0.80955446   0.12047965    11474.711     1000 
   40000   0.77341628   -1.9314337    1.1589643  -0.77246944   0.14728487    11428.383     1000 
   42000   0.73493487   -1.8885927    1.1012999  -0.78729284   0.12681887    11468.757     1000 
   44000   0.71453893   -1.9204478    1.0707366  -0.84971123   0.11551658    11623.864     1000 
   46000   0.73804755    -1.912446    1.1059643  -0.80648176   0.11469596    11490.322     1000 
   48000   0.77344693   -1.9614864    1.1590102  -0.80247617   0.12616083    11584.644     1000 
   50000   0.76657541   -1.9425598    1.1487133  -0.79384658   0.12134427    11391.567     1000 
   52000   0.71258738   -1.9271091    1.0678122   -0.8592969   0.12886004    11492.209     1000 
   54000   0.76556502     -1.92996    1.1471992  -0.78276079   0.13117369    11541.374     1000 
   56000   0.74162932   -1.9718905    1.1113315  -0.86055896   0.11911062    11473.367     1000 
   58000   0.75340523   -1.9106749    1.1289777  -0.78169714   0.13771184    11339.569     1000 
   60000   0.73504852   -1.9338405    1.1014702  -0.83237029   0.13140706    11430.974     1000 
   62000   0.74642088   -1.9010397    1.1185117  -0.78252805   0.13439302    11316.698     1000 
   64000    0.7417536    -1.964146    1.1115178  -0.85262823   0.13501266    11280.095     1000 
   66000   0.75897661   -1.9819196    1.1373265  -0.84459317   0.11402699    11602.429     1000 
   68000   0.73039638   -1.9218083     1.094499  -0.82730934   0.12451309     11186.68     1000 
   70000   0.76196748   -1.9421295    1.1418083  -0.80032126   0.12160973    11557.629     1000 
   72000   0.75097602   -1.9159155    1.1253376  -0.79057794    0.1250564    11336.796     1000 
   74000    0.7486701   -1.8428009    1.1218821  -0.72091874   0.11453348    11446.205     1000 
   76000   0.78105422    -1.869545    1.1704097  -0.69913523     0.130792    11352.968     1000 
   78000    0.7526091   -1.9316809    1.1277847  -0.80389617   0.12973181    11326.542     1000 
   80000   0.75931973   -1.8670567    1.1378406  -0.72921605   0.12804579    11621.087     1000 
   82000   0.74686476   -1.9565825    1.1191768  -0.83740568   0.13138889     11439.93     1000 
   84000   0.74369274   -1.9253239    1.1144236  -0.81090036   0.14317059    11238.846     1000 
   86000   0.72939231   -1.8863285    1.0929944   -0.7933341   0.12822762     11315.48     1000 
   88000   0.73953484   -1.9572697     1.108193  -0.84907674    0.1172041    11541.059     1000 
   90000    0.7418643   -1.9445652    1.1116837  -0.83288149   0.11987528    11487.894     1000 
   92000   0.74312689   -1.8750101    1.1135756  -0.76143448   0.12845255    11383.868     1000 
   94000   0.73108207   -1.8547742    1.0955265  -0.75924767    0.1272963    11571.033     1000 
   96000   0.78321749   -1.9295256    1.1736514  -0.75587417   0.13079473     11284.86     1000 
   98000   0.76777831   -1.8883293    1.1505158  -0.73781349   0.13871958    11549.642     1000 
  100000   0.73576579   -1.9137617     1.102545  -0.81121671   0.13403223    11378.352     1000 
  102000   0.75167862   -1.9271225    1.1263904  -0.80073207   0.13232875    11401.747     1000 
  104000   0.76225175   -1.9354214    1.1422342  -0.79318711   0.12565246    11425.623     1000 
  106000   0.80135943   -1.9024261    1.2008371  -0.70158904   0.13531542    11356.992     1000 
  108000   0.76269259   -1.9722045    1.1428948  -0.82930961   0.14490243    11423.056     1000 
  110000   0.77933007   -1.9575404    1.1678261  -0.78971428    0.1315794     11630.41     1000 
  112000   0.75135574   -1.8840903    1.1259066  -0.75818378   0.13037165    11191.041     1000 
  114000   0.75581271   -1.9383146    1.1325853  -0.80572923    0.1319827    11337.308     1000 
  116000   0.72781284   -1.9129288    1.0906275  -0.82230126   0.10810017    11580.012     1000 
  118000   0.73038992   -1.9225838    1.0944893  -0.82809446   0.13202418    11417.961     1000 
  120000   0.72643406   -1.9262677    1.0885614  -0.83770624   0.13687709    11281.147     1000 
  122000   0.77838585   -1.8966727    1.1664112  -0.73026152   0.13381208    11253.607     1000 
  124000   0.74349468   -1.9444794    1.1141268  -0.83035263   0.13104794    11326.085     1000 
  126000   0.76437476   -1.9302141    1.1454156  -0.78479852   0.12667775    11568.605     1000 
  128000   0.77423112   -1.9097494    1.1601853  -0.74956407   0.11167645    11537.121     1000 
  130000    0.7396551   -1.9011473    1.1083732  -0.79277411    0.1389463    11356.694     1000 
  132000   0.74991017   -1.9650209    1.1237404  -0.84128053   0.14389623    11348.759     1000 
  134000   0.77206604   -1.9288189     1.156941  -0.77187793   0.12416265    11295.284     1000 
  136000   0.73679403    -1.908992    1.1040859  -0.80490611   0.12636739    11407.783     1000 
  138000   0.73657456   -1.9115809     1.103757  -0.80782395   0.14328034    10977.156     1000 
  140000   0.72473497   -1.8243073    1.0860153  -0.73829196   0.12963391    11258.918     1000 
  142000   0.73432129   -1.9286162    1.1003805  -0.82823575   0.11748487    11577.581     1000 
  144000   0.76523082   -1.9386187    1.1466984  -0.79192035   0.13821526    11373.907     1000 
  146000   0.74086217   -1.9731791     1.110182   -0.8629971   0.10268256    11658.524     1000 
  148000    0.7418782   -1.8974258    1.1117045  -0.78572135   0.12480117    11287.763     1000 
  150000   0.73949419    -1.975559     1.108132  -0.86742693   0.14785698    11214.877     1000 
  152000   0.72547478   -1.9221194     1.087124  -0.83499547    0.1260345    11561.859     1000 
  154000   0.69567793   -1.8672577    1.0424734  -0.82478435   0.11890289    11427.016     1000 
  156000    0.7564284   -1.9071002     1.133508  -0.77359221   0.14051275    11255.933     1000 
  158000   0.77392481   -1.9021219    1.1597263  -0.74239554   0.13616655    11434.982     1000 
  160000   0.72998882   -1.9545213    1.0938882  -0.86063301   0.12937098    11356.607     1000 
  162000   0.75139737   -1.9039375     1.125969  -0.77796855   0.13166225    11396.407     1000 
  164000   0.75252976   -1.9600281    1.1276658  -0.83236226    0.1435853    11382.147     1000 
  166000   0.72062324   -1.9414142    1.0798539  -0.86156025   0.12717238    11322.349     1000 
  168000   0.75875235   -1.9239526    1.1369904  -0.78696221   0.12797343    11290.959     1000 
  170000   0.75561461   -1.9584162    1.1322885  -0.82612772   0.12980072    11545.809     1000 
  172000   0.77618981   -1.8947527    1.1631204  -0.73163229   0.13325117    11367.322     1000 
  174000   0.72863782   -1.8874935    1.0918638  -0.79562973   0.11718155    11540.766     1000 
  176000   0.73766973   -1.9108044    1.1053981  -0.80540631   0.13957394     11567.72     1000 
  178000   0.74525873   -1.9216624    1.1167702  -0.80489219   0.12829199    11375.312     1000 
  180000   0.75695642   -1.8858406    1.1342992  -0.75154144    0.1338421    11290.358     1000 
  182000   0.76140887   -1.9518598    1.1409712  -0.81088858    0.1099581    11668.137     1000 
  184000   0.76581922   -1.9553831    1.1475801  -0.80780303   0.12424406    11540.057     1000 
  186000   0.76245794   -1.9339046    1.1425432  -0.79136133   0.13249779    11331.783     1000 
  188000   0.73108075   -1.8984483    1.0955245  -0.80292381   0.12109144    11285.366     1000 
  190000   0.76284982   -1.8929902    1.1431305  -0.74985973   0.13623773    11344.763     1000 
  192000   0.74476216   -1.9392036    1.1160261  -0.82317749   0.12859138    11534.245     1000 
  194000   0.77033566   -1.9507348     1.154348  -0.79638683   0.12408591    11522.339     1000 
  196000   0.76269069   -1.9958929     1.142892  -0.85300087   0.11539756    11518.826     1000 
  198000   0.76811352   -1.9216149    1.1510181  -0.77059674   0.14257098    11263.964     1000 
  200000   0.76031268   -1.9615922    1.1393285  -0.82226362   0.13781855     11248.61     1000 
  202000   0.75639895   -1.9377315    1.1334638  -0.80426767   0.11467704    11669.127     1000 
  204000   0.74527269   -1.9124526    1.1167911  -0.79566146   0.12934176    11327.115     1000 
  206000   0.75381147   -1.8580318    1.1295865  -0.72844532   0.12825818    11511.397     1000 
  208000   0.75142826   -1.9470314    1.1260153  -0.82101612   0.12165446    11471.417     1000 
  210000   0.73334161   -1.9178431    1.0989124  -0.81893074     0.123062    11552.833     1000 
  212000   0.75306141   -1.9166982    1.1284625  -0.78823566   0.12894215      11689.1     1000 
  214000    0.7505961   -1.9076275    1.1247683   -0.7828592   0.12989937    11474.511     1000 
  216000   0.73006215   -1.9325446    1.0939981  -0.83854646   0.12966412     11533.05     1000 
  218000   0.78964361   -1.9205007     1.183281  -0.73721978   0.13734517    11300.038     1000 
  220000   0.73861133    -1.919549    1.1068091  -0.81273989   0.13155027    11439.439     1000 
  222000   0.72474057    -1.914264    1.0860237   -0.8282403   0.12711506    11441.785     1000 
  224000   0.75887496   -1.8891526    1.1371741  -0.75197851    0.1275128     11308.74     1000 
  226000   0.74584275   -1.8790588    1.1176454  -0.76141348   0.12119642     11295.68     1000 
  228000   0.74703839   -1.8760798     1.119437  -0.75664278   0.11367259    11389.606     1000 
  230000   0.75268946   -1.8832475    1.1279051  -0.75534235   0.12634075    11492.808     1000 
  232000   0.76423148   -1.8626813    1.1452009  -0.71748045   0.13878595    11349.884     1000 
  234000    0.7929434    -1.926678    1.1882257  -0.73845229   0.14404463    11284.492     1000 
  236000   0.72571405   -1.8794754    1.0874825  -0.79199287   0.13325938    11484.432     1000 
  238000   0.74062266   -1.9599897    1.1098231  -0.85016669   0.12074303    11553.348     1000 
  240000   0.77168979   -1.9368011    1.1563772  -0.78042391   0.15699974    11162.281     1000 
  242000   0.74538648   -1.9205367    1.1169616  -0.80357502   0.13501749    11520.697     1000 
  244000   0.72212472   -1.8967477    1.0821039  -0.81464378   0.12061364    11445.049     1000 
  246000   0.73266044   -1.9150191    1.0978917   -0.8171274   0.12918748    11374.414     1000 
  248000   0.74827904   -1.9405092    1.1212961  -0.81921301   0.12823125    11359.459     1000 
  250000   0.76413456   -1.8840235    1.1450556  -0.73896789   0.12739368    11411.233     1000 
  252000   0.74502799   -1.9139828    1.1164244  -0.79755839   0.13981342    11352.971     1000 
  254000   0.74646172   -1.9012543    1.1185729  -0.78268146   0.14480179    11357.112     1000 
  256000    0.7241897   -1.8873522    1.0851983  -0.80215397   0.13758064    11408.177     1000 
  258000   0.73698227   -1.9448509    1.1043679  -0.84048292   0.14337521    11388.684     1000 
  260000   0.76560853   -1.8511683    1.1472644  -0.70390388   0.12474351    11256.649     1000 
  262000   0.72779038   -1.9381567    1.0905939  -0.84756278   0.12349171    11354.858     1000 
  264000   0.74268776   -1.9305368    1.1129176  -0.81761923   0.14132364    11364.365     1000 
  266000   0.76066734   -1.9044534      1.13986  -0.76459336   0.12396643    11423.403     1000 
  268000   0.75651567    -1.971712    1.1336387  -0.83807328   0.14562302    11273.757     1000 
  270000   0.78288866   -1.9480901    1.1731587   -0.7749314   0.14167315    11365.384     1000 
  272000   0.74310126   -1.9408677    1.1135372  -0.82733041   0.12808573    11558.407     1000 
  274000   0.75265982   -1.8539221    1.1278607  -0.72606134   0.12123804    11292.064     1000 
  276000   0.73388555   -1.8961311    1.0997275  -0.79640363   0.12751626    11441.748     1000 
  278000   0.72302535    -1.889281    1.0834535  -0.80582752   0.13216619    11244.916     1000 
  280000   0.74917911   -1.8921842    1.1226449   -0.7695393    0.1260148    11461.516     1000 
  282000   0.74357045   -1.9605555    1.1142403  -0.84631518   0.12961352    11476.761     1000 
  284000   0.77313039   -1.9216627    1.1585359   -0.7631268   0.12889014    11599.238     1000 
  286000   0.73739769   -1.9621091    1.1049904  -0.85711868   0.12935392    11382.177     1000 
  288000   0.75209245    -1.916356    1.1270105   -0.7893455   0.13156005    11345.284     1000 
  290000   0.71713622   -1.8818673    1.0746286  -0.80723865   0.12049485    11495.933     1000 
  292000   0.74418209   -1.9182361    1.1151569   -0.8030792   0.13027426    11501.176     1000 
  294000   0.75364216   -1.8879939    1.1293328  -0.75866114   0.12618881    11336.612     1000 
  296000   0.75569709   -1.8632849    1.1324121  -0.73087278   0.13621919    11342.706     1000 
  298000    0.7509777   -1.8788723    1.1253401   -0.7535322   0.12461345    11533.822     1000 
  300000   0.77195846   -1.9686447    1.1567797  -0.81186491   0.11445717    11554.167     1000 
  302000     0.779559   -1.9523407    1.1681692  -0.78417151   0.12496783    11361.092     1000 
  304000   0.74215618   -1.8755553     1.112121  -0.76343429   0.15132722    11142.646     1000 
  306000   0.76135952    -1.981895    1.1408972  -0.84099777   0.10189268    11634.183     1000 
  308000    0.7536239   -1.9166165    1.1293054  -0.78731108   0.10866253    11518.128     1000 
  310000   0.76974815   -1.9581526    1.1534676  -0.80468501   0.14335551    11225.407     1000 
  312000   0.76814143   -1.9215473    1.1510599  -0.77048737   0.12724199     11357.51     1000 
  314000   0.76492972   -1.9155141    1.1462472   -0.7692669   0.15133446    11290.618     1000 
  316000    0.7415876   -1.8706735     1.111269  -0.75940446   0.13541546    11260.612     1000 
  318000   0.74908296   -1.9465371    1.1225008  -0.82403626   0.12012647    11360.687     1000 
  320000   0.78124704   -1.9049027    1.1706987  -0.73420403   0.12633656      11523.1     1000 
  322000   0.75829692   -1.9055499    1.1363079  -0.76924196   0.12750938    11483.719     1000 
  324000   0.73533749   -1.8748221    1.1019032  -0.77291883   0.13238502      11233.7     1000 
  326000   0.76114674   -1.8593016    1.1405784  -0.71872324   0.14533451    11411.132     1000 
  328000   0.75369109   -1.9922207    1.1294061  -0.86281456   0.11483556    11366.219     1000 
  330000   0.76087101   -1.9171444    1.1401652  -0.77697915   0.13664535    11373.588     1000 
  332000   0.76637696   -1.9443359    1.1484159  -0.79591999   0.13123334     11482.42     1000 
  334000   0.74801792   -1.8742786    1.1209049  -0.75337376   0.12427304    11460.554     1000 
  336000   0.69714066   -1.9442502    1.0446653  -0.89958495   0.10767807    11577.465     1000 
  338000   0.77099536   -1.9261004    1.1553365  -0.77076383   0.14410827     11315.89     1000 
  340000   0.73981774   -1.9350842    1.1086169  -0.82646735   0.10889564    11631.045     1000 
  342000   0.76870702   -1.9427964    1.1519075  -0.79088898   0.12990089    11425.855     1000 
  344000   0.74610834   -1.9069007    1.1180434  -0.78885738   0.13495979    11167.786     1000 
  346000    0.7741218   -1.9212746    1.1600215  -0.76125306   0.13506635    11310.758     1000 
  348000    0.7480301    -1.959698    1.1209231  -0.83877485   0.15136712    11128.186     1000 
  350000   0.75092309    -1.901579    1.1252583  -0.77632079   0.12218268    11407.426     1000 
  352000   0.74137717   -1.9205746    1.1109537  -0.80962091   0.13361094    11381.019     1000 
  354000   0.73868033    -1.935532    1.1069125   -0.8286195   0.12971676     11492.35     1000 
  356000   0.73982952   -1.9101278    1.1086345  -0.80149324   0.13929387    11328.782     1000 
  358000   0.74914582    -1.903992     1.122595  -0.78139701    0.1505512    11355.115     1000 
  360000   0.75472239    -1.933215    1.1309515  -0.80226346   0.13087739    11339.955     1000 
  362000   0.76443315   -1.8669969    1.1455031  -0.72149384   0.12043039    11594.656     1000 
  364000   0.72983957   -1.9040332    1.0936646   -0.8103686   0.13461045    11106.624     1000 
  366000   0.74037179   -1.9663374    1.1094471   -0.8568903   0.11181356    11571.899     1000 
  368000   0.75981802   -1.9253515    1.1385873  -0.78676419   0.12749347    11387.516     1000 
  370000   0.74852643   -1.9232438    1.1216669  -0.80157694   0.13596819     11389.94     1000 
  372000   0.73258141   -1.9314873    1.0977732  -0.83371404   0.11590622    11612.191     1000 
  374000   0.77552639   -1.8998792    1.1621263  -0.73775294   0.14125631    11442.895     1000 
  376000   0.73329368   -1.8687068    1.0988406  -0.76986627   0.13739767    11397.388     1000 
  378000    0.7570299   -1.8729021    1.1344093  -0.73849282   0.13829873    11288.205     1000 
  380000   0.73110808   -1.9166182    1.0955655  -0.82105272   0.13656705    11326.433     1000 
  382000   0.74682885   -1.9344131     1.119123  -0.81529005   0.13646056    11584.815     1000 
  384000   0.72965569   -1.9467645    1.0933891  -0.85337543   0.11946284    11368.277     1000 
  386000   0.73562926   -1.9469033    1.1023404  -0.84456287    0.1154466    11538.287     1000 
  388000   0.72545944   -1.8681668     1.087101  -0.78106579   0.11539103    11386.947     1000 
  390000   0.77350143   -1.9221262    1.1590919  -0.76303435   0.13852813    11491.547     1000 
  392000   0.76408789   -1.9191506    1.1449857   -0.7741649    0.1188756     11561.24     1000 
  394000   0.73687794   -1.8843091    1.1042116  -0.78009748   0.13409186    11541.811     1000 
  396000   0.77357418   -1.8828599    1.1592009  -0.72365894   0.13055424    11426.595     1000 
  398000   0.71900556   -1.8760503    1.0774298  -0.79862049   0.13388993    11372.572     1000 
  400000   0.75749619   -1.9325981     1.135108   -0.7974901   0.11878194    11486.877     1000 
  402000   0.75595646   -1.9430817    1.1328007  -0.81028098   0.13013104    11474.221     1000 
  404000   0.71424709   -1.9117934    1.0702993  -0.84149409   0.12087479    11375.343     1000 
  406000   0.75637265   -1.9044895    1.1334244  -0.77106506   0.14559446    11360.885     1000 
  408000   0.71825156    -1.889836       1.0763  -0.81353602   0.13727834    11454.382     1000 
  410000   0.72908652   -1.9142197    1.0925362  -0.82168353    0.1211851     11411.84     1000 
  412000   0.77262522   -1.9176421    1.1577789  -0.75986317   0.14838955      11442.7     1000 
  414000   0.74621037   -1.9244604    1.1181962  -0.80626413   0.14281614    11421.939     1000 
  416000   0.75819663   -1.9297094    1.1361577  -0.79355179   0.13402181    11503.846     1000 
  418000   0.76501854    -1.899894    1.1463803   -0.7535137   0.12897876    11484.185     1000 
  420000   0.73915662   -1.9201737    1.1076262   -0.8125475   0.13596852     11520.07     1000 
  422000   0.70860623   -1.8633269    1.0618464  -0.80148044   0.14157339    11323.397     1000 
  424000   0.73204844   -1.8819232    1.0969746  -0.78494857   0.11365312    11583.481     1000 
  426000   0.76762879   -1.9348778    1.1502917  -0.78458601    0.1392739    11316.525     1000 
  428000   0.75392313   -1.9387996    1.1297538  -0.80904583   0.12838895    11319.946     1000 
  430000   0.70841951   -1.9167891    1.0615666  -0.85522243   0.12684377    11524.539     1000 
  432000      0.75815   -1.8297332    1.1360878   -0.6936454   0.13375516     11273.71     1000 
  434000   0.75395414   -1.9115167    1.1298003  -0.78171644   0.12299347    11591.555     1000 
  436000   0.73919336   -1.9203606    1.1076813  -0.81267939   0.13356365     11343.24     1000 
  438000   0.73978775   -1.8815421    1.1085719  -0.77297015   0.13176085    11539.176     1000 
  440000    0.7275785   -1.8883024    1.0902764  -0.79802599   0.11586963     11672.75     1000 
  442000   0.73805011   -1.9054005    1.1059681  -0.79943245   0.12255189    11293.049     1000 
  444000   0.75750054    -1.921425    1.1351146  -0.78631041    0.1379714    11336.737     1000 
  446000    0.7558992   -1.9302688    1.1327149  -0.79755383    0.1248865    11252.809     1000 
  448000   0.75700558   -1.9206218    1.1343729  -0.78624895   0.14396974    11260.229     1000 
  450000   0.74361484   -1.9146653    1.1143068  -0.80035849   0.12969113    11419.306     1000 
  452000   0.75529638   -1.9155589    1.1318116  -0.78374728   0.12176059    11648.898     1000 
  454000   0.76818568   -1.9372479    1.1511262  -0.78612162   0.13567697     11273.68     1000 
  456000   0.73698364   -1.9799401      1.10437  -0.87557009    0.1171241    11457.426     1000 
  458000   0.76303526   -1.8920189    1.1434083  -0.74861059   0.13965336    11216.935     1000 
  460000    0.7470199   -1.9058616    1.1194093   -0.7864523   0.13875058    11192.545     1000 
  462000   0.75313822   -1.9140712    1.1285776  -0.78549361   0.13530946    11363.934     1000 
  464000   0.75450468   -1.8906152    1.1306253  -0.75998998   0.13374701    11397.889     1000 
  466000    0.7526651   -1.8837049    1.1278687  -0.75583622   0.14900605    11106.678     1000 
  468000   0.75862572   -1.9319663    1.1368006  -0.79516563   0.11580136    11541.758     1000 
  470000   0.74438147   -1.9210008    1.1154556   -0.8055452   0.13208258    11421.511     1000 
  472000    0.7237825   -1.9436779    1.0845881  -0.85908982   0.12497668    11583.091     1000 
  474000   0.73480745   -1.9101484     1.101109  -0.80903945   0.14192644    11343.602     1000 
  476000   0.74655328   -1.9038468    1.1187101  -0.78513671   0.12817036    11359.678     1000 
  478000   0.76683407   -1.8918415    1.1491009  -0.74274061   0.12764233    11600.075     1000 
  480000   0.75088443   -1.9946024    1.1252003   -0.8694021   0.12623637    11392.571     1000 
  482000   0.76763859    -1.915394    1.1503064   -0.7650876   0.12186243    11661.036     1000 
  484000   0.74790953   -1.9098696    1.1207424  -0.78912717   0.12147397    11307.862     1000 
  486000    0.7602736   -1.9390984      1.13927  -0.79982837   0.13274719    11433.988     1000 
  488000   0.73451785   -1.9743116     1.100675  -0.87363656   0.13705664    11416.633     1000 
  490000   0.77465072   -1.9300866    1.1608141  -0.76927246   0.12537919    11495.522     1000 
  492000   0.72109672   -1.9147457    1.0805634  -0.83418222   0.11177511    11648.715     1000 
  494000   0.73887831   -1.9297276    1.1072091  -0.82251847   0.12415263     11439.71     1000 
  496000    0.7050177   -1.8876659     1.056469   -0.8311969   0.13016321    11441.679     1000 
  498000   0.74319267   -1.8599868    1.1136742  -0.74631253   0.13380431    11172.967     1000 
  500000    0.7409748   -1.8899104    1.1103507  -0.77955962   0.13899809    11315.068     1000 
  502000   0.74401276   -1.8347633    1.1149031  -0.71986017   0.12215787    11590.771     1000 
  504000   0.75413438   -1.9330543    1.1300704  -0.80298394   0.12513402    11342.574     1000 
  506000   0.75076016   -1.8575425    1.1250141  -0.73252842   0.12252652    11369.498     1000 
  508000   0.76442555   -1.8684471    1.1454917  -0.72295539   0.12598751    11377.259     1000 
  510000   0.74840881   -1.9111841    1.1214906  -0.78969355   0.12229157    11603.706     1000 
  512000   0.74643432   -1.8648836    1.1185318  -0.74635173   0.14311826    11235.595     1000 
  514000   0.71859243   -1.9543665    1.0768108  -0.87755574    0.1166001    11410.515     1000 
  516000   0.77448403   -1.8372925    1.1605643  -0.67672815     0.151396    11052.126     1000 
  518000   0.78442466    -1.963166    1.1754604  -0.78770562   0.12454283    11417.957     1000 
  520000   0.74155546   -1.9196008    1.1112208  -0.80837994   0.13129582    11274.305     1000 
  522000   0.77726034   -1.9030945    1.1647246  -0.73836991   0.12310403    11498.968     1000 
  524000   0.73416791   -1.9477881    1.1001506  -0.84763744   0.11705604    11548.145     1000 
  526000   0.73407094   -1.9051728    1.1000053   -0.8051675    0.1441029    11270.305     1000 
  528000   0.78449301   -1.8548327    1.1755628  -0.67926993   0.11847655    11769.325     1000 
  530000   0.71752945   -1.9290501    1.0752179  -0.85383224   0.12780908     11592.48     1000 
  532000   0.74383703   -1.9281796    1.1146398  -0.81353982   0.12521073    11467.767     1000 
  534000   0.76553421   -1.9026726     1.147153  -0.75551953   0.14217755    11292.632     1000 
  536000   0.72622063    -1.942522    1.0882416  -0.85428042   0.11306991    11524.682     1000 
  538000   0.77610761   -1.9221574    1.1629973  -0.75916019   0.13444664     11588.15     1000 
  540000   0.73696945   -1.8672652    1.1043487  -0.76291645   0.12927087    11130.764     1000 
  542000   0.78600637    -1.907883    1.1778305  -0.73005244    0.1266883    11613.941     1000 
  544000   0.74779495   -1.8714732    1.1205707  -0.75090248   0.11452257    11360.251     1000 
  546000   0.74385353   -1.9167695    1.1146645  -0.80210494   0.11873412    11635.134     1000 
  548000   0.74261522   -1.8700492    1.1128089  -0.75724032   0.12717162     11478.71     1000 
  550000   0.74689024   -1.9943743     1.119215  -0.87515925   0.13340959    11215.711     1000 
  552000   0.73340565   -1.9539519    1.0990084   -0.8549435   0.12761911    11588.857     1000 
  554000   0.74110441   -1.9079308     1.110545  -0.79738587   0.13496638    11204.925     1000 
  556000   0.71847977   -1.9227064    1.0766419  -0.84606443    0.1322159     11378.97     1000 
  558000   0.72576316       -1.973    1.0875561  -0.88544395   0.12116661     11455.31     1000 
  560000   0.75049373    -1.868174    1.1246149  -0.74355914   0.16166372    11048.196     1000 
  562000   0.72948778   -1.9327419    1.0931374  -0.83960441   0.13224751    11176.905     1000 
  564000   0.72457996   -1.8876861    1.0857831  -0.80190299   0.12731081    11360.287     1000 
  566000    0.7269796   -1.8942105    1.0893789  -0.80483161   0.12844177    11398.256     1000 
  568000   0.76354261   -1.9177223    1.1441686  -0.77355372   0.13151411    11411.629     1000 
  570000   0.74500501   -1.9529914      1.11639  -0.83660143   0.12480135    11542.862     1000 
  572000   0.73282929   -1.9660784    1.0981447  -0.86793375   0.11462643    11543.123     1000 
  574000   0.78347579   -1.8976421    1.1740385  -0.72360365   0.12615537     11527.46     1000 
  576000   0.71883654    -1.966922    1.0771766  -0.88974549   0.12337829    11326.228     1000 
  578000   0.72329674   -1.9157251    1.0838602  -0.83186496   0.11459641    11452.282     1000 
  580000   0.74326371   -1.8533374    1.1137807  -0.73955674   0.11514324    11374.628     1000 
  582000   0.73163013   -1.9686238    1.0963477  -0.87227608   0.12297905    11427.869     1000 
  584000   0.75649768   -1.8622744    1.1336118   -0.7286626   0.13929915    11172.819     1000 
  586000    0.7297776   -1.9004863    1.0935717  -0.80691456   0.13278052     11291.05     1000 
  588000   0.72908369   -1.8724266    1.0925319  -0.77989473    0.1279088     11456.38     1000 
  590000   0.74122074   -1.8989353    1.1107193  -0.78821603   0.13646016     11404.56     1000 
  592000   0.73610453   -1.9115094    1.1030526  -0.80845674   0.11486463    11638.605     1000 
  594000   0.74721748   -1.8797094    1.1197054    -0.760004   0.14220875    11177.086     1000 
  596000   0.75783367   -1.9185186    1.1356138  -0.78290487   0.12713783     11511.52     1000 
  598000   0.74268676   -1.9384338    1.1129161  -0.82551767   0.11697236    11495.111     1000 
  600000   0.71951381   -1.8628547    1.0781914   -0.7846633   0.13425052    11388.399     1000 
  602000   0.72870109    -1.959166    1.0919586   -0.8672074   0.14267923    11478.732     1000 
  604000   0.74068472    -1.898972     1.109916  -0.78905597    0.1284123    11609.366     1000 
  606000   0.74607394   -1.9024419    1.1179918  -0.78445006   0.12826286     11440.39     1000 
  608000   0.74087454   -1.8851065    1.1102005    -0.774906   0.12822399    11446.257     1000 
  610000   0.74303526   -1.9273662    1.1134383  -0.81392783   0.13847188    11643.796     1000 
  612000   0.72579949   -1.8446975    1.0876105  -0.75708701   0.12237105    11345.552     1000 
  614000    0.7823591   -1.8769478    1.1723651  -0.70458271   0.13967873    11178.683     1000 
  616000   0.73940653   -1.9090302    1.1080007  -0.80102946   0.11634082    11653.701     1000 
  618000   0.75609309   -1.9019392    1.1330055  -0.76893368   0.12315844    11405.054     1000 
  620000   0.74658864   -1.9479705    1.1187631  -0.82920738   0.12618375    11496.351     1000 
  622000   0.72757032    -1.912951    1.0902641  -0.82268688    0.1156429    11581.569     1000 
  624000   0.76833118   -1.9000675    1.1513443  -0.74872318   0.14201217    11154.639     1000 
  626000   0.74658576   -1.9122782    1.1187588  -0.79351943   0.13321148    11436.213     1000 
  628000   0.75865748   -1.8863152    1.1368482    -0.749467   0.12746638    11300.468     1000 
  630000   0.75601212   -1.9147413    1.1328842  -0.78185716   0.14237922    11202.675     1000 
  632000   0.75102352   -1.9400611    1.1254087  -0.81465231   0.13471929    11316.132     1000 
  634000   0.73160402   -2.0042239    1.0963086  -0.90791527   0.13005566    11592.872     1000 
  636000   0.76425208   -1.9080038    1.1452317  -0.76277208   0.11657337    11400.876     1000 
  638000   0.75895668   -1.9168666    1.1372966  -0.77957003   0.13439388    11493.882     1000 
  640000   0.77199292   -1.9232797    1.1568314   -0.7664483   0.13187643    11379.672     1000 
  642000   0.72815139    -1.989821    1.0911349  -0.89868612   0.12413346     11513.77     1000 
  644000   0.75753447   -1.9226051    1.1351654  -0.78743971   0.12324484    11405.203     1000 
  646000   0.76629172    -1.917707    1.1482881  -0.76941885   0.12844713    11344.918     1000 
  648000   0.71113856    -1.819499    1.0656411  -0.75385789   0.13809417    11283.338     1000 
  650000   0.72775269   -1.9250319    1.0905374  -0.83449446   0.13589634     11554.35     1000 
  652000   0.71509529   -1.9823281    1.0715703   -0.9107578   0.11468609    11463.851     1000 
  654000   0.73908444   -1.9396867     1.107518  -0.83216863   0.12748773    11542.218     1000 
  656000   0.73499646   -1.9397076    1.1013922   -0.8383154   0.11051721    11623.698     1000 
  658000   0.74423112   -1.8599645    1.1152303  -0.74473418   0.12440302    11265.398     1000 
  660000   0.75854921   -1.9034559     1.136686  -0.76676987   0.15078879    11379.874     1000 
  662000   0.73555461   -1.9582605    1.1022286  -0.85603194   0.13271655    11497.016     1000 
  664000   0.79454752   -1.8924958    1.1906295  -0.70186638   0.13455561    11428.304     1000 
  666000   0.74582798   -1.9270476    1.1176232  -0.80942438   0.13628301    11423.314     1000 
  668000   0.75476895   -1.9171193    1.1310213  -0.78609799   0.13153497    11329.065     1000 
  670000   0.73863368   -1.9839485    1.1068426   -0.8771059     0.125769    11504.371     1000 
  672000   0.75063198   -1.9536427     1.124822  -0.82882066   0.12861254    11492.026     1000 
  674000   0.77275022   -1.9209319    1.1579662  -0.76296571   0.14821069    11281.879     1000 
  676000   0.76915989   -1.9457723    1.1525861  -0.79318622   0.14671872    11363.587     1000 
  678000   0.73200144   -1.9020297    1.0969042  -0.80512555   0.12324256    11465.604     1000 
  680000   0.79192756   -1.9033705    1.1867034   -0.7166671   0.13391004    11298.972     1000 
  682000    0.7324822   -1.8605639    1.0976246  -0.76293934   0.13971309    11389.361     1000 
  684000   0.71175661   -1.9144766    1.0665673  -0.84790931   0.14321226    11427.355     1000 
  686000    0.7103949    -1.871881    1.0645268  -0.80735427   0.12693631    11398.637     1000 
  688000   0.74534884   -1.9228193    1.1169052   -0.8059141    0.1254632    11541.482     1000 
  690000   0.75778886   -1.9265277    1.1355466   -0.7909811    0.1441734    11335.113     1000 
  692000   0.76041257   -1.9976044    1.1394782  -0.85812621   0.11848413    11566.822     1000 
  694000   0.75062303   -1.9295043    1.1248086  -0.80469573   0.13655598    11357.371     1000 
  696000   0.73480345   -1.9833503     1.101103  -0.88224738   0.13812795    11429.155     1000 
  698000   0.76406023   -1.8643871    1.1449443  -0.71944284   0.14826246    11280.559     1000 
  700000   0.75065863    -1.887355     1.124862  -0.76249307   0.12677194    11290.528     1000 
  702000    0.7550632   -1.8847912    1.1314622  -0.75332895   0.12195229    11721.543     1000 
  704000   0.74909787    -1.906305    1.1225232  -0.78378184   0.12350722    11519.213     1000 
  706000   0.75541693   -1.8668441    1.1319923  -0.73485183    0.1346256    11356.935     1000 
  708000   0.81176438   -1.9197051    1.2164289  -0.70327616   0.12893037    11583.022     1000 
  710000   0.74776834   -1.9770481    1.1205309  -0.85651724   0.13749961    11426.365     1000 
  712000   0.75816713   -1.8504241    1.1361134  -0.71431066   0.13556576    11254.319     1000 
  714000   0.76506862   -2.0033499    1.1464553  -0.85689452   0.11493027    11708.879     1000 
  716000   0.78480656   -1.8891329    1.1760326  -0.71310022   0.13692015    11421.823     1000 
  718000   0.76523074   -1.9291394    1.1466983  -0.78244111   0.13902127    11509.846     1000 
  720000   0.73244781   -1.9546119     1.097573  -0.85703883   0.12843455    11523.457     1000 
  722000   0.73955743   -1.9660865    1.1082268  -0.85785974   0.11940418    11591.734     1000 
  724000   0.73932771   -2.0086987    1.1078826  -0.90081616   0.11739688    11601.983     1000 
  726000   0.74139676   -1.9509437     1.110983  -0.83996069   0.13777789    11425.329     1000 
  728000   0.76913686   -1.9682304    1.1525516  -0.81567882   0.12868667    11594.587     1000 
  730000   0.73518081   -1.9136486    1.1016684  -0.81198016   0.12838813    11404.817     1000 
  732000   0.73328589    -1.892526    1.0988289  -0.79369714   0.12678099     11587.36     1000 
  734000   0.76665881   -1.8722284    1.1488382  -0.72339014   0.13657292    11279.976     1000 
  736000   0.72023915   -1.8980119    1.0792784  -0.81873358   0.12596791    11311.187     1000 
  738000   0.73507701   -1.9185809    1.1015129  -0.81706801   0.12731193    11441.782     1000 
  740000   0.77319009    -1.968353    1.1586253  -0.80972761   0.12118492    11434.646     1000 
  742000   0.74618182   -1.8853664    1.1181535  -0.76721293   0.11096668    11724.439     1000 
  744000   0.76957568   -1.9224671    1.1532092  -0.76925797   0.12176967    11513.648     1000 
  746000   0.74392523   -1.9190402     1.114772  -0.80426827    0.1376616    11414.172     1000 
  748000   0.76946126   -1.8815552    1.1530377  -0.72851753   0.14261348    11298.924     1000 
  750000   0.73347445   -1.9226213    1.0991115  -0.82350987   0.13895415    11340.692     1000 
  752000    0.7594305   -1.9386092    1.1380066  -0.80060255   0.12335032     11168.85     1000 
  754000   0.76394516   -1.8902494    1.1447718   -0.7454776   0.12835361    11375.562     1000 
  756000   0.75401144   -1.9575815    1.1298861   -0.8276954   0.12290144    11500.443     1000 
  758000   0.76641937   -1.9105885    1.1484794  -0.76210905   0.14664411     11348.49     1000 
  760000   0.75407489   -1.8878145    1.1299812  -0.75783332   0.11696749    11556.948     1000 
  762000   0.74930591   -1.9332421    1.1228349  -0.81040715   0.12657837    11418.115     1000 
  764000   0.75048977   -1.9463021    1.1246089  -0.82169319   0.13327988    11426.016     1000 
  766000   0.72904994   -1.9595818    1.0924813  -0.86710043   0.12221932    11588.101     1000 
  768000   0.75284562   -1.8872294    1.1281392  -0.75909022   0.10820422    11760.614     1000 
  770000   0.71445251   -1.9152159    1.0706071  -0.84460882   0.13552881    11271.929     1000 
  772000   0.74351376   -1.9416213    1.1141554  -0.82746593   0.14356463    11221.663     1000 
  774000    0.7573218    -1.915291    1.1348467  -0.78044431   0.12959372    11489.198     1000 
  776000   0.76116511   -1.8777946    1.1406059  -0.73718866   0.12574499    11391.941     1000 
  778000   0.72533049    -1.924884    1.0869077  -0.83797626   0.12424859    11467.242     1000 
  780000   0.77609031   -1.9269896    1.1629713  -0.76401827   0.13282581    11365.824     1000 
  782000   0.75292703   -1.9639341    1.1282612  -0.83567297   0.12092399    11374.617     1000 
  784000   0.74243589   -1.9240152    1.1125402  -0.81147502   0.12158689    11450.635     1000 
  786000   0.76288521   -1.9048915    1.1431835  -0.76170804    0.1471595    11141.294     1000 
  788000   0.75386816    -1.895455    1.1296714   -0.7657836   0.12211204    11551.655     1000 
  790000    0.7200884   -1.8898943    1.0790525  -0.81084181   0.14918347    10950.619     1000 
  792000   0.72838751   -1.8511528    1.0914887   -0.7596641    0.1246512    11167.096     1000 
  794000   0.74138705   -1.9022677    1.1109685  -0.79129922   0.12084534    11595.555     1000 
  796000   0.75089309   -1.9355228    1.1252133   -0.8103095   0.13301937    11369.375     1000 
  798000   0.77239003    -1.918405    1.1574265  -0.76097859   0.11415852    11653.426     1000 
  800000   0.73181201   -1.8891327    1.0966203  -0.79251238   0.12626942    11254.038     1000 
  802000   0.76942081   -1.8910686    1.1529771   -0.7380915   0.12498356    11510.709     1000 
  804000   0.73892541   -1.9040747    1.1072797  -0.79679493    0.1442046    11211.799     1000 
  806000   0.74388171    -1.992081    1.1147067  -0.87737424   0.13499145    11456.629     1000 
  808000   0.77905776   -1.9368631    1.1674181  -0.76944504   0.13851369    11358.539     1000 
  810000   0.75103565   -1.8744827    1.1254269  -0.74905576    0.1476866    11293.374     1000 
  812000   0.74888381   -1.9156467    1.1222024  -0.79344436   0.12631228    11456.318     1000 
  814000   0.74452605   -1.8890384    1.1156723  -0.77336611   0.12999072    11206.924     1000 
  816000   0.75249238   -1.9005917    1.1276098  -0.77298191   0.13312884    11322.994     1000 
  818000   0.76968891   -1.9120319    1.1533788  -0.75865304   0.14265263     11322.51     1000 
  820000     0.760501   -1.9197318    1.1396107  -0.78012108   0.12818481     11446.65     1000 
  822000    0.7389928   -1.9257388    1.1073807  -0.81835806     0.136566    11157.835     1000 
  824000   0.75180993   -1.9580954    1.1265872  -0.83150825   0.12851614     11446.15     1000 
  826000   0.77902284   -1.9542734    1.1673657  -0.78690764   0.14555348    11433.889     1000 
  828000   0.75172442   -1.9076352     1.126459  -0.78117621    0.1501916     11266.86     1000 
  830000   0.76519454   -1.9348576     1.146644  -0.78821355   0.14589312    11370.617     1000 
  832000   0.72719957   -1.8900209    1.0897086  -0.80031238   0.10881205    11342.159     1000 
  834000   0.75381786   -1.8735548    1.1295961  -0.74395871   0.12658161    11351.935     1000 
  836000   0.75283321   -1.9056608    1.1281206  -0.77754024    0.1381086    11243.203     1000 
  838000   0.74390379   -1.9288526    1.1147398  -0.81411274    0.1426595    11295.859     1000 
  840000   0.75335815   -1.9633126    1.1289072  -0.83440542   0.12102286    11661.581     1000 
  842000   0.73535719   -1.9459012    1.1019327  -0.84396845   0.13504856    11366.039     1000 
  844000   0.73654282   -1.8916045    1.1037094  -0.78789513   0.13141958     11420.09     1000 
  846000   0.77840253   -1.9020933    1.1664362  -0.73565716   0.12133161    11636.069     1000 
  848000   0.74510798   -1.8173751    1.1165443  -0.70083081   0.13410449    11338.635     1000 
  850000   0.73705813   -1.9178988    1.1044816  -0.81341717   0.12373796    11586.918     1000 
  852000    0.7421153   -1.8532078    1.1120598  -0.74114801   0.13727292    11141.307     1000 
  854000   0.72265211   -1.8933585    1.0828942  -0.81046426   0.11105639    11420.939     1000 
  856000    0.7688602   -1.9358478     1.152137   -0.7837108   0.11583776    11563.086     1000 
  858000   0.74550658   -1.9489989    1.1171416  -0.83185727   0.12866869    11318.911     1000 
  860000   0.76787315    -1.992688    1.1506579  -0.84203007   0.13072512    11200.128     1000 
  862000   0.73466342   -1.8945529    1.1008931  -0.79365972   0.12994657    11296.048     1000 
  864000    0.7473456   -1.9259284    1.1198974  -0.80603098   0.13811199    11315.703     1000 
  866000    0.7658515   -1.9060708    1.1476285  -0.75844228   0.12446961    11675.518     1000 
  868000   0.74997335   -1.9305566    1.1238351  -0.80672158   0.13421101    11191.475     1000 
  870000   0.75456435   -1.9092139    1.1307147  -0.77849926    0.1347726    11400.266     1000 
  872000   0.75529858   -1.9517354    1.1318149  -0.81992051   0.14461182    11137.538     1000 
  874000   0.72894844   -1.8922138    1.0923292  -0.79988456   0.11771809    11450.086     1000 
  876000   0.75337384   -1.9500233    1.1289307  -0.82109261   0.12381578    11427.009     1000 
  878000    0.7835927   -1.9078871    1.1742137  -0.73367347   0.14861711    11347.896     1000 
  880000   0.73396764   -1.8710059    1.0998505  -0.77115544   0.14348911    11406.193     1000 
  882000   0.75601068   -1.9412588     1.132882  -0.80837678   0.12618623    11476.667     1000 
  884000   0.78399684   -1.9244022    1.1748193  -0.74958293   0.12448903     11419.62     1000 
  886000   0.74817906   -1.9312787    1.1211463  -0.81013233    0.1078613     11697.42     1000 
  888000   0.74318262    -1.903674    1.1136592  -0.79001485   0.13057901    11365.162     1000 
  890000   0.73306107   -1.8990468     1.098492  -0.80055479   0.13575133    11334.132     1000 
  892000   0.75275471   -1.8768434    1.1280029  -0.74884046   0.12949057    11595.325     1000 
  894000   0.76272464   -1.9182895    1.1429429  -0.77534667   0.12524429    11230.158     1000 
  896000    0.7246543    -1.917087    1.0858945  -0.83119253   0.12110892     11739.46     1000 
  898000   0.75689709   -1.9474586    1.1342103  -0.81324832   0.13330693    11293.117     1000 
  900000    0.7556102   -1.9223441    1.1322819  -0.79006218   0.13703234    11390.902     1000 
  902000   0.78620967   -1.8832445    1.1781352  -0.70510933   0.11863105    11536.108     1000 
  904000   0.73501956   -1.9714729    1.1014268  -0.87004609   0.13005236    11454.415     1000 
  906000    0.7593366   -1.8986936    1.1378659  -0.76082766   0.13446791    11306.928     1000 
  908000   0.73615484   -1.9303188     1.103128  -0.82719081   0.13134932    11474.446     1000 
  910000   0.75449662   -1.9131516    1.1306132  -0.78253841   0.14109777    11286.486     1000 
  912000   0.74217242   -1.9374666    1.1121454  -0.82532123   0.11770128    11569.447     1000 
  914000    0.7351866   -1.9253853    1.1016771  -0.82370818    0.1274733    11328.183     1000 
  916000   0.72723015   -1.8934555    1.0897544  -0.80370116   0.14744612    11357.716     1000 
  918000   0.74247149   -1.8753593    1.1125935  -0.76276581   0.13626971    11201.804     1000 
  920000   0.72429507   -1.8740042    1.0853562  -0.78864806   0.13362154    11406.178     1000 
  922000   0.77952519   -1.8765779    1.1681185  -0.70845941   0.12418965    11597.512     1000 
  924000   0.78577613   -1.9006802    1.1774855  -0.72319466   0.13247069    11615.845     1000 
  926000   0.74375986   -1.8591089    1.1145241  -0.74458479   0.11403182    11529.852     1000 
  928000   0.73829476   -1.9179354    1.1063347  -0.81160074   0.13425524    11441.076     1000 
  930000   0.74144461    -1.965729    1.1110547  -0.85467422   0.12530182    11468.443     1000 
  932000   0.72277772   -1.9081651    1.0830824  -0.82508268    0.1309547    11304.388     1000 
  934000   0.77618272   -1.9156543    1.1631098  -0.75254452   0.12932172    11406.421     1000 
  936000     0.761869   -1.8892669    1.1416607  -0.74760624   0.13884451    11364.252     1000 
  938000   0.75191045   -1.8999792    1.1267378  -0.77324134   0.12176438    11502.894     1000 
  940000   0.77074194   -1.9277561    1.1549568   -0.7727993   0.14255117    11378.803     1000 
  942000   0.74470784   -1.9166864    1.1159447  -0.80074172   0.13333415    11453.334     1000 
  944000   0.75678575   -1.9130513    1.1340434   -0.7790079   0.11620952    11436.734     1000 
  946000   0.74373729   -1.9978394    1.1144903  -0.88334908   0.13972592    11337.267     1000 
  948000   0.75634651   -1.8806674    1.1333852  -0.74728216   0.12788898    11387.836     1000 
  950000   0.76540573   -1.9073253    1.1469605  -0.76036477   0.12949499    11430.542     1000 
  952000     0.735485    -1.879447    1.1021243  -0.77732272   0.11649432    11428.432     1000 
  954000   0.78372617   -1.9122605    1.1744137   -0.7378468   0.12958462    11498.521     1000 
  956000   0.73860662   -1.8745269     1.106802  -0.76772487   0.12895336    11259.785     1000 
  958000   0.72737622   -1.8950303    1.0899733  -0.80505703   0.11824182    11602.685     1000 
  960000   0.75334725   -1.8743479    1.1288909  -0.74545708   0.10828913    11729.811     1000 
  962000   0.70572661   -1.9017347    1.0575313  -0.84420336   0.12313358     11339.01     1000 
  964000   0.79080196   -1.8918526    1.1850167  -0.70683584   0.12292362    11463.517     1000 
  966000   0.73872175   -1.8840028    1.1069745  -0.77702826   0.13860134    11497.973     1000 
  968000   0.75234739   -1.9288743    1.1273926  -0.80148176   0.13452659    11522.588     1000 
  970000   0.72433474   -1.9542811    1.0854156  -0.86886553   0.13536542    11195.743     1000 
  972000   0.76053724   -1.9542289     1.139665   -0.8145638    0.1313658    11481.846     1000 
  974000   0.72911886   -1.9262312    1.0925846  -0.83364659   0.12872134     11557.83     1000 
  976000   0.78009657   -1.9796919    1.1689747  -0.81071717    0.1375073    11347.345     1000 
  978000   0.75030789   -1.9430871    1.1243364  -0.81875071   0.11937071    11700.088     1000 
  980000   0.72971626   -1.8669481    1.0934798   -0.7734683   0.12958065    11273.747     1000 
  982000    0.7532067   -1.8893527    1.1286802  -0.76067242   0.14756651    11228.622     1000 
  984000    0.7630094   -1.9456381    1.1433696  -0.80226857    0.1241039    11524.705     1000 
  986000    0.7184915   -1.8889139    1.0766595  -0.81225439    0.1186846    11492.113     1000 
  988000   0.71445528   -1.8840924    1.0706112  -0.81348122   0.13878358    11195.879     1000 
  990000   0.70723567   -1.9027185    1.0597927  -0.84292588   0.11614345     11497.51     1000 
  992000   0.73193563   -1.9020791    1.0968055  -0.80527359   0.12493301    11537.855     1000 
  994000   0.73946109   -1.9015812    1.1080824  -0.79349875   0.13477493    11468.526     1000 
  996000   0.75126436      -1.8992    1.1257696  -0.77343036   0.12934245    11299.588     1000 
  998000   0.75339081   -1.8967504    1.1289561  -0.76779429   0.13667497    11353.977     1000 
 1000000   0.73900224   -1.8846659    1.1073949  -0.77727103   0.11916279    11270.131     1000 
 1002000   0.75782446   -1.9075268       1.1356  -0.77192681   0.13455728    11084.633     1000 
 1004000   0.76076804   -1.8974656    1.1400109  -0.75745469   0.12918306    11426.643     1000 
 1006000   0.76236305   -1.9439187     1.142401  -0.80151764   0.11947214    11339.444     1000 
 1008000   0.73292528   -1.9187706    1.0982885  -0.82048202   0.13997167    11447.548     1000 
 1010000   0.74287966   -1.8913309    1.1132052  -0.77812574   0.12157113    11416.476     1000 
 1012000   0.75467458   -2.0101834    1.1308799  -0.87930354   0.12770213    11471.759     1000 
 1014000   0.75049638   -1.9100473    1.1246188  -0.78542845   0.12687607    11610.247     1000 
 1016000   0.69184318   -1.9349759     1.036727  -0.89824892   0.12852687     11322.57     1000 
 1018000   0.78492116   -1.9222312    1.1762044  -0.74602682   0.14006332     11416.77     1000 
 1020000   0.76545167   -1.8619361    1.1470293  -0.71490675   0.13187729     11181.25     1000 
 1022000   0.72854086   -1.9640307    1.0917185  -0.87231219   0.12192258    11561.833     1000 
 1024000   0.75340523   -1.9121465    1.1289777   -0.7831688   0.12729064     11498.67     1000 
 1026000   0.72613537   -1.9678627    1.0881139  -0.87974889   0.12431461    11495.575     1000 
 1028000   0.71436831   -1.9196978    1.0704809  -0.84921686   0.13058387    11382.236     1000 
 1030000   0.72486613   -1.8813415    1.0862119  -0.79512963   0.12897615    11264.602     1000 
 1032000   0.75790341   -1.8708063    1.1357183  -0.73508801   0.13691519    11468.619     1000 
 1034000   0.77594671   -1.9034047    1.1627561  -0.74064859   0.15092283    11438.355     1000 
 1036000   0.76586213     -1.92672    1.1476444   -0.7790756   0.14295941    11136.297     1000 
 1038000   0.77811968   -1.9159003    1.1660123  -0.74988792   0.13493506    11303.111     1000 
 1040000   0.73570625   -1.9100649    1.1024558  -0.80760912   0.11512984    11405.154     1000 
 1042000   0.75956887   -1.9049062     1.138214  -0.76669221   0.12739853    11355.003     1000 
 1044000   0.73149043   -1.9519001    1.0961384  -0.85576171   0.12941642    11285.318     1000 
 1046000    0.7576544   -1.8947403    1.1353451  -0.75939514   0.14243666    11195.521     1000 
 1048000   0.75244393   -1.9306054    1.1275372  -0.80306821   0.11942606    11551.969     1000 
 1050000   0.76461189   -1.9470332    1.1457709  -0.80126232    0.1222658    11556.379     1000 
 1052000   0.73013839   -1.8897657    1.0941124  -0.79565328   0.11694163    11687.101     1000 
 1054000   0.76618554   -1.9191803     1.148129  -0.77105123   0.13428605     11301.37     1000 
 1056000   0.77212692   -1.8420006    1.1570322  -0.68496837   0.14257966     11208.05     1000 
 1058000   0.73453911   -1.9106319    1.1007069  -0.80992502   0.12049099    11485.208     1000 
 1060000    0.7212746   -1.9205036      1.08083  -0.83967357    0.1215851    11608.995     1000 
 1062000    0.7616853   -1.8912404    1.1413854  -0.74985497   0.14152431    11266.674     1000 
 1064000   0.78792725   -1.9222524     1.180709  -0.74154343   0.13728488    11340.302     1000 
 1066000   0.75613474    -1.952545    1.1330679  -0.81947712   0.12689721    11369.301     1000 
 1068000   0.74991587   -1.9113182    1.1237489  -0.78756928   0.13636332    11438.392     1000 
 1070000   0.73793759   -1.9053235    1.1057995  -0.79952397   0.12660681    11526.093     1000 
 1072000   0.76367165   -1.9449276     1.144362  -0.80056566   0.13447436    11524.849     1000 
 1074000   0.76289524   -1.8869672    1.1431985  -0.74376866   0.14441036    11284.213     1000 
 1076000   0.73665632   -1.9330383    1.1038795  -0.82915876   0.13786251    11286.637     1000 
 1078000   0.76844775   -1.8804008    1.1515189  -0.72888181   0.12232362    11456.231     1000 
 1080000   0.74772292   -1.9419849    1.1204628   -0.8215221   0.14044176    11437.581     1000 
 1082000   0.80423486   -1.9262906    1.2051459  -0.72114469   0.13808338    11519.443     1000 
 1084000   0.71025398   -1.9145923    1.0643156  -0.85027674   0.12565799    11260.677     1000 
 1086000   0.75616268   -1.9383683    1.1331098  -0.80525854   0.12896166    11375.736     1000 
 1088000   0.73052821   -1.9356262    1.0946965  -0.84092972   0.12582939    11553.315     1000 
 1090000   0.77298064   -1.9792285    1.1583115  -0.82091701   0.12333739     11388.49     1000 
 1092000   0.74878407   -1.8915051    1.1220529  -0.76945213   0.12367767    11285.965     1000 
 1094000   0.73321516   -1.9715655    1.0987229  -0.87284261   0.12239551     11471.72     1000 
 1096000   0.76353883   -1.8643139    1.1441629  -0.72015092    0.1283576    11508.479     1000 
 1098000   0.75878498   -1.9438776    1.1370393  -0.80683831   0.14616514    11099.009     1000 
 1100000    0.7816417   -1.8776764    1.1712901  -0.70638628   0.14284746    11228.361     1000 
 1102000   0.74209262   -1.8775181    1.1120258  -0.76549231   0.12804812    11363.318     1000 
 1104000   0.74765217    -1.932434    1.1203568  -0.81207719   0.12697961    11626.229     1000 
 1106000   0.73770538   -1.8993262    1.1054515  -0.79387472   0.14224505    11391.751     1000 
 1108000   0.76463402   -1.9236409    1.1458041  -0.77783681   0.12953461    11450.668     1000 
 1110000   0.75519141   -1.9351297    1.1316543   -0.8034754   0.12961839    11572.832     1000 
 1112000   0.74145937   -1.9342326    1.1110769  -0.82315571   0.11984221    11357.773     1000 
 1114000   0.73162169   -1.8871068    1.0963351  -0.79077173   0.11738791    11439.895     1000 
 1116000   0.76380145   -1.8848178    1.1445565  -0.74026136   0.12867741    11221.596     1000 
 1118000   0.76446163   -1.8886101    1.1455458  -0.74306432   0.13577522    11404.289     1000 
 1120000   0.74666942   -1.8724585    1.1188841  -0.75357435   0.13454687    11447.339     1000 
 1122000   0.75062758   -1.9182995    1.1248154  -0.79348405   0.12322359    11485.002     1000 
 1124000   0.76387513   -1.8712193    1.1446669  -0.72655239   0.12694803    11414.578     1000 
 1126000   0.74380045   -1.8850541     1.114585   -0.7704691   0.12242969    11578.407     1000 
 1128000   0.74302898   -1.8480086    1.1134289  -0.73457966   0.13628087    11212.675     1000 
 1130000   0.75976705   -1.8698352    1.1385109  -0.73132431   0.14130405     11350.36     1000 
 1132000   0.73647599   -1.9342954    1.1036093  -0.83068611   0.13051854    11410.513     1000 
 1134000   0.73864532   -1.9361103      1.10686  -0.82925031   0.12951649    11474.074     1000 
 1136000   0.76030823   -1.9417154    1.1393219  -0.80239352   0.13544789    11446.684     1000 
 1138000   0.78386676   -1.9539847    1.1746243  -0.77936034    0.1250757    11627.106     1000 
 1140000   0.75444948   -1.8678551    1.1305425  -0.73731254    0.1318875    11571.868     1000 
 1142000   0.77119077    -1.899879    1.1556294  -0.74424965   0.13231386    11340.109     1000 
 1144000    0.7585119   -1.8589105    1.1366301  -0.72228043   0.13481818    11150.301     1000 
 1146000   0.76298022   -1.9359168    1.1433259  -0.79259099   0.14700773      11395.9     1000 
 1148000   0.72187585   -1.9511681     1.081731  -0.86943711   0.10662053    11553.204     1000 
 1150000   0.72105648   -1.9447109    1.0805031  -0.86420779   0.13686242    11290.605     1000 
 1152000   0.75458945   -1.9561668    1.1307523  -0.82541451   0.12721708    11578.558     1000 
 1154000   0.72606722   -1.9176295    1.0880117  -0.82961772   0.13838939    11248.372     1000 
 1156000   0.73566585   -1.8790093    1.1023953  -0.77661407   0.14381351     11280.28     1000 
 1158000   0.77466285   -1.8808503    1.1608323  -0.72001802   0.12489709    11629.474     1000 
 1160000   0.74689039   -1.9468957    1.1192153  -0.82768045   0.13361969    11371.578     1000 
 1162000   0.75283509   -1.8926649    1.1281234  -0.76454153   0.14688969    11075.258     1000 
 1164000   0.72539255   -1.9445572    1.0870007  -0.85755644   0.13784434    11496.891     1000 
 1166000    0.7459679   -1.9066294    1.1178329  -0.78879647   0.13619128    11268.645     1000 
 1168000   0.72227312   -1.9613822    1.0823263  -0.87905597    0.1370862     11553.99     1000 
 1170000   0.74634269   -1.8783328    1.1183945  -0.75993824   0.13565603    11348.151     1000 
 1172000   0.76977035    -1.904794    1.1535009  -0.75129308   0.12072845    11565.394     1000 
 1174000   0.76474137   -1.9088119     1.145965  -0.76284697   0.12834064    11414.367     1000 
 1176000   0.71983944   -1.9412365    1.0786794  -0.86255714   0.12766202    11372.407     1000 
 1178000   0.71066624   -1.8710527    1.0649334  -0.80611935   0.11427083    11350.385     1000 
 1180000   0.73296346   -1.9454016    1.0983457   -0.8470559   0.11268113    11397.907     1000 
 1182000   0.74975624   -1.9446692    1.1235097  -0.82115946   0.12358053    11404.123     1000 
 1184000   0.73081347   -1.9472149     1.095124  -0.85209092   0.12927698    11395.366     1000 
 1186000   0.77661357   -1.9235726    1.1637554  -0.75981714   0.14680848    11481.123     1000 
 1188000   0.76768432   -1.8586276     1.150375  -0.70825269   0.13222656    11350.078     1000 
 1190000   0.79374671    -1.890916    1.1894294  -0.70148657   0.12993516    11300.286     1000 
 1192000   0.75357516    -1.926598    1.1292324  -0.79736557   0.13340882    11452.022     1000 
 1194000   0.77254786   -1.8691304     1.157663  -0.71146742   0.13781538    11346.972     1000 
 1196000   0.71655205     -1.92948    1.0737532  -0.85572679    0.1286202    11336.645     1000 
 1198000   0.74928348   -1.9377822    1.1228013  -0.81498088   0.12700976    11579.587     1000 
 1200000    0.7477527   -1.8630619    1.1205074  -0.74255447   0.13537995     11458.15     1000 
 1202000   0.78333281   -1.9434808    1.1738242  -0.76965662   0.14470029    11309.022     1000 
 1204000   0.73593462   -1.9345594     1.102798  -0.83176137   0.12293567     11477.42     1000 
 1206000   0.73130721   -1.9742549    1.0958639  -0.87839105   0.13050614    11441.406     1000 
 1208000    0.7559479   -1.9233612    1.1327879  -0.79057325   0.13461462    11368.409     1000 
 1210000    0.7701567   -1.9108922    1.1540798  -0.75681235    0.1282737    11418.719     1000 
 1212000   0.74898454   -1.9418809    1.1223533  -0.81952753   0.12144537    11615.284     1000 
 1214000   0.72912241   -1.9045221    1.0925899  -0.81193216   0.13894991    11255.069     1000 
 1216000    0.7545258   -1.8969266    1.1306569  -0.76626972   0.15192432    11136.716     1000 
 1218000   0.74969786   -1.8826957    1.1234222  -0.75927349    0.1428066    11359.244     1000 
 1220000   0.76536707   -1.8214542    1.1469026  -0.67455162   0.13945315    11029.996     1000 
 1222000   0.75961507   -1.8563537    1.1382832  -0.71807051   0.13809089    11366.151     1000 
 1224000   0.75901047   -1.9232403    1.1373772  -0.78586307   0.13340241    11489.329     1000 
 1226000   0.80961066   -1.8875257    1.2132016  -0.67432416   0.12794638    11500.863     1000 
 1228000   0.73946731   -1.9208135    1.1080918  -0.81272177   0.12485175    11565.122     1000 
 1230000   0.75608529   -1.9023947    1.1329938  -0.76940085   0.13987491    11208.833     1000 
 1232000   0.76647474   -1.8956437    1.1485624  -0.74708131   0.13424653     11546.79     1000 
 1234000   0.77094896   -1.9386417     1.155267  -0.78337468   0.14998051     11453.78     1000 
 1236000   0.73276003   -1.9329703    1.0980409  -0.83492944   0.13521315    11198.327     1000 
 1238000   0.74238664   -1.8788895    1.1124664  -0.76642313   0.13452645    11444.752     1000 
 1240000   0.74249356   -1.8553749    1.1126266  -0.74274825   0.11548892    11641.335     1000 
 1242000   0.77100126   -1.8703363    1.1553454  -0.71499096    0.1222549    11516.248     1000 
 1244000   0.72368007   -1.9716371    1.0844346  -0.88720249   0.12271783    11527.532     1000 
 1246000   0.75598412   -1.9359516    1.1328422  -0.80310935   0.14751452    11102.832     1000 
 1248000   0.76473294   -1.8894822    1.1459523   -0.7435299   0.12376476    11720.226     1000 
 1250000   0.73575104   -1.8634101    1.1025229  -0.76088717   0.14377244    11219.261     1000 
 1252000   0.73125877   -1.9183932    1.0957913  -0.82260196    0.1146865    11344.649     1000 
 1254000   0.68353858   -1.9324885    1.0242826  -0.90820594   0.12655678    11386.013     1000 
 1256000   0.75551666   -1.9229504    1.1321417  -0.79080867   0.11948119     11552.94     1000 
 1258000   0.76640972   -1.8683161     1.148465  -0.71985117   0.13843345    11338.017     1000 
 1260000   0.78021966   -1.9368379    1.1691592  -0.76767876   0.15278918    11275.969     1000 
 1262000   0.73849152   -1.8984226    1.1066295   -0.7917931   0.12404788     11597.46     1000 
 1264000   0.78537233   -1.8896252    1.1768804  -0.71274477   0.12134007    11354.344     1000 
 1266000    0.7438322   -1.9102871    1.1146326  -0.79565457   0.12514252    11713.228     1000 
 1268000   0.72470654     -1.94711    1.0859727  -0.86113722   0.11950601    11588.467     1000 
 1270000   0.73829106   -1.9159948    1.1063292  -0.80966565   0.12831288    11313.298     1000 
 1272000   0.77235096   -1.9380405    1.1573679  -0.78067256   0.13376277    11363.389     1000 
 1274000    0.7601842   -1.9226894     1.139136  -0.78355343   0.12258343    11360.052     1000 
 1276000   0.76869567   -1.9278256    1.1518905  -0.77593509   0.13766304    11358.423     1000 
 1278000   0.73729476   -1.8831705    1.1048362  -0.77833429   0.14947562    11226.337     1000 
 1280000   0.78322441   -1.9332796    1.1736618   -0.7596178   0.12628705    11598.471     1000 
 1282000   0.74863217   -1.9010846    1.1218253  -0.77925928   0.12446454     11430.12     1000 
 1284000   0.77286582   -1.9318437    1.1581394  -0.77370425    0.1391259    11469.701     1000 
 1286000   0.71920594   -1.9407811    1.0777301  -0.86305097   0.12328117     11543.82     1000 
 1288000   0.74955037   -1.8972305    1.1232012  -0.77402923   0.14224866     11312.02     1000 
 1290000   0.72562385   -1.8973806    1.0873473  -0.81003322   0.11920941    11331.867     1000 
 1292000   0.75520091   -1.9037268    1.1316686  -0.77205823   0.13582064    11385.265     1000 
 1294000   0.74669597   -1.9047606    1.1189239  -0.78583672   0.12181606    11545.483     1000 
 1296000   0.78743354   -1.9016706    1.1799692  -0.72170148   0.14490771    11296.979     1000 
 1298000   0.77564423   -1.9739734    1.1623029  -0.81167055   0.12128166    11868.288     1000 
 1300000   0.73650341   -1.9320188    1.1036504  -0.82836839   0.13909746    11347.375     1000 
 1302000   0.76013448   -1.9439359    1.1390615  -0.80487435   0.13004335    11397.815     1000 
 1304000   0.75837659   -1.9186442    1.1364273  -0.78221687   0.13220714    11424.093     1000 
 1306000   0.76023235   -1.8533059    1.1392082  -0.71409771   0.13440294    11399.729     1000 
 1308000   0.74057458   -1.9648441     1.109751   -0.8550931   0.12735668    11407.711     1000 
 1310000   0.77689528   -1.8737753    1.1641776  -0.70959769   0.13092626    11390.048     1000 
 1312000   0.73931806   -1.9021232    1.1078681  -0.79425507   0.12785537    11371.199     1000 
 1314000   0.74533504    -1.897987    1.1168846  -0.78110246    0.1238112     11602.35     1000 
 1316000   0.76876068   -1.8908041    1.1519879   -0.7388162   0.13082337    11289.235     1000 
 1318000   0.78875096   -1.9675123    1.1819433  -0.78556896   0.12212476    11616.368     1000 
 1320000     0.742889   -1.9207046    1.1132192   -0.8074854   0.13438112    11362.273     1000 
 1322000    0.7361496    -1.892832    1.1031202  -0.78971187   0.13845504    11389.815     1000 
 1324000   0.78278874   -1.9707086    1.1730089  -0.79769963   0.12324537    11467.659     1000 
 1326000   0.71786736   -1.9134402    1.0757242  -0.83771592   0.12268023    11365.496     1000 
 1328000   0.73357211    -1.956079    1.0992578  -0.85682117   0.12389652     11382.87     1000 
 1330000    0.7732674   -1.8670896    1.1587412  -0.70834835    0.1367396    11187.819     1000 
 1332000   0.74105216   -1.8602276    1.1104667  -0.74976092   0.12716097    11464.974     1000 
 1334000   0.75734976    -1.905615    1.1348886  -0.77072633   0.12701705    11662.177     1000 
 1336000   0.74940564   -1.9101765    1.1229844  -0.78719214   0.13451395    11280.791     1000 
 1338000   0.77352526   -1.8541656    1.1591276  -0.69503797   0.13118757     11381.87     1000 
 1340000   0.76769908   -1.8750398    1.1503971  -0.72464278   0.13716262    11264.351     1000 
 1342000   0.76241917   -1.8820957    1.1424851  -0.73961058   0.12354854     11495.35     1000 
 1344000   0.75066491   -1.8520123    1.1248714  -0.72714093   0.11106935    11722.733     1000 
 1346000   0.73745514   -1.9040572    1.1050765  -0.79898071     0.129328    11341.547     1000 
 1348000   0.76019291   -1.8479899    1.1391491  -0.70884082   0.13999119    11357.866     1000 
 1350000   0.75408821   -1.9078682    1.1300012  -0.77786701   0.12917244     11507.92     1000 
 1352000   0.73515248   -1.9425882     1.101626  -0.84096224   0.13462002    11298.682     1000 
 1354000   0.75897216    -1.910789    1.1373198  -0.77346919   0.11455758    11558.269     1000 
 1356000   0.70434919   -1.8722864    1.0554673  -0.81681913   0.13638688    11404.585     1000 
 1358000   0.79094889   -1.8964256    1.1852369  -0.71118868   0.12419988    11598.773     1000 
 1360000   0.74857926   -1.8996802     1.121746  -0.77793416   0.13410695    11271.022     1000 
 1362000   0.73968131   -1.9326448    1.1084124  -0.82423234   0.11927897     11480.33     1000 
 1364000   0.70805215   -1.9250081    1.0610161  -0.86399198    0.1131037    11610.362     1000 
 1366000   0.76266591   -1.9591143    1.1428549   -0.8162594   0.12701208    11410.089     1000 
 1368000    0.7308836   -1.8998138    1.0952291  -0.80458471   0.14041422    11428.307     1000 
 1370000   0.72842899   -1.8970527    1.0915508  -0.80550189   0.12038015    11678.796     1000 
 1372000   0.78349676   -1.9394469    1.1740699    -0.765377   0.14991454    11282.716     1000 
 1374000   0.73381597   -1.9822815    1.0996232  -0.88265831   0.13140909    11634.294     1000 
 1376000   0.75170697   -1.9186579    1.1264329  -0.79222503   0.13380455    11561.755     1000 
 1378000   0.73773647    -1.932029    1.1054981  -0.82653087   0.13230943    11326.619     1000 
 1380000   0.70859391   -1.8684685     1.061828  -0.80664054   0.12224047    11338.225     1000 
 1382000   0.72059467   -1.8927822    1.0798111  -0.81297108   0.12855886    11343.103     1000 
 1384000   0.75694178   -1.9834527    1.1342773  -0.84917549   0.12778905    11385.244     1000 
 1386000   0.74296728   -1.9615811    1.1133365  -0.84824459    0.1180165    11480.674     1000 
 1388000   0.75185084    -1.922542    1.1266485  -0.79589354   0.13306441    11345.653     1000 
 1390000   0.77677686   -1.8847864    1.1640001  -0.72078629   0.12649504    11372.226     1000 
 1392000    0.7615462   -1.9390348     1.141177  -0.79785779   0.12587434    11439.214     1000 
 1394000   0.78554877   -1.9033189    1.1771448  -0.72617412   0.13420546    11346.683     1000 
 1396000   0.77093643   -1.9238769    1.1552482  -0.76862867   0.12812343    11480.408     1000 
 1398000   0.75805717   -1.8997762    1.1359487  -0.76382752   0.13238454    11438.645     1000 
 1400000   0.72576502   -1.9303257    1.0875589  -0.84276679   0.11945313    11217.509     1000 
 1402000   0.78157039   -1.9037918    1.1711832  -0.73260862   0.14717633    11123.009     1000 
 1404000   0.75878089   -1.9143632    1.1370332  -0.77733003    0.1344549    11551.101     1000 
 1406000   0.76131744    -1.894885    1.1408342  -0.75405082   0.13162163    11500.781     1000 
 1408000   0.77456493    -1.892666    1.1606856  -0.73198048   0.13134193    11306.305     1000 
 1410000    0.7445393   -1.9269401    1.1156921  -0.81124791   0.12670326    11369.473     1000 
 1412000   0.77416693   -1.8828104    1.1600891   -0.7227213   0.13433022    11504.011     1000 
 1414000   0.75143355   -1.9386154    1.1260232  -0.81259222   0.13151381    11357.699     1000 
 1416000   0.74429092   -1.9532501    1.1153199  -0.83793017   0.12857231    11371.517     1000 
 1418000   0.74209479   -1.9570066     1.112029  -0.84497756    0.1223916     11420.91     1000 
 1420000   0.74749369   -1.9786836    1.1201193  -0.85856434   0.14258903    11293.109     1000 
 1422000   0.75705326   -1.9207022    1.1344443  -0.78625786   0.11194857    11617.327     1000 
 1424000   0.72892237   -1.9011253    1.0922902  -0.80883515   0.14427853    11400.593     1000 
 1426000   0.72795294   -1.9092637    1.0908375  -0.81842626   0.14146006    11373.513     1000 
 1428000   0.77228602   -1.9092543    1.1572706  -0.75198367   0.12461314    11725.784     1000 
 1430000   0.75587887   -1.9333209    1.1326845  -0.80063642   0.12718352    11394.886     1000 
 1432000   0.77565497   -1.9299414     1.162319  -0.76762241   0.14087094    11353.858     1000 
 1434000   0.76876022   -1.9186316    1.1519872  -0.76664445   0.12015861    11452.174     1000 
 1436000   0.75223129   -1.8987756    1.1272186  -0.77155703   0.13950634     11298.12     1000 
 1438000    0.7568834   -1.9036035    1.1341898  -0.76941375   0.13875628    11462.025     1000 
 1440000   0.73567296   -1.9315546    1.1024059  -0.82914867   0.13454599    11212.923     1000 
 1442000   0.74803503   -1.8661654    1.1209305  -0.74523486   0.12631922    11665.765     1000 
 1444000   0.74120173   -1.9336089    1.1106908   -0.8229181   0.14391874    11230.362     1000 
 1446000   0.76495995   -1.9257522    1.1462925   -0.7794597   0.12851667     11486.39     1000 
 1448000   0.76700424   -1.9027375    1.1493558  -0.75338165   0.12760226    11417.231     1000 
 1450000   0.72974276   -1.8688462    1.0935195  -0.77532669   0.13295588    11360.115     1000 
 1452000   0.77484957   -1.9433993    1.1611121  -0.78228718   0.13816471    11393.938     1000 
 1454000   0.74355226    -1.912477    1.1142131   -0.7982639   0.12555422    11300.779     1000 
 1456000   0.72444093   -1.9479568    1.0855747   -0.8623821   0.11291171    11474.266     1000 
 1458000   0.77657573   -1.8904457    1.1636987  -0.72674698   0.13537304    11447.884     1000 
 1460000   0.74817745    -1.956743    1.1211439  -0.83559906   0.11792343    11353.076     1000 
 1462000   0.73240679   -1.9051862    1.0975116  -0.80767458   0.13175925    11287.355     1000 
 1464000   0.74537608    -1.926447    1.1169461  -0.80950091    0.1235932    11470.277     1000 
 1466000   0.77458156   -1.8955765    1.1607105  -0.73486605   0.11322713    11688.015     1000 
 1468000    0.7255358   -1.8952111    1.0872154  -0.80799567   0.13805526    11370.475     1000 
 1470000   0.75303673   -1.9544377    1.1284255  -0.82601215   0.12979487     11500.48     1000 
 1472000   0.75227063   -1.9067594    1.1272775  -0.77948183   0.13213241    11254.374     1000 
 1474000   0.71514899   -1.9072061    1.0716508  -0.83555529   0.11444147     11443.94     1000 
 1476000   0.77156556   -1.9839758     1.156191  -0.82778477   0.13501278    11600.191     1000 
 1478000   0.72934148   -1.9067806    1.0929182  -0.81386235   0.13551124    11300.812     1000 
 1480000   0.76699016   -1.8639472    1.1493347  -0.71461247   0.13184996    11284.235     1000 
 1482000   0.75602676   -1.9998458    1.1329061  -0.86693975   0.12469903    11733.429     1000 
 1484000   0.74351127   -1.9441965    1.1141516  -0.83004488   0.13013762    11358.726     1000 
 1486000    0.7867886   -1.8929429    1.1790027  -0.71394013   0.12597778    11538.273     1000 
 1488000   0.73173103   -1.8868093     1.096499   -0.7903103   0.12531972     11430.76     1000 
 1490000   0.73852163   -1.9457457    1.1066747    -0.839071   0.11253761    11728.817     1000 
 1492000   0.73631517    -1.891782    1.1033683  -0.78841374   0.13364932    11287.566     1000 
 1494000   0.76045575   -1.9103567    1.1395429  -0.77081377   0.13550721    11530.192     1000 
 1496000   0.78891154   -1.9141357    1.1821839  -0.73195175   0.12741046    11462.475     1000 
 1498000   0.73810618    -1.897465    1.1060521  -0.79141288   0.13339091    11384.945     1000 
 1500000   0.72084117   -1.9688252    1.0801805  -0.88864471   0.12961643    11441.258     1000 
 1502000   0.72885969   -1.9506318    1.0921962  -0.85843551   0.13718498     11324.48     1000 
 1504000   0.75963171   -1.9001659    1.1383081  -0.76185777   0.13387777    11302.754     1000 
 1506000   0.76124159   -1.8425208    1.1407205  -0.70180028   0.12626352     11281.84     1000 
 1508000   0.77542254   -1.8871344    1.1619707  -0.72516367    0.1336751    11279.762     1000 
 1510000   0.71822439   -1.9730563    1.0762592  -0.89679707    0.1239114    11658.915     1000 
 1512000   0.75856696   -1.8922625    1.1367126  -0.75554989   0.13164735    11331.767     1000 
 1514000   0.74371483   -1.9949639    1.1144567  -0.88050722   0.11159946    11568.064     1000 
 1516000   0.73862027   -1.9169136    1.1068225  -0.81009115   0.13650442    11322.348     1000 
 1518000   0.74589859   -1.9107185     1.117729  -0.79298951    0.1285141    11425.963     1000 
 1520000   0.76295567   -1.8410296    1.1432891  -0.69774049   0.12057024    11396.852     1000 
 1522000     0.760843   -1.9278275    1.1401232  -0.78770428   0.13047387    11563.276     1000 
 1524000   0.76395662   -1.9579402     1.144789   -0.8131512   0.13963118      11305.1     1000 
 1526000   0.73570709   -1.9588443    1.1024571  -0.85638728   0.12842242    11647.322     1000 
 1528000   0.75624443   -1.9048014    1.1332323   -0.7715691    0.1437071    11403.131     1000 
 1530000   0.75729946    -1.903408    1.1348132  -0.76859479   0.14192433    11257.876     1000 
 1532000   0.76596257   -1.8959614    1.1477949  -0.74816651   0.13140123    11340.365     1000 
 1534000    0.7663929   -1.8992448    1.1484398  -0.75080503   0.11919623    11485.213     1000 
 1536000   0.73924057    -1.931842     1.107752  -0.82408996   0.14361675     11368.47     1000 
 1538000   0.75268039   -1.8807717    1.1278916  -0.75288015    0.1434171    11149.871     1000 
 1540000   0.73926811   -1.9079791    1.1077933  -0.80018587   0.12690586    11188.625     1000 
 1542000    0.7483128   -1.8996166    1.1213467  -0.77826986    0.1220668    11379.337     1000 
 1544000   0.76024134   -1.9036976    1.1392217  -0.76447598   0.14315736    11188.273     1000 
 1546000   0.78157233   -1.8963699    1.1711861  -0.72518377   0.12990081    11445.302     1000 
 1548000   0.76436727   -1.9089385    1.1454044  -0.76353411   0.14040925    11230.952     1000 
 1550000   0.73314075   -1.9538834    1.0986114  -0.85527201   0.14732814    11120.625     1000 
 1552000   0.73223912   -1.9510084    1.0972603  -0.85374806   0.13194834    11362.202     1000 
 1554000   0.75708138   -1.9492027    1.1344864  -0.81471623     0.134453     11293.55     1000 
 1556000   0.72897922   -1.9108006    1.0923754  -0.81842523   0.12263522    11459.879     1000 
 1558000   0.74556802   -1.8973364    1.1172337   -0.7801027   0.13887937    11274.752     1000 
 1560000    0.7524496   -1.9487825    1.1275457  -0.82123681   0.13521779    11459.174     1000 
 1562000    0.7613283   -1.9322389    1.1408505  -0.79138844   0.13674732    11370.746     1000 
 1564000   0.76837233   -1.9195491    1.1514059  -0.76814314    0.1317249    11344.803     1000 
 1566000   0.73340998   -1.9075712    1.0990149  -0.80855636   0.13182441    11460.721     1000 
 1568000   0.73750837   -1.9497773    1.1051563  -0.84462097   0.12158096    11681.674     1000 
 1570000   0.73310066   -1.9216536    1.0985513  -0.82310224   0.12299653    11308.014     1000 
 1572000   0.75422775   -1.8714257    1.1302103  -0.74121542   0.12242984    11521.872     1000 
 1574000   0.73150764   -1.8638547    1.0961642   -0.7676905   0.12218102    11559.062     1000 
 1576000   0.72926847   -1.8852968    1.0928088  -0.79248797   0.12644049    11375.169     1000 
 1578000   0.75137276   -1.9567119    1.1259321  -0.83077978   0.13219565    11345.851     1000 
 1580000   0.73897264   -1.8936625    1.1073505  -0.78631199   0.14532253    11122.695     1000 
 1582000   0.76833297   -1.8826844     1.151347  -0.73133747   0.12668041    11352.522     1000 
 1584000   0.74381616   -1.8926261    1.1146085  -0.77801756   0.12456393    11477.719     1000 
 1586000   0.79596166    -1.888742    1.1927485  -0.69599342   0.14200255    11464.103     1000 
 1588000   0.75584455   -1.9191423    1.1326331  -0.78650921   0.13660329    11414.337     1000 
[...]
 2614000   0.75129193   -1.9340572     1.125811   -0.8082462   0.15101776    11309.791     1000 
 2616000   0.71198693   -1.9697112    1.0669124  -0.90279879   0.12461346    11335.196     1000 
 2618000   0.78180425   -1.8838469    1.1715337  -0.71231326   0.12984478    11254.468     1000 
 2620000   0.77247392   -1.9048718    1.1575522  -0.74731962   0.12903145    11483.416     1000 
 2622000   0.74793103   -1.8762146    1.1207746  -0.75543999   0.13464708     11217.39     1000 
 2624000   0.74626054    -1.987473    1.1182714  -0.86920155   0.12817233    11243.024     1000 
 2626000   0.76857604   -1.9082627    1.1517112  -0.75655148   0.12895746    11579.979     1000 
 2628000   0.76712182   -1.9003114     1.149532  -0.75077931   0.13372359    11404.942     1000 
 2630000   0.76699732   -1.9441643    1.1493455  -0.79481886   0.11380866    11832.819     1000 
 2632000   0.73330829   -1.9731134    1.0988625  -0.87425096   0.11397204    11520.588     1000 
 2634000   0.75069428   -1.8654726    1.1249154  -0.74055718   0.13484994    11445.818     1000 
 2636000   0.77085799    -1.902555    1.1551307  -0.74742428   0.13148328    11457.368     1000 
 2638000   0.72770652   -1.9378877    1.0904682  -0.84741945    0.1163005    11619.761     1000 
 2640000   0.75978698   -1.9491889    1.1385408  -0.81064807   0.11493565    11543.405     1000 
 2642000    0.7659629   -1.9187237    1.1477954  -0.77092825   0.12059002    11494.767     1000 
 2644000   0.70600675   -1.9278502    1.0579511  -0.86989912   0.11990947    11376.818     1000 
 2646000    0.7296165   -1.9289653    1.0933303    -0.835635   0.12637149    11368.275     1000 
 2648000   0.75645296   -1.8823527    1.1335448  -0.74880793   0.11695899     11643.48     1000 
 2650000   0.71014412   -1.9602972     1.064151  -0.89614623   0.11660966    11485.429     1000 
 2652000   0.77112036   -1.9068877    1.1555239  -0.75136382   0.12927424    11379.923     1000 
 2654000   0.75232421   -1.8888392    1.1273578  -0.76148132    0.1254162    11463.431     1000 
 2656000   0.73273486    -1.910465    1.0980032  -0.81246185   0.12024773    11181.943     1000 
 2658000   0.74609467   -1.8742261    1.1180229   -0.7562032    0.1303548    11334.255     1000 
 2660000   0.74077487   -1.9564949    1.1100511  -0.84644372   0.12925132    11437.285     1000 
 2662000   0.74557064   -1.9314776    1.1172376  -0.81423995    0.1347037    11342.922     1000 
 2664000   0.75873918   -1.9182394    1.1369707  -0.78126876   0.13788388    11353.987     1000 
 2666000   0.77790638   -1.8597505    1.1656927  -0.69405776   0.14317907    11345.073     1000 
 2668000   0.77168108   -1.8868192    1.1563641  -0.73045511   0.12601407    11500.358     1000 
 2670000   0.74777651   -1.8876869    1.1205431  -0.76714385    0.1417704    11515.052     1000 
 2672000   0.72984166   -1.9015841    1.0936677  -0.80791634   0.11946693    11503.126     1000 
 2674000   0.74444618   -1.8498136    1.1155526  -0.73426096   0.13436611    11175.727     1000 
 2676000   0.73789589    -1.930933     1.105737  -0.82519597   0.12211527    11641.953     1000 
 2678000   0.71178303   -1.9575117    1.0666069  -0.89090484   0.13356937    11391.205     1000 
 2680000   0.75338633   -1.9119064    1.1289494  -0.78295703    0.1247754    11677.284     1000 
 2682000   0.74689708   -1.8903026    1.1192253   -0.7710773   0.14407259    11291.113     1000 
 2684000    0.7511645   -1.9321993      1.12562  -0.80657929   0.12836937     11306.91     1000 
 2686000   0.74245335   -1.9000951    1.1125663  -0.78752876   0.12819891    11386.759     1000 
 2688000   0.72641716   -1.8504553    1.0885361  -0.76191923   0.13668493    11443.722     1000 
 2690000   0.75584174   -1.9251825    1.1326288  -0.79255365   0.12222709    11364.782     1000 
 2692000   0.75923932   -1.9211799    1.1377201  -0.78345979    0.1471957    11418.088     1000 
 2694000   0.75958546   -1.9073243    1.1382388  -0.76908547   0.12977597    11285.318     1000 
 2696000   0.75917422   -1.9724818    1.1376226  -0.83485926   0.14792377    11315.398     1000 
 2698000    0.7386142   -1.9247091    1.1068134  -0.81789569   0.13433983    11434.449     1000 
 2700000   0.74363302   -1.9105125    1.1143341  -0.79617841   0.12702904     11340.96     1000 
 2702000   0.73909865   -1.9194684    1.1075393  -0.81192911   0.13495095    11449.188     1000 
 2704000   0.73314448   -1.9063314     1.098617  -0.80771438   0.13550908     11228.06     1000 
 2706000   0.73749752   -1.9176532      1.10514  -0.81251312   0.13601115    11315.364     1000 
 2708000   0.76677201    -1.901018    1.1490079  -0.75201017   0.12644384    11442.025     1000 
 2710000   0.75155425   -1.9456398     1.126204  -0.81943574   0.13252082    11575.826     1000 
 2712000   0.74650865   -1.8971316    1.1186432  -0.77848835   0.11787346    11560.037     1000 
 2714000   0.74743447   -1.9670853    1.1200306   -0.8470547   0.12627619    11430.888     1000 
 2716000   0.73609531    -1.906459    1.1030388  -0.80342021   0.13756251      11174.5     1000 
 2718000   0.77701059   -1.8927941    1.1643504  -0.72844372   0.12602301    11432.825     1000 
 2720000   0.75947613   -1.9387615     1.138075  -0.80068651   0.13441639     11518.22     1000 
 2722000   0.73335818   -1.8807999    1.0989372  -0.78186263   0.12945921    11385.278     1000 
 2724000   0.79576246   -1.8991357    1.1924501  -0.70668567   0.13547674    11454.038     1000 
 2726000   0.74468573    -1.903598    1.1159116  -0.78768644   0.12607088    11408.581     1000 
 2728000   0.76294036   -1.9023284    1.1432661  -0.75906231   0.16101685    11125.741     1000 
 2730000      0.76365   -1.9062625    1.1443295    -0.761933   0.12462428     11287.06     1000 
 2732000   0.72827327   -1.9172839    1.0913175  -0.82596645   0.11597377     11445.39     1000 
 2734000   0.73510724    -1.946111    1.1015582  -0.84455277   0.13039593    11304.946     1000 
 2736000   0.73724577     -1.91616    1.1047628  -0.81139725   0.13724404    11393.823     1000 
 2738000   0.76855834   -1.9357573    1.1516847  -0.78407259   0.15528287    11571.702     1000 
 2740000   0.75663196   -1.9271637     1.133813  -0.79335072   0.12202484    11429.558     1000 
 2742000   0.76056458   -1.9631207     1.139706  -0.82341464    0.1323029    11364.414     1000 
 2744000   0.76669232   -1.8716464    1.1488884  -0.72275793   0.12416476    11272.968     1000 
 2746000   0.76533852   -1.8845619    1.1468598  -0.73770212   0.12675264    11555.425     1000 
 2748000   0.74511621    -1.897416    1.1165566  -0.78085934   0.13340783    11344.555     1000 
 2750000   0.73027415   -1.9246251    1.0943158  -0.83030925   0.13549903    11438.187     1000 
 2752000   0.76240688   -1.9454927    1.1424667  -0.80302597   0.12431259    11552.409     1000 
 2754000   0.74889168   -1.8613016    1.1222142  -0.73908742   0.12023887    11377.745     1000 
 2756000   0.73264246   -1.8589455    1.0978647  -0.76108076   0.12811886    11316.261     1000 
 2758000   0.75637484   -1.8848979    1.1334277  -0.75147018   0.13784781    11382.765     1000 
 2760000   0.69933665   -1.9146386     1.047956  -0.86668264   0.11963233    11428.343     1000 
 2762000    0.7813885   -1.8529687    1.1709107  -0.68205805   0.13389126    11354.371     1000 
 2764000    0.7428123   -1.9038462    1.1131042  -0.79074201   0.12950475    11517.701     1000 
 2766000   0.75994508   -1.9574907    1.1387777  -0.81871302   0.13611113    11584.851     1000 
 2768000     0.758255   -1.8964784    1.1362451  -0.76023328   0.12635632    11349.564     1000 
 2770000   0.76492365   -1.9577378    1.1462381   -0.8114997   0.13246318    11618.003     1000 
 2772000   0.76655814   -1.9104789    1.1486874  -0.76179153   0.14508084    11256.904     1000 
 2774000   0.76011248   -1.9388538    1.1390286  -0.79982525   0.14279325    11492.949     1000 
 2776000   0.73682793   -1.8992199    1.1041367  -0.79508328   0.12803143    11270.799     1000 
 2778000   0.77037828   -1.9214808    1.1544119  -0.76706895   0.12234599    11456.176     1000 
 2780000   0.73433503   -1.9715405     1.100401  -0.87113945   0.10837794     11713.34     1000 
 2782000   0.71467503   -1.9181111    1.0709405  -0.84717052   0.11975766    11411.814     1000 
 2784000   0.73923955   -1.8765809    1.1077505  -0.76883041   0.15152977    11052.081     1000 
 2786000    0.7588921   -1.9724775    1.1371998  -0.83527765   0.11991189    11543.448     1000 
 2788000   0.73603792   -1.9356575    1.1029528   -0.8327047   0.11543023    11587.456     1000 
 2790000   0.73080441   -1.9280295    1.0951104  -0.83291909   0.14801636    11112.248     1000 
 2792000   0.71550867   -1.8948349    1.0721897  -0.82264518   0.12014629    11533.832     1000 
 2794000    0.7671989   -1.9031004    1.1496476  -0.75345285   0.12252756    11418.309     1000 
 2796000   0.78103693   -1.9399784    1.1703838  -0.76959456   0.13459848    11304.091     1000 
 2798000   0.75193524   -1.8824348     1.126775  -0.75565987   0.11588405    11844.891     1000 
 2800000   0.74444994   -1.9677396    1.1155582  -0.85218137   0.12777368    11241.593     1000 
 2802000   0.75706043   -1.9286268    1.1344551   -0.7941717   0.12089805    11581.418     1000 
 2804000   0.76292788   -1.9025048    1.1432474  -0.75925733   0.13491902    11254.888     1000 
 2806000   0.73725754   -1.8742114    1.1047804  -0.76943095   0.13145547    11489.853     1000 
 2808000   0.76186254   -1.9057322     1.141651   -0.7640812   0.13209194    11369.308     1000 
 2810000   0.71974931   -1.9352638    1.0785443   -0.8567195   0.13056211    11393.072     1000 
 2812000   0.73936594   -1.8689814    1.1079399   -0.7610415   0.14248817    11272.166     1000 
 2814000   0.74243164   -1.8944481    1.1125338  -0.78191424   0.14572233     11227.86     1000 
 2816000   0.77122253    -1.912333     1.155677  -0.75665605   0.13413202    11362.895     1000 
 2818000   0.75825368   -1.9246887    1.1362431  -0.78844555   0.14077156    11317.203     1000 
 2820000   0.74989913   -1.8974101    1.1237238  -0.77368629    0.1333964    11392.774     1000 
 2822000   0.74692195   -1.9838625    1.1192625  -0.86459994   0.11042209    11438.892     1000 
 2824000   0.73853158    -1.905477    1.1066896   -0.7987874   0.14882388    11403.452     1000 
 2826000   0.71994836   -1.9129203    1.0788426  -0.83407772   0.12060783    11542.668     1000 
 2828000   0.74424654   -1.9905585    1.1152534  -0.87530507   0.12107447    11564.189     1000 
 2830000   0.77263253    -1.936172    1.1577898  -0.77838215   0.13399314    11344.776     1000 
 2832000   0.76579011   -1.9283006    1.1475365  -0.78076412   0.11591477    11639.655     1000 
 2834000   0.76243125   -1.8982264    1.1425032  -0.75572317   0.11680044    11377.268     1000 
 2836000   0.73824906   -1.8793222    1.1062662  -0.77305597   0.11736499    11476.841     1000 
 2838000   0.73455068   -1.9166402    1.1007242  -0.81591597   0.14498216    11181.768     1000 
 2840000   0.76348611   -1.8418869    1.1440839  -0.69780296   0.12849893    11394.946     1000 
 2842000   0.72855633   -1.9409108    1.0917417  -0.84916912   0.13174062    11353.632     1000 
 2844000    0.7138812   -1.9377055     1.069751  -0.86795457   0.11935032    11541.968     1000 
 2846000    0.7596362   -1.9503866    1.1383148  -0.81207179   0.11551163    11498.705     1000 
 2848000   0.73353321   -1.9001119    1.0991995  -0.80091236   0.14344503    11318.945     1000 
 2850000   0.74211873   -1.8839342    1.1120649  -0.77186925   0.12582458    11485.623     1000 
 2852000   0.76727734   -1.8914155    1.1497651  -0.74165041   0.13114968    11338.693     1000 
 2854000   0.75927671   -1.8434735    1.1377762  -0.70569732    0.1481913    11381.077     1000 
 2856000   0.72224936   -1.9340302    1.0822907  -0.85173954   0.14288365    11461.807     1000 
 2858000   0.75742516   -1.8478402    1.1350016  -0.71283859   0.13021624    11316.843     1000 
 2860000   0.72930372   -1.8998095    1.0928616  -0.80694787   0.13059107    11356.841     1000 
 2862000   0.74003757   -1.8585943    1.1089463  -0.74964801   0.11681004    11601.002     1000 
 2864000   0.79164779   -1.9322121    1.1862842  -0.74592789   0.13171609    11515.656     1000 
 2866000    0.7559417   -1.8849718    1.1327786  -0.75219317   0.12368332    11297.574     1000 
 2868000   0.75548275   -1.9157747    1.1320909  -0.78368379   0.13290337    11384.078     1000 
 2870000    0.7681554   -1.9275649    1.1510809  -0.77648402   0.13055633    11574.684     1000 
 2872000   0.73590589   -1.8679469     1.102755   -0.7651919   0.13979588    11351.562     1000 
 2874000   0.75657261   -1.9136576    1.1337241   -0.7799335   0.14545337    11324.823     1000 
 2876000   0.75073858   -1.9248197    1.1249818  -0.79983793   0.13585682    11346.517     1000 
 2878000   0.76384964   -1.9054339    1.1446287  -0.76080523   0.12667647    11239.361     1000 
 2880000   0.74860677   -1.8922565    1.1217872  -0.77046929   0.11819831    11629.444     1000 
 2882000   0.75982442   -1.9350065    1.1385969  -0.79640964   0.12530415    11397.683     1000 
 2884000   0.74403042   -1.8663907    1.1149296  -0.75146107   0.12789008    11286.052     1000 
 2886000   0.76355751   -1.9066737    1.1441909  -0.76248279   0.11662903    11600.201     1000 
 2888000   0.73993676   -1.8704701    1.1087952  -0.76167486   0.12422058    11377.143     1000 
 2890000     0.773091   -1.8573504    1.1584769  -0.69887354   0.14447097    11213.024     1000 
 2892000   0.75178745   -1.9065529    1.1265535  -0.77999943   0.15081681    11346.389     1000 
 2894000    0.7462274   -1.9634535    1.1182218  -0.84523176   0.14211039    11399.645     1000 
 2896000   0.72241142   -1.9535484    1.0825335  -0.87101488   0.14669668    11215.503     1000 
 2898000   0.75892248   -1.9618867    1.1372453   -0.8246414   0.11577539    11476.875     1000 
 2900000   0.74109907    -1.890113     1.110537  -0.77957606   0.14285766    11204.556     1000 
 2902000   0.79390328   -1.9224318    1.1896641  -0.73276772   0.13459662    11503.414     1000 
 2904000   0.78842475   -1.8947067    1.1814545  -0.71325219   0.13605294    11224.238     1000 
 2906000    0.7549034   -1.9183884    1.1312227  -0.78716571   0.12670227    11511.418     1000 
 2908000     0.730791   -1.8780198    1.0950903   -0.7829295   0.12798224    11403.933     1000 
 2910000    0.7723677   -1.8934426     1.157393  -0.73604957   0.12862289    11464.509     1000 
 2912000    0.7313733   -1.9628455    1.0959629  -0.86688257   0.13153431    11383.256     1000 
 2914000   0.71575498   -1.8467423    1.0725588  -0.77418347   0.13175171    11369.763     1000 
 2916000   0.73597685   -1.9370232    1.1028613  -0.83416185   0.10964407    11695.826     1000 
 2918000   0.79462756   -1.8568973    1.1907494  -0.66614786   0.13230069     11289.29     1000 
 2920000   0.76091947   -1.9387645    1.1402378  -0.79852669   0.12913139    11432.401     1000 
 2922000   0.76440461   -1.9496881    1.1454603  -0.80422783   0.12364222    11576.208     1000 
 2924000   0.72861998    -1.846775     1.091837  -0.75493797   0.13039812    11456.597     1000 
 2926000   0.74971253   -1.9439705    1.1234442  -0.82052627   0.13495428    11289.443     1000 
 2928000   0.74489824   -1.9055442      1.11623  -0.78931424   0.12352014    11497.259     1000 
 2930000   0.76219046   -1.9354381    1.1421424   -0.7932957   0.14606554     11127.13     1000 
 2932000   0.75007218   -1.8973978    1.1239832  -0.77341462   0.14569383    11227.753     1000 
 2934000   0.74105055   -1.9129608    1.1104642  -0.80249655   0.12629086    11310.686     1000 
 2936000   0.79495255   -1.8683649    1.1912364  -0.67712851   0.13058765    11362.246     1000 
 2938000   0.76466218   -1.9241661    1.1458463  -0.77831978   0.12523008    11623.501     1000 
 2940000   0.75737694    -1.920366    1.1349293  -0.78543665   0.13980568    11278.841     1000 
 2942000   0.75979817   -1.8678633    1.1385576  -0.72930579    0.1432133    11084.111     1000 
 2944000   0.72825052   -1.9835749    1.0912834   -0.8922915   0.11128805    11486.956     1000 
 2946000   0.75779841   -1.9333727    1.1355609  -0.79781175    0.1292169    11395.259     1000 
 2948000   0.79493689   -1.9012121    1.1912129   -0.7099992     0.133667    11251.176     1000 
 2950000   0.74319586   -1.9671572     1.113679  -0.85347824   0.12617273    11583.474     1000 
 2952000   0.73618198   -1.9797413    1.1031687  -0.87657256   0.12440134    11620.367     1000 
 2954000   0.74286685   -1.9668339     1.113186  -0.85364797   0.12147663    11487.576     1000 
 2956000   0.72273841   -1.8896258    1.0830235  -0.80660227   0.12041955    11424.108     1000 
 2958000    0.7326527    -1.870112    1.0978801   -0.7722319   0.15155153    11173.677     1000 
 2960000   0.75033245   -1.8628566    1.1243732  -0.73848338   0.13918149    11312.583     1000 
 2962000   0.75414296   -1.9060351    1.1300832  -0.77595185   0.11952809     11684.65     1000 
 2964000    0.7293495   -1.9051709    1.0929302  -0.81224071   0.16437852    11146.553     1000 
 2966000    0.7504569   -1.9393723    1.1245597  -0.81481266   0.12733461    11299.094     1000 
 2968000   0.75186565   -1.9451405    1.1266707  -0.81846982   0.12343097    11449.992     1000 
 2970000   0.76409589   -1.8666253    1.1449977  -0.72162759   0.12112597    11427.767     1000 
 2972000   0.75377593    -1.909082    1.1295332  -0.77954879   0.13273467    11221.285     1000 
 2974000   0.74453609   -1.8821121    1.1156873  -0.76642472   0.11649753    11488.655     1000 
 2976000   0.71887341   -1.9206925    1.0772318  -0.84346072   0.11600402     11485.02     1000 
 2978000   0.74111462   -1.8907624    1.1105603  -0.78020212   0.13189677    11381.278     1000 
 2980000   0.71729665   -1.9041413     1.074869  -0.82927228   0.13032802    11449.985     1000 
 2982000   0.75905726   -1.8666243    1.1374473  -0.72917697   0.13657145    11425.841     1000 
 2984000   0.77044538   -1.9312878    1.1545124  -0.77677538   0.13555157    11442.149     1000 
 2986000   0.75349428   -1.9067372    1.1291112    -0.777626   0.12792071    11333.497     1000 
 2988000   0.74958229   -1.9113047    1.1232491  -0.78805562   0.14487989    11302.004     1000 
 2990000   0.70963924   -1.9212426    1.0633944  -0.85784816    0.1187892    11676.107     1000 
 2992000    0.7417192   -1.9813111    1.1114662  -0.86984489   0.12583706    11581.993     1000 
 2994000    0.7487705   -1.8646977    1.1220326  -0.74266505   0.13339315    11380.424     1000 
 2996000   0.77237096   -1.9351836    1.1573979  -0.77778574   0.13586871    11507.682     1000 
 2998000   0.73796343   -1.9150644    1.1058382  -0.80922622   0.13532721    11565.514     1000 
 3000000   0.74351623   -1.8450488    1.1141591  -0.73088969   0.13437942    11393.402     1000 
Loop time of 13656.7 on 1 procs for 3000000 steps with 1000 atoms

Performance: 94898.577 tau/day, 219.673 timesteps/s
100.0% CPU use with 1 MPI tasks x 1 OpenMP threads

MPI task timing breakdown:
Section |  min time  |  avg time  |  max time  |%varavg| %total
---------------------------------------------------------------
Pair    | 12500      | 12500      | 12500      |   0.0 | 91.53
Neigh   | 905.38     | 905.38     | 905.38     |   0.0 |  6.63
Comm    | 103.07     | 103.07     | 103.07     |   0.0 |  0.75
Output  | 0.039062   | 0.039062   | 0.039062   |   0.0 |  0.00
Modify  | 132.74     | 132.74     | 132.74     |   0.0 |  0.97
Other   |            | 14.99      |            |       |  0.11

Nlocal:        1000.00 ave        1000 max        1000 min
Histogram: 1 0 0 0 0 0 0 0 0 0
Nghost:        6042.00 ave        6042 max        6042 min
Histogram: 1 0 0 0 0 0 0 0 0 0
Neighs:        200419.0 ave      200419 max      200419 min
Histogram: 1 0 0 0 0 0 0 0 0 0

Total # of neighbors = 200419
Ave neighs/atom = 200.41900
Neighbor list builds = 150000
Dangerous builds not checked

Total wall time: 3:47:36
