LAMMPS (29 Sep 2021 - Update 2)
OMP_NUM_THREADS environment is not set. Defaulting to 1 thread. (src/comm.cpp:98)
  using 1 OpenMP thread(s) per MPI task
# ----------------------- Inicialização -----------------------

units			lj
atom_style 		atomic
dimension 		3
boundary 		p p p

# -------------------- Criação dos Átomos ---------------------

read_data 		topologia.txt
Reading data file ...
  orthogonal box = (0.0000000 0.0000000 0.0000000) to (21.540000 21.540000 21.540000)
  1 by 2 by 2 MPI processor grid
  reading atoms ...
  1000 atoms
  read_data CPU = 0.009 seconds

velocity 		all create ${temp} 87287 rot yes dist gaussian
velocity 		all create 0.51 87287 rot yes dist gaussian

# ------------------ Interação Interatômica -------------------

pair_style		table linear 1300
pair_coeff		1 1 force.table AA 6.5
WARNING: 2 of 1300 force values in table AA are inconsistent with -dE/dr.
WARNING:  Should only be flagged at inflection points (src/pair_table.cpp:465)
pair_coeff		1 2 force.table AB 6.5
WARNING: 1 of 1300 force values in table AB are inconsistent with -dE/dr.
WARNING:  Should only be flagged at inflection points (src/pair_table.cpp:465)
pair_coeff		2 2 force.table BB 6.5
pair_write		1 1 1600 r 0.008 6.5 table.check AA
Appending to table file table.check with DATE: 2023-08-12
Neighbor list info ...
  update every 1 steps, delay 10 steps, check yes
  max neighbors/atom: 2000, page size: 100000
  master list distance cutoff = 6.8
  ghost atom cutoff = 6.8
  binsize = 3.4, bins = 7 7 7
  1 neighbor lists, perpetual/occasional/extra = 1 0 0
  (1) pair table, perpetual
      attributes: half, newton on
      pair build: half/bin/atomonly/newton
      stencil: half/bin/3d
      bin: standard
pair_write		1 2 1600 r 0.008 6.5 table.check AB
Appending to table file table.check with DATE: 2023-08-12
pair_write		2 2 1600 r 0.008 6.5 table.check BB
Appending to table file table.check with DATE: 2023-08-12

neighbor 		0.3 bin
neigh_modify	every 20 delay 0 check no

# ------------------------- Ensemble --------------------------------------

fix 1			all npt temp ${temp} ${temp} 0.5 iso ${press} ${press} 5
fix 1			all npt temp 0.51 ${temp} 0.5 iso ${press} ${press} 5
fix 1			all npt temp 0.51 0.51 0.5 iso ${press} ${press} 5
fix 1			all npt temp 0.51 0.51 0.5 iso 0.13 ${press} 5
fix 1			all npt temp 0.51 0.51 0.5 iso 0.13 0.13 5

# ---------------------- Função de Distribuição Radial -----------------------

compute RDF 	all rdf 2000 1 1 1 2 2 2
fix 2 			all ave/time 1 2000 2000 c_RDF[*] file rdf.data mode vector

# ------------------------- Execução ---------------------------

timestep 		0.005
thermo_style	custom step temp pe ke etotal press vol atoms
thermo			2000
run				3000000
Neighbor list info ...
  update every 20 steps, delay 0 steps, check no
  max neighbors/atom: 2000, page size: 100000
  master list distance cutoff = 6.8
  ghost atom cutoff = 6.8
  binsize = 3.4, bins = 7 7 7
  2 neighbor lists, perpetual/occasional/extra = 1 1 0
  (1) pair table, perpetual
      attributes: half, newton on
      pair build: half/bin/atomonly/newton
      stencil: half/bin/3d
      bin: standard
  (2) compute rdf, occasional, copy from (1)
      attributes: half, newton on
      pair build: copy
      stencil: none
      bin: none
Per MPI rank memory allocation (min/avg/max) = 2.675 | 2.675 | 2.675 Mbytes
Step Temp PotEng KinEng TotEng Press Volume Atoms 
       0         0.51    1.4904714     0.764235    2.2547064    1.6568718    9993.9483     1000 
    2000    0.5087609   -2.4740717    0.7623782   -1.7116935   0.12833873    11325.049     1000 
    4000    0.5357954   -2.5070044   0.80288941    -1.704115   0.12842763    11130.954     1000 
    6000   0.51022262   -2.5209673   0.76456859   -1.7563987   0.13155657    11168.507     1000 
    8000   0.52237927   -2.5327598   0.78278533   -1.7499745   0.11401489    11407.649     1000 
   10000   0.51276462   -2.5923958   0.76837778    -1.824018   0.12060713    11227.208     1000 
   12000   0.50824402   -2.5340603   0.76160366   -1.7724567   0.13703915    11106.585     1000 
   14000   0.50865148   -2.5166929   0.76221424   -1.7544787    0.1229146    11204.238     1000 
   16000   0.52593688   -2.5300343   0.78811642   -1.7419179   0.12855769     11318.16     1000 
   18000   0.50500571   -2.5804863   0.75675105   -1.8237353   0.11976768     11331.45     1000 
   20000   0.50332004   -2.5575375   0.75422509   -1.8033124   0.13150087    11249.394     1000 
   22000   0.51676332     -2.55574   0.77436984   -1.7813702   0.13171982    11075.298     1000 
   24000   0.49387743   -2.5381184   0.74007532   -1.7980431    0.1224697    10978.055     1000 
   26000    0.5142548   -2.5726867   0.77061081   -1.8020759   0.13134849    11190.886     1000 
   28000   0.49606083   -2.5601694   0.74334716   -1.8168223   0.11765352    11174.666     1000 
   30000   0.51668013   -2.5324865   0.77424517   -1.7582414   0.13655269    11160.016     1000 
   32000   0.51834239   -2.5486631   0.77673607    -1.771927   0.13064401    11227.198     1000 
   34000   0.51518132   -2.4835468   0.77199921   -1.7115476   0.13193949     11209.24     1000 
   36000   0.52072851   -2.4835029   0.78031167   -1.7031912   0.13015788    11167.173     1000 
   38000    0.4906804   -2.5467186   0.73528458    -1.811434   0.13653206    11173.615     1000 
   40000   0.48916679   -2.5628262   0.73301643   -1.8298098   0.13493476    11111.981     1000 
   42000   0.51272191   -2.5204077   0.76831378   -1.7520939    0.1481249    10953.731     1000 
   44000   0.50919154   -2.5358502   0.76302353   -1.7728267   0.13497087    10997.041     1000 
   46000   0.50483746   -2.5241278   0.75649893   -1.7676289   0.12397384     11217.74     1000 
   48000   0.48487141   -2.5389498   0.72657981     -1.81237    0.1379059      11075.6     1000 
   50000   0.51361336   -2.5663967   0.76964962   -1.7967471   0.11484465    11221.277     1000 
   52000   0.50745501   -2.4958041   0.76042133   -1.7353827   0.12562648    11056.056     1000 
   54000   0.50874308   -2.5488676   0.76235151   -1.7865161    0.1325231     11113.14     1000 
   56000   0.51776404   -2.5560201   0.77586942   -1.7801507   0.13288771    11200.477     1000 
   58000   0.52900937   -2.5342223   0.79272054   -1.7415018   0.14217969    11002.586     1000 
   60000   0.50423739   -2.4981954   0.75559973   -1.7425956    0.1345607    11004.318     1000 
   62000   0.48918368   -2.5530359   0.73304175   -1.8199941   0.12446083    11109.501     1000 
   64000   0.53559931   -2.5660105   0.80259556    -1.763415   0.13136826    11197.743     1000 
   66000   0.50158187   -2.5055304   0.75162043     -1.75391   0.12706171    10995.589     1000 
   68000   0.48247644     -2.59758   0.72299094   -1.8745891   0.12359687    11300.931     1000 
   70000   0.50823372    -2.514749   0.76158823   -1.7531608   0.12728152    11185.191     1000 
   72000   0.51269327   -2.5590462   0.76827086   -1.7907753   0.12531501    11185.258     1000 
   74000   0.52181696   -2.5254095   0.78194272   -1.7434668   0.14291119    11124.863     1000 
   76000   0.54485559   -2.5070274   0.81646611   -1.6905613   0.13826662    11011.125     1000 
   78000   0.50495611   -2.5088912   0.75667673   -1.7522145   0.14995291    10977.063     1000 
   80000   0.51974145   -2.5398642   0.77883257   -1.7610316    0.1430404    10980.157     1000 
   82000   0.50309106   -2.5700386   0.75388196   -1.8161566   0.13015394    11138.455     1000 
   84000   0.49309729   -2.5397094   0.73890628   -1.8008031   0.10936849    11351.422     1000 
   86000   0.52601497   -2.4689497   0.78823343   -1.6807163   0.11936242    11036.519     1000 
   88000   0.49657787   -2.5216624   0.74412193   -1.7775404   0.13531631    11072.181     1000 
   90000    0.5123524   -2.4911477   0.76776006   -1.7233876    0.1344905    10934.173     1000 
   92000   0.51164304   -2.5284133    0.7666971   -1.7617162    0.1278687    11038.288     1000 
   94000   0.50950588   -2.5771866   0.76349456    -1.813692   0.11473015     11189.31     1000 
   96000   0.49928977   -2.5289816   0.74818572   -1.7807959   0.12022186    11260.212     1000 
   98000   0.49519412   -2.5399018   0.74204838   -1.7978534   0.12579495    11012.208     1000 
  100000   0.51286895   -2.5358137   0.76853412   -1.7672796   0.13020879     11228.98     1000 
  102000   0.49368694   -2.5503643   0.73978988   -1.8105744   0.13000838    11118.559     1000 
  104000   0.50414056   -2.5098208   0.75545463   -1.7543662   0.13483139    11047.482     1000 
  106000   0.51122207   -2.4842552   0.76606628   -1.7181889   0.12862995    11102.221     1000 
  108000   0.51231334   -2.5429853   0.76770153   -1.7752837   0.13735631    11077.842     1000 
  110000   0.49035822   -2.5305462   0.73480179   -1.7957444   0.13457215    11025.186     1000 
  112000    0.4942289   -2.5382695     0.740602   -1.7976675   0.12901196    11018.703     1000 
  114000   0.51662354    -2.531757   0.77416038   -1.7575966   0.13335524    11040.517     1000 
  116000   0.51950221   -2.5548348   0.77847406   -1.7763608   0.11136366    11122.195     1000 
  118000   0.47910485   -2.5146757   0.71793862   -1.7967371   0.12122935    11100.973     1000 
  120000   0.51981634   -2.5590061   0.77894479   -1.7800613   0.13970483     10963.92     1000 
  122000   0.51912053   -2.4939486   0.77790211   -1.7160465   0.13044294    11112.253     1000 
  124000   0.52694101   -2.5513376    0.7896211   -1.7617165    0.1407375    11091.188     1000 
  126000    0.5065059   -2.4827216   0.75899909   -1.7237225   0.15124694    10965.498     1000 
  128000   0.50488089   -2.5036138   0.75656402   -1.7470498   0.12242855    11118.411     1000 
  130000   0.52930114   -2.5828222   0.79315776   -1.7896644   0.13815032    11229.041     1000 
  132000   0.50552972   -2.5308038   0.75753628   -1.7732675   0.14144473    11130.543     1000 
  134000   0.50465618   -2.5566531   0.75622729   -1.8004258   0.11696618    11179.942     1000 
  136000   0.50972299   -2.5917085    0.7638199   -1.8278886   0.13152026    11203.231     1000 
  138000   0.50919749   -2.5277957   0.76303244   -1.7647632   0.13949074    10967.045     1000 
  140000   0.48795719   -2.5650031   0.73120385   -1.8337992   0.12487934    11096.745     1000 
  142000   0.50119299   -2.5480916   0.75103769   -1.7970539   0.13622691    11075.192     1000 
  144000   0.49063077    -2.556286   0.73521021   -1.8210758   0.12116682    11135.294     1000 
  146000   0.54522921   -2.5684889   0.81702597   -1.7514629   0.12962497    11167.165     1000 
  148000   0.52156297   -2.5760981   0.78156212    -1.794536   0.13470342    11175.763     1000 
  150000   0.51309246   -2.5348727   0.76886905   -1.7660036   0.12190641    11232.816     1000 
  152000   0.50650998   -2.5328692   0.75900521    -1.773864   0.14418777    11086.408     1000 
  154000   0.50798333   -2.5346928   0.76121302   -1.7734798   0.14762808    10902.328     1000 
  156000   0.51134228   -2.5573848    0.7662464   -1.7911384   0.11558106     11105.65     1000 
  158000   0.50375413   -2.5112618   0.75487556   -1.7563862     0.132745    10938.772     1000 
  160000   0.51261476   -2.5794142   0.76815321    -1.811261   0.12701419    11174.294     1000 
  162000   0.51745455   -2.5547281   0.77540564   -1.7793225   0.13622751    10999.185     1000 
  164000   0.50861147   -2.5270241   0.76215429   -1.7648698   0.12056201      11245.9     1000 
  166000   0.49837573   -2.5930966   0.74681603   -1.8462805   0.13320683    11140.919     1000 
  168000   0.50923506   -2.5504013   0.76308873   -1.7873126   0.13335355    11066.497     1000 
  170000    0.5117777   -2.5404848   0.76689889   -1.7735859   0.13205604    11145.677     1000 
  172000    0.5022717   -2.5950497   0.75265414   -1.8423956   0.11582102    11172.521     1000 
  174000   0.51448514   -2.5166666   0.77095598   -1.7457106   0.11589653    11244.193     1000 
  176000   0.51910929   -2.5301342   0.77788527   -1.7522489   0.13848242    11129.213     1000 
  178000   0.50943666   -2.5298405   0.76339084   -1.7664496   0.12288852    11070.915     1000 
  180000   0.52201438   -2.5562809   0.78223855   -1.7740423   0.12448663    11164.087     1000 
  182000   0.53214677   -2.5614366   0.79742193   -1.7640146   0.11682152    11140.213     1000 
  184000   0.55320129   -2.5230202   0.82897213    -1.694048   0.12649128    11067.061     1000 
  186000   0.49557715    -2.500761   0.74262236   -1.7581387   0.13246701    10867.528     1000 
  188000   0.49570755    -2.535557   0.74281776   -1.7927392   0.12157375    11163.945     1000 
  190000    0.5177113   -2.5402401   0.77579039   -1.7644497     0.133696    11044.803     1000 
  192000   0.52649448   -2.5563956   0.78895198   -1.7674436   0.12997658    11228.613     1000 
  194000   0.47984435   -2.5826283   0.71904676   -1.8635815   0.13715235    11130.391     1000 
  196000   0.51605421   -2.5234185   0.77330724   -1.7501113   0.12139654     11177.37     1000 
  198000   0.49222141   -2.6025456   0.73759379   -1.8649518   0.13507516    11152.252     1000 
  200000   0.50477217   -2.5733038   0.75640109   -1.8169027    0.1202793    11318.181     1000 
  202000   0.50772259   -2.5211741    0.7608223   -1.7603518   0.12435348    11066.311     1000 
  204000   0.49716606   -2.5982641   0.74500334   -1.8532608   0.13166228    11160.412     1000 
  206000   0.50538396   -2.5560329   0.75731786    -1.798715   0.12598234    11085.777     1000 
  208000   0.49960594   -2.4743012   0.74865951   -1.7256417   0.13759648     10873.77     1000 
  210000   0.52341912   -2.5452861   0.78434355   -1.7609426   0.12997531    11162.209     1000 
  212000   0.52242256   -2.5522686    0.7828502   -1.7694184   0.13397358    11199.578     1000 
  214000   0.52104621   -2.5621943   0.78078774   -1.7814066   0.11973899    11144.767     1000 
  216000   0.49772686    -2.548176    0.7458437   -1.8023323    0.1114186    11204.406     1000 
  218000   0.51621079   -2.5256204   0.77354187   -1.7520786   0.12974989    11118.256     1000 
  220000   0.52907932   -2.5204324   0.79282536    -1.727607   0.11551301    11159.645     1000 
  222000   0.51620286   -2.5355388   0.77352999   -1.7620088   0.11608634    11119.203     1000 
  224000   0.50751534   -2.5192424   0.76051174   -1.7587306   0.12975586    11184.111     1000 
  226000   0.49806015   -2.5956666   0.74634313   -1.8493234   0.11560268    11274.388     1000 
  228000   0.50485024   -2.6210109   0.75651809   -1.8644928   0.12407579    11291.451     1000 
  230000    0.4983402   -2.5727138   0.74676278    -1.825951   0.11107355    11221.467     1000 
  232000   0.49112212   -2.5385984    0.7359465   -1.8026519   0.11829564    11236.467     1000 
  234000   0.52031926   -2.5237479   0.77969841   -1.7440495    0.1229891    11162.222     1000 
  236000   0.51139538   -2.5319877   0.76632598   -1.7656617    0.1237074    11067.873     1000 
  238000   0.52975506   -2.4868448   0.79383796   -1.6930069   0.13456553    11056.726     1000 
  240000   0.47521209   -2.5468317   0.71210532   -1.8347264   0.13364901    11176.616     1000 
  242000   0.51913858   -2.5089688   0.77792917   -1.7310396   0.13977504    10994.697     1000 
  244000   0.50289692   -2.5434275   0.75359103   -1.7898365   0.12484078    11148.837     1000 
  246000   0.53757693   -2.5573265   0.80555903   -1.7517675   0.13191283    11212.455     1000 
  248000    0.4924076   -2.5261603   0.73787278   -1.7882875   0.12145111    11076.074     1000 
  250000   0.49515743   -2.5598635   0.74199341     -1.81787   0.12701561     11299.64     1000 
  252000   0.51852469   -2.5582397   0.77700924   -1.7812305   0.12410615    11220.197     1000 
  254000   0.49293675   -2.5409311   0.73866571   -1.8022654    0.1356442     11229.48     1000 
  256000   0.48756085   -2.5325669   0.73060993    -1.801957   0.12272469    11267.346     1000 
  258000    0.5110683   -2.5159983   0.76583585   -1.7501625   0.12589759    11072.447     1000 
  260000   0.51684978   -2.5415729    0.7744994   -1.7670735   0.12928108    11108.769     1000 
  262000   0.50223073   -2.5260562   0.75259275   -1.7734634   0.13232201    11013.239     1000 
  264000    0.5064578   -2.5590954   0.75892702   -1.8001683    0.1443651    11074.643     1000 
  266000    0.4946388    -2.561827   0.74121624   -1.8206108   0.12636938     11196.02     1000 
  268000   0.50699538   -2.5705428   0.75973258   -1.8108102    0.1352772    11039.675     1000 
  270000    0.5030816   -2.5113281   0.75386777   -1.7574603   0.13564004     11056.04     1000 
  272000    0.4929774   -2.5634217   0.73872663   -1.8246951   0.11660453    11125.736     1000 
  274000   0.52846237   -2.5290679   0.79190086    -1.737167   0.13918178    11159.271     1000 
  276000   0.53363117   -2.5554155   0.79964631   -1.7557692   0.13390693    10977.426     1000 
  278000   0.49330056     -2.53884   0.73921088   -1.7996292   0.12137057    11255.117     1000 
  280000   0.52832843   -2.5514091   0.79170015    -1.759709   0.13032321    11118.972     1000 
  282000    0.4942971   -2.5959784   0.74070421   -1.8552742   0.10853207     11232.19     1000 
  284000   0.50170324   -2.5718264   0.75180231   -1.8200241   0.11822444    11032.671     1000 
  286000   0.51690078   -2.5637216   0.77457582   -1.7891458   0.13240319    10924.626     1000 
  288000   0.51782742   -2.5692133   0.77596439   -1.7932489   0.13618114    11116.662     1000 
  290000   0.50695299   -2.5390903   0.75966905   -1.7794213   0.11798705    11207.485     1000 
  292000   0.50131253   -2.5485111   0.75121682   -1.7972943   0.14060701    11001.501     1000 
  294000   0.49912852   -2.5199486   0.74794409   -1.7720045   0.12932746    11092.749     1000 
  296000   0.50944375   -2.5222951   0.76340146   -1.7588936   0.13336617    11116.066     1000 
  298000   0.51800732    -2.578186   0.77623396    -1.801952   0.12399278     11143.58     1000 
  300000   0.51256758    -2.549394   0.76808252   -1.7813115    0.1248705    11161.715     1000 
  302000   0.50441059   -2.4952532   0.75585927    -1.739394   0.12418603    11052.889     1000 
  304000    0.4995881   -2.5499228   0.74863276     -1.80129   0.13961702    10994.089     1000 
  306000    0.5035686    -2.557949   0.75459754   -1.8033515   0.12694007    11173.974     1000 
  308000   0.50756933   -2.5691136   0.76059264   -1.8085209   0.12801477    11045.178     1000 
  310000    0.5253647    -2.565166   0.78725901    -1.777907   0.14545129    11067.629     1000 
  312000   0.49677974   -2.5313761   0.74442444   -1.7869517   0.13118615    10952.078     1000 
  314000   0.51738266    -2.554987   0.77529792   -1.7796891   0.13131173    11171.736     1000 
  316000   0.52287454   -2.5666059    0.7835275   -1.7830784   0.13292555    11235.712     1000 
  318000   0.49367812   -2.5292385   0.73977666   -1.7894618   0.13175594    11102.524     1000 
  320000   0.50779487   -2.5481708   0.76093061   -1.7872402   0.13309146    11141.763     1000 
  322000     0.530049   -2.5538525   0.79427843    -1.759574   0.11620103    11295.261     1000 
  324000   0.53070351    -2.492202    0.7952592   -1.6969428   0.12788923    11101.349     1000 
  326000   0.50596366   -2.5526184   0.75818654   -1.7944319   0.13642616    11189.306     1000 
  328000   0.51560532   -2.5410834   0.77263457   -1.7684489   0.14492771    10966.628     1000 
  330000   0.50684401   -2.5036488   0.75950575   -1.7441431    0.1379019    11072.692     1000 
  332000   0.49232002   -2.5143159   0.73774155   -1.7765743   0.13449483    11125.313     1000 
  334000   0.53174746    -2.604695   0.79682357   -1.8078715   0.13269903    11103.692     1000 
  336000   0.51347871   -2.5601368   0.76944785    -1.790689   0.13310538    11016.113     1000 
  338000   0.51265887   -2.5165557   0.76821932   -1.7483364   0.12610484    11048.973     1000 
  340000   0.52577204    -2.575923   0.78786941   -1.7880536    0.1290763     11148.43     1000 
  342000   0.50556541   -2.5615449   0.75758976   -1.8039551   0.12549358    11119.903     1000 
  344000   0.48204545   -2.5301868   0.72234511   -1.8078417   0.12427779    11160.944     1000 
  346000   0.50879388   -2.5646205   0.76242762   -1.8021928   0.13553446    11122.556     1000 
  348000   0.51739192   -2.5738873    0.7753118   -1.7985755   0.13121979    11089.757     1000 
  350000   0.50565979   -2.5408278   0.75773119   -1.7830966   0.12808442    11074.101     1000 
  352000   0.52312738   -2.5437001   0.78390638   -1.7597937   0.15228821    11067.363     1000 
  354000   0.49893289   -2.5545619   0.74765094   -1.8069109   0.14406497    10980.749     1000 
  356000   0.50298848   -2.5926379   0.75372823   -1.8389096   0.12347122    11155.738     1000 
  358000   0.51382071   -2.5117568   0.76996034   -1.7417965   0.12531366    11077.947     1000 
  360000   0.50789208   -2.5498801   0.76107628   -1.7888039   0.15159632    10941.689     1000 
  362000   0.50083993    -2.526342   0.75050864   -1.7758333    0.1276851    11012.701     1000 
  364000   0.49022156   -2.5103502     0.734597   -1.7757532      0.12778    11149.003     1000 
  366000   0.49353391   -2.5933793   0.73956056   -1.8538187   0.13926504    11074.083     1000 
  368000   0.49497328    -2.525199   0.74171746   -1.7834815   0.13633901    11136.396     1000 
  370000   0.49375913   -2.5560493   0.73989805   -1.8161513   0.13888074    10964.347     1000 
  372000   0.48995333   -2.5335146   0.73419506   -1.7993196   0.13104445     11023.35     1000 
  374000   0.50174168   -2.5223472   0.75185991   -1.7704873   0.13664291    11076.261     1000 
  376000   0.53642061   -2.5118749   0.80382628   -1.7080486   0.13246926    11099.941     1000 
  378000   0.49169183   -2.4718853   0.73680021   -1.7350851   0.13655478    10974.871     1000 
  380000   0.53302832   -2.5769242   0.79874293   -1.7781812   0.11304475    11266.933     1000 
  382000   0.52101329   -2.5299939   0.78073841   -1.7492555   0.12663114    11182.418     1000 
  384000   0.48917642   -2.5233294   0.73303087   -1.7902985   0.12325238    11082.293     1000 
  386000   0.49888553   -2.5403487   0.74757997   -1.7927687   0.12922975    11196.926     1000 
  388000    0.5182964   -2.6086257   0.77666716   -1.8319585    0.1200732    11248.942     1000 
  390000   0.51331906   -2.5772188   0.76920862   -1.8080102   0.12125502    11126.741     1000 
  392000   0.51359964   -2.5504705   0.76962906   -1.7808415   0.13030075    11199.976     1000 
  394000   0.49183496   -2.5242108   0.73701469   -1.7871961   0.11283426    11211.659     1000 
  396000   0.51245973   -2.5815537    0.7679209   -1.8136328   0.11584889    11243.281     1000 
  398000   0.51771936   -2.5750282   0.77580246   -1.7992257   0.13624725    10966.861     1000 
  400000   0.52015503   -2.5411353   0.77945232    -1.761683   0.13929872    11086.882     1000 
  402000   0.52977998    -2.519875    0.7938753   -1.7259997   0.13566118     11076.64     1000 
  404000    0.5113531   -2.5287031   0.76626263   -1.7624405   0.11400166    11110.315     1000 
  406000   0.50898155   -2.5912951   0.76270885   -1.8285863   0.12365936    11291.048     1000 
  408000   0.47797005   -2.5557151   0.71623813    -1.839477   0.11149822    11138.366     1000 
  410000   0.50090623   -2.5389621   0.75060799   -1.7883541   0.12815422    11096.525     1000 
  412000   0.50535615   -2.5372002    0.7572762    -1.779924   0.13161618    11068.683     1000 
  414000   0.50274486   -2.5257468   0.75336318   -1.7723837   0.12436815    11009.658     1000 
  416000   0.51965008    -2.516405   0.77869564   -1.7377094   0.12823324    10991.435     1000 
  418000   0.48035692   -2.5236723   0.71981485   -1.8038574   0.11439898    11207.993     1000 
  420000   0.49876128   -2.5625549   0.74739377   -1.8151612   0.10773257    11271.454     1000 
  422000    0.5170099   -2.5863169   0.77473933   -1.8115775   0.12818184    11201.949     1000 
  424000   0.50381275   -2.5016476   0.75496341   -1.7466842   0.11190123    11187.701     1000 
  426000    0.4977666   -2.5433268   0.74590325   -1.7974235   0.12572483    11066.631     1000 
  428000   0.51319457   -2.5405984   0.76902206   -1.7715763   0.13941648    10971.718     1000 
  430000   0.51964707   -2.5407367   0.77869114   -1.7620456   0.13095073     11111.35     1000 
  432000   0.51054129   -2.5152516   0.76504612   -1.7502055   0.12803727    11154.491     1000 
  434000   0.51988318   -2.5343699   0.77904494    -1.755325   0.13680843    11007.287     1000 
  436000   0.52396341   -2.5802776   0.78515917   -1.7951184   0.12115931    11213.363     1000 
  438000   0.50379324   -2.5102941   0.75493416     -1.75536    0.1328803    11054.352     1000 
  440000   0.49449086   -2.5828676   0.74099455    -1.841873   0.12129998    11168.931     1000 
  442000   0.49202243    -2.520865   0.73729561   -1.7835694   0.12640979    11012.131     1000 
  444000   0.48542472   -2.4770806   0.72740894   -1.7496717   0.13244762    10974.001     1000 
  446000   0.51573803   -2.4923581   0.77283344   -1.7195247   0.13232318    11165.129     1000 
  448000   0.51969719   -2.5790122   0.77876624   -1.8002459    0.1374989    11053.279     1000 
  450000    0.4673509   -2.5851999   0.70032533   -1.8848746   0.13127377    11207.994     1000 
  452000   0.48699011   -2.5040977   0.72975467    -1.774343   0.13936452    11111.135     1000 
  454000   0.50385825   -2.5615189   0.75503159   -1.8064873   0.11396967    11267.456     1000 
  456000   0.48379805   -2.5281206   0.72497137   -1.8031492   0.11357622    11163.818     1000 
  458000   0.52195558   -2.5372602   0.78215044   -1.7551098    0.1321538    11131.144     1000 
  460000   0.50077228    -2.570296   0.75040726   -1.8198887   0.12644226    11163.995     1000 
  462000    0.5154574   -2.5752731   0.77241291   -1.8028602   0.11404451    11218.726     1000 
  464000   0.53038439   -2.5740956   0.79478101   -1.7793146   0.12454768    11182.423     1000 
  466000   0.50525808   -2.5197455   0.75712923   -1.7626162   0.15947576    10842.681     1000 
  468000   0.52697826   -2.5442721   0.78967693   -1.7545952    0.1273761    11112.468     1000 
  470000   0.51503625   -2.5433662   0.77178181   -1.7715844   0.13242219    11020.483     1000 
  472000   0.51841933   -2.4761466   0.77685137   -1.6992952    0.1437065    11033.635     1000 
  474000   0.51314445   -2.5289395   0.76894696   -1.7599926   0.13097328    11105.149     1000 
  476000   0.49671373   -2.5562064   0.74432553   -1.8118809   0.13566437    11006.646     1000 
  478000   0.49962683   -2.5559388   0.74869081    -1.807248   0.12415133    11101.869     1000 
  480000   0.48870221   -2.5773882   0.73232026   -1.8450679   0.12422953    11222.702     1000 
  482000   0.51034735   -2.5702322    0.7647555   -1.8054767    0.1295984    11127.863     1000 
  484000   0.50574753   -2.5784767   0.75786267   -1.8206141   0.11186899    11213.498     1000 
  486000   0.49787288   -2.5638339   0.74606251   -1.8177713   0.13917315    11084.137     1000 
  488000   0.54232042     -2.54041   0.81266715   -1.7277429   0.13367413    11053.261     1000 
  490000   0.49139308   -2.5761043   0.73635253   -1.8397517   0.14891345    11121.316     1000 
  492000   0.51342632   -2.5432624   0.76936934    -1.773893   0.12335995    11265.468     1000 
  494000   0.50634756   -2.5405664   0.75876182   -1.7818046   0.13671849     11004.94     1000 
  496000   0.51828325   -2.5413864   0.77664744    -1.764739   0.12551975    11023.244     1000 
  498000   0.51555461   -2.5948192   0.77255858   -1.8222607   0.13287133    11310.116     1000 
  500000   0.50418006   -2.5504406   0.75551382   -1.7949268   0.13781327     11051.27     1000 
  502000   0.50202984   -2.5521404   0.75229172   -1.7998487   0.12068753    11240.013     1000 
  504000   0.50039109   -2.5063687   0.74983604   -1.7565326   0.13883324    11161.522     1000 
  506000   0.51805449   -2.5285727   0.77630465   -1.7522681   0.13468988    11088.608     1000 
  508000   0.53192918   -2.5507543   0.79709588   -1.7536585   0.13408601    11240.489     1000 
  510000    0.5063555   -2.5132916   0.75877371   -1.7545179   0.13496314     11027.01     1000 
  512000   0.50161538   -2.5383686   0.75167064   -1.7866979   0.12125192    11249.271     1000 
  514000   0.50772549   -2.5355138   0.76082665   -1.7746872    0.1277001    11191.305     1000 
  516000   0.51415534   -2.5399403   0.77046178   -1.7694785   0.13757846    11057.706     1000 
  518000   0.49792589   -2.5168283   0.74614195   -1.7706864   0.13214977    11060.209     1000 
  520000   0.46761041   -2.5274021   0.70071421   -1.8266879   0.12913859    10966.058     1000 
  522000   0.48967064     -2.55797   0.73377145   -1.8241985   0.12586841     11170.74     1000 
  524000   0.51335038   -2.5592716   0.76925555    -1.790016   0.13305995    11144.096     1000 
  526000   0.52164339   -2.5314226   0.78168262     -1.74974   0.13082926    11202.347     1000 
  528000   0.53772853    -2.566042    0.8057862   -1.7602558   0.14091662    11088.053     1000 
  530000   0.50237395   -2.5792003   0.75280737   -1.8263929   0.12432956    11213.876     1000 
  532000    0.4997598   -2.5600473   0.74889007   -1.8111572   0.12755873    11112.163     1000 
  534000   0.50645939   -2.5633946    0.7589294   -1.8044652   0.13930104    11056.707     1000 
  536000   0.51537945   -2.5462305   0.77229611   -1.7739344   0.12293463    11170.778     1000 
  538000   0.53298583   -2.5540896   0.79867926   -1.7554103   0.12455238    11146.851     1000 
  540000   0.49881016   -2.5753402   0.74746702   -1.8278732   0.13124983    11164.187     1000 
  542000   0.49143503   -2.5158466   0.73641539   -1.7794312   0.12164355    11132.188     1000 
  544000   0.52073157   -2.5887584   0.78031626   -1.8084421   0.14756202     11098.34     1000 
  546000   0.50767401   -2.5017981    0.7607495   -1.7410486    0.1314986    11060.332     1000 
  548000   0.49480105   -2.5468142   0.74145937   -1.8053549   0.11800498    11144.783     1000 
  550000   0.50820062   -2.5347345   0.76153862   -1.7731958   0.14384837     10928.73     1000 
  552000    0.4956276   -2.5525393   0.74269796   -1.8098414   0.12351495    11154.548     1000 
  554000   0.49911073   -2.5307432   0.74791743   -1.7828257   0.14506095    11053.166     1000 
  556000   0.51503393   -2.5998325   0.77177834   -1.8280541   0.11871672    11186.068     1000 
  558000   0.52993122   -2.5604997   0.79410194   -1.7663977   0.11927312    11207.736     1000 
  560000   0.52293204   -2.5218875   0.78361367   -1.7382738     0.136849    11192.082     1000 
  562000   0.52402174   -2.5562576   0.78524658    -1.771011   0.13011702    11250.212     1000 
  564000   0.50934865   -2.4992014   0.76325896   -1.7359425   0.12554381    11033.168     1000 
  566000   0.51208189   -2.5669827   0.76735471    -1.799628   0.12098274    11163.563     1000 
  568000   0.51789628   -2.5526345   0.77606757    -1.776567   0.11608346    11061.882     1000 
  570000   0.50186119   -2.5208457   0.75203899   -1.7688067    0.1134103    11259.279     1000 
  572000   0.50121222   -2.5303411   0.75106652   -1.7792746   0.13407561    10941.144     1000 
  574000   0.50960864   -2.5324271   0.76364855   -1.7687786   0.12117736    11139.703     1000 
  576000   0.50836396   -2.5608915   0.76178339   -1.7991081   0.11807082    11248.777     1000 
  578000   0.49554476   -2.5469477   0.74257383   -1.8043739   0.13362396    10915.885     1000 
  580000   0.50975947   -2.5345679   0.76387456   -1.7706933   0.13206545    11061.619     1000 
  582000   0.49905723   -2.5157883   0.74783727   -1.7679511   0.13103187    10978.102     1000 
  584000   0.49557877   -2.5174082   0.74262478   -1.7747835   0.14015161    11124.972     1000 
  586000   0.50514161   -2.5733034    0.7569547   -1.8163487   0.12761385    11294.088     1000 
  588000   0.49116001   -2.5541398   0.73600328   -1.8181366   0.11944017     11182.35     1000 
  590000   0.52734519   -2.5879284   0.79022677   -1.7977016   0.12192576    11238.469     1000 
  592000   0.52883339   -2.6095056   0.79245684   -1.8170488   0.11646311    11235.395     1000 
  594000   0.50798223   -2.5100569   0.76121137   -1.7488455   0.13899603    11176.059     1000 
  596000   0.52946063   -2.4862976   0.79339676   -1.6929008   0.14165468    10828.491     1000 
  598000    0.5002691   -2.5252005   0.74965325   -1.7755472    0.1288437      11179.8     1000 
  600000    0.5232273   -2.4953757   0.78405611   -1.7113196   0.13110669     11185.35     1000 
  602000    0.4983872   -2.5219425   0.74683322   -1.7751093   0.14879409    10870.562     1000 
  604000   0.50447913    -2.459724   0.75596198    -1.703762    0.1467909    10709.125     1000 
  606000   0.50171357   -2.5216515   0.75181778   -1.7698337   0.14116462    11011.097     1000 
  608000   0.52361226   -2.5501526   0.78463297   -1.7655196   0.11905142    11104.456     1000 
  610000   0.51473462   -2.5859122   0.77132983   -1.8145824   0.12806173    11228.614     1000 
  612000   0.51424183   -2.5430129   0.77059138   -1.7724215   0.12540585    11087.657     1000 
  614000   0.52331043   -2.5529799   0.78418068   -1.7687992   0.13708488    11113.626     1000 
  616000    0.5102833   -2.5180568   0.76465953   -1.7533973   0.12996971    11178.035     1000 
  618000   0.50625046   -2.5573642   0.75861631   -1.7987478   0.12368662    11133.617     1000 
  620000   0.50156532    -2.559819   0.75159563   -1.8082234   0.12965619    11122.239     1000 
  622000   0.52397465   -2.5947996   0.78517601   -1.8096235    0.1365285    11269.743     1000 
  624000   0.51430328   -2.5562709   0.77068347   -1.7855875   0.13929501    11181.266     1000 
  626000   0.51384677   -2.5277487   0.76999938   -1.7577493   0.11946411    11010.578     1000 
  628000   0.52670978   -2.5718128    0.7892746   -1.7825382   0.13626372    11236.824     1000 
  630000   0.51711012   -2.5152221   0.77488952   -1.7403325   0.12878214    11082.237     1000 
  632000   0.48213769    -2.606662   0.72248333   -1.8841787   0.12250126      11197.2     1000 
  634000   0.49153724    -2.491006   0.73656855   -1.7544374   0.13415758     11074.54     1000 
  636000   0.49614487   -2.5108663   0.74347309   -1.7673932   0.14327864    10901.858     1000 
  638000   0.49623908   -2.5563819   0.74361427   -1.8127676   0.12709539    11082.766     1000 
  640000    0.5008904   -2.5645186   0.75058426   -1.8139344   0.12651542    11212.764     1000 
  642000   0.50962969   -2.5832538   0.76368009   -1.8195737    0.1456845    11146.447     1000 
  644000   0.50503079   -2.4947051   0.75678864   -1.7379164   0.13937577    11034.779     1000 
  646000   0.49729822   -2.5301756   0.74520139   -1.7849742   0.13364095    10970.826     1000 
  648000   0.50613406   -2.5514525   0.75844189   -1.7930106   0.13925776    11128.834     1000 
  650000   0.53618308   -2.5411773   0.80347034    -1.737707   0.13188147    11145.207     1000 
  652000   0.50551869   -2.5599185   0.75751976   -1.8023987     0.120828    11068.733     1000 
  654000   0.52071098   -2.5773514   0.78028541    -1.797066   0.13732502    11207.277     1000 
  656000   0.50923651   -2.4988482   0.76309092   -1.7357573   0.12061913    11057.752     1000 
  658000   0.50863222   -2.5733483   0.76218538   -1.8111629   0.12636374    11169.178     1000 
  660000   0.50489489   -2.5759947   0.75658499   -1.8194097   0.11903348    11251.254     1000 
  662000   0.48364248   -2.5505447   0.72473826   -1.8258064   0.12989106     11044.78     1000 
  664000   0.52174548   -2.4898319    0.7818356   -1.7079963    0.1306619    11100.076     1000 
  666000   0.51369481    -2.560541   0.76977167   -1.7907693   0.13320315    11136.861     1000 
  668000   0.50960498   -2.4958532   0.76364306   -1.7322102   0.11772403     11083.25     1000 
  670000   0.52361669      -2.5356   0.78463961   -1.7509604   0.12445444     11147.77     1000 
  672000   0.50090596   -2.5079862   0.75060758   -1.7573786   0.13617122    11015.094     1000 
  674000   0.50131267   -2.5482634   0.75121703   -1.7970464   0.14190763    10974.183     1000 
  676000   0.51523123    -2.526576     0.772074    -1.754502   0.12081415    11100.682     1000 
  678000   0.52611164    -2.539788    0.7883783   -1.7514097   0.13621973    11050.981     1000 
  680000   0.49641598   -2.5951767   0.74387935   -1.8512973   0.10853923     11177.38     1000 
  682000   0.52975675   -2.5594632   0.79384049   -1.7656227   0.13610664    11043.235     1000 
  684000    0.5026169   -2.5486337   0.75317143   -1.7954623   0.13656254    11161.805     1000 
  686000   0.49185715    -2.527089   0.73704793   -1.7900411   0.12309293    11210.806     1000 
  688000   0.49921578   -2.5240378   0.74807484   -1.7759629   0.13054062    11140.107     1000 
  690000   0.50450191   -2.5249922   0.75599611   -1.7689961   0.12338383    11150.892     1000 
  692000   0.49046257   -2.5627736   0.73495817   -1.8278154   0.12396762    11165.982     1000 
  694000   0.53331096    -2.537463   0.79916647   -1.7382966   0.12825484    11181.984     1000 
  696000   0.51525294   -2.5398484   0.77210653   -1.7677419   0.11811229    11195.273     1000 
  698000   0.53108972   -2.4806523   0.79583794   -1.6848144   0.13502344    10837.103     1000 
  700000   0.50073907   -2.5387541    0.7503575   -1.7883966   0.11015123    11225.619     1000 
  702000   0.50392589   -2.5509961   0.75513295   -1.7958631   0.14027166    11067.832     1000 
  704000   0.51053561   -2.5705348   0.76503761   -1.8054972   0.12166051    11284.946     1000 
  706000   0.51048016   -2.5544926   0.76495452   -1.7895381   0.13096208    11184.861     1000 
  708000   0.52379543    -2.578471   0.78490745   -1.7935635   0.14049231    11175.457     1000 
  710000   0.53664147    -2.524357   0.80415725   -1.7201998   0.12664488    11090.894     1000 
  712000   0.50072263   -2.5240669   0.75033287    -1.773734   0.12514619    11222.403     1000 
  714000    0.5169861   -2.5701386   0.77470367   -1.7954349   0.13839691    11031.106     1000 
  716000   0.52916706   -2.5599971   0.79295684   -1.7670403   0.13128344    11107.245     1000 
  718000   0.51212311   -2.5508996   0.76741648   -1.7834831   0.11760664    11159.619     1000 
  720000   0.53311616   -2.5200654   0.79887456   -1.7211908   0.13619678    11078.964     1000 
  722000   0.52918299   -2.5100834   0.79298072   -1.7171027   0.12835648    10994.457     1000 
  724000   0.51150204    -2.565077    0.7664858   -1.7985912   0.13313252      11002.9     1000 
  726000   0.52553645   -2.5543439   0.78751637   -1.7668275    0.1392721    11060.345     1000 
  728000   0.49427064    -2.578163   0.74066455   -1.8374985   0.12381291    11214.061     1000 
  730000   0.51520384    -2.539177   0.77203296    -1.767144   0.12272981    11299.174     1000 
  732000    0.5004653   -2.5492223   0.74994726    -1.799275   0.13783708    11064.871     1000 
  734000   0.49188022   -2.5710001    0.7370825   -1.8339176    0.1359547    11183.882     1000 
  736000   0.50842668   -2.5228777   0.76187737   -1.7610003   0.11331345    11336.679     1000 
  738000   0.51301102    -2.516919   0.76874701    -1.748172   0.13330067    11187.439     1000 
  740000   0.50533984     -2.48784   0.75725174   -1.7305883   0.13933447    10986.442     1000 
  742000    0.5286203   -2.5357391   0.79213752   -1.7436016   0.13560731    11078.939     1000 
  744000   0.50979717    -2.541908   0.76393106   -1.7779769   0.13794978    11133.661     1000 
  746000   0.49067893   -2.5315399   0.73528238   -1.7962575    0.1309385    11165.788     1000 
  748000    0.4963931   -2.5577252   0.74384505   -1.8138802   0.13218828    11196.576     1000 
  750000   0.51552494   -2.5308295   0.77251412   -1.7583154   0.14470099    11088.903     1000 
  752000   0.51227265    -2.512864   0.76764057   -1.7452234   0.14322113    10996.521     1000 
  754000    0.5122607   -2.5646239   0.76762266   -1.7970012   0.13270638    11061.733     1000 
  756000   0.50789721    -2.555601   0.76108397    -1.794517   0.13663072    11146.961     1000 
  758000   0.51570062   -2.5187647   0.77277737   -1.7459873   0.11648715    11208.285     1000 
  760000   0.52409553     -2.55393   0.78535715   -1.7685729   0.12412482     11093.97     1000 
  762000   0.52463322   -2.5164322   0.78616288   -1.7302693   0.12665529    11201.112     1000 
  764000   0.52924946   -2.5550354   0.79308032   -1.7619551    0.1232047    11298.859     1000 
  766000   0.52199526   -2.6146916    0.7822099   -1.8324817   0.11076271    11335.478     1000 
  768000   0.50614998   -2.5595794   0.75846574   -1.8011137   0.12868873    11178.408     1000 
  770000   0.50413973   -2.5596432   0.75545339   -1.8041898   0.11959662    11243.765     1000 
  772000   0.51243582   -2.5381602   0.76788507   -1.7702751   0.13477375    11064.015     1000 
  774000   0.52335504   -2.5331434   0.78424753   -1.7488958   0.12638193    11142.147     1000 
  776000   0.50204188   -2.5418117   0.75230976    -1.789502   0.13207688    11105.645     1000 
  778000   0.50764207   -2.5772905   0.76070164   -1.8165888   0.15558259    10985.415     1000 
  780000   0.49402104   -2.5785495   0.74029053    -1.838259   0.13532887    11190.363     1000 
  782000   0.48482201   -2.5643876   0.72650579   -1.8378818    0.1325872     11067.15     1000 
  784000   0.50216235   -2.5407892   0.75249028   -1.7882989   0.12707374    11176.774     1000 
  786000   0.49062414   -2.4902594   0.73520027   -1.7550592   0.14643917    10899.661     1000 
  788000   0.50704504   -2.5589069   0.75980699   -1.7990999   0.12205347    11104.113     1000 
  790000   0.51884662   -2.5909923   0.77749166   -1.8135006   0.12813546    11263.175     1000 
  792000   0.50410036    -2.562586   0.75539439   -1.8071916   0.12481542    11151.832     1000 
  794000   0.50944396   -2.5224367   0.76340178   -1.7590349   0.15452924    10977.195     1000 
  796000   0.49505945   -2.5520464   0.74184659   -1.8101998   0.13469485    11035.768     1000 
  798000   0.47650947   -2.5403088   0.71404944   -1.8262594   0.12439445    11052.272     1000 
  800000   0.51181358    -2.494554   0.76695265   -1.7276013   0.13407036    10968.651     1000 
  802000   0.51556184    -2.573439   0.77256941   -1.8008696   0.12884478    11116.028     1000 
  804000   0.49115092   -2.5160694   0.73598965   -1.7800797   0.11943076    11078.273     1000 
  806000   0.49511287   -2.5596145   0.74192664   -1.8176879    0.1388732    11088.891     1000 
  808000   0.48833079   -2.5520717   0.73176369    -1.820308   0.11888486    11226.983     1000 
  810000   0.50200284   -2.5236308   0.75225126   -1.7713795   0.13479198    11001.157     1000 
  812000   0.50988108   -2.5333205    0.7640568   -1.7692637   0.13323976    11074.068     1000 
  814000   0.51969552   -2.5490946   0.77876374   -1.7703309   0.13289373    11380.584     1000 
  816000   0.51354253    -2.568312   0.76954348   -1.7987685   0.12376871    11194.014     1000 
  818000    0.4975322   -2.5314569     0.745552   -1.7859049   0.13386138    10930.657     1000 
  820000   0.51613401   -2.5357014   0.77342681   -1.7622746   0.12150356    11207.114     1000 
  822000   0.49760718    -2.497234   0.74566436   -1.7515696   0.11916916    11235.539     1000 
  824000   0.52625188   -2.5263898   0.78858844   -1.7378014    0.1407643    11013.778     1000 
  826000    0.5032421   -2.4897131   0.75410829   -1.7356048   0.12642642    11072.806     1000 
  828000    0.4753646   -2.5502522   0.71233385   -1.8379183   0.13705784    11053.512     1000 
  830000   0.50327126   -2.5150358   0.75415198   -1.7608838   0.13475296    11158.164     1000 
  832000   0.49584319   -2.5805264   0.74302102   -1.8375054   0.13633031     11175.25     1000 
  834000   0.53633664   -2.5800484   0.80370045    -1.776348   0.12754233    11166.257     1000 
  836000   0.51980925   -2.5391886   0.77893416   -1.7602544   0.12551472    11097.329     1000 
  838000   0.50170774   -2.5560413   0.75180905   -1.8042323    0.1383309    11048.745     1000 
  840000   0.50830115   -2.5230348   0.76168928   -1.7613456   0.12159633    11394.094     1000 
  842000   0.51346469   -2.5609547   0.76942684   -1.7915279   0.13622412     11018.81     1000 
  844000   0.53244048   -2.5452512   0.79786207   -1.7473891   0.13854482    11153.751     1000 
  846000   0.49312497   -2.5177992   0.73894777   -1.7788515   0.13566498     11118.68     1000 
  848000   0.50694373   -2.5189783   0.75965519   -1.7593231   0.13503253    11101.257     1000 
  850000   0.51162611   -2.5434531   0.76667172   -1.7767814   0.13885995     11003.92     1000 
  852000   0.49856517   -2.5464636    0.7470999   -1.7993637   0.13206777    11012.672     1000 
  854000   0.50337374   -2.5749761   0.75430555   -1.8206705   0.11242684    11259.707     1000 
  856000   0.49788242   -2.5334234    0.7460768   -1.7873466   0.12160532    11245.873     1000 
  858000   0.49204312   -2.5890479   0.73732661   -1.8517213   0.14218974    11087.901     1000 
  860000   0.52260394   -2.5455758     0.783122   -1.7624538   0.13507009    11012.563     1000 
  862000   0.51341598   -2.5414365   0.76935385   -1.7720827   0.13529989    11112.234     1000 
  864000   0.49635588    -2.529452   0.74378929   -1.7856627   0.12200651     11088.66     1000 
  866000    0.4999386   -2.5405299   0.74915799    -1.791372   0.13371787    10965.253     1000 
  868000    0.5251656     -2.54083   0.78696066   -1.7538694   0.14105606    10967.163     1000 
  870000   0.51686062   -2.5399126   0.77451564    -1.765397   0.14018229    10974.945     1000 
  872000   0.52337674   -2.5449497   0.78428005   -1.7606697   0.12173131    11013.084     1000 
  874000    0.5159702   -2.5077997   0.77318134   -1.7346184   0.12167387    11124.136     1000 
  876000   0.50142257   -2.6060712   0.75138172   -1.8546895   0.12946269    11124.646     1000 
  878000   0.50694851   -2.5682985   0.75966234   -1.8086361   0.12202823     11174.58     1000 
  880000   0.52503332   -2.5271718   0.78676243   -1.7404094   0.12335272    11209.037     1000 
  882000   0.50052402   -2.5499599   0.75003525   -1.7999247   0.12428494    11045.373     1000 
  884000   0.50647421   -2.4980941   0.75895161   -1.7391425   0.12036152    11014.811     1000 
  886000    0.5113493   -2.5410894   0.76625693   -1.7748325   0.12648419    11084.396     1000 
  888000   0.51868089   -2.5193096   0.77724332   -1.7420663    0.1505473    11060.672     1000 
  890000   0.51828192   -2.5523609   0.77664545   -1.7757155   0.13087274    11141.498     1000 
  892000   0.49970096   -2.5325934   0.74880189   -1.7837915    0.1344257    11006.057     1000 
  894000    0.4910891   -2.5656148   0.73589701   -1.8297178   0.12603977    11057.563     1000 
  896000   0.52484149   -2.5334932   0.78647498   -1.7470182   0.12590353    11177.996     1000 
  898000    0.4770827   -2.5704049   0.71490843   -1.8554965   0.12507285    11190.088     1000 
  900000   0.52881627    -2.575464   0.79243117   -1.7830329   0.13212333     11120.83     1000 
  902000   0.52658894   -2.6096945   0.78909352    -1.820601   0.12548587    11269.913     1000 
  904000   0.53602678   -2.5516801   0.80323612   -1.7484439     0.154948    10904.244     1000 
  906000   0.50128168   -2.5531847    0.7511706   -1.8020141   0.11605145    11259.693     1000 
  908000   0.50626327   -2.5291848   0.75863551   -1.7705492   0.12102034    11149.787     1000 
  910000    0.5160915    -2.547642   0.77336312   -1.7742789   0.14111025    11037.707     1000 
  912000   0.49971779   -2.5612031    0.7488271    -1.812376   0.11772336    11175.814     1000 
  914000   0.51233984   -2.5665569   0.76774124   -1.7988156   0.12452976    11133.548     1000 
  916000   0.52028395   -2.5445209   0.77964549   -1.7648754   0.14467768    11026.035     1000 
  918000   0.53286273   -2.5100009    0.7984948   -1.7115061   0.14562345    11024.542     1000 
  920000   0.51550651    -2.531734   0.77248651   -1.7592475   0.13245573    11194.405     1000 
  922000   0.50037432   -2.4924843   0.74981092   -1.7426734   0.14768457    10936.747     1000 
  924000   0.52946767   -2.5900812   0.79340731   -1.7966738    0.1264547    11247.259     1000 
  926000    0.5356101    -2.527969   0.80261174   -1.7253572   0.13071883    11216.959     1000 
  928000   0.51706429   -2.5838754   0.77482084   -1.8090545     0.129308    11166.418     1000 
  930000    0.5217405   -2.5465691   0.78182813   -1.7647409   0.12636353    11127.861     1000 
  932000   0.53274247   -2.5152686    0.7983146    -1.716954   0.13868951    11107.465     1000 
  934000   0.52077045   -2.5705454   0.78037452   -1.7901709   0.13523483    11133.304     1000 
  936000   0.52808166   -2.5427589   0.79133037   -1.7514285   0.12516776    11105.961     1000 
  938000   0.52123395   -2.5377103   0.78106907   -1.7566412   0.11372921    11266.574     1000 
  940000   0.50760693   -2.5681831   0.76064898   -1.8075342   0.14284819    11107.782     1000 
  942000   0.53517701   -2.5368741   0.80196275   -1.7349113   0.15522737    11003.379     1000 
  944000   0.50386901   -2.4806078   0.75504771     -1.72556   0.12909954    11045.139     1000 
  946000   0.53171377   -2.5498085   0.79677308   -1.7530354   0.13421463    11069.676     1000 
  948000   0.51575349   -2.5461321   0.77285661   -1.7732755   0.13019051    11081.129     1000 
  950000    0.5080131   -2.5610058   0.76125763   -1.7997482   0.13064415    11047.192     1000 
  952000   0.49215429   -2.5134405   0.73749321   -1.7759473   0.12577939    11084.388     1000 
  954000   0.50036841   -2.5387986   0.74980207   -1.7889965   0.12216738    11196.306     1000 
  956000   0.50521265   -2.5422795   0.75706115   -1.7852183   0.13175388    11068.433     1000 
  958000   0.51319998   -2.5399311   0.76903017   -1.7709009   0.12163417    11132.313     1000 
  960000   0.49925541   -2.5234328   0.74813423   -1.7752986   0.12956366    11162.271     1000 
  962000   0.48270731   -2.4945675    0.7233369   -1.7712306   0.13689401    11063.551     1000 
  964000   0.51450943    -2.557684   0.77099238   -1.7866917   0.13007036    11249.025     1000 
  966000    0.5046268    -2.548368   0.75618325   -1.7921847   0.12283046    11230.669     1000 
  968000   0.50375065   -2.5881728   0.75487034   -1.8333025   0.12006403     11298.02     1000 
  970000   0.51980279     -2.58403   0.77892448   -1.8051055   0.11895192    11304.579     1000 
  972000   0.50141012   -2.4971369   0.75136306   -1.7457738   0.13373903    11058.694     1000 
  974000   0.51535715   -2.5234235   0.77226269   -1.7511608   0.13183547    11045.326     1000 
  976000   0.51208674   -2.5416193   0.76736198   -1.7742573   0.15252948    11160.509     1000 
  978000   0.46897411   -2.5552173    0.7027577   -1.8524596   0.12604193    11081.994     1000 
  980000   0.50663075   -2.5230513   0.75918617   -1.7638652   0.13012566    11141.972     1000 
  982000    0.4889989    -2.531367   0.73276485   -1.7986021   0.12182159    11167.506     1000 
  984000    0.5170971   -2.6137214   0.77487001   -1.8388514   0.12014376    11448.504     1000 
  986000   0.49651339    -2.549488   0.74402532   -1.8054627   0.12232583    11167.113     1000 
  988000   0.51465714   -2.5759545   0.77121373   -1.8047408   0.12538155    11276.268     1000 
  990000   0.51381447   -2.5118572   0.76995099   -1.7419062   0.11968384    11203.054     1000 
  992000   0.51126829   -2.5523422   0.76613554   -1.7862067   0.13530722    11066.291     1000 
  994000   0.54175908   -2.5451926   0.81182597   -1.7333667   0.12713488    11243.445     1000 
  996000   0.50745012   -2.5632465     0.760414   -1.8028325    0.1253603    11196.345     1000 
  998000   0.54055791   -2.5765606   0.81002602   -1.7665346   0.13434561    11305.664     1000 
 1000000   0.48985471   -2.5719706   0.73404728   -1.8379234   0.11945682    11329.374     1000 
 1002000   0.51325142   -2.5422355   0.76910725   -1.7731283   0.11961683    11103.761     1000 
 1004000   0.51666522   -2.5545171   0.77422283   -1.7802943   0.13472148    11117.972     1000 
 1006000   0.48939411   -2.5219882   0.73335707   -1.7886311   0.12888023    11093.133     1000 
 1008000    0.5259644   -2.4845234   0.78815765   -1.6963657    0.1407181    10906.123     1000 
 1010000   0.48227425   -2.5897523   0.72268797   -1.8670644   0.13201688    11209.728     1000 
 1012000   0.49812684   -2.5664177   0.74644307   -1.8199747   0.12577619    11246.341     1000 
 1014000   0.49600335   -2.5167754   0.74326103   -1.7735143   0.12859762    11047.858     1000 
 1016000   0.51777983    -2.499387   0.77589308   -1.7234939   0.10990848    11200.048     1000 
 1018000    0.5264857   -2.5776725   0.78893882   -1.7887337   0.12204066    11238.906     1000 
 1020000   0.51090402   -2.5730687   0.76558968   -1.8074791   0.12758383    11222.782     1000 
 1022000   0.50699736   -2.5274843   0.75973554   -1.7677487   0.12396574     11105.79     1000 
 1024000   0.54125538    -2.523102   0.81107118   -1.7120308   0.13345456    11080.057     1000 
 1026000   0.50707568   -2.5310057    0.7598529   -1.7711528   0.12827154    11138.886     1000 
 1028000   0.50773693   -2.5392529   0.76084379   -1.7784091   0.13442251    11133.914     1000 
 1030000   0.50119607   -2.5457379   0.75104232   -1.7946956   0.13444317    11061.557     1000 
 1032000   0.50417785   -2.5192487   0.75551051   -1.7637382   0.11644069     11084.14     1000 
 1034000   0.51871526   -2.5333493   0.77729481   -1.7560544   0.13514285    11027.293     1000 
 1036000   0.52679597   -2.5593123   0.78940377   -1.7699085   0.12821833    11070.111     1000 
 1038000   0.52047797   -2.5189347   0.77993624   -1.7389984   0.12352164    11220.667     1000 
 1040000   0.49193854   -2.5139365    0.7371699   -1.7767666   0.12701313    11075.966     1000 
 1042000   0.52192522   -2.6048141   0.78210494   -1.8227091   0.13531356    11258.283     1000 
 1044000    0.5308288    -2.529766   0.79544695    -1.734319   0.12917595    11118.573     1000 
 1046000   0.51520283   -2.5191868   0.77203144   -1.7471554    0.1315889    11072.901     1000 
 1048000   0.52182032   -2.4978172   0.78194774   -1.7158694   0.13232722     10983.67     1000 
 1050000    0.5147958   -2.5582641    0.7714215   -1.7868426   0.13079367    11052.887     1000 
 1052000   0.51206502   -2.5473836   0.76732943   -1.7800542   0.14732208    11044.209     1000 
 1054000   0.51380044   -2.5613435   0.76992995   -1.7914135   0.11964695    11186.097     1000 
 1056000   0.51222223   -2.5555711   0.76756502   -1.7880061   0.12869418    11144.203     1000 
 1058000   0.51914101   -2.5706136    0.7779328   -1.7926808   0.12494884    11317.885     1000 
 1060000   0.51662606   -2.5364259   0.77416415   -1.7622618   0.13458648    10958.892     1000 
 1062000   0.51849874   -2.5326019   0.77697037   -1.7556315   0.13269603     11063.36     1000 
 1064000   0.50739791   -2.5252075   0.76033576   -1.7648718   0.14783314    11143.189     1000 
 1066000   0.52270102   -2.5350272   0.78326747   -1.7517597   0.12762955    11164.989     1000 
 1068000   0.50419241    -2.543982   0.75553232   -1.7884497   0.12581979    11146.648     1000 
 1070000   0.51142719   -2.5356158   0.76637365   -1.7692421    0.1122213    11319.496     1000 
 1072000   0.50369602   -2.5927999   0.75478849   -1.8380114   0.14362072    11219.164     1000 
 1074000   0.51594359   -2.5476835   0.77314147   -1.7745421   0.13100692    11006.447     1000 
 1076000   0.50688598   -2.5558931   0.75956865   -1.7963245    0.1273054    11203.615     1000 
 1078000   0.50884203   -2.5502731   0.76249978   -1.7877733   0.11362149    11134.654     1000 
 1080000   0.50750682   -2.5874196   0.76049897   -1.8269206   0.13654048    11193.104     1000 
 1082000   0.48840771   -2.5470026   0.73187895   -1.8151236   0.12342387    11226.968     1000 
 1084000    0.5255092   -2.5692134   0.78747554   -1.7817379   0.13315667    11078.523     1000 
 1086000   0.51541805   -2.5177948   0.77235394   -1.7454409   0.14510108    11064.083     1000 
 1088000    0.5148822   -2.5615073   0.77155098   -1.7899564   0.13768171    11120.447     1000 
 1090000   0.49866236   -2.5272743   0.74724555   -1.7800288   0.12132126     11052.17     1000 
 1092000   0.49514331   -2.5758125   0.74197225   -1.8338402   0.12248694    11125.345     1000 
 1094000   0.49567571   -2.4935581   0.74277005   -1.7507881   0.11155114    11258.262     1000 
 1096000   0.52844283   -2.5714013   0.79187157   -1.7795297   0.11878665    11107.542     1000 
 1098000   0.49408967   -2.5009363   0.74039336    -1.760543   0.14100851    11026.159     1000 
 1100000   0.51827888   -2.4455932    0.7766409   -1.6689523   0.13370205     10960.85     1000 
 1102000   0.51327844   -2.5120795   0.76914775   -1.7429318   0.14127203    10891.755     1000 
 1104000   0.49537834   -2.5760846   0.74232444   -1.8337602   0.14852141    11061.295     1000 
 1106000   0.51427462   -2.5964596   0.77064052    -1.825819   0.14242387     11165.97     1000 
 1108000   0.50104402   -2.5106616   0.75081446   -1.7598471   0.15758852    11013.748     1000 
 1110000   0.49924506   -2.5144078   0.74811873   -1.7662891   0.13481733    11050.434     1000 
 1112000   0.53661273   -2.5225296   0.80411418   -1.7184154   0.13431474    11151.105     1000 
 1114000   0.51373781   -2.5512247   0.76983611   -1.7813886   0.12258791    11333.114     1000 
 1116000   0.51811237   -2.5164047   0.77639139   -1.7400133   0.13338997    11077.832     1000 
 1118000   0.50601505   -2.5249484   0.75826356   -1.7666849   0.13447251    10953.152     1000 
 1120000   0.49311612   -2.5462168    0.7389345   -1.8072823   0.12247583    11072.199     1000 
 1122000   0.48472341   -2.5279108   0.72635804   -1.8015527   0.12974095    11201.738     1000 
 1124000   0.51589267   -2.5747582   0.77306517    -1.801693   0.11353453    11122.914     1000 
 1126000   0.50704011   -2.5199977    0.7597996   -1.7601981   0.12692661     11091.47     1000 
 1128000   0.50961944   -2.5151061   0.76366473   -1.7514414   0.12869537    11057.145     1000 
 1130000   0.51268407   -2.5485136   0.76825708   -1.7802565   0.14433812    11096.507     1000 
 1132000   0.49433908   -2.5482831    0.7407671    -1.807516    0.1329374    11179.969     1000 
 1134000    0.4932465   -2.5559466   0.73912988   -1.8168168   0.13309033    11117.973     1000 
 1136000   0.49277626   -2.5534671   0.73842522   -1.8150418   0.13765643    11019.163     1000 
 1138000   0.49883197   -2.5489498   0.74749971   -1.8014501   0.12797984    11008.888     1000 
 1140000   0.52211499   -2.5049584   0.78238931   -1.7225691   0.12943352    11103.122     1000 
 1142000   0.52313939   -2.4761917   0.78392437   -1.6922673   0.13852366    10972.196     1000 
 1144000   0.49042737   -2.5345352   0.73490541   -1.7996298   0.13090819    11006.728     1000 
 1146000   0.51821864   -2.5404089   0.77655063   -1.7638583   0.14014787     11011.74     1000 
 1148000   0.50237484   -2.5244704    0.7528087   -1.7716617   0.13639262    11025.315     1000 
 1150000   0.51135345   -2.5149291   0.76626315    -1.748666   0.13768187     11077.18     1000 
 1152000   0.51652812   -2.5500895   0.77401739   -1.7760721   0.14364761    11068.451     1000 
 1154000   0.50526984   -2.5453292   0.75714686   -1.7881823   0.12379329    11199.601     1000 
 1156000   0.49997604   -2.5467367   0.74921409   -1.7975226   0.12766462    11143.473     1000 
 1158000   0.50669875   -2.5083831   0.75928808    -1.749095   0.13090248     10988.68     1000 
 1160000   0.50941315   -2.5164832    0.7633556   -1.7531276   0.12755852    11045.029     1000 
 1162000    0.5066894   -2.5522588   0.75927406   -1.7929848   0.10959481    11256.893     1000 
 1164000    0.5048049   -2.5184356   0.75645014   -1.7619854   0.12745544    11186.839     1000 
 1166000   0.50381604   -2.5286575   0.75496834   -1.7736891   0.13144572    10883.222     1000 
 1168000   0.50085067   -2.5127543   0.75052473   -1.7622296   0.13942896    11062.511     1000 
 1170000   0.50769406   -2.5313126   0.76077955   -1.7705331   0.11303774     11227.99     1000 
 1172000   0.52853954   -2.5505811   0.79201651   -1.7585646   0.14272585    11141.976     1000 
 1174000   0.52260909   -2.5539052   0.78312972   -1.7707754   0.12925585    11216.989     1000 
 1176000   0.51386155   -2.5295943   0.77002153   -1.7595728   0.11937433    11239.916     1000 
 1178000    0.5189558   -2.5692438   0.77765526   -1.7915885   0.13376028    11140.285     1000 
 1180000   0.50675113      -2.5916   0.75936657   -1.8322334   0.13560284    11095.216     1000 
 1182000   0.51456063   -2.5042398   0.77106911   -1.7331707   0.13439415     11191.69     1000 
 1184000   0.52820096   -2.5519313   0.79150914   -1.7604222   0.12291545    11153.275     1000 
 1186000   0.48977895   -2.5324249   0.73393376   -1.7984912   0.12367869    11256.116     1000 
 1188000   0.51884459   -2.5534028   0.77748861   -1.7759142   0.12943233    11186.598     1000 
 1190000   0.49169925   -2.5245803   0.73681132    -1.787769   0.13202689    11149.244     1000 
 1192000   0.50774425   -2.5702635   0.76085476   -1.8094088   0.12323715    11171.282     1000 
 1194000    0.5184889   -2.5599893   0.77695561   -1.7830337   0.13216539    11293.025     1000 
 1196000   0.51404125    -2.510579   0.77029082   -1.7402881   0.14282004    10977.097     1000 
 1198000   0.51279281   -2.5191777   0.76842002   -1.7507577   0.12574096    11115.702     1000 
 1200000   0.48276463   -2.5608314    0.7234228   -1.8374086   0.13242738    11188.263     1000 
 1202000   0.51599915   -2.5582344   0.77322472   -1.7850096    0.1148722    11196.095     1000 
 1204000   0.52027733   -2.5786627   0.77963559   -1.7990271   0.13139231    11139.616     1000 
 1206000   0.51980637   -2.5638015   0.77892984   -1.7848717   0.13007876    11171.226     1000 
 1208000   0.55181061   -2.5622123    0.8268882   -1.7353241   0.11756341    11347.148     1000 
 1210000   0.50142829   -2.5237624   0.75139029   -1.7723721   0.13791297      11065.1     1000 
 1212000   0.51958148   -2.5156315   0.77859284   -1.7370386   0.14164262    11042.241     1000 
 1214000    0.5193377   -2.5095183   0.77822754   -1.7312908   0.12762773    11231.419     1000 
 1216000    0.5218877   -2.5686398   0.78204871   -1.7865911   0.14004937    11194.729     1000 
 1218000   0.49893377   -2.5330633   0.74765226    -1.785411    0.1453032    11051.944     1000 
 1220000   0.49628976   -2.5778374    0.7436902   -1.8341472   0.11478258    11287.849     1000 
 1222000   0.49854453   -2.5375894   0.74706897   -1.7905205   0.13236598    10974.697     1000 
 1224000   0.51907147   -2.5521585    0.7778286   -1.7743299   0.12169167     11211.08     1000 
 1226000    0.4973121   -2.5671197   0.74522218   -1.8218975   0.13473627    11095.162     1000 
 1228000   0.50876814    -2.539422   0.76238905   -1.7770329   0.12952853    11186.878     1000 
 1230000   0.50216147   -2.5840545   0.75248897   -1.8315656   0.11528224    11235.697     1000 
 1232000   0.51256797   -2.5578629   0.76808311   -1.7897798   0.13753081    11116.802     1000 
 1234000    0.5350029   -2.5369937   0.80170185   -1.7352919   0.14573539     11194.81     1000 
 1236000   0.50973062    -2.586599   0.76383133   -1.8227677   0.12517689     11106.62     1000 
 1238000   0.51912241   -2.5506776   0.77790493   -1.7727726   0.12194011    11256.098     1000 
 1240000   0.49448085   -2.5544549   0.74097956   -1.8134753   0.14179279    10944.728     1000 
 1242000    0.5249228   -2.5874677   0.78659682   -1.8008709   0.12919822    11187.319     1000 
 1244000   0.51704517     -2.52025   0.77479219   -1.7454578    0.1364743    11157.645     1000 
 1246000   0.48995012   -2.5252535   0.73419025   -1.7910633   0.12778682    11091.944     1000 
 1248000   0.52135711   -2.5277524   0.78125363   -1.7464987   0.13417313    11150.111     1000 
 1250000   0.50903334   -2.5474895   0.76278647   -1.7847031   0.13851847     11120.51     1000 
 1252000   0.50373993   -2.5770782   0.75485428   -1.8222239   0.13341461    11114.458     1000 
 1254000   0.48808734   -2.4948126   0.73139887   -1.7634137   0.12813039    10982.191     1000 
 1256000   0.50037804   -2.5323243   0.74981649   -1.7825078   0.13770223    11174.249     1000 
 1258000   0.50980837   -2.5025316   0.76394785   -1.7385838   0.12518184    11117.736     1000 
 1260000   0.51009529   -2.5352698    0.7643778    -1.770892   0.13700888    10963.198     1000 
 1262000   0.50041973    -2.533766   0.74987897    -1.783887   0.14434406    11010.398     1000 
 1264000   0.52521366    -2.496179   0.78703267   -1.7091463   0.13422957    10989.781     1000 
 1266000   0.49544656   -2.5604636   0.74242668   -1.8180369   0.13062671    11149.973     1000 
 1268000    0.5062115   -2.5353125   0.75855793   -1.7767546   0.13020339    11003.588     1000 
 1270000   0.50847169   -2.5718528   0.76194483    -1.809908    0.1305736    11249.398     1000 
 1272000   0.50043234   -2.5462296   0.74989786   -1.7963318   0.14203446    11162.451     1000 
 1274000   0.51742767   -2.5367839   0.77536536   -1.7614186   0.15504294    10984.304     1000 
 1276000   0.51261756   -2.4812078   0.76815741   -1.7130504   0.12004873    11130.179     1000 
 1278000    0.5138602   -2.5385202   0.77001951   -1.7685007   0.14201511    10996.586     1000 
 1280000   0.51929127    -2.554114   0.77815796   -1.7759561    0.1334671    10997.472     1000 
 1282000   0.50689011   -2.5048587   0.75957483   -1.7452838   0.13517984    10877.673     1000 
 1284000   0.53895355   -2.4888143   0.80762189   -1.6811924   0.14111824    11057.131     1000 
 1286000   0.49164275   -2.5761745   0.73672666   -1.8394479   0.12667002    11141.331     1000 
 1288000   0.51885597   -2.5244831   0.77750568   -1.7469775   0.13274366    11129.535     1000 
 1290000    0.5054226   -2.5644442   0.75737576   -1.8070684   0.12124115     11141.85     1000 
 1292000   0.53676456   -2.5298386   0.80434169   -1.7254969    0.1338329    11072.216     1000 
 1294000    0.5007641   -2.5765636   0.75039501   -1.8261686   0.11907977     11134.72     1000 
 1296000   0.50314789   -2.5245731   0.75396712   -1.7706059   0.13466041     11060.49     1000 
 1298000   0.53076124   -2.4749266   0.79534572   -1.6795809   0.15349002    10900.217     1000 
 1300000   0.51345777   -2.5525081   0.76941647   -1.7830916   0.13181317    11197.553     1000 
 1302000   0.49845922   -2.4877541   0.74694114   -1.7408129   0.11912559    11256.219     1000 
 1304000   0.52558312   -2.5248558   0.78758631   -1.7372695   0.14178253    10928.882     1000 
 1306000   0.51450241   -2.5551738   0.77098187   -1.7841919   0.14761877    10962.855     1000 
 1308000   0.51478296   -2.5450525   0.77140227   -1.7736502   0.13389285    11153.595     1000 
 1310000   0.49762037   -2.5451307   0.74568412   -1.7994466     0.116213    11198.871     1000 
 1312000   0.51219654   -2.5168606   0.76752651   -1.7493341   0.12728845    10951.498     1000 
 1314000    0.5100143   -2.5268209   0.76425643   -1.7625644   0.13871991    11005.004     1000 
 1316000   0.51173718   -2.5911794   0.76683816   -1.8243412   0.13219546    11175.127     1000 
 1318000   0.52650332   -2.5327936   0.78896523   -1.7438283   0.12521123    11192.344     1000 
 1320000   0.51523517   -2.5218157   0.77207991   -1.7497358    0.1250906    11075.518     1000 
 1322000   0.53523907   -2.5706778   0.80205575    -1.768622   0.13233572    11139.911     1000 
 1324000    0.5049989   -2.5609729   0.75674085    -1.804232   0.11977498    11260.695     1000 
 1326000   0.50728002    -2.461383   0.76015911   -1.7012239   0.11885658    10964.982     1000 
 1328000   0.50802543   -2.5528089   0.76127611   -1.7915328   0.12386041    11030.945     1000 
 1330000   0.48513482   -2.5576742   0.72697453   -1.8306996   0.13518314    11060.879     1000 
 1332000   0.48831066   -2.5224118   0.73173352   -1.7906783   0.12668142    11030.709     1000 
 1334000   0.50705242   -2.5684879   0.75981805   -1.8086698   0.12659559    11264.861     1000 
 1336000   0.50137336   -2.5296406   0.75130798   -1.7783327   0.14617188    10995.127     1000 
 1338000   0.52257861   -2.5619438   0.78308404   -1.7788597   0.12684474    11076.887     1000 
 1340000   0.49379593   -2.5098014    0.7399532   -1.7698482   0.13671268    11023.505     1000 
 1342000   0.50364734   -2.5572896   0.75471554    -1.802574   0.13792316     11028.05     1000 
 1344000   0.50263454    -2.514019   0.75319786   -1.7608211   0.13539401    11023.515     1000 
 1346000   0.53870418   -2.5957168   0.80724821   -1.7884686   0.13388855     11310.82     1000 
 1348000   0.50247264   -2.5337694   0.75295525   -1.7808141   0.13807566    11109.298     1000 
 1350000   0.52868929   -2.5253398    0.7922409   -1.7330989   0.12265497    11188.813     1000 
 1352000   0.49965216   -2.5426367   0.74872876    -1.793908   0.10845346    11224.005     1000 
 1354000     0.507916   -2.4967592   0.76111213    -1.735647   0.12863219    11086.694     1000 
 1356000    0.5219279   -2.5176888   0.78210895   -1.7355799   0.12573926    11088.592     1000 
 1358000   0.52133658    -2.455302   0.78122286   -1.6740791   0.12431349    10965.236     1000 
 1360000   0.50804538   -2.6010705   0.76130601   -1.8397645   0.12647398    11298.533     1000 
 1362000    0.5131718    -2.528416   0.76898794   -1.7594281   0.14125329    11225.839     1000 
 1364000   0.50029563   -2.5361604   0.74969301   -1.7864674   0.13622911    11227.532     1000 
 1366000   0.49207212   -2.5252627   0.73737008   -1.7878926   0.12858245    11180.245     1000 
 1368000   0.53153264   -2.5470202   0.79650166   -1.7505185   0.14278283    11084.017     1000 
 1370000   0.48256916   -2.5665057   0.72312989   -1.8433758   0.12437357    11121.809     1000 
 1372000    0.5201083   -2.4929547   0.77938228   -1.7135724   0.11829107    11199.232     1000 
 1374000   0.51178316   -2.5394538   0.76690707   -1.7725467    0.1282511    10937.981     1000 
 1376000   0.50822313   -2.5785371   0.76157237   -1.8169648   0.13194948    11157.867     1000 
 1378000   0.51627818   -2.5686265   0.77364285   -1.7949836   0.13170039    11089.567     1000 
 1380000   0.48753031   -2.5140166   0.73056417   -1.7834525   0.11629634    11150.578     1000 
 1382000   0.52423082   -2.5389573   0.78555989   -1.7533974   0.12804765    11075.289     1000 
 1384000   0.51829626   -2.5360167   0.77666695   -1.7593497   0.12943991    11071.879     1000 
 1386000   0.50139172   -2.5863623    0.7513355   -1.8350268   0.13180545    11067.642     1000 
 1388000     0.517184   -2.5664976   0.77500022   -1.7914973   0.13264859    10994.362     1000 
 1390000   0.52243878   -2.5400039   0.78287451   -1.7571293   0.12372092    11097.189     1000 
 1392000    0.4969253    -2.495646   0.74464257   -1.7510034    0.1320902    10968.116     1000 
 1394000   0.52239483   -2.5324955   0.78280865   -1.7496869   0.12519767    11085.943     1000 
 1396000   0.52363143   -2.4960452    0.7846617   -1.7113835   0.12556969    11108.662     1000 
 1398000   0.53085867   -2.5349478   0.79549172   -1.7394561   0.12087909     11196.97     1000 
 1400000   0.52122895    -2.526772   0.78106158   -1.7457104   0.12786206    10990.903     1000 
 1402000   0.49823965    -2.524324   0.74661211   -1.7777119   0.11173911    11077.171     1000 
 1404000   0.50693658   -2.5771495   0.75964446    -1.817505   0.12770321    11098.438     1000 
 1406000   0.48662642   -2.4706399   0.72920969   -1.7414303   0.12929892    10974.546     1000 
 1408000   0.50561456   -2.6081378   0.75766343   -1.8504743   0.12487614    11188.186     1000 
 1410000   0.51304914   -2.5413247   0.76880414   -1.7725206   0.13173126    11087.531     1000 
 1412000   0.51858466   -2.5173793   0.77709912   -1.7402802   0.13140424    10923.327     1000 
 1414000   0.51522584   -2.5477625   0.77206593   -1.7756965   0.12827747    11063.511     1000 
 1416000   0.49643386   -2.5129997   0.74390613   -1.7690935   0.13645767    11059.395     1000 
 1418000   0.51989076   -2.5905385   0.77905631   -1.8114822   0.12644624     11233.06     1000 
 1420000   0.50030375   -2.5043129   0.74970517   -1.7546077   0.14850887    10952.061     1000 
 1422000     0.499237   -2.5755868   0.74810665   -1.8274802   0.13044883    11054.721     1000 
 1424000   0.52401785   -2.5218254   0.78524074   -1.7365847   0.13618245    11047.821     1000 
 1426000   0.52184305   -2.5857593   0.78198181   -1.8037775   0.13633997    11193.713     1000 
 1428000   0.51101277   -2.5348116   0.76575264   -1.7690589   0.12641023    11167.876     1000 
 1430000   0.50547589   -2.5693566   0.75745563    -1.811901   0.13267369    11008.139     1000 
 1432000   0.50141507   -2.5369031   0.75137048   -1.7855326   0.12307133    11194.663     1000 
 1434000   0.50974891   -2.5441938   0.76385875   -1.7803351   0.12929443    11032.364     1000 
 1436000   0.52188067   -2.5330803   0.78203818   -1.7510421   0.13062307    11287.798     1000 
 1438000     0.524905   -2.5491857   0.78657015   -1.7626156   0.12404091    11230.171     1000 
 1440000   0.52148254   -2.5406544   0.78144159   -1.7592128   0.12420868    11148.488     1000 
 1442000   0.51351895    -2.539642   0.76950815   -1.7701339   0.12420701    11044.505     1000 
 1444000   0.50904386   -2.5452177   0.76280222   -1.7824155   0.13954369     11021.62     1000 
 1446000   0.49743797   -2.5550502   0.74541079   -1.8096394   0.12831605    11192.953     1000 
 1448000   0.51706545   -2.5662957   0.77482257   -1.7914731    0.1339951    11172.502     1000 
 1450000   0.51931308   -2.5897921   0.77819065   -1.8116014   0.12127094    11229.808     1000 
 1452000   0.52640513   -2.5249094   0.78881809   -1.7360913   0.15156404    10894.543     1000 
 1454000    0.5264207   -2.6055744   0.78884142    -1.816733   0.12646971    11165.751     1000 
 1456000   0.51876284   -2.5851457   0.77736612   -1.8077796   0.12218721    11040.031     1000 
 1458000   0.52082992   -2.5449447   0.78046363    -1.764481   0.13656131    11141.076     1000 
 1460000      0.49882   -2.5936662   0.74748177   -1.8461844   0.12591474    11167.181     1000 
 1462000   0.51783305   -2.5011814   0.77597282   -1.7252086    0.1294206    11007.859     1000 
 1464000   0.51360377   -2.5500547   0.76963525   -1.7804194   0.12541882     11134.87     1000 
 1466000   0.50205337   -2.5322502   0.75232697   -1.7799233   0.10908175    11065.091     1000 
 1468000    0.5161833   -2.5375239   0.77350068   -1.7640232   0.13388116    11100.809     1000 
 1470000   0.51979471   -2.5468153   0.77891238    -1.767903   0.12229243    11197.984     1000 
 1472000   0.50087241   -2.5597859    0.7505573   -1.8092286    0.1280561    11062.625     1000 
 1474000   0.49095359   -2.5417581   0.73569395   -1.8060641   0.12005543    11032.819     1000 
 1476000   0.53032877   -2.5197314   0.79469766   -1.7250338   0.13641795     11166.48     1000 
 1478000   0.53687136   -2.5800819   0.80450174   -1.7755802   0.12971697    11197.782     1000 
 1480000   0.50153863   -2.4796108   0.75155564   -1.7280552   0.12940507    11111.045     1000 
 1482000    0.5087701   -2.5585061   0.76239199   -1.7961141   0.13374396    10975.102     1000 
 1484000   0.50233708   -2.5345508   0.75275212   -1.7817986    0.1208878    11151.074     1000 
 1486000   0.50337737   -2.6100769   0.75431099   -1.8557659   0.11886537    11214.029     1000 
 1488000   0.50841601   -2.4854274    0.7618614    -1.723566   0.11370852    11239.436     1000 
 1490000   0.50221003   -2.5727604   0.75256173   -1.8201987   0.13345359    11159.545     1000 
 1492000   0.52002533   -2.5639435   0.77925796   -1.7846855   0.13088993    11176.456     1000 
 1494000   0.51775554   -2.5937354   0.77585667   -1.8178787   0.13200474    11126.261     1000 
 1496000   0.51291224    -2.570813   0.76859899    -1.802214   0.12144378    11157.591     1000 
 1498000   0.51578635   -2.5233056   0.77290585   -1.7503998     0.117696    11181.201     1000 
 1500000   0.51477118   -2.5888948   0.77138461   -1.8175101   0.12893732    11132.783     1000 
 1502000   0.49095534   -2.5028942   0.73569658   -1.7671976   0.12443858    11104.315     1000 
 1504000   0.51963272   -2.5410982   0.77866963   -1.7624285   0.12483332    11138.764     1000 
 1506000   0.50389248   -2.5194712   0.75508289   -1.7643883   0.12919173    11048.661     1000 
 1508000   0.50491417   -2.5713575   0.75661389   -1.8147437    0.1243732    11115.781     1000 
 1510000   0.52923835   -2.5019124   0.79306366   -1.7088488   0.13055255    11155.021     1000 
 1512000   0.51519421   -2.5266497   0.77201852   -1.7546312   0.12104674    11093.821     1000 
 1514000   0.50849361   -2.4890888   0.76197767   -1.7271111   0.13438055    10935.148     1000 
 1516000   0.51107269   -2.5394592   0.76584243   -1.7736167   0.13997516    11164.594     1000 
 1518000   0.53006302   -2.5397939   0.79429943   -1.7454944   0.12643835    11171.668     1000 
 1520000   0.52445007   -2.5660511   0.78588843   -1.7801626   0.12769893    11209.281     1000 
 1522000   0.51283223   -2.6062756   0.76847909   -1.8377965   0.12577005    11295.555     1000 
 1524000    0.5009365   -2.5157023   0.75065334    -1.765049   0.13014713    11044.466     1000 
 1526000   0.50226567   -2.4873678   0.75264511   -1.7347227   0.13203576    10994.965     1000 
 1528000   0.50718065   -2.5139378    0.7600102   -1.7539276   0.12352264     11119.72     1000 
 1530000   0.50187226   -2.5313375   0.75205558   -1.7792819   0.12061176    11065.676     1000 
 1532000   0.51603091   -2.5318297   0.77327231   -1.7585574   0.14273749    10996.145     1000 
 1534000   0.51917453    -2.569137   0.77798303    -1.791154   0.14157936    11188.866     1000 
 1536000   0.50354084   -2.5342694   0.75455595   -1.7797135   0.12234701    11254.645     1000 
 1538000   0.51193204   -2.5943162   0.76713016    -1.827186   0.12063296     11349.24     1000 
 1540000   0.48995435   -2.5163888    0.7341966   -1.7821922   0.12279825    11224.177     1000 
 1542000   0.52428265   -2.4967758   0.78563754   -1.7111382   0.12666579    11004.797     1000 
 1544000   0.51570474   -2.5261783   0.77278355   -1.7533948   0.15190459      10967.9     1000 
 1546000   0.49265347   -2.5391464   0.73824122   -1.8009052   0.12726209    11130.755     1000 
 1548000   0.52082899   -2.5388087   0.78046224   -1.7583464   0.12466446    11184.301     1000 
 1550000   0.50421692   -2.6175694   0.75556905   -1.8620003   0.11769976    11183.976     1000 
 1552000    0.5104574   -2.5549572   0.76492042   -1.7900368   0.13036569    11103.306     1000 
 1554000   0.49940741   -2.5178753     0.748362   -1.7695133   0.13634683    11108.127     1000 
 1556000   0.50277057   -2.5239944    0.7534017   -1.7705927   0.12813084    11128.441     1000 
 1558000   0.52339136    -2.521697   0.78430196    -1.737395   0.14336136    11015.889     1000 
 1560000   0.48795984   -2.5794061   0.73120782   -1.8481983   0.13828924    11017.291     1000 
 1562000   0.51780036   -2.5333146   0.77592385   -1.7573907   0.12854871    11018.473     1000 
 1564000   0.49617246   -2.5629026   0.74351443   -1.8193882   0.12772644     11143.76     1000 
 1566000   0.51135749   -2.6074503    0.7662692   -1.8411811    0.1121661    11250.835     1000 
 1568000   0.50919584   -2.5379593   0.76302997   -1.7749294   0.12935387    11238.474     1000 
 1570000   0.49989697   -2.5341842   0.74909561   -1.7850885   0.12884518    11086.239     1000 
 1572000   0.51425116   -2.5397677   0.77060536   -1.7691623   0.11918389    11302.078     1000 
 1574000   0.50759462   -2.5534989   0.76063054   -1.7928684   0.12832376    11140.154     1000 
 1576000   0.51522711   -2.5262573   0.77206782   -1.7541895   0.12732158    11063.356     1000 
[...]
 2614000   0.49256482   -2.5700906   0.73810838   -1.8319822   0.11986085    11166.481     1000 
 2616000   0.50320062   -2.5195036   0.75404613   -1.7654574   0.13427508    11085.451     1000 
 2618000   0.50697507    -2.531451   0.75970214   -1.7717488   0.13776609    11046.243     1000 
 2620000   0.50535059   -2.5722805   0.75726787   -1.8150127   0.12291337    11177.666     1000 
 2622000   0.47714101   -2.5712586    0.7149958   -1.8562628   0.13428511    11117.698     1000 
 2624000   0.49042301   -2.5298814   0.73489888   -1.7949825   0.14297064    11055.872     1000 
 2626000   0.50037967   -2.5532236   0.74981893   -1.8034047   0.12939367    11193.108     1000 
 2628000   0.50793318   -2.5770627   0.76113786   -1.8159249   0.13305055    11158.391     1000 
 2630000   0.52198646   -2.5536847   0.78219671    -1.771488   0.12860567     11089.15     1000 
 2632000   0.48623761   -2.5559498   0.72862706   -1.8273227   0.11425085    11187.712     1000 
 2634000    0.5097967   -2.5757935   0.76393036   -1.8118632   0.12589626    11160.572     1000 
 2636000   0.49768391   -2.5294962   0.74577934   -1.7837169   0.12769439     11141.41     1000 
 2638000   0.47628315   -2.5826655    0.7137103   -1.8689552   0.13187722    11017.213     1000 
 2640000   0.52823136   -2.5369266   0.79155469   -1.7453719   0.13221498    11099.407     1000 
 2642000   0.50108448   -2.5718158   0.75087509   -1.8209407   0.12140011    11104.205     1000 
 2644000   0.51549349   -2.5593975     0.772467   -1.7869305    0.1377897    11051.035     1000 
 2646000   0.50401472    -2.526915   0.75526606    -1.771649   0.14239524    11030.303     1000 
 2648000   0.51759339   -2.5297896    0.7756137   -1.7541759   0.12538421    11195.916     1000 
 2650000    0.5280021   -2.5416901   0.79121114   -1.7504789   0.12675821    11220.987     1000 
 2652000   0.49519362   -2.5858426   0.74204763    -1.843795   0.11206884    11283.134     1000 
 2654000   0.53132877   -2.5861859   0.79619616   -1.7899898   0.13707697    11038.253     1000 
 2656000   0.49297006   -2.5600599   0.73871564   -1.8213442   0.13674236    11126.044     1000 
 2658000   0.50621124    -2.587158   0.75855755   -1.8286004   0.12431552    11175.833     1000 
 2660000   0.51121478   -2.5311821   0.76605535   -1.7651267   0.11612271     11190.58     1000 
 2662000   0.48770538   -2.5592104   0.73082651   -1.8283839   0.12844319    11223.596     1000 
 2664000   0.50875154   -2.5333846   0.76236419   -1.7710204   0.14741965    11055.497     1000 
 2666000   0.51027558   -2.5784456   0.76464796   -1.8137977   0.13424917    11090.773     1000 
 2668000    0.4943779   -2.5328988   0.74082529   -1.7920735   0.13395623    11095.597     1000 
 2670000   0.49132381   -2.5141308   0.73624873   -1.7778821   0.13845218     11081.74     1000 
 2672000   0.51371642   -2.5791194   0.76980406   -1.8093154   0.13528993    11156.464     1000 
 2674000   0.52086972   -2.5322761   0.78052327   -1.7517528   0.13364544    11128.429     1000 
 2676000   0.50382129    -2.517665    0.7549762   -1.7626888   0.12442415    11073.264     1000 
 2678000   0.49895354   -2.5280456   0.74768188   -1.7803637   0.12276653    11105.473     1000 
 2680000   0.51709446    -2.501968   0.77486605    -1.727102   0.14347459    11132.177     1000 
 2682000    0.5217265   -2.5804605   0.78180716   -1.7986533   0.13283604    11239.263     1000 
 2684000   0.52574986   -2.5162092   0.78783616    -1.728373   0.14136225    10943.294     1000 
 2686000   0.53402155   -2.5369565    0.8002313   -1.7367252   0.12941795    11139.453     1000 
 2688000   0.51978791   -2.5794521   0.77890218   -1.8005499    0.1249433    11263.292     1000 
 2690000   0.52510922   -2.5471506   0.78687617   -1.7602744   0.13426742    10925.777     1000 
 2692000   0.52789646    -2.563133   0.79105285   -1.7720802   0.13243455    11140.137     1000 
 2694000   0.51331875    -2.525827   0.76920814   -1.7566189   0.14663978    11078.971     1000 
 2696000   0.49971554   -2.5581328   0.74882374   -1.8093091   0.14090455    10980.727     1000 
 2698000   0.51997776   -2.5721504   0.77918668   -1.7929637    0.1366216    11139.598     1000 
 2700000   0.48152303   -2.5475659   0.72156226   -1.8260036   0.13512399    10980.581     1000 
 2702000   0.50753359   -2.5602309   0.76053908   -1.7996918   0.10913637     11095.65     1000 
 2704000   0.50298698   -2.5330141   0.75372599   -1.7792881   0.12891005     11156.17     1000 
 2706000   0.52050886    -2.542499   0.77998252   -1.7625165   0.12437932    11032.641     1000 
 2708000   0.52017312   -2.5638233   0.77947941   -1.7843439   0.12514355    11238.353     1000 
 2710000   0.50279873   -2.5561154   0.75344389   -1.8026715   0.12958703    11171.644     1000 
 2712000   0.51919236   -2.5457552   0.77800975   -1.7677455   0.13031887    11212.479     1000 
 2714000   0.51495684   -2.5234158   0.77166283    -1.751753   0.14781149    11149.764     1000 
 2716000    0.5252669   -2.5029571   0.78711246   -1.7158447   0.13058152    10988.758     1000 
 2718000   0.52337567    -2.548727   0.78427844   -1.7644486    0.1307982    11187.768     1000 
 2720000   0.51820265   -2.5663451   0.77652667   -1.7898184   0.13754514    11061.965     1000 
 2722000   0.48968376   -2.5445125   0.73379112   -1.8107214   0.12044389    11335.173     1000 
 2724000   0.53847022   -2.5628202   0.80689763   -1.7559225    0.1320453    11099.585     1000 
 2726000   0.51387784   -2.5317915   0.77004595   -1.7617456   0.14262956    11178.109     1000 
 2728000   0.50432823   -2.5439871   0.75573586   -1.7882513   0.14324286    10893.565     1000 
 2730000   0.49990718   -2.5295564   0.74911091   -1.7804455   0.12446969    11033.894     1000 
 2732000   0.50856288   -2.5284991   0.76208148   -1.7664176   0.13430589    11127.388     1000 
 2734000   0.46443526   -2.5266342   0.69595624    -1.830678   0.12959597    11082.184     1000 
 2736000   0.50113838   -2.5261451   0.75095586   -1.7751893   0.12269931    11130.313     1000 
 2738000   0.50576783   -2.4788893    0.7578931   -1.7209962   0.12648777    11191.201     1000 
 2740000   0.47713558   -2.4399345   0.71498766   -1.7249468   0.13301494    10822.408     1000 
 2742000   0.51404243   -2.5615379   0.77029258   -1.7912453   0.14366683    11010.732     1000 
 2744000   0.49232363   -2.5687862   0.73774696   -1.8310392   0.11380864    11307.603     1000 
 2746000   0.48368685   -2.5355771   0.72480475   -1.8107724   0.13937434    11149.727     1000 
 2748000   0.50220234   -2.5754021   0.75255021   -1.8228519     0.136079    11140.084     1000 
 2750000   0.50114191    -2.549493   0.75096115   -1.7985318   0.11487934    11248.082     1000 
 2752000   0.50465094   -2.5126007   0.75621943   -1.7563813   0.13447353    11000.727     1000 
 2754000   0.48387281   -2.5460742   0.72508341   -1.8209908   0.11232992    11219.315     1000 
 2756000   0.50759222   -2.4847481   0.76062694   -1.7241211   0.13171895    11045.568     1000 
 2758000    0.4995281   -2.5660318   0.74854286   -1.8174889   0.12906159    11077.634     1000 
 2760000   0.49995469   -2.5483708   0.74918211   -1.7991887   0.12337357    11152.752     1000 
 2762000   0.51966382   -2.5355371   0.77871623   -1.7568208   0.12720776    11079.775     1000 
 2764000   0.51848379   -2.5251204   0.77694796   -1.7481724   0.12683204    11123.588     1000 
 2766000   0.50390232   -2.5354444   0.75509762   -1.7803468   0.13018371    11113.599     1000 
 2768000   0.51197693   -2.5723673   0.76719743   -1.8051699   0.14328385    11100.552     1000 
 2770000    0.4934053   -2.5163443   0.73936785   -1.7769764   0.12844795    11153.593     1000 
 2772000    0.5174248   -2.4987381   0.77536107    -1.723377   0.11839611    11138.562     1000 
 2774000   0.50380279   -2.5951016   0.75494848   -1.8401531   0.11497625    11299.378     1000 
 2776000   0.49077436   -2.5234462   0.73542538   -1.7880209   0.13121452    11085.205     1000 
 2778000   0.50525649   -2.5366415   0.75712685   -1.7795147   0.12172974    11310.617     1000 
 2780000   0.50499053   -2.5207441    0.7567283   -1.7640158   0.12087848    11220.222     1000 
 2782000   0.51172581   -2.5932114   0.76682112   -1.8263903   0.11147179    11375.466     1000 
 2784000   0.51292929   -2.5095232   0.76862454   -1.7408986   0.13672643    11040.798     1000 
 2786000   0.51149517   -2.5233327   0.76647551   -1.7568572   0.12379288    11209.317     1000 
 2788000   0.52389975   -2.5522689   0.78506377   -1.7672051   0.12533941    11021.458     1000 
 2790000   0.50105638   -2.5575032   0.75083299   -1.8066702   0.10804953    11080.386     1000 
 2792000   0.51236359   -2.5152636   0.76777684   -1.7474868    0.1386075    11152.576     1000 
 2794000   0.53333832   -2.5547655   0.79920747   -1.7555581   0.13367201    11129.502     1000 
 2796000   0.51165302   -2.5893704   0.76671205   -1.8226583   0.12874549    11206.383     1000 
 2798000   0.49791498   -2.6006174    0.7461256   -1.8544918   0.12646319    11161.319     1000 
 2800000   0.48463904   -2.5162783    0.7262316   -1.7900467   0.12641386    11030.373     1000 
 2802000   0.50651997   -2.5303836   0.75902018   -1.7713634   0.12607253    11181.858     1000 
 2804000   0.50348292   -2.5371306   0.75446916   -1.7826615    0.1340663     11110.32     1000 
 2806000   0.50845933   -2.5279186    0.7619263   -1.7659923   0.12001498      11151.4     1000 
 2808000   0.51587416    -2.575601   0.77303743   -1.8025636   0.13033166    11080.093     1000 
 2810000   0.49718259   -2.5260062   0.74502811   -1.7809781    0.1208035    11124.081     1000 
 2812000   0.48343569   -2.5559065   0.72442838   -1.8314781  0.099375393    11404.436     1000 
 2814000   0.51324788   -2.5192522   0.76910194   -1.7501502    0.1299422    11070.328     1000 
 2816000   0.50089431   -2.5771766   0.75059012   -1.8265865   0.12115058    11171.172     1000 
 2818000   0.49965059   -2.5153577   0.74872641   -1.7666313    0.1358966    11130.922     1000 
 2820000   0.50185251   -2.5616886   0.75202599   -1.8096626   0.12485971    11272.556     1000 
 2822000   0.51859456   -2.5371397   0.77711394   -1.7600257   0.14285858    10949.574     1000 
 2824000   0.50616123   -2.5301542    0.7584826   -1.7716716   0.14133629    11052.594     1000 
 2826000   0.48887161   -2.4924609   0.73257411   -1.7598868   0.13124469    11087.833     1000 
 2828000    0.5137957   -2.5179533   0.76992285   -1.7480304    0.1312084    11235.717     1000 
 2830000   0.53002864   -2.5550582   0.79424791   -1.7608103   0.12790209    11052.583     1000 
 2832000   0.52557209   -2.5563369   0.78756978   -1.7687672   0.13093725    11185.456     1000 
 2834000   0.51086774   -2.5056251    0.7655353   -1.7400898   0.13676375    10943.405     1000 
 2836000   0.50974359   -2.5255544   0.76385077   -1.7617036   0.12675909    11196.768     1000 
 2838000   0.51051543   -2.5438053   0.76500737   -1.7787979   0.12973185    11038.755     1000 
 2840000   0.53901702   -2.5176574     0.807717   -1.7099404   0.13457279    11110.392     1000 
 2842000   0.51049674     -2.49288   0.76497936   -1.7279006   0.14660347    10964.516     1000 
 2844000   0.50670314   -2.4923009   0.75929466   -1.7330062   0.13770059    11074.145     1000 
 2846000   0.49649117   -2.4907215   0.74399202   -1.7467294   0.13502823    11003.638     1000 
 2848000   0.50733799   -2.4919758   0.76024597   -1.7317299   0.13885796    10979.051     1000 
 2850000   0.48922432   -2.5355713   0.73310264   -1.8024686   0.12685502    11144.117     1000 
 2852000   0.51178643   -2.5080141   0.76691196   -1.7411022   0.13931264    10928.932     1000 
 2854000   0.52029881   -2.5857399   0.77966776   -1.8060721   0.13210736     11136.99     1000 
 2856000   0.53441088   -2.5746187   0.80081471    -1.773804   0.13865234     11101.08     1000 
 2858000    0.5035579   -2.5652795   0.75458151   -1.8106979   0.13787741    11072.084     1000 
 2860000   0.49477579   -2.5595144   0.74142152   -1.8180929   0.11917465     11088.54     1000 
 2862000    0.5057998   -2.5439276   0.75794101   -1.7859866   0.11537409    11196.615     1000 
 2864000   0.50540259   -2.4952496   0.75734578   -1.7379038   0.11904931    11216.023     1000 
 2866000     0.485842   -2.5165326   0.72803424   -1.7884984   0.12791301    11173.024     1000 
 2868000   0.49093065   -2.5236414   0.73565958   -1.7879818   0.12617686    11235.558     1000 
 2870000   0.49363929   -2.5474835   0.73971847    -1.807765    0.1204787    11176.527     1000 
 2872000   0.48927075   -2.5677513   0.73317221   -1.8345791    0.1301268    11127.015     1000 
 2874000    0.5149378   -2.5535117   0.77163429   -1.7818774   0.11651287    11050.882     1000 
 2876000   0.50570146   -2.5175073   0.75779364   -1.7597137   0.12857856    11159.941     1000 
 2878000   0.50610255   -2.5796103   0.75839467   -1.8212156   0.11932068    11246.043     1000 
 2880000   0.54137893   -2.5451533   0.81125632   -1.7338969   0.12946942    11176.813     1000 
 2882000   0.50733136   -2.5509868   0.76023604   -1.7907508   0.12257689    11309.486     1000 
 2884000   0.49977251   -2.6214483    0.7489091   -1.8725392   0.13512756    11262.105     1000 
 2886000   0.52873013   -2.5405536    0.7923021   -1.7482515    0.1201771    11157.417     1000 
 2888000   0.51101271   -2.5454512   0.76575255   -1.7796987   0.13614261    11035.439     1000 
 2890000    0.5054926   -2.5222082   0.75748066   -1.7647275   0.13486536    11043.435     1000 
 2892000   0.52137533   -2.4858487   0.78128093   -1.7045677    0.1334279    11127.681     1000 
 2894000   0.52501047   -2.5001088   0.78672818   -1.7133806   0.14183729     10970.45     1000 
 2896000    0.5012574   -2.5510169   0.75113422   -1.7998827    0.1440427    10985.716     1000 
 2898000   0.50453434    -2.536485   0.75604472   -1.7804402   0.12854664    11165.085     1000 
 2900000   0.52632805   -2.5613515   0.78870258    -1.772649   0.11669185    11200.395     1000 
 2902000   0.50577524   -2.5128131    0.7579042   -1.7549089   0.12677402    11075.214     1000 
 2904000   0.51391464   -2.5299622    0.7701011   -1.7598611   0.12615046    11044.151     1000 
 2906000    0.5202658   -2.5648478    0.7796183   -1.7852295   0.13259029    11028.077     1000 
 2908000   0.50534492   -2.5232412   0.75725937   -1.7659819   0.12681527    11191.336     1000 
 2910000   0.49291533    -2.616919   0.73863363   -1.8782854    0.1157024    11283.462     1000 
 2912000   0.51469514   -2.5426748   0.77127067   -1.7714042   0.14477942    11092.745     1000 
 2914000   0.47364904   -2.5456633   0.70976309   -1.8359002   0.13583047    11101.622     1000 
 2916000   0.48718384   -2.4977429   0.73004498   -1.7676979   0.14909614    10861.078     1000 
 2918000   0.54629754   -2.5003391   0.81862687   -1.6817122    0.1148871    10994.924     1000 
 2920000   0.49491043   -2.4996928   0.74162328   -1.7580695   0.12777718    10996.297     1000 
 2922000   0.50078358   -2.5417298    0.7504242   -1.7913056   0.11731934    11191.139     1000 
 2924000   0.50504696    -2.564626   0.75681287   -1.8078131    0.1344847    11104.009     1000 
 2926000   0.49940682   -2.4987772   0.74836112   -1.7504161   0.12657263    11111.501     1000 
 2928000   0.53253913   -2.5518219   0.79800988    -1.753812   0.13974019    10849.537     1000 
 2930000   0.49975359   -2.5835868   0.74888075   -1.8347061   0.12741824    11138.816     1000 
 2932000   0.52370041   -2.5713662   0.78476506   -1.7866011   0.13558722    11006.465     1000 
 2934000   0.49810844   -2.5050554   0.74641549   -1.7586399   0.13029668    11112.117     1000 
 2936000   0.52149028   -2.5471897   0.78145318   -1.7657365   0.13681286    11052.792     1000 
 2938000   0.51640237   -2.5806182   0.77382895   -1.8067892   0.13912971    11195.112     1000 
 2940000   0.49013394   -2.5105727    0.7344657   -1.7761069   0.12057223    11044.755     1000 
 2942000   0.50109371   -2.5605309   0.75088893    -1.809642   0.12496484    11191.242     1000 
 2944000   0.49367736   -2.4873653   0.73977553   -1.7475898   0.12792278    10995.344     1000 
 2946000   0.50182632   -2.5192926   0.75198674   -1.7673058   0.14764537    11035.291     1000 
 2948000   0.51102543   -2.5359173   0.76577161   -1.7701457   0.12555413    11177.394     1000 
 2950000   0.52391324   -2.4973924   0.78508399   -1.7123084   0.13382919    10993.491     1000 
 2952000   0.52933756   -2.5050015   0.79321233   -1.7117892   0.13336097    11039.817     1000 
 2954000   0.51171255   -2.4840469   0.76680126   -1.7172456   0.12853202    10966.818     1000 
 2956000   0.51065672   -2.5169063   0.76521909   -1.7516872   0.15323832    11103.915     1000 
 2958000   0.51076438    -2.558901   0.76538043   -1.7935206   0.11663614    11113.645     1000 
 2960000   0.51055971   -2.5573785   0.76507373   -1.7923048   0.13623738    11156.009     1000 
 2962000   0.49754245   -2.5213136   0.74556737   -1.7757462   0.12126154    11024.481     1000 
 2964000   0.48206164   -2.5150813   0.72236936   -1.7927119   0.11921331     11224.29     1000 
 2966000   0.50462056   -2.5736701   0.75617392   -1.8174962   0.13305867    11041.992     1000 
 2968000    0.5275186   -2.5299183   0.79048662   -1.7394317   0.12014982     11262.15     1000 
 2970000   0.49156825   -2.5468035   0.73661502   -1.8101885   0.13640681    10988.476     1000 
 2972000   0.52088445   -2.5888534   0.78054535    -1.808308   0.12770601    11131.893     1000 
 2974000   0.51027857   -2.5944149   0.76465244   -1.8297624   0.13649218    11106.373     1000 
 2976000    0.5068032    -2.488454    0.7594446   -1.7290094   0.13814452     10925.35     1000 
 2978000    0.5142705   -2.5085464   0.77063435    -1.737912   0.13484442    11126.814     1000 
 2980000   0.53449924   -2.6001924   0.80094712   -1.7992453   0.13109114    11323.409     1000 
 2982000   0.51469345   -2.5251213   0.77126814   -1.7538531   0.12329158    10875.441     1000 
 2984000   0.50670525   -2.5482475   0.75929781   -1.7889497   0.13400753    11073.809     1000 
 2986000   0.49559743    -2.564979   0.74265274   -1.8223262    0.1283326    11207.116     1000 
 2988000   0.50725663   -2.5526524   0.76012406   -1.7925284   0.12954584    11195.075     1000 
 2990000   0.50705302   -2.5068007   0.75981894   -1.7469818   0.13232393    11148.709     1000 
 2992000   0.52015248    -2.501797   0.77944849   -1.7223485    0.1492611     10888.68     1000 
 2994000   0.51198567   -2.5264641   0.76721053   -1.7592536   0.12589042    11297.924     1000 
 2996000   0.48515296   -2.5317639   0.72700171   -1.8047622   0.12122319    11059.779     1000 
 2998000   0.51427277   -2.4868915   0.77063775   -1.7162537   0.11159458    11091.806     1000 
 3000000   0.51682384   -2.5523609   0.77446052   -1.7779003   0.10654416    11198.596     1000 
Loop time of 1518.29 on 4 procs for 3000000 steps with 1000 atoms

Performance: 853592.299 tau/day, 1975.908 timesteps/s
95.0% CPU use with 4 MPI tasks x 1 OpenMP threads

MPI task timing breakdown:
Section |  min time  |  avg time  |  max time  |%varavg| %total
---------------------------------------------------------------
Pair    | 518.98     | 526.76     | 533.69     |  29.3 | 34.69
Neigh   | 61.29      | 61.429     | 61.576     |   1.3 |  4.05
Comm    | 112.57     | 119.22     | 127.02     |  61.3 |  7.85
Output  | 0.034195   | 3.7463     | 4.9889     | 110.7 |  0.25
Modify  | 800.45     | 801.97     | 805.75     |   7.7 | 52.82
Other   |            | 5.158      |            |       |  0.34

Nlocal:        250.000 ave         256 max         245 min
Histogram: 1 1 0 0 0 0 1 0 0 1
Nghost:        1706.75 ave        1711 max        1701 min
Histogram: 1 0 0 0 1 0 0 0 0 2
Neighs:        14610.5 ave       14947 max       14160 min
Histogram: 1 0 0 1 0 0 0 0 0 2

Total # of neighbors = 58442
Ave neighs/atom = 58.442000
Neighbor list builds = 150000
Dangerous builds not checked

Total wall time: 0:25:18
