LAMMPS (29 Sep 2021 - Update 2)
OMP_NUM_THREADS environment is not set. Defaulting to 1 thread. (src/comm.cpp:98)
  using 1 OpenMP thread(s) per MPI task
# ----------------------- Inicialização -----------------------

units			lj
atom_style 		atomic
dimension 		3
boundary 		p p p

# -------------------- Criação dos Átomos ---------------------

read_data 		topologia.txt
Reading data file ...
  orthogonal box = (0.0000000 0.0000000 0.0000000) to (21.540000 21.540000 21.540000)
  1 by 2 by 2 MPI processor grid
  reading atoms ...
  1000 atoms
  read_data CPU = 0.009 seconds

velocity 		all create ${temp} 87287 rot yes dist gaussian
velocity 		all create 0.48 87287 rot yes dist gaussian

# ------------------ Interação Interatômica -------------------

pair_style		table linear 1300
pair_coeff		1 1 force.table AA 6.5
WARNING: 2 of 1300 force values in table AA are inconsistent with -dE/dr.
WARNING:  Should only be flagged at inflection points (src/pair_table.cpp:465)
pair_coeff		1 2 force.table AB 6.5
WARNING: 1 of 1300 force values in table AB are inconsistent with -dE/dr.
WARNING:  Should only be flagged at inflection points (src/pair_table.cpp:465)
pair_coeff		2 2 force.table BB 6.5
pair_write		1 1 1600 r 0.008 6.5 table.check AA
Appending to table file table.check with DATE: 2023-08-12
Neighbor list info ...
  update every 1 steps, delay 10 steps, check yes
  max neighbors/atom: 2000, page size: 100000
  master list distance cutoff = 6.8
  ghost atom cutoff = 6.8
  binsize = 3.4, bins = 7 7 7
  1 neighbor lists, perpetual/occasional/extra = 1 0 0
  (1) pair table, perpetual
      attributes: half, newton on
      pair build: half/bin/atomonly/newton
      stencil: half/bin/3d
      bin: standard
pair_write		1 2 1600 r 0.008 6.5 table.check AB
Appending to table file table.check with DATE: 2023-08-12
pair_write		2 2 1600 r 0.008 6.5 table.check BB
Appending to table file table.check with DATE: 2023-08-12

neighbor 		0.3 bin
neigh_modify	every 20 delay 0 check no

# ------------------------- Ensemble --------------------------------------

fix 1			all npt temp ${temp} ${temp} 0.5 iso ${press} ${press} 5
fix 1			all npt temp 0.48 ${temp} 0.5 iso ${press} ${press} 5
fix 1			all npt temp 0.48 0.48 0.5 iso ${press} ${press} 5
fix 1			all npt temp 0.48 0.48 0.5 iso 0.13 ${press} 5
fix 1			all npt temp 0.48 0.48 0.5 iso 0.13 0.13 5

# ---------------------- Função de Distribuição Radial -----------------------

compute RDF 	all rdf 2000 1 1 1 2 2 2
fix 2 			all ave/time 1 2000 2000 c_RDF[*] file rdf.data mode vector

# ------------------------- Execução ---------------------------

timestep 		0.005
thermo_style	custom step temp pe ke etotal press vol atoms
thermo			2000
run				3000000
Neighbor list info ...
  update every 20 steps, delay 0 steps, check no
  max neighbors/atom: 2000, page size: 100000
  master list distance cutoff = 6.8
  ghost atom cutoff = 6.8
  binsize = 3.4, bins = 7 7 7
  2 neighbor lists, perpetual/occasional/extra = 1 1 0
  (1) pair table, perpetual
      attributes: half, newton on
      pair build: half/bin/atomonly/newton
      stencil: half/bin/3d
      bin: standard
  (2) compute rdf, occasional, copy from (1)
      attributes: half, newton on
      pair build: copy
      stencil: none
      bin: none
Per MPI rank memory allocation (min/avg/max) = 2.675 | 2.675 | 2.675 Mbytes
Step Temp PotEng KinEng TotEng Press Volume Atoms 
       0         0.48    1.4904714      0.71928    2.2097514     1.653873    9993.9483     1000 
    2000   0.46508064   -2.6057459   0.69692334   -1.9088225   0.11781055    11246.653     1000 
    4000   0.50079219   -2.5920494   0.75043709   -1.8416123   0.12415364    11301.949     1000 
    6000    0.4826805   -2.5771352   0.72329672   -1.8538385   0.13701735    11081.348     1000 
    8000   0.47859457    -2.594823   0.71717396    -1.877649   0.12068319    11330.531     1000 
   10000   0.46709865   -2.6000568   0.69994732   -1.9001095   0.12990099     11052.67     1000 
   12000   0.46269104    -2.626206   0.69334253   -1.9328635    0.1220807    11193.421     1000 
   14000    0.4693968   -2.5853741    0.7033911    -1.881983   0.13453775    11052.343     1000 
   16000   0.47043746   -2.6287938   0.70495054   -1.9238432   0.12139419    11095.962     1000 
   18000    0.4723107   -2.6576592   0.70775758   -1.9499016     0.127324    11222.622     1000 
   20000   0.46501335   -2.6418117   0.69682251   -1.9449892   0.13169448    11001.134     1000 
   22000    0.4670538   -2.6531856   0.69988011   -1.9533055   0.13085079    11000.723     1000 
   24000   0.48514828   -2.6520507    0.7269947    -1.925056   0.12971418    11144.131     1000 
   26000   0.46941013   -2.6523069   0.70341109   -1.9488958   0.12952121     11136.09     1000 
   28000   0.47325462   -2.5575721   0.70917205      -1.8484   0.14386587    10935.654     1000 
   30000   0.48432126   -2.6209812   0.72575541   -1.8952258   0.13212102     11115.19     1000 
   32000   0.48785555   -2.6291319   0.73105154   -1.8980804   0.14313321    11175.268     1000 
   34000   0.49449731   -2.6595807   0.74100422   -1.9185765   0.12506647    11081.803     1000 
   36000   0.49660563   -2.6619343   0.74416353   -1.9177708   0.11544205    11185.072     1000 
   38000   0.49803583   -2.6372322   0.74630669   -1.8909255   0.12126463    11234.685     1000 
   40000   0.47286603   -2.6533373   0.70858975   -1.9447476   0.12869598    11134.614     1000 
   42000   0.48861527   -2.6392551   0.73218998   -1.9070652   0.15127161    10916.688     1000 
   44000   0.48323977   -2.6249822   0.72413479   -1.9008474   0.13261471    11108.059     1000 
   46000    0.4700644   -2.5932384   0.70439151   -1.8888469   0.12532849    11139.189     1000 
   48000   0.50593648   -2.6289837   0.75814581   -1.8708379   0.12761886    11168.396     1000 
   50000   0.47203214   -2.5872055   0.70734016   -1.8798654   0.12841832    11124.536     1000 
   52000   0.50182702   -2.6787856   0.75198779   -1.9267979   0.11935683    11175.558     1000 
   54000    0.4721965   -2.6943407   0.70758645   -1.9867543   0.11490215    11261.983     1000 
   56000   0.47417257   -2.6177184    0.7105476   -1.9071708    0.1203019    11143.364     1000 
   58000   0.49829843   -2.6226077   0.74670019   -1.8759075   0.12572212    11082.681     1000 
   60000   0.49033126   -2.6454464   0.73476139    -1.910685   0.15295266    11116.429     1000 
   62000   0.49891828   -2.6430425   0.74762904   -1.8954134   0.13374122    11216.878     1000 
   64000   0.49883989   -2.5981134   0.74751158   -1.8506018   0.13960219    11081.287     1000 
   66000   0.47633581   -2.6300363   0.71378922   -1.9162471   0.11567633    11241.924     1000 
   68000   0.46347687   -2.6471843   0.69452009   -1.9526642   0.13907955    11086.358     1000 
   70000   0.49975502   -2.6549012    0.7488829   -1.9060183    0.1377025    11088.724     1000 
   72000   0.47241541   -2.6251288   0.70791449   -1.9172143   0.12577459    11167.151     1000 
   74000   0.49349713   -2.5811694   0.73950544    -1.841664   0.13073911    11048.757     1000 
   76000   0.48233724   -2.5795223   0.72278235   -1.8567399   0.12132026    11024.451     1000 
   78000   0.48348901   -2.6140005   0.72450828   -1.8894923   0.12289613    11214.682     1000 
   80000   0.46469249   -2.6049915   0.69634169   -1.9086498   0.13734383     11044.52     1000 
   82000   0.47659218   -2.5797715   0.71417338   -1.8655981   0.12756048    11005.904     1000 
   84000   0.46390151   -2.6205682   0.69515641   -1.9254117   0.13384849    11160.666     1000 
   86000   0.49436773   -2.6183626   0.74081004   -1.8775526   0.12407175    11197.021     1000 
   88000   0.47700216   -2.6112677   0.71478773     -1.89648   0.12285218    11106.618     1000 
   90000   0.48354744   -2.6084634   0.72459584   -1.8838676   0.12640482    11167.711     1000 
   92000   0.47943053    -2.611797   0.71842664   -1.8933703   0.13066989    11005.363     1000 
   94000   0.49100027   -2.6599354   0.73576391   -1.9241715   0.14319831    11069.067     1000 
   96000   0.48548431    -2.602774   0.72749824   -1.8752758   0.13839075    11161.903     1000 
   98000   0.48773194   -2.6020017   0.73086631   -1.8711354   0.11858128    11193.472     1000 
  100000   0.46755104   -2.6231555   0.70062523   -1.9225303   0.12214304    11211.169     1000 
  102000   0.48005707   -2.6531219   0.71936551   -1.9337564   0.12656754    11178.756     1000 
  104000   0.49664742   -2.6248677   0.74422615   -1.8806416   0.14469213    11149.803     1000 
  106000    0.4787527   -2.6588413   0.71741093   -1.9414304   0.12393979    10973.668     1000 
  108000   0.49869886   -2.6880881   0.74730024   -1.9407879   0.10948356    11255.476     1000 
  110000   0.49558788   -2.6283388   0.74263844   -1.8857004   0.14401568    11046.543     1000 
  112000   0.48649795   -2.6118643   0.72901718   -1.8828471   0.13464065    11093.255     1000 
  114000   0.47980662   -2.6370005   0.71899022   -1.9180103   0.14106726    10971.917     1000 
  116000   0.48981217   -2.6031766   0.73398353   -1.8691931   0.13182942    11037.519     1000 
  118000    0.4747585   -2.6109236   0.71142562    -1.899498   0.13003897    11160.641     1000 
  120000   0.47080058   -2.6516143   0.70549466   -1.9461197   0.12368526    11142.419     1000 
  122000   0.48483779   -2.6110452   0.72652944   -1.8845157   0.13118715    11051.088     1000 
  124000   0.48761604   -2.6115736   0.73069264   -1.8808809   0.13568446    11167.311     1000 
  126000   0.48775464   -2.6440818   0.73090033   -1.9131815   0.13750232     11065.37     1000 
  128000    0.4848002    -2.632637    0.7264731   -1.9061639   0.13172228    11141.098     1000 
  130000   0.48326565   -2.6226876   0.72417357   -1.8985141   0.13342261    11072.652     1000 
  132000   0.48175899   -2.6207549   0.72191584    -1.898839   0.13959691    11010.259     1000 
  134000   0.48919813   -2.6284353    0.7330634   -1.8953719   0.13286997    11094.388     1000 
  136000    0.4788241   -2.6422466   0.71751792   -1.9247287   0.12647493     11164.85     1000 
  138000   0.45819757    -2.626079   0.68660905   -1.9394699    0.1282162    11118.299     1000 
  140000   0.47967071   -2.6407917   0.71878655   -1.9220052   0.12796778    11155.239     1000 
  142000   0.44668695   -2.6156564    0.6693604    -1.946296   0.12642106    11066.406     1000 
  144000   0.47026383   -2.6215164   0.70469035    -1.916826   0.13036169    11142.897     1000 
  146000   0.49457595   -2.6920216   0.74112206   -1.9508995   0.13243741     11135.27     1000 
  148000    0.4709197   -2.6231229   0.70567317   -1.9174497   0.12385657    11060.433     1000 
  150000   0.47356464   -2.6482453   0.70963661   -1.9386086   0.11301001     11100.54     1000 
  152000    0.5033718   -2.6462526   0.75430264     -1.89195   0.13614281    11119.682     1000 
  154000   0.48501229   -2.6366719   0.72679091   -1.9098809   0.13078783    11237.029     1000 
  156000   0.46578837    -2.555123   0.69798387   -1.8571391   0.13507502    10895.563     1000 
  158000   0.47321557   -2.6255299   0.70911353   -1.9164164   0.10646947    11204.277     1000 
  160000   0.48070605   -2.5862256   0.72033801   -1.8658876     0.110728    11107.798     1000 
  162000   0.49507733   -2.6072656   0.74187338   -1.8653923   0.12936923    11158.088     1000 
  164000   0.46935974   -2.6054049   0.70333558   -1.9020694   0.13062116     10909.53     1000 
  166000   0.50016727   -2.6837858   0.74950065   -1.9342851   0.11892874    11267.451     1000 
  168000   0.46847719   -2.6245823   0.70201307   -1.9225692   0.12632584    11105.103     1000 
  170000   0.47557261   -2.6030401   0.71264556   -1.8903945   0.12150187    11289.963     1000 
  172000   0.48459724   -2.6408083   0.72616896   -1.9146394   0.12749992    11023.125     1000 
  174000   0.48714599   -2.6291107   0.72998826   -1.8991225   0.12818034    11178.322     1000 
  176000   0.47686135   -2.6277968   0.71457673   -1.9132201   0.13136653    11087.463     1000 
  178000   0.47904293   -2.6487325   0.71784584   -1.9308867    0.1256274    11111.343     1000 
  180000   0.47258823   -2.6357743   0.70817346   -1.9276009   0.13145083     11166.74     1000 
  182000   0.44683278   -2.5715264   0.66957892   -1.9019475   0.13319918    10945.455     1000 
  184000   0.48469678   -2.5623417   0.72631812   -1.8360236   0.13924429      10968.9     1000 
  186000   0.50131499   -2.6154737   0.75122052   -1.8642532   0.14939944    11044.427     1000 
  188000   0.47240072   -2.6541549   0.70789247   -1.9462624   0.12039074    11157.391     1000 
  190000   0.46142066   -2.6256468   0.69143886   -1.9342079   0.13161313    11091.527     1000 
  192000   0.47082752   -2.6622671   0.70553504   -1.9567321   0.12935011    11222.223     1000 
  194000   0.48321522   -2.6096734   0.72409801   -1.8855753   0.12849301    11170.266     1000 
  196000   0.48729671   -2.5745844   0.73021412   -1.8443703   0.13913497    11096.825     1000 
  198000   0.46714486   -2.6063383   0.70001657   -1.9063217   0.11470969    11246.784     1000 
  200000   0.48893664   -2.6094781   0.73267156   -1.8768065   0.13055098    11069.631     1000 
  202000    0.4768537   -2.6263048   0.71456526   -1.9117395   0.13340792    11155.075     1000 
  204000   0.50108864   -2.6293903   0.75088133    -1.878509   0.14222674    10982.195     1000 
  206000   0.46571288   -2.6269226   0.69787074   -1.9290518   0.13254023    11059.219     1000 
  208000   0.45904144   -2.6082343    0.6878736   -1.9203607   0.12148775    11194.036     1000 
  210000   0.48851365   -2.6525038    0.7320377   -1.9204661   0.12899823    11201.105     1000 
  212000   0.47627298   -2.5986295   0.71369506   -1.8849345   0.13779192    11090.432     1000 
  214000   0.47696976   -2.6181516   0.71473919   -1.9034124   0.12937922    11001.094     1000 
  216000   0.47583442   -2.6725711   0.71303788   -1.9595333   0.11596751    11248.681     1000 
  218000   0.48784426   -2.6333017   0.73103463    -1.902267   0.13751783    11100.619     1000 
  220000    0.4950009   -2.5863553   0.74175885   -1.8445965   0.12040119    11142.734     1000 
  222000   0.48264559   -2.6520959   0.72324441   -1.9288515   0.13861202    11168.317     1000 
  224000   0.47575017    -2.620359   0.71291163   -1.9074473   0.11826096    11234.005     1000 
  226000   0.46591964   -2.6540643   0.69818058   -1.9558838   0.12674308    11072.292     1000 
  228000    0.4946159   -2.6259928   0.74118192   -1.8848108   0.12854991    11129.779     1000 
  230000   0.47659015   -2.6361823   0.71417033   -1.9220119   0.12982063    11187.561     1000 
  232000   0.50169072   -2.6607479   0.75178354   -1.9089644   0.12881615    11087.215     1000 
  234000   0.49835134   -2.6069093   0.74677948   -1.8601298   0.13361369    11102.916     1000 
  236000   0.47280597   -2.6319496   0.70849974   -1.9234498   0.12981869    11131.149     1000 
  238000   0.47139563   -2.6052287   0.70638635   -1.8988423   0.13393682    11062.319     1000 
  240000   0.47910174   -2.6005702   0.71793396   -1.8826362   0.12587175    11098.248     1000 
  242000   0.49626076   -2.5696288   0.74364674   -1.8259821   0.12618454     11012.78     1000 
  244000   0.48875794   -2.5900015   0.73240377   -1.8575978   0.13811926    10980.219     1000 
  246000   0.49857961   -2.5829833   0.74712154   -1.8358617   0.13046839    11089.208     1000 
  248000   0.48497979   -2.6514694   0.72674222   -1.9247272   0.11356282    11249.178     1000 
  250000   0.48067674   -2.6315941    0.7202941      -1.9113   0.15083269    11004.463     1000 
  252000   0.46600894   -2.6277829   0.69831439   -1.9294685   0.12115576    11187.183     1000 
  254000   0.49957009   -2.6175463   0.74860578   -1.8689405   0.13691052    11061.485     1000 
  256000   0.46533757   -2.6674268   0.69730836   -1.9701184   0.11438994    11278.382     1000 
  258000   0.48345486    -2.604155   0.72445711   -1.8796978   0.11649446    11189.188     1000 
  260000   0.49430041   -2.6258322   0.74070916    -1.885123   0.13955859    10989.605     1000 
  262000   0.48117341   -2.6459875   0.72103836   -1.9249492    0.1300395    11225.849     1000 
  264000   0.48481247   -2.5496127   0.72649149   -1.8231212   0.13549985     11175.44     1000 
  266000   0.48302211   -2.6487025   0.72380863   -1.9248939   0.11557357    11238.624     1000 
  268000   0.48312213   -2.6112685   0.72395851     -1.88731   0.12313544     11102.22     1000 
  270000   0.47488961   -2.5821522   0.71162208   -1.8705301   0.12293869    11154.855     1000 
  272000   0.49749788   -2.6236804   0.74550058   -1.8781798   0.11989784    11266.314     1000 
  274000   0.48822639   -2.6561402   0.73160724    -1.924533   0.12818184    11230.986     1000 
  276000   0.47064746   -2.5978169   0.70526522   -1.8925517   0.13573365    11086.688     1000 
  278000   0.46139499   -2.6061251    0.6914004   -1.9147247   0.12484303    11105.622     1000 
  280000   0.48837538   -2.6539005    0.7318305     -1.92207   0.11794882    11100.377     1000 
  282000   0.46368853   -2.6133734   0.69483727   -1.9185361   0.11463206    11171.671     1000 
  284000   0.48259504   -2.6431522   0.72316867   -1.9199835     0.119954    11149.668     1000 
  286000    0.4502475   -2.6245964   0.67469587   -1.9499006   0.11566617    11303.305     1000 
  288000   0.47187483     -2.62678   0.70710443   -1.9196755   0.12441853    11067.231     1000 
  290000   0.46709745   -2.6012214   0.69994553   -1.9012759   0.12950319    11045.777     1000 
  292000   0.47576846   -2.6289187   0.71293904   -1.9159797    0.1333407    11088.359     1000 
  294000   0.47014865   -2.6258753   0.70451776   -1.9213575   0.14025011    11140.209     1000 
  296000   0.45942609   -2.6253517      0.68845   -1.9369017   0.14459983    11010.305     1000 
  298000    0.4818716   -2.5992759   0.72208459   -1.8771913   0.13496353     11075.68     1000 
  300000   0.48419706   -2.6440556   0.72556929   -1.9184863   0.14136071    11100.199     1000 
  302000   0.46226727   -2.5700425   0.69270751    -1.877335   0.13027917    11134.538     1000 
  304000   0.48620067   -2.6410094    0.7285717   -1.9124377   0.12923066    11087.771     1000 
  306000   0.47078882   -2.5871741   0.70547704   -1.8816971   0.13189372    11012.951     1000 
  308000   0.49485239   -2.6498403   0.74153631    -1.908304   0.14210125    11073.456     1000 
  310000   0.46522162   -2.6121455    0.6971346   -1.9150109   0.13162181    11212.898     1000 
  312000   0.47624865   -2.6226517    0.7136586   -1.9089931   0.13109944    10987.196     1000 
  314000   0.50560173   -2.5785233   0.75764419   -1.8208792   0.12658628    11188.809     1000 
  316000   0.49164347   -2.5979475   0.73672773   -1.8612198   0.14005344    11056.728     1000 
  318000   0.48122298   -2.6346102   0.72111263   -1.9134975   0.12912771    11010.201     1000 
  320000   0.47614265   -2.6274873   0.71349976   -1.9139875   0.13392898    11115.689     1000 
  322000   0.48090679   -2.6774733   0.72063883   -1.9568344   0.12145761    11251.726     1000 
  324000   0.46898619   -2.6121017    0.7027758   -1.9093259   0.13272579    11030.124     1000 
  326000   0.46356145   -2.6070392   0.69464683   -1.9123924   0.12770318    11096.855     1000 
  328000   0.47096685   -2.6240233   0.70574383   -1.9182795   0.13305081    11082.101     1000 
  330000    0.4731929   -2.6356191   0.70907956   -1.9265395   0.12038283    11180.761     1000 
  332000   0.50085916   -2.6376649   0.75053745   -1.8871275   0.12827136     11131.24     1000 
  334000   0.49391769   -2.5833357   0.74013566      -1.8432   0.13593918    11095.954     1000 
  336000   0.47448158   -2.6353475   0.71101065   -1.9243368   0.13973092    10906.721     1000 
  338000   0.48517676   -2.6042694   0.72703737    -1.877232   0.14565312    10961.289     1000 
  340000   0.47103729   -2.6406492   0.70584938   -1.9347998   0.10682921    11347.079     1000 
  342000    0.4698846   -2.6929313   0.70412207   -1.9888093   0.14191487    11199.091     1000 
  344000   0.46943156   -2.6345063    0.7034432   -1.9310631   0.12593276    11141.078     1000 
  346000   0.50855706   -2.5587083   0.76207275   -1.7966356   0.13469532    11063.773     1000 
  348000   0.47424063   -2.6121217   0.71064958   -1.9014721   0.12704779    11144.901     1000 
  350000   0.48477279   -2.6116993   0.72643202   -1.8852672   0.12217947    11172.316     1000 
  352000   0.48202435   -2.6156298   0.72231349   -1.8933163   0.12747029    11097.539     1000 
  354000    0.4938877   -2.5919553   0.74009072   -1.8518646   0.13603066     10986.14     1000 
  356000   0.48654111   -2.6046887   0.72908185   -1.8756068   0.13958654    10972.031     1000 
  358000   0.46948627   -2.6224409   0.70352518   -1.9189157   0.13182532    10988.489     1000 
  360000   0.49714994    -2.627369   0.74497918   -1.8823898   0.13888963    11090.931     1000 
  362000   0.47350103   -2.6514635   0.70954129   -1.9419222     0.132371    11150.743     1000 
  364000   0.49836326   -2.6684056   0.74679735   -1.9216083   0.13263831    11126.311     1000 
  366000   0.48999897   -2.6112089   0.73426345   -1.8769454   0.13663289    11092.372     1000 
  368000   0.47167344   -2.6108376   0.70680265    -1.904035    0.1331612    10996.962     1000 
  370000   0.48300046   -2.5889302   0.72377618    -1.865154   0.11840601    11032.996     1000 
  372000   0.50032532   -2.5739852   0.74973749   -1.8242477    0.1403117    11000.796     1000 
  374000   0.48852664   -2.6414632   0.73205717    -1.909406   0.12629553    11103.397     1000 
  376000   0.47656978   -2.5944219   0.71413982   -1.8802821   0.11302054    11167.249     1000 
  378000   0.50424397   -2.6644185   0.75560958    -1.908809   0.12826004    11110.377     1000 
  380000   0.45853812   -2.5833555   0.68711937   -1.8962361   0.13954706    10893.023     1000 
  382000   0.46542935   -2.5688853   0.69744588   -1.8714394   0.12582418      11069.8     1000 
  384000   0.47281612     -2.61729   0.70851496   -1.9087751   0.12485816     11221.16     1000 
  386000   0.48602632   -2.6400669   0.72831044   -1.9117564    0.1383643    11069.547     1000 
  388000   0.47585464   -2.6159589   0.71306818   -1.9028907   0.14063493    10939.645     1000 
  390000   0.46654787   -2.6659968   0.69912198   -1.9668748   0.12414677    11176.821     1000 
  392000   0.45674884   -2.6135945   0.68443814   -1.9291564   0.14413601    11064.857     1000 
  394000   0.50717645   -2.6455402   0.76000391   -1.8855363   0.13196756    11164.641     1000 
  396000   0.47746812   -2.6427084   0.71548598   -1.9272225    0.1388516    11068.333     1000 
  398000   0.47835853   -2.6085076   0.71682026   -1.8916873   0.12985288    11090.975     1000 
  400000   0.49332902    -2.531273   0.73925354   -1.7920194   0.12999198    10884.662     1000 
  402000    0.4987416   -2.6820333   0.74736428    -1.934669   0.12835805    11204.539     1000 
  404000   0.46137019   -2.6125541   0.69136323   -1.9211909   0.13762895    10980.684     1000 
  406000   0.46729798   -2.6519769   0.70024602   -1.9517309    0.1400517    11121.005     1000 
  408000    0.4913341   -2.6400927   0.73626415   -1.9038286   0.13178069    11130.652     1000 
  410000   0.46125472   -2.5960559   0.69119019   -1.9048657   0.13735446    11186.827     1000 
  412000   0.48124877   -2.5994101   0.72115127   -1.8782588   0.12513518    11119.745     1000 
  414000   0.47464305   -2.6376047    0.7112526   -1.9263521   0.12908788    11061.264     1000 
  416000   0.47017719   -2.5996267   0.70456052   -1.8950662    0.1408342    10963.195     1000 
  418000   0.47960751   -2.5902256   0.71869186   -1.8715337   0.12605351    11097.779     1000 
  420000   0.45182869   -2.6634747   0.67706528   -1.9864094   0.13577668    11094.578     1000 
  422000   0.49326688   -2.6274142   0.73916041   -1.8882538   0.14368969    11082.541     1000 
  424000   0.48843791   -2.6501274    0.7319242   -1.9182032    0.1121592    11259.547     1000 
  426000   0.49559522    -2.632342   0.74264944   -1.8896926    0.1330324    11106.199     1000 
  428000   0.47567103   -2.6446721   0.71279303    -1.931879   0.10979019    11256.013     1000 
  430000   0.47873869   -2.6031071   0.71738992   -1.8857171   0.11483517     11280.84     1000 
  432000   0.49613151   -2.6583926   0.74345307   -1.9149396   0.11988783    11149.765     1000 
  434000   0.46548978   -2.6301388   0.69753644   -1.9326024   0.13047963    11287.595     1000 
  436000    0.4850272   -2.6163996   0.72681326   -1.8895864    0.1332428    11146.873     1000 
  438000   0.47877783   -2.6718078   0.71744858   -1.9543592   0.13577988    11046.767     1000 
  440000   0.46103518   -2.5900686   0.69086121   -1.8992074   0.13287332    10992.673     1000 
  442000   0.48962867    -2.604639   0.73370856   -1.8709304   0.12231314    11108.126     1000 
  444000   0.47976659   -2.5995943   0.71893024    -1.880664   0.14455725    10937.974     1000 
  446000   0.49406819   -2.6098941   0.74036118    -1.869533   0.12478106    11174.113     1000 
  448000   0.48516312   -2.6229934   0.72701693   -1.8959764    0.1435633    11019.746     1000 
  450000   0.47571623   -2.6355723   0.71286076   -1.9227116    0.1251142    11112.122     1000 
  452000   0.46658815    -2.616884   0.69918235   -1.9177016   0.13275875    11100.311     1000 
  454000   0.49336625   -2.6897224   0.73930932    -1.950413   0.12616066    11266.709     1000 
  456000   0.48325067   -2.6074143   0.72415113   -1.8832632   0.12627978    11140.616     1000 
  458000   0.47497615   -2.6306894   0.71175176   -1.9189377   0.12089811    11024.303     1000 
  460000   0.46791916   -2.6067405   0.70117686   -1.9055636   0.13378361    11067.561     1000 
  462000   0.48537516   -2.6416513   0.72733468   -1.9143167   0.11834387    11279.057     1000 
  464000   0.49273074   -2.6145686   0.73835701   -1.8762116    0.1319922    11181.121     1000 
  466000   0.48317026   -2.6430575   0.72403064   -1.9190269   0.12954144    11036.473     1000 
  468000   0.47426145   -2.6006412   0.71068079   -1.8899604   0.12595583    11150.279     1000 
  470000   0.49328254   -2.6574726   0.73918389   -1.9182887   0.12507525    11198.096     1000 
  472000   0.45878891   -2.6169785   0.68749518   -1.9294833   0.11979296    11231.418     1000 
  474000   0.47731247   -2.6593128   0.71525274   -1.9440601   0.13206469    11175.134     1000 
  476000   0.48595181   -2.6776402   0.72819879   -1.9494415   0.12340649    11168.262     1000 
  478000   0.47847467   -2.6641833    0.7169943    -1.947189   0.12458067    11283.168     1000 
  480000   0.46702807   -2.6001528   0.69984157   -1.9003113   0.12482916    11154.521     1000 
  482000   0.47522971    -2.616675   0.71213172   -1.9045433   0.12268811    11194.209     1000 
  484000   0.48434417   -2.6043604   0.72578973   -1.8785707   0.13028217    11033.082     1000 
  486000   0.46983293   -2.6210301   0.70404464   -1.9169854    0.1373445    11084.324     1000 
  488000   0.48357695   -2.6119936   0.72464006   -1.8873535   0.12361578    11030.579     1000 
  490000   0.47542624   -2.6265999   0.71242622   -1.9141737   0.13732537    10959.013     1000 
  492000   0.46879952   -2.6464679   0.70249609   -1.9439718   0.13656196    11041.037     1000 
  494000   0.49125049   -2.6821719   0.73613885   -1.9460331   0.13454498    11058.951     1000 
  496000   0.47993546   -2.6778028   0.71918328   -1.9586195   0.12799436      11275.1     1000 
  498000   0.49359893   -2.6002077     0.739658   -1.8605497    0.1489353    11028.109     1000 
  500000   0.46689363   -2.6169509   0.69964011   -1.9173108   0.12264256    11145.808     1000 
  502000   0.48713173   -2.6505759    0.7299669    -1.920609   0.12304892    11163.306     1000 
  504000   0.46770924   -2.6530596   0.70086229   -1.9521973   0.13543763    11076.142     1000 
  506000   0.48895577   -2.6220761   0.73270022   -1.8893759    0.1324729    11128.328     1000 
  508000   0.48831713   -2.6416508   0.73174322   -1.9099075   0.13081497      11143.5     1000 
  510000   0.47502703   -2.6313671     0.711828   -1.9195391   0.12848116    11269.382     1000 
  512000   0.48752649    -2.618602   0.73055844   -1.8880435   0.13466339    11178.149     1000 
  514000   0.45434852   -2.6722893   0.68084126   -1.9914481   0.11544289    11263.589     1000 
  516000   0.47502168   -2.6061986   0.71181999   -1.8943786   0.14809826     11027.49     1000 
  518000   0.49511826   -2.6058613   0.74193471   -1.8639266   0.13319459    11291.226     1000 
  520000      0.49314   -2.5657711   0.73897028   -1.8268008   0.11365048    11062.554     1000 
  522000   0.50622861   -2.6208297   0.75858358   -1.8622461   0.10881557    11193.561     1000 
  524000    0.4778439   -2.5582466   0.71604908   -1.8421975   0.13562243    10941.855     1000 
  526000   0.47918182   -2.5855317   0.71805396   -1.8674777   0.14253137    11119.003     1000 
  528000   0.49240524   -2.6604649   0.73786925   -1.9225956   0.11923066    11278.729     1000 
  530000   0.45611294    -2.617741   0.68348524   -1.9342558    0.1258711     11074.94     1000 
  532000   0.47376871   -2.6498483   0.70994242   -1.9399059   0.12809699    11166.492     1000 
  534000   0.46971156   -2.6162289   0.70386277   -1.9123661   0.12698876    11040.865     1000 
  536000   0.46584185   -2.6111511   0.69806401   -1.9130871   0.11403482    11150.345     1000 
  538000   0.49318742   -2.6650678   0.73904136   -1.9260265   0.12563218    11218.722     1000 
  540000   0.48126828   -2.6049813   0.72118051   -1.8838008   0.14253791     10889.17     1000 
  542000    0.4840486   -2.5937026   0.72534682   -1.8683557    0.1276725    11073.169     1000 
  544000   0.48403036   -2.6457853   0.72531949   -1.9204658   0.12638993    11318.554     1000 
  546000   0.48195844   -2.6189445   0.72221473   -1.8967298    0.1246085    11179.121     1000 
  548000     0.492006   -2.5946799   0.73727099   -1.8574089   0.12970846    11239.919     1000 
  550000    0.4662788   -2.6375272   0.69871878   -1.9388084   0.12444279    10966.787     1000 
  552000   0.49176628   -2.6086154   0.73691177   -1.8717036   0.14109805    11052.165     1000 
  554000    0.4724429   -2.6229968   0.70795568   -1.9150411   0.11838749    11098.058     1000 
  556000   0.47281537   -2.6289532   0.70851383   -1.9204393   0.11431027    11167.706     1000 
  558000    0.4797739    -2.634429    0.7189412   -1.9154878   0.12445694    11258.284     1000 
  560000   0.48130005   -2.6041453   0.72122813   -1.8829172   0.14543441    11051.364     1000 
  562000    0.4682552   -2.6640702   0.70168041   -1.9623898   0.12248813     11080.76     1000 
  564000   0.46725307   -2.7043305   0.70017872   -2.0041518   0.12937785    11060.224     1000 
  566000     0.470915   -2.6233275   0.70566613   -1.9176614   0.12817109    11186.838     1000 
  568000   0.45623779   -2.6336493   0.68367232    -1.949977   0.11679157    11158.153     1000 
  570000   0.46735016   -2.5972579   0.70032422   -1.8969337   0.14187668    10968.616     1000 
  572000   0.47433117   -2.6384735   0.71078526   -1.9276883   0.12178763    11101.541     1000 
  574000   0.47019045   -2.6195735   0.70458039   -1.9149931   0.12983111    11183.685     1000 
  576000   0.48597214   -2.6247695   0.72822925   -1.8965402   0.13822721    11103.032     1000 
  578000   0.47306872   -2.6586143   0.70889347   -1.9497208   0.13809055    11131.228     1000 
  580000   0.50216972   -2.6752843   0.75250133   -1.9227829   0.13131071    11171.861     1000 
  582000   0.46412083   -2.5862735   0.69548507   -1.8907884   0.12425894     11062.46     1000 
  584000   0.49748478   -2.6305766   0.74548094   -1.8850957   0.14093294    11109.981     1000 
  586000   0.47842395   -2.5989774   0.71691829   -1.8820591   0.12587994    11065.809     1000 
  588000   0.45929034   -2.6573194   0.68824658   -1.9690729    0.1281224    11007.467     1000 
  590000   0.45926937   -2.6569468   0.68821515   -1.9687317   0.13516916    11129.554     1000 
  592000   0.49822795   -2.6442848   0.74659458   -1.8976902   0.13107986    11112.784     1000 
  594000   0.48932693   -2.6430277   0.73325641   -1.9097713   0.14542547    10994.405     1000 
  596000   0.49779324   -2.6362838   0.74594317   -1.8903406   0.11577415    11116.415     1000 
  598000   0.47334098   -2.6018433   0.70930146   -1.8925419   0.13340347     11094.83     1000 
  600000   0.48265489   -2.6252637   0.72325835   -1.9020054   0.13696977    11074.861     1000 
  602000   0.45533735   -2.6110349   0.68232301   -1.9287119   0.13389962    11044.541     1000 
  604000   0.48943888   -2.6388888   0.73342416   -1.9054646   0.13777047    11047.122     1000 
  606000   0.48584024   -2.6038956   0.72803161    -1.875864   0.11574374    11061.459     1000 
  608000   0.52449998   -2.5858017   0.78596322   -1.7998385   0.13466304    10928.192     1000 
  610000   0.47771813   -2.6154787   0.71586061   -1.8996181   0.12602745    11160.222     1000 
  612000   0.47030183   -2.5970388   0.70474729   -1.8922915   0.14806303    10958.368     1000 
  614000    0.4675827   -2.5844616   0.70067267    -1.883789   0.12313497    11045.334     1000 
  616000   0.48192348   -2.6507574   0.72216233    -1.928595   0.12446731    11187.317     1000 
  618000   0.48725648     -2.61654   0.73015384   -1.8863861    0.1242541    11101.993     1000 
  620000   0.50081075   -2.6659222   0.75046491   -1.9154573   0.12520071    11268.559     1000 
  622000   0.49959304   -2.6255036   0.74864018   -1.8768634   0.13817989    10977.333     1000 
  624000    0.4851992   -2.6431737   0.72707099   -1.9161027     0.114905    11194.144     1000 
  626000   0.50772319   -2.6465785   0.76082319   -1.8857553   0.14306924    11113.894     1000 
  628000    0.4911781   -2.6244645   0.73603038   -1.8884342   0.14061176    11008.813     1000 
  630000    0.4880776    -2.608734   0.73138429   -1.8773497   0.13828329    10993.073     1000 
  632000   0.48353212   -2.6140961   0.72457288   -1.8895232   0.15141605    11015.206     1000 
  634000    0.4777918   -2.6083829   0.71597102   -1.8924119   0.12792529    11005.585     1000 
  636000   0.48618201   -2.6192212   0.72854375   -1.8906775   0.14022103    11024.751     1000 
  638000   0.47631034   -2.6161301   0.71375104   -1.9023791    0.1294824    11225.565     1000 
  640000   0.48032344   -2.6301446   0.71976468   -1.9103799    0.1367734    11064.218     1000 
  642000   0.45497934   -2.6084352   0.68178653   -1.9266487   0.11357266    11159.725     1000 
  644000   0.45740531   -2.6151751   0.68542185   -1.9297532   0.13328463    10948.815     1000 
  646000   0.49729465    -2.622246   0.74519603     -1.87705   0.13038315    11185.848     1000 
  648000     0.469543   -2.5717904   0.70361019   -1.8681803   0.13295649    10984.064     1000 
  650000   0.50191441    -2.614031   0.75211874   -1.8619123   0.14385008    11064.085     1000 
  652000   0.47816616   -2.6279005   0.71653198   -1.9113685   0.13224696      11133.2     1000 
  654000   0.45924896    -2.639037   0.68818457   -1.9508524   0.13608297    11088.349     1000 
  656000   0.48022601   -2.6322662   0.71961867   -1.9126475   0.13566429    10988.383     1000 
  658000   0.49315907   -2.5929144   0.73899886   -1.8539155   0.13877215    10958.368     1000 
  660000   0.47042647   -2.6329132   0.70493406   -1.9279791   0.13367935    11196.402     1000 
  662000    0.4738492   -2.6704132   0.71006303   -1.9603502   0.12977797    11201.998     1000 
  664000   0.49194565   -2.5830186   0.73718055    -1.845838   0.13976185    11042.022     1000 
  666000   0.50007417   -2.6114376   0.74936115   -1.8620765   0.13437105    11159.949     1000 
  668000   0.48412892   -2.6508104   0.72546719   -1.9253432   0.12867225    11172.675     1000 
  670000   0.49706177   -2.5959243   0.74484707   -1.8510772   0.12353783    11207.199     1000 
  672000   0.49264979   -2.6727322   0.73823571   -1.9344965   0.14252964    11024.905     1000 
  674000   0.48978103   -2.6205898   0.73393688   -1.8866529    0.1323482    11120.429     1000 
  676000   0.47930232   -2.5579585   0.71823453   -1.8397239   0.12601749    11059.186     1000 
  678000   0.50052815   -2.6046698   0.75004143   -1.8546284   0.13024941    11206.853     1000 
  680000   0.46979288    -2.648017   0.70398464   -1.9440323   0.12066971    11164.753     1000 
  682000   0.49126871   -2.6540209   0.73616615   -1.9178547   0.13706158    11093.238     1000 
  684000   0.50290117   -2.6195263    0.7535974   -1.8659289   0.13182267    11182.276     1000 
  686000   0.47652048   -2.6136295   0.71406593   -1.8995636   0.13410227    11013.557     1000 
  688000   0.48452369   -2.6217462   0.72605876   -1.8956875   0.13982526     11144.28     1000 
  690000   0.45786519   -2.6230051   0.68611098   -1.9368941   0.10889872    11324.073     1000 
  692000   0.49754254   -2.6622388   0.74556749   -1.9166713   0.13840546     11129.07     1000 
  694000   0.49205778   -2.6773293   0.73734859   -1.9399807   0.12266359    11255.149     1000 
  696000   0.48030541   -2.6385626   0.71973766    -1.918825   0.12229844    11271.135     1000 
  698000   0.47075519   -2.5571224   0.70542666   -1.8516957     0.150343    10831.729     1000 
  700000   0.47341335   -2.6642016   0.70940991   -1.9547917   0.12420041    11178.608     1000 
  702000   0.48095092   -2.6143664   0.72070496   -1.8936614   0.13427167     11089.06     1000 
  704000   0.48867592   -2.6289512   0.73228087   -1.8966703   0.13746709    11070.013     1000 
  706000   0.50884934   -2.6099497   0.76251074    -1.847439   0.12820396    11030.025     1000 
  708000   0.46965178   -2.5643584   0.70377319   -1.8605852   0.13171708    11038.339     1000 
  710000   0.45448021   -2.5622565    0.6810386   -1.8812179   0.13411018    10914.778     1000 
  712000    0.4798741   -2.6199062   0.71909133   -1.9008148   0.14531192    11044.656     1000 
  714000   0.47053009   -2.6581731   0.70508933   -1.9530838   0.13617504     11057.09     1000 
  716000   0.47282782   -2.5858633   0.70853249   -1.8773308   0.10253885    11167.078     1000 
  718000   0.50006545   -2.5911033   0.74934808   -1.8417552   0.13572614    11011.838     1000 
  720000   0.46890434   -2.6661668   0.70265315   -1.9635137    0.1372821    10968.839     1000 
  722000   0.47515606   -2.6808585   0.71202136   -1.9688371   0.13740434    11130.398     1000 
  724000   0.48398958   -2.6594886   0.72525838   -1.9342302   0.13345794    11119.851     1000 
  726000   0.47999465   -2.5986733   0.71927198   -1.8794013   0.13009632    11129.802     1000 
  728000   0.47872378   -2.6584285   0.71736759   -1.9410609   0.14557134    11110.007     1000 
  730000   0.46838878   -2.5801407   0.70188058   -1.8782601   0.15000736     10920.33     1000 
  732000     0.464027   -2.6041265   0.69534446    -1.908782   0.12977884    11176.787     1000 
  734000   0.46181121   -2.6117905   0.69202411   -1.9197664   0.13839577    10933.305     1000 
  736000   0.49041988   -2.6328721   0.73489419   -1.8979779   0.13610695    11025.405     1000 
  738000   0.46419202   -2.5908326   0.69559175   -1.8952408   0.13302829    11123.959     1000 
  740000   0.47398864   -2.5852178   0.71027197   -1.8749459   0.12806928    11010.518     1000 
  742000   0.48904593   -2.6158089   0.73283532   -1.8829736   0.12934876    11167.102     1000 
  744000   0.47912933   -2.6258161    0.7179753   -1.9078408   0.13053661    11104.817     1000 
  746000   0.46900493   -2.6687491   0.70280389   -1.9659452   0.11967799    11228.394     1000 
  748000   0.48229659   -2.6798239   0.72272143   -1.9571025    0.1329476    11248.265     1000 
  750000   0.47752085   -2.5988795     0.715565   -1.8833145    0.1225596    11069.018     1000 
  752000   0.49331913   -2.6353969   0.73923872   -1.8961581   0.10989623     11190.25     1000 
  754000   0.46116148   -2.6312715   0.69105048   -1.9402211   0.14475762    11113.871     1000 
  756000   0.48570868   -2.6552144   0.72783445   -1.9273799   0.13623199    11061.807     1000 
  758000    0.4838094   -2.6836291   0.72498838   -1.9586407   0.12605443    11233.617     1000 
  760000   0.47894041    -2.617839    0.7176922   -1.9001468   0.13318455    11126.884     1000 
  762000   0.47825403   -2.6231575   0.71666367   -1.9064939    0.1272627     11016.69     1000 
  764000   0.48418722   -2.5932799   0.72555455   -1.8677254   0.13458349    11056.661     1000 
  766000   0.47944753   -2.5905613   0.71845213   -1.8721092   0.13184955     11078.67     1000 
  768000   0.45523834   -2.6356597   0.68217466    -1.953485   0.12753256    11088.538     1000 
  770000   0.45940244   -2.5738597   0.68841456   -1.8854452   0.13158286    11042.201     1000 
  772000   0.47002769   -2.5834467   0.70433649   -1.8791102    0.1387599    11076.977     1000 
  774000   0.47208275   -2.6508011     0.707416   -1.9433851   0.11937038    11163.102     1000 
  776000   0.50023419   -2.6980502   0.74960093   -1.9484493   0.12571916    11254.252     1000 
  778000   0.48201445   -2.5757464   0.72229865   -1.8534478   0.11418717    11225.782     1000 
  780000   0.49181153   -2.6654438   0.73697958   -1.9284642   0.12408965     11196.96     1000 
  782000   0.50201973   -2.5886544   0.75227657   -1.8363778   0.14866073    10992.395     1000 
  784000    0.4893895   -2.6725539   0.73335017   -1.9392037   0.12739734    11132.153     1000 
  786000   0.47739916   -2.6454125   0.71538263   -1.9300298   0.13839482    11059.585     1000 
  788000   0.47578554   -2.6623651   0.71296464   -1.9494005   0.14049634    11074.507     1000 
  790000   0.46786212   -2.6105834   0.70109138    -1.909492   0.12150265    11118.466     1000 
  792000   0.47392358    -2.649516   0.71017448   -1.9393415   0.13116603    11111.281     1000 
  794000   0.48425635    -2.563518   0.72565814   -1.8378599   0.11374905    11102.167     1000 
  796000   0.48608729   -2.6033374    0.7284018   -1.8749356   0.13668822    10999.344     1000 
  798000   0.47423124   -2.6100437   0.71063552   -1.8994082    0.1199591    11090.033     1000 
  800000   0.49559615   -2.6268461   0.74265083   -1.8841953    0.1322354    11080.599     1000 
  802000   0.49463241   -2.6359107   0.74120666   -1.8947041   0.13510775    11150.427     1000 
  804000   0.47832382   -2.6168098   0.71676825   -1.9000416   0.12713656    11188.847     1000 
  806000   0.48708075   -2.6321282    0.7298905   -1.9022377   0.12786429    11302.263     1000 
  808000   0.49539029   -2.6033447   0.74234234   -1.8610024   0.12643003    11216.634     1000 
  810000   0.47790013   -2.6059318   0.71613334   -1.8897985   0.12699928    11080.249     1000 
  812000   0.48001922   -2.6774821   0.71930881   -1.9581733   0.12459649    11277.264     1000 
  814000   0.49303662   -2.6240863   0.73881538   -1.8852709   0.15455991    11009.202     1000 
  816000   0.45718188   -2.5853887   0.68508705   -1.9003016   0.13594786    10893.749     1000 
  818000   0.47823141    -2.641848   0.71662977   -1.9252183   0.11486828     11224.18     1000 
  820000   0.48570684   -2.5902409    0.7278317   -1.8624092   0.15186355    10919.303     1000 
  822000   0.47575682   -2.6325309   0.71292159   -1.9196093   0.12145942     11222.46     1000 
  824000   0.47792026   -2.5747856   0.71616351   -1.8586221   0.10516747    11157.698     1000 
  826000   0.48900123   -2.5790091   0.73276834   -1.8462408   0.14872069    11049.463     1000 
  828000   0.48220446   -2.6187902   0.72258339   -1.8962068    0.1393053    10993.368     1000 
  830000   0.48689817   -2.5920425    0.7296169   -1.8624256   0.13918209    11062.298     1000 
  832000   0.46832449   -2.6484814   0.70178425   -1.9466971   0.12366614     11038.74     1000 
  834000   0.46013453   -2.6025867    0.6895116   -1.9130751    0.1319949    11028.241     1000 
  836000   0.51565849   -2.6242395   0.77271425   -1.8515253    0.1128141    11190.077     1000 
  838000   0.48519908   -2.6090716   0.72707083   -1.8820008   0.12882383    11124.652     1000 
  840000   0.49165249   -2.6173979   0.73674125   -1.8806567   0.13352415    10918.862     1000 
  842000   0.47898696   -2.6258499   0.71776197    -1.908088   0.13695503     11176.75     1000 
  844000    0.4861825   -2.5742355   0.72854447    -1.845691   0.14912857    10932.398     1000 
  846000   0.45563192   -2.5905537   0.68276444   -1.9077892   0.14548774    10871.672     1000 
  848000   0.47737168   -2.5915745   0.71534146   -1.8762331   0.12866442    11115.117     1000 
  850000    0.4829908   -2.6742812   0.72376172   -1.9505195   0.12530182     11193.04     1000 
  852000   0.49372176   -2.6162558   0.73984206   -1.8764138   0.13429527     11198.91     1000 
  854000   0.44216741   -2.6716418   0.66258786   -2.0090539   0.11445351    11261.417     1000 
  856000   0.49417226   -2.6486237   0.74051713   -1.9081066   0.13304623    11196.362     1000 
  858000    0.4811837   -2.5480551   0.72105378   -1.8270014   0.13078799    10897.933     1000 
  860000   0.46582879   -2.5852354   0.69804444   -1.8871909   0.13820502    11027.473     1000 
  862000   0.47725058   -2.6099337      0.71516   -1.8947737   0.14271309    10969.772     1000 
  864000   0.46328079   -2.6086845   0.69422627   -1.9144583   0.12672159    11180.177     1000 
  866000   0.48631956   -2.6673621   0.72874986   -1.9386122   0.11676169    11288.481     1000 
  868000   0.48177267    -2.644672   0.72193634   -1.9227356   0.12326404    11150.882     1000 
  870000   0.50265746   -2.6324957    0.7532322   -1.8792635   0.13480809    11037.164     1000 
  872000   0.47430346   -2.6421554   0.71074374   -1.9314117   0.10710692     11335.73     1000 
  874000   0.49814634   -2.6700366   0.74647229   -1.9235643   0.13732364    11283.779     1000 
  876000   0.47236194    -2.598932   0.70783437   -1.8910976   0.13303264    11033.019     1000 
  878000   0.47511065   -2.5852486   0.71195331   -1.8732953   0.14092047    10972.288     1000 
  880000   0.48437804    -2.661607   0.72584049   -1.9357665   0.12693912    11107.131     1000 
  882000   0.46388423   -2.6177397   0.69513051   -1.9226092   0.13533797    11100.975     1000 
  884000   0.47902064   -2.6675002   0.71781243   -1.9496878   0.13421609    11031.911     1000 
  886000    0.4789428   -2.6421452   0.71769579   -1.9244494   0.13014777    11099.701     1000 
  888000   0.48856051   -2.6056609   0.73210793    -1.873553   0.13962296    11082.988     1000 
  890000   0.48998735   -2.6182023   0.73424604   -1.8839563   0.14015024    11044.063     1000 
  892000   0.46951888   -2.6025918   0.70357404   -1.8990178   0.12932086    10990.657     1000 
  894000   0.49436201   -2.5984156   0.74080148   -1.8576141   0.13133083     10958.52     1000 
  896000   0.47975353   -2.6268822   0.71891067   -1.9079715   0.12703653    11081.268     1000 
  898000   0.47357664   -2.5969461   0.70965459   -1.8872915   0.12632685    11067.035     1000 
  900000    0.5060003   -2.6458719   0.75824145   -1.8876305   0.13746135    11131.666     1000 
  902000   0.47132999   -2.6414851   0.70628799   -1.9351972   0.12679572    11087.237     1000 
  904000   0.48643295   -2.6155324   0.72891978   -1.8866126   0.13157718    11052.678     1000 
  906000   0.45091437    -2.604823   0.67569518   -1.9291279   0.13444699     11107.09     1000 
  908000   0.47526492   -2.5763521   0.71218448   -1.8641677   0.13210309    11016.762     1000 
  910000    0.4660398   -2.6034806   0.69836063     -1.90512   0.13940581    11034.844     1000 
  912000   0.46212386   -2.6543165   0.69249261   -1.9618239   0.12931511    11175.326     1000 
  914000   0.47450206   -2.5685411   0.71104134   -1.8574997   0.12187746    11091.134     1000 
  916000   0.48244046   -2.6365835   0.72293702   -1.9136465   0.12092938    11211.106     1000 
  918000   0.49425118    -2.600693   0.74063539   -1.8600576   0.13597151    10998.356     1000 
  920000   0.49167125   -2.6104641   0.73676937   -1.8736948   0.12452577    11172.566     1000 
  922000   0.48324114   -2.6361181   0.72413684   -1.9119813   0.13107979    11182.622     1000 
  924000   0.49860336    -2.628311   0.74715713   -1.8811538   0.12759977    11190.265     1000 
  926000   0.49508277   -2.6638249   0.74188154   -1.9219434   0.14010973    11002.983     1000 
  928000   0.48083281   -2.6208883   0.72052796   -1.9003603    0.1267164    11058.502     1000 
  930000   0.46913692   -2.6003309   0.70300168   -1.8973292   0.12131653    11233.762     1000 
  932000   0.49584807   -2.6169795   0.74302833   -1.8739512   0.12443445     11082.14     1000 
  934000   0.48983721   -2.6048256   0.73402106   -1.8708045   0.13114074     11019.36     1000 
  936000    0.4959049   -2.5716807   0.74311349   -1.8285672   0.13581735    10975.782     1000 
  938000   0.47849608   -2.6597599   0.71702637   -1.9427335    0.1211827    11144.699     1000 
  940000   0.48822806   -2.6893851   0.73160975   -1.9577754   0.12149415    11092.401     1000 
  942000     0.470458   -2.6255133   0.70498131    -1.920532   0.12977276    11196.286     1000 
  944000   0.45999662   -2.6220624   0.68930493   -1.9327575   0.13987612    11016.448     1000 
  946000   0.47701996   -2.6606571   0.71481442   -1.9458427   0.12494186    11084.188     1000 
  948000   0.47497456   -2.6135277   0.71174938   -1.9017783   0.13499731    11017.817     1000 
  950000    0.4822587   -2.6024811   0.72266467   -1.8798164    0.1280425    11040.923     1000 
  952000   0.46716176   -2.6396685   0.70004189   -1.9396266   0.13664526    11185.491     1000 
  954000   0.47436647   -2.6264413   0.71083815   -1.9156031   0.14294594    11004.784     1000 
  956000   0.48028344   -2.6536756   0.71970474   -1.9339708   0.12259812    11181.784     1000 
  958000   0.46512943   -2.6289855   0.69699646    -1.931989   0.12471881    11166.925     1000 
  960000    0.4899416   -2.5876978   0.73417748   -1.8535203   0.13383014    11014.679     1000 
  962000   0.49003358   -2.5736894   0.73431531   -1.8393741    0.1287045    11031.052     1000 
  964000   0.48838106   -2.6287927   0.73183902   -1.8969536   0.14385806    11059.116     1000 
  966000   0.47736063   -2.6213484   0.71532491   -1.9060235   0.13330517    11173.085     1000 
  968000   0.49958756   -2.5992493   0.74863196   -1.8506174   0.13237356    11143.298     1000 
  970000    0.4648475   -2.6345756   0.69657398   -1.9380016   0.13346576    11051.577     1000 
  972000   0.47882685   -2.5975189   0.71752203   -1.8799968   0.13648398    11098.055     1000 
  974000   0.48895032   -2.6119783   0.73269206   -1.8792862   0.12524165    11089.126     1000 
  976000    0.4839825   -2.6252993   0.72524778   -1.9000516    0.1303297    11085.653     1000 
  978000   0.46663011     -2.61602   0.69924521   -1.9167748   0.13880987     11040.12     1000 
  980000   0.47069094   -2.6220788   0.70533038   -1.9167484   0.13283782    11060.772     1000 
  982000   0.46124463    -2.593538   0.69117508   -1.9023629   0.12410747    11070.148     1000 
  984000   0.48075678   -2.5951559   0.72041403   -1.8747419    0.1189006    11214.356     1000 
  986000   0.50687186   -2.6206246   0.75954749   -1.8610771   0.12713438    11194.087     1000 
  988000   0.49340437   -2.6241748   0.73936644   -1.8848083   0.12613277    11120.346     1000 
  990000    0.4832165   -2.6986984   0.72409992   -1.9745984   0.12099707    11258.184     1000 
  992000   0.47969192   -2.6229719   0.71881834   -1.9041536   0.13007069     11226.91     1000 
  994000   0.48334087   -2.6257735    0.7242863   -1.9014872   0.13229112    11202.502     1000 
  996000    0.4686752   -2.6665081   0.70230979   -1.9641983   0.13129612    11159.868     1000 
  998000   0.49336302   -2.5981686   0.73930448   -1.8588642   0.13080465    11135.417     1000 
 1000000   0.47647883   -2.6440965   0.71400353    -1.930093   0.13342804    11134.586     1000 
 1002000   0.47002641   -2.6108469   0.70433458   -1.9065123   0.13135191    11066.521     1000 
 1004000   0.46127882   -2.6274099   0.69122632   -1.9361836   0.13547432    11139.554     1000 
 1006000   0.47158747   -2.6209423   0.70667383   -1.9142684   0.13020382    11148.338     1000 
 1008000   0.48177241   -2.6430328   0.72193596   -1.9210968   0.12297206    11276.142     1000 
 1010000   0.49304092   -2.6094589   0.73882182    -1.870637   0.12731397    11102.035     1000 
 1012000   0.47770231   -2.6269137   0.71583691   -1.9110768   0.12049697    11297.539     1000 
 1014000   0.49571384   -2.6556274   0.74282719   -1.9128002   0.14255114    11049.755     1000 
 1016000   0.47484589   -2.6491465   0.71155656     -1.93759   0.11973986    11144.802     1000 
 1018000   0.46584293   -2.6186341   0.69806564   -1.9205685   0.12420686    11195.609     1000 
 1020000       0.4676   -2.6277593   0.70069859   -1.9270607   0.13987479    11097.905     1000 
 1022000   0.47408415    -2.584519   0.71041511   -1.8741039   0.12111513    10988.691     1000 
 1024000     0.494208   -2.5843541    0.7405707   -1.8437834   0.13071424     11006.26     1000 
 1026000   0.45684834   -2.6494589   0.68458723   -1.9648717   0.12106929     11226.98     1000 
 1028000   0.49200316   -2.5768168   0.73726673   -1.8395501   0.13614473    10838.184     1000 
 1030000   0.49595975   -2.6623758   0.74319568   -1.9191801   0.13369679    11163.044     1000 
 1032000   0.48372998   -2.5864944   0.72486938    -1.861625   0.14147927    11005.109     1000 
 1034000    0.4816789   -2.6384564   0.72179583   -1.9166605   0.12700917    11065.758     1000 
 1036000    0.4683962   -2.6681471   0.70189171   -1.9662553   0.13359031    11134.113     1000 
 1038000    0.4742534    -2.605124   0.71066872   -1.8944553   0.13650115    11086.946     1000 
 1040000   0.47291243   -2.6285339   0.70865927   -1.9198746   0.11151883    11223.585     1000 
 1042000   0.47782011   -2.6321517   0.71601344   -1.9161383   0.13105659     11124.85     1000 
 1044000   0.50675865    -2.616111   0.75937783   -1.8567331   0.13275337    11067.023     1000 
 1046000   0.48528427   -2.6410934   0.72719849   -1.9138949   0.12426443    11330.227     1000 
 1048000   0.48909874   -2.6281469   0.73291446   -1.8952324   0.12125854    11227.061     1000 
 1050000    0.4804475   -2.6431962   0.71995058   -1.9232456   0.12969275    11159.592     1000 
 1052000   0.47289943   -2.6077993   0.70863979   -1.8991595   0.13777689    10938.467     1000 
 1054000   0.47834546    -2.653985   0.71680067   -1.9371843    0.1273465    10982.995     1000 
 1056000   0.48880765   -2.5834453   0.73247827    -1.850967   0.12506574    11151.134     1000 
 1058000   0.49580526   -2.6543239   0.74296419   -1.9113597    0.1328129    11183.571     1000 
 1060000   0.49289517   -2.6363015   0.73860341   -1.8976981   0.12648467    11077.358     1000 
 1062000   0.45717425   -2.6380064   0.68507561   -1.9529308    0.1186431    11094.029     1000 
 1064000   0.46115012   -2.5846915   0.69103345   -1.8936581   0.13246375    11088.011     1000 
 1066000   0.48708925   -2.6144282   0.72990325    -1.884525    0.1311289    11106.876     1000 
 1068000   0.48374025   -2.6481016   0.72488476   -1.9232168   0.12823197    11198.248     1000 
 1070000   0.48253892    -2.590908   0.72308457   -1.8678234   0.14384905    11068.429     1000 
 1072000   0.49727708   -2.6109205    0.7451697   -1.8657508   0.12962969    10965.338     1000 
 1074000   0.51215707   -2.5848071   0.76746737   -1.8173397    0.1343779    11035.114     1000 
 1076000   0.47376287    -2.592113   0.70993366   -1.8821794   0.13509328     10975.68     1000 
 1078000   0.45375203   -2.6495855   0.67994742   -1.9696381   0.13419337    11171.714     1000 
 1080000   0.52048013   -2.5979314   0.77993947   -1.8179919   0.13773946    10935.385     1000 
 1082000   0.46120065   -2.6588393   0.69110918   -1.9677301   0.12181125    11189.589     1000 
 1084000   0.48515937   -2.6541286   0.72701132   -1.9271172   0.12125986    11238.441     1000 
 1086000   0.50318955   -2.5983979   0.75402954   -1.8443684    0.1312361    11043.355     1000 
 1088000   0.48075098   -2.6363572   0.72040535   -1.9159519   0.13194847    11236.915     1000 
 1090000   0.46062726   -2.6334649   0.69024995    -1.943215   0.13474997    10999.783     1000 
 1092000   0.49564656   -2.5960819   0.74272637   -1.8533555   0.13210842    11140.186     1000 
 1094000    0.4694611   -2.6303599   0.70348746   -1.9268724   0.11205566    11194.596     1000 
 1096000   0.47981527   -2.6283615   0.71900319   -1.9093583   0.13746212    10885.801     1000 
 1098000   0.47432743   -2.6241842   0.71077965   -1.9134046   0.13162087    11092.767     1000 
 1100000   0.46583379   -2.6073763   0.69805194   -1.9093244    0.1289848    11068.702     1000 
 1102000   0.48240537    -2.614578   0.72288445   -1.8916935   0.13317149    10862.396     1000 
 1104000   0.46003857   -2.6421778    0.6893678     -1.95281   0.12787079    11165.987     1000 
 1106000   0.46629301   -2.6361676   0.69874008   -1.9374275   0.14546036     10958.85     1000 
 1108000   0.47748802   -2.6018713    0.7155158   -1.8863555   0.13006163    11174.092     1000 
 1110000   0.47472394   -2.6033749   0.71137383    -1.892001   0.13999775     11092.87     1000 
 1112000   0.50547454   -2.6042203    0.7574536   -1.8467667   0.13235663    11128.594     1000 
 1114000   0.46074009   -2.6362744   0.69041902   -1.9458554   0.14328141    11048.759     1000 
 1116000    0.4817606   -2.6262591   0.72191826   -1.9043408   0.13842143     10997.78     1000 
 1118000   0.49123395   -2.6543193   0.73611407   -1.9182053   0.12457822    11251.554     1000 
 1120000   0.47129021   -2.5659945   0.70622838   -1.8597661   0.12642774    11148.589     1000 
 1122000   0.47851644   -2.6247029   0.71705689    -1.907646    0.1236109    11162.225     1000 
 1124000    0.4768801   -2.6106909   0.71460483   -1.8960861   0.14777551    11114.652     1000 
 1126000   0.45763895   -2.6509287   0.68577196   -1.9651567   0.12751134    11081.197     1000 
 1128000   0.47138933   -2.6595946   0.70637691   -1.9532177   0.12707232     11142.97     1000 
 1130000   0.47783786   -2.5851042   0.71604003   -1.8690642   0.14116338    11032.483     1000 
 1132000   0.48521011   -2.6514033   0.72708734    -1.924316   0.13394638     11149.04     1000 
 1134000   0.48000815   -2.6526533   0.71929221   -1.9333611   0.12251009    11138.756     1000 
 1136000    0.5008373   -2.6109717   0.75050469    -1.860467   0.12671723    11111.991     1000 
 1138000   0.49547844   -2.6298885   0.74247444   -1.8874141   0.13365018    11140.635     1000 
 1140000   0.47842089   -2.6254842    0.7169137   -1.9085705   0.12649845    11114.749     1000 
 1142000   0.48150175   -2.6349977   0.72153038   -1.9134673   0.13059228     11126.49     1000 
 1144000   0.46197149   -2.5770249   0.69226428   -1.8847606   0.14375856    11053.099     1000 
 1146000   0.48388565   -2.6332448   0.72510265   -1.9081422   0.12302993    11109.965     1000 
 1148000   0.48409043   -2.6593322   0.72540951   -1.9339227   0.12496625    11245.328     1000 
 1150000   0.47899646   -2.6495748   0.71777619   -1.9317986   0.11457107    11231.272     1000 
 1152000   0.48796913   -2.6346249   0.73122174   -1.9034032    0.1465948     11034.57     1000 
 1154000   0.48283847   -2.6259466   0.72353345   -1.9024132    0.1320315    11201.059     1000 
 1156000   0.46318261   -2.6280591   0.69407915   -1.9339799   0.12797098    11257.991     1000 
 1158000   0.47679564   -2.5599197   0.71447827   -1.8454414   0.12495026    11083.018     1000 
 1160000   0.50384119   -2.6120378   0.75500602   -1.8570318   0.13901261    11079.198     1000 
 1162000   0.47445706    -2.635387    0.7109739   -1.9244131   0.13066044    11030.105     1000 
 1164000   0.51605168    -2.630626   0.77330345   -1.8573225   0.11402703    11199.859     1000 
 1166000   0.46021701   -2.6181721    0.6896352   -1.9285369   0.14019388    10970.407     1000 
 1168000   0.46946183   -2.6001379   0.70348855   -1.8966493   0.12871217    11159.863     1000 
 1170000   0.46752214   -2.6672283   0.70058192   -1.9666464   0.12668106     11141.46     1000 
 1172000   0.48005099   -2.6407169   0.71935641   -1.9213605   0.14219528    11019.652     1000 
 1174000   0.47875307   -2.6364013   0.71741147   -1.9189898   0.14353314     11028.84     1000 
 1176000   0.48237425   -2.6456225   0.72283781   -1.9227846   0.14744658    11078.081     1000 
 1178000   0.48403615   -2.5832849   0.72532817   -1.8579567   0.13921991      10932.8     1000 
 1180000   0.48231236   -2.6179774   0.72274507   -1.8952323    0.1282641     10979.41     1000 
 1182000   0.47756838    -2.627542   0.71563621   -1.9119058   0.13126228     11104.37     1000 
 1184000   0.45603779    -2.625725   0.68337262   -1.9423524   0.13081127    11162.328     1000 
 1186000   0.49200021   -2.6187195   0.73726232   -1.8814571   0.12930796    11152.973     1000 
 1188000   0.47788421    -2.612344   0.71610948   -1.8962345    0.1362218    11091.148     1000 
 1190000   0.50145254   -2.6509056   0.75142664    -1.899479   0.13370482    11234.269     1000 
 1192000   0.46479873   -2.6375448   0.69650089   -1.9410439   0.11144476    11359.528     1000 
 1194000   0.48795459   -2.6036997   0.73119996   -1.8724997    0.1380041    11015.647     1000 
 1196000   0.48216954   -2.6324434   0.72253106   -1.9099123   0.12907049     11151.75     1000 
 1198000   0.46790107   -2.6343588   0.70114975   -1.9332091   0.13968429    11016.926     1000 
 1200000   0.50653839   -2.5837524   0.75904777   -1.8247046   0.13453061    10998.139     1000 
 1202000    0.4696677   -2.6196229   0.70379705   -1.9158258   0.13653929    11068.395     1000 
 1204000   0.48806929   -2.5915686   0.73137183   -1.8601968   0.12952204    10962.965     1000 
 1206000   0.45890219   -2.5633626   0.68766494   -1.8756977    0.1362565    10984.384     1000 
 1208000   0.45933759   -2.5989722   0.68831738   -1.9106548   0.12545367    11163.875     1000 
 1210000   0.50418622   -2.6542427   0.75552305   -1.8987197   0.12829142    11181.356     1000 
 1212000   0.46820309   -2.6693296   0.70160232   -1.9677273   0.11988235    11149.504     1000 
 1214000    0.4755368   -2.6231578   0.71259189   -1.9105659   0.13315381    11181.096     1000 
 1216000   0.47452757   -2.6201551   0.71107956   -1.9090756   0.14535399    11067.754     1000 
 1218000   0.47332132   -2.6079253     0.709272   -1.8986533   0.13316725    11086.978     1000 
 1220000   0.46519036    -2.627138   0.69708775   -1.9300502   0.12397652    11125.977     1000 
 1222000   0.47290457   -2.6064738    0.7086475   -1.8978263   0.13355879    11041.576     1000 
 1224000    0.4828048   -2.6285533     0.723483   -1.9050703   0.12180203    11232.316     1000 
 1226000   0.49315575   -2.6824557   0.73899389   -1.9434618   0.12586392    11276.743     1000 
 1228000   0.49837699   -2.6210119   0.74681791    -1.874194   0.12487698    11136.346     1000 
 1230000   0.50442217   -2.6111722   0.75587663   -1.8552956   0.13187804    11006.994     1000 
 1232000   0.48156814   -2.6716596   0.72162986   -1.9500297   0.12089064    11166.011     1000 
 1234000   0.49129582   -2.5979172   0.73620679   -1.8617104   0.12255371    11033.175     1000 
 1236000   0.46437522   -2.5646497   0.69586626   -1.8687835   0.13389025    10967.925     1000 
 1238000   0.47590817   -2.6149648    0.7131484   -1.9018164   0.13025523    11176.075     1000 
 1240000   0.46843098   -2.5921189   0.70194382   -1.8901751   0.13288546    11024.187     1000 
 1242000   0.48916001   -2.5873723   0.73300628    -1.854366   0.14667832    11030.539     1000 
 1244000   0.46665429   -2.6267153   0.69928145   -1.9274339   0.12655686    11180.946     1000 
 1246000   0.48568318   -2.6154456   0.72779624   -1.8876493   0.13141657    11101.331     1000 
 1248000   0.48552114   -2.5971721   0.72755344   -1.8696187   0.12980413    11181.857     1000 
 1250000   0.49321499   -2.6403944   0.73908266   -1.9013117   0.11684933    11325.319     1000 
 1252000   0.48780529   -2.6063766   0.73097622   -1.8754003   0.14600481    11072.279     1000 
 1254000   0.47831265   -2.6091397   0.71675151   -1.8923882   0.13642835    11064.089     1000 
 1256000   0.46403444   -2.6255512   0.69535561   -1.9301956   0.12305743    11323.981     1000 
 1258000   0.49405761   -2.6107969   0.74034532   -1.8704516   0.13418733    11100.655     1000 
 1260000   0.47630021   -2.5915869   0.71373587    -1.877851   0.13511731      11018.8     1000 
 1262000   0.50329626   -2.6237259   0.75418945   -1.8695365   0.13547319    10920.719     1000 
 1264000   0.48361682   -2.6048883    0.7246998   -1.8801885   0.13507351    11051.372     1000 
 1266000   0.47825984   -2.6766678   0.71667237   -1.9599955   0.12057391    11223.021     1000 
 1268000    0.4777234   -2.6174198   0.71586851   -1.9015513   0.11760006    11172.797     1000 
 1270000    0.4943969    -2.653212   0.74085376   -1.9123583   0.13033193    11043.756     1000 
 1272000   0.48035441   -2.5908507   0.71981108   -1.8710396   0.14428383     10914.28     1000 
 1274000   0.49027359   -2.6301762   0.73467497   -1.8955012   0.13686533    11036.179     1000 
 1276000   0.47324042   -2.6179397   0.70915077   -1.9087889   0.14142081    11001.786     1000 
 1278000   0.48992948   -2.6149298   0.73415933   -1.8807705   0.12966535    11104.565     1000 
 1280000    0.4990443   -2.5811684   0.74781789   -1.8333505     0.134405    10969.449     1000 
 1282000   0.49649437   -2.5642579   0.74399681   -1.8202611   0.13511908    11053.036     1000 
 1284000   0.47687099   -2.6091887   0.71459118   -1.8945975   0.13044081    11122.128     1000 
 1286000   0.49122951   -2.6240901   0.73610742   -1.8879826   0.13612944    10928.818     1000 
 1288000   0.49723398   -2.6203191   0.74510511    -1.875214   0.12228475    11053.553     1000 
 1290000   0.47296922   -2.6689823   0.70874437   -1.9602379   0.12434907    11206.141     1000 
 1292000     0.479181   -2.5546491   0.71805273   -1.8365964   0.13765888    11033.309     1000 
 1294000   0.47948164   -2.6942781   0.71850324   -1.9757748   0.13637488    11213.212     1000 
 1296000   0.49623443     -2.63795   0.74360729   -1.8943427    0.1223736    11270.039     1000 
 1298000    0.4669525   -2.6098866   0.69972832   -1.9101583   0.12196316    11178.424     1000 
 1300000   0.47505107   -2.6429753   0.71186404   -1.9311112   0.13258188     11079.52     1000 
 1302000    0.4645513   -2.6573146   0.69613012   -1.9611845   0.12629829    11217.503     1000 
 1304000   0.48556116   -2.6281317    0.7276134   -1.9005183   0.13263459    11176.377     1000 
 1306000   0.45494172   -2.6048583   0.68173016   -1.9231282    0.1108573     11329.67     1000 
 1308000   0.47678346   -2.6137243   0.71446002   -1.8992643   0.13840129    11214.444     1000 
 1310000   0.46901999   -2.6135545   0.70282645   -1.9107281    0.1368986    10974.399     1000 
 1312000   0.46398178   -2.6336192    0.6952767   -1.9383425   0.12864504    11176.272     1000 
 1314000   0.47603368    -2.681358   0.71333646   -1.9680215    0.1108473     11402.18     1000 
 1316000    0.4705789   -2.6404742   0.70516249   -1.9353117   0.12767958    11112.515     1000 
 1318000   0.46981998   -2.6209899   0.70402524   -1.9169646   0.13677669    11152.668     1000 
 1320000   0.47287747   -2.6236538   0.70860689   -1.9150469   0.12401585    11240.998     1000 
 1322000   0.48129888   -2.5881969   0.72122637   -1.8669705   0.13804068    10915.739     1000 
 1324000    0.4787015   -2.6324592   0.71733419    -1.915125   0.12529364    11177.643     1000 
 1326000   0.47398919   -2.6919018    0.7102728    -1.981629   0.11562688    11318.254     1000 
 1328000   0.49795237   -2.6038301   0.74618163   -1.8576484   0.14180769    10974.328     1000 
 1330000   0.48938978   -2.6050621   0.73335059   -1.8717115   0.14218786    11162.028     1000 
 1332000   0.48305841   -2.5938044   0.72386303   -1.8699414   0.13294227    11135.929     1000 
 1334000   0.47955726    -2.601536   0.71861655   -1.8829195    0.1288041    10997.452     1000 
 1336000   0.48576324    -2.641004   0.72791622   -1.9130878   0.13294817    11031.039     1000 
 1338000   0.49658723   -2.6026631   0.74413596   -1.8585271   0.11469509    11133.411     1000 
 1340000   0.47364452   -2.5960239   0.70975632   -1.8862676   0.13579364    10932.875     1000 
 1342000   0.48371741   -2.6487486   0.72485053   -1.9238981   0.14036185    11069.078     1000 
 1344000   0.48296184   -2.6385466   0.72371831   -1.9148283   0.13190978     11057.37     1000 
 1346000   0.45295086    -2.604812   0.67874686   -1.9260651   0.13140267    11118.191     1000 
 1348000   0.48684496   -2.6190564   0.72953718   -1.8895193   0.12439275    11129.471     1000 
 1350000   0.45920632   -2.6204773   0.68812067   -1.9323567    0.1353087    10978.695     1000 
 1352000   0.47050517   -2.6316119     0.705052   -1.9265599   0.13663562    11067.055     1000 
 1354000   0.47782227   -2.6084248   0.71601667   -1.8924081   0.12041775    11013.228     1000 
 1356000   0.45437613   -2.6442273   0.68088263   -1.9633447   0.10995534    11281.644     1000 
 1358000    0.4920131   -2.6303638   0.73728163   -1.8930821   0.13075548    11034.957     1000 
 1360000   0.49230061   -2.6027826   0.73771246   -1.8650701   0.10656031    11216.791     1000 
 1362000   0.48413329    -2.624717   0.72547374   -1.8992433   0.13889958    11115.467     1000 
 1364000   0.46872773   -2.6223713   0.70238851   -1.9199828   0.11670871    11227.228     1000 
 1366000   0.47805222   -2.6344209   0.71636126   -1.9180596   0.12436145    11051.677     1000 
 1368000   0.49588912   -2.6196895   0.74308985   -1.8765997   0.14079982     11008.79     1000 
 1370000   0.47549342   -2.6134523   0.71252689   -1.9009254    0.1328441    11076.952     1000 
 1372000   0.46643982   -2.6323752   0.69896007   -1.9334151   0.14714163    10888.228     1000 
 1374000   0.49169033   -2.6045703   0.73679796   -1.8677724   0.13419996    10976.648     1000 
 1376000   0.45475399   -2.6492796   0.68144885   -1.9678308   0.13169019    11073.736     1000 
 1378000   0.47395154   -2.6493168   0.71021638   -1.9391005   0.11396604    11406.398     1000 
 1380000   0.50682875   -2.5710137   0.75948289   -1.8115308    0.1365804    11067.636     1000 
 1382000    0.4709222     -2.58378   0.70567692   -1.8781031   0.12905585    11007.238     1000 
 1384000   0.48863207   -2.6130608   0.73221516   -1.8808456   0.12445958    11200.503     1000 
 1386000   0.47059549   -2.6210316   0.70518734   -1.9158443   0.12823601    11135.981     1000 
 1388000   0.48903355   -2.6177902   0.73281678   -1.8849735   0.13528291    11049.129     1000 
 1390000   0.47391897   -2.6665413   0.71016757   -1.9563737   0.12463113    11093.701     1000 
 1392000   0.47312167   -2.6290677   0.70897282   -1.9200949   0.13725249    11212.359     1000 
 1394000   0.47702158   -2.5946713   0.71481684   -1.8798544   0.12299949    11017.305     1000 
 1396000   0.47352798    -2.614771   0.70958168   -1.9051893   0.12964448    10908.988     1000 
 1398000    0.4834639   -2.6138679   0.72447065   -1.8893972   0.11995493    11232.064     1000 
 1400000   0.48113625   -2.6533045   0.72098267   -1.9323218    0.1292569    11197.291     1000 
 1402000   0.47269165   -2.5782796   0.70832843   -1.8699512   0.12888059    11115.549     1000 
 1404000   0.48854222   -2.6678372   0.73208052   -1.9357567   0.14046992     11043.19     1000 
 1406000   0.49433168   -2.6069379   0.74075602   -1.8661819   0.13164566    11141.862     1000 
 1408000    0.4768823   -2.6233179   0.71460812   -1.9087097    0.1320031    11240.115     1000 
 1410000    0.4800948   -2.6699648   0.71942205   -1.9505427   0.11409075    11220.337     1000 
 1412000   0.48254236   -2.6512922   0.72308973   -1.9282025   0.13644589    11020.985     1000 
 1414000    0.4762409   -2.6422673     0.713647   -1.9286203   0.13623499    11062.978     1000 
 1416000   0.47128884   -2.5643874   0.70622632   -1.8581611   0.12725582    10906.865     1000 
 1418000   0.47901202   -2.6800552   0.71779951   -1.9622557   0.12732272    11112.336     1000 
 1420000   0.49363209   -2.6235884   0.73970768   -1.8838807   0.13623841    11109.909     1000 
 1422000   0.46560284   -2.6932943   0.69770585   -1.9955884   0.13948563    11046.408     1000 
 1424000   0.50627962   -2.6174961   0.75866001   -1.8588361   0.12740547    11211.586     1000 
 1426000   0.46237357    -2.643474    0.6928668   -1.9506072   0.11227246    11135.221     1000 
 1428000   0.46693131   -2.5900619   0.69969657   -1.8903653   0.12365334    11130.865     1000 
 1430000   0.49089996    -2.641025   0.73561359   -1.9054114   0.11731375    11197.508     1000 
 1432000   0.47398729   -2.5920985   0.71026995   -1.8818286   0.14393732    11016.838     1000 
 1434000   0.46745363   -2.5939609   0.70047927   -1.8934817   0.12640375    11013.158     1000 
 1436000   0.49082492   -2.5889941   0.73550115   -1.8534929   0.11958834    11056.871     1000 
 1438000   0.46878204   -2.6015083   0.70246989   -1.8990384   0.13067681    10976.111     1000 
 1440000   0.50377438   -2.6120146   0.75490591   -1.8571087   0.11822985     11106.45     1000 
 1442000   0.48200091     -2.64516   0.72227837   -1.9228816   0.12562045    11198.138     1000 
 1444000   0.45904778   -2.5729708   0.68788311   -1.8850877   0.13501624    11009.347     1000 
 1446000   0.50377495   -2.6325828   0.75490676    -1.877676   0.13099698    11162.804     1000 
 1448000   0.49382605   -2.6081711   0.73999834   -1.8681727   0.13458227    10981.916     1000 
 1450000   0.47363661   -2.6250258   0.70974446   -1.9152813    0.1330081    10970.682     1000 
 1452000   0.46488413   -2.6237001   0.69662886   -1.9270712   0.13777628    10987.086     1000 
 1454000   0.47864462   -2.6273129   0.71724897   -1.9100639     0.144773    11054.689     1000 
 1456000   0.49394301   -2.5646325    0.7401736   -1.8244589   0.13145044    10943.356     1000 
 1458000   0.45736753   -2.6107986   0.68536524   -1.9254333   0.13273877    11108.315     1000 
 1460000   0.48966579    -2.656846   0.73376419   -1.9230818   0.13279676    11148.286     1000 
 1462000   0.45621982   -2.6203633   0.68364539   -1.9367179   0.11597945    11272.784     1000 
 1464000   0.50133237   -2.6253716   0.75124656   -1.8741251   0.14005632    10964.608     1000 
 1466000   0.47586493    -2.605974    0.7130836   -1.8928904   0.13099976    11106.735     1000 
 1468000   0.49373072   -2.6524878   0.73985548   -1.9126323   0.13791051    11148.546     1000 
 1470000      0.48766   -2.6306812   0.73075852   -1.8999227   0.14449742    11046.422     1000 
 1472000   0.48229715   -2.6340413   0.72272228    -1.911319   0.12927099    11022.988     1000 
 1474000   0.50410732   -2.6161683   0.75540482   -1.8607635   0.13386513    10974.972     1000 
 1476000   0.47396772   -2.6054809   0.71024063   -1.8952402   0.13458936     11094.76     1000 
 1478000   0.47154909   -2.5682567   0.70661631   -1.8616404   0.14858564    11050.237     1000 
 1480000   0.47259684   -2.6862816   0.70818636   -1.9780952   0.12288676    11217.321     1000 
 1482000   0.48711485   -2.6314538    0.7299416   -1.9015122   0.14066873    10912.901     1000 
 1484000   0.49041106   -2.5899698   0.73488097   -1.8550888   0.13557635    11269.612     1000 
 1486000   0.48626076     -2.64254   0.72866174   -1.9138782   0.13635668    11057.229     1000 
 1488000   0.47768281    -2.619687    0.7158077   -1.9038793   0.12328417     11196.53     1000 
 1490000   0.44541024   -2.6275219   0.66744725   -1.9600746   0.12617319    11070.453     1000 
 1492000   0.45628268   -2.6424618    0.6837396   -1.9587222   0.12358418    11334.841     1000 
 1494000   0.47803716   -2.6306451   0.71633868   -1.9143064   0.13136277    11222.966     1000 
 1496000   0.48016149   -2.6538224   0.71952199   -1.9343004   0.13566943    11160.908     1000 
 1498000    0.4755264   -2.6025219    0.7125763   -1.8899456   0.13591141    10883.079     1000 
 1500000   0.47680433    -2.616242   0.71449129   -1.9017507   0.13454767    11052.268     1000 
 1502000    0.4864214   -2.5432326   0.72890248   -1.8143302    0.1448259    10878.378     1000 
 1504000   0.50265442   -2.6066545   0.75322765   -1.8534269   0.12648957    11126.408     1000 
 1506000   0.46483974   -2.6122243   0.69656235   -1.9156619   0.13541428    11039.944     1000 
 1508000   0.48317177   -2.5975217    0.7240329   -1.8734888   0.13533285    11075.794     1000 
 1510000   0.47957723   -2.6243942   0.71864648   -1.9057477   0.13115677    11065.787     1000 
 1512000   0.48416156   -2.6177561   0.72551609     -1.89224   0.14557255    11049.266     1000 
 1514000   0.46919877   -2.6494301   0.70309435   -1.9463357   0.13607993    11095.804     1000 
 1516000   0.49150232   -2.6588456   0.73651623   -1.9223294    0.1372592    11142.358     1000 
 1518000   0.46642342   -2.6077247   0.69893549   -1.9087892   0.12820182    11155.113     1000 
 1520000   0.45970282   -2.6254389   0.68886467   -1.9365742   0.13104463        11024     1000 
 1522000   0.50640865    -2.619027   0.75885336   -1.8601736   0.12581775    11085.512     1000 
 1524000     0.494477   -2.6380312   0.74097379   -1.8970574   0.12905253    11216.486     1000 
 1526000   0.47682842   -2.6524225   0.71452738   -1.9378951   0.13457893    11123.427     1000 
 1528000   0.48001583   -2.6478254   0.71930372   -1.9285217   0.13199917    11115.035     1000 
 1530000   0.47164999   -2.5871832   0.70676751   -1.8804157   0.12211556     11030.72     1000 
 1532000   0.48512529   -2.5937965   0.72696024   -1.8668362   0.14025447    10968.052     1000 
 1534000   0.47727135    -2.671492   0.71519112   -1.9563009    0.1084253    11147.582     1000 
 1536000   0.50254185   -2.6378574   0.75305897   -1.8847985   0.13906145    11206.957     1000 
 1538000   0.48259081     -2.63068   0.72316233   -1.9075177   0.14716612    11041.346     1000 
 1540000   0.47512312   -2.6806021   0.71197199   -1.9686301    0.1231624    11161.778     1000 
 1542000   0.48127774   -2.6468132   0.72119469   -1.9256185   0.12875601    11064.009     1000 
 1544000   0.44184561   -2.6248992   0.66210564   -1.9627936   0.13041567    11107.783     1000 
 1546000   0.49357186   -2.6473771   0.73961743   -1.9077596   0.14107955    10953.217     1000 
 1548000   0.47026723   -2.6546014   0.70469545   -1.9499059   0.12510343    11250.931     1000 
 1550000   0.47839405   -2.6691245   0.71687349    -1.952251   0.12577832    11278.353     1000 
 1552000   0.47933055   -2.6177082   0.71827682   -1.8994313   0.13845747    11048.165     1000 
 1554000   0.49001729   -2.5967835   0.73429091   -1.8624925    0.1261485    11176.512     1000 
 1556000   0.48909404   -2.6145321   0.73290742   -1.8816247   0.13731241    11062.841     1000 
 1558000   0.47772165   -2.5897799    0.7158659    -1.873914   0.12664819    11107.289     1000 
 1560000    0.4991633   -2.6533468    0.7479962   -1.9053506   0.13164804    11136.712     1000 
 1562000   0.47097706   -2.6021726   0.70575913   -1.8964134   0.13908743    11056.672     1000 
 1564000   0.48586718   -2.6926598   0.72807197   -1.9645879   0.12842689        11276     1000 
 1566000   0.46091485   -2.6084774   0.69068091   -1.9177964   0.13001283    10980.881     1000 
 1568000   0.49101472   -2.6587939   0.73578555   -1.9230084   0.11759735    11206.382     1000 
 1570000   0.48171161   -2.6521364   0.72184484   -1.9302915   0.12975835    11074.687     1000 
 1572000   0.48847051    -2.593199   0.73197305    -1.861226   0.13056984    11214.369     1000 
 1574000   0.46484112   -2.6140359   0.69656442   -1.9174715   0.12522542    11099.565     1000 
 1576000   0.47867949   -2.6289635   0.71730122   -1.9116623   0.12359108     11052.38     1000 
[...]
 2614000    0.4754268   -2.6151704   0.71242706   -1.9027433   0.13451209    11019.554     1000 
 2616000   0.49190851   -2.6355382    0.7371249   -1.8984133   0.12848998     11218.23     1000 
 2618000   0.46908006   -2.6314049   0.70291647   -1.9284884    0.1277423    11165.699     1000 
 2620000   0.48161253   -2.6459266   0.72169637   -1.9242302   0.13994093    11128.345     1000 
 2622000   0.46827403   -2.6490427   0.70170863   -1.9473341    0.1197773    11177.729     1000 
 2624000   0.45775643   -2.6154251   0.68594801   -1.9294771   0.12233289    11014.926     1000 
 2626000   0.47764442   -2.6516126   0.71575017   -1.9358625   0.10718815    11185.796     1000 
 2628000   0.47480979   -2.6504342   0.71150247   -1.9389317   0.12540167    11095.184     1000 
 2630000   0.48975152   -2.6589051   0.73389265   -1.9250124   0.13493008    11116.104     1000 
 2632000   0.48246284   -2.5992724   0.72297056   -1.8763019    0.1389933    11117.893     1000 
 2634000   0.47988661   -2.6106511   0.71911009    -1.891541   0.11692477    11234.589     1000 
 2636000   0.48112131   -2.6242728   0.72096028   -1.9033125   0.13234621    11029.635     1000 
 2638000   0.48478778   -2.6041994   0.72645449   -1.8777449   0.13296266    10999.821     1000 
 2640000   0.47416617   -2.6306435   0.71053801   -1.9201055    0.1410354    11049.922     1000 
 2642000   0.47329196   -2.6234822     0.709228   -1.9142542   0.13411595    11231.063     1000 
 2644000   0.49741676   -2.6537169   0.74537901   -1.9083379   0.12393056    11213.153     1000 
 2646000   0.48040436   -2.5962438   0.71988593   -1.8763579   0.14597637    11063.101     1000 
 2648000   0.47438104   -2.6250646   0.71085999   -1.9142046   0.12951878    11069.379     1000 
 2650000   0.47136478   -2.6473455   0.70634012   -1.9410054   0.11708431    11254.018     1000 
 2652000   0.48691876   -2.6561249   0.72964776   -1.9264771   0.11241506    11257.225     1000 
 2654000   0.46410055   -2.6049527   0.69545467   -1.9094981   0.12768851    11121.155     1000 
 2656000    0.4670365   -2.6327916   0.69985419   -1.9329374   0.13391381    11116.691     1000 
 2658000   0.46960693   -2.6009709   0.70370598   -1.8972649   0.12791108    11140.999     1000 
 2660000   0.48118945   -2.6815113   0.72106239   -1.9604489   0.12255489    11311.951     1000 
 2662000   0.47980426   -2.6528904   0.71898669   -1.9339037   0.13780297    11281.689     1000 
 2664000   0.50584723   -2.6210232   0.75801207   -1.8630111   0.11310096    11346.044     1000 
 2666000   0.48130441   -2.6577078   0.72123466   -1.9364731    0.1230014    11214.072     1000 
 2668000    0.4572693   -2.6627366   0.68521804   -1.9775186   0.13404276    11175.991     1000 
 2670000   0.45137758   -2.6126409   0.67638931   -1.9362515   0.10754256    11099.369     1000 
 2672000   0.47783945   -2.6290633   0.71604242   -1.9130209    0.1188546    11289.875     1000 
 2674000   0.48964504   -2.6644245   0.73373309   -1.9306914   0.12771918    11150.544     1000 
 2676000   0.49301219     -2.62602   0.73877876   -1.8872412   0.14373989    11080.811     1000 
 2678000   0.48761672   -2.6480088   0.73069365   -1.9173151   0.11788698    11000.119     1000 
 2680000   0.46155594   -2.6210375   0.69164157   -1.9293959   0.13611187    11104.169     1000 
 2682000   0.49273308   -2.6141259   0.73836052   -1.8757654   0.13669143    11098.653     1000 
 2684000   0.47327202   -2.6073671   0.70919812    -1.898169   0.13017791    11126.521     1000 
 2686000   0.46734407   -2.6211569   0.70031508   -1.9208418   0.12789659    11040.417     1000 
 2688000   0.50721998   -2.6151543   0.76006914   -1.8550851   0.13430866     11035.37     1000 
 2690000   0.48560397     -2.60538   0.72767756   -1.8777025   0.12039161    11119.417     1000 
 2692000   0.48286627   -2.6336568    0.7235751   -1.9100817    0.1117824      11162.5     1000 
 2694000   0.47534488   -2.5699196   0.71230431   -1.8576153   0.12976754    11102.484     1000 
 2696000   0.46673731   -2.6277474   0.69940586   -1.9283415   0.13898467      11124.7     1000 
 2698000   0.47118212   -2.6271824   0.70606641    -1.921116   0.13614034    11035.147     1000 
 2700000   0.49956269    -2.559032   0.74859468   -1.8104373   0.13690819    10964.101     1000 
 2702000   0.46980821   -2.6229627    0.7040076   -1.9189551   0.12277144    11204.303     1000 
 2704000   0.51071142    -2.616655   0.76530106    -1.851354   0.13864093    10999.464     1000 
 2706000   0.48262958   -2.6217792   0.72322042   -1.8985588   0.13038729     11049.91     1000 
 2708000   0.47895225   -2.6381444   0.71770995   -1.9204344   0.12382406    11216.356     1000 
 2710000   0.49633072   -2.6341332   0.74375158   -1.8903816   0.12852015    11101.238     1000 
 2712000   0.48263293   -2.6664042   0.72322545   -1.9431787    0.1326887    11217.468     1000 
 2714000   0.46882484   -2.6338464   0.70253403   -1.9313124    0.1238392    11223.242     1000 
 2716000    0.4748511   -2.6045501   0.71156438   -1.8929857   0.12976246    10964.105     1000 
 2718000   0.47727885   -2.6251791   0.71520236   -1.9099768   0.14379631    11132.785     1000 
 2720000   0.46716382   -2.5924673   0.70004498   -1.8924223   0.12495237    10966.712     1000 
 2722000   0.46678393   -2.6082864   0.69947571   -1.9088107   0.11932857    11195.163     1000 
 2724000   0.48522712   -2.6232432   0.72711285   -1.8961303   0.14623924     10955.48     1000 
 2726000   0.48206331   -2.6032197   0.72237187   -1.8808478   0.13229647    11083.984     1000 
 2728000   0.47149543   -2.6146036    0.7065359   -1.9080677   0.14318975    11078.531     1000 
 2730000    0.5030901   -2.5761294   0.75388051   -1.8222489   0.13310953    11033.466     1000 
 2732000    0.4703571   -2.6300119   0.70483011   -1.9251818   0.10852727    11183.396     1000 
 2734000   0.47360255    -2.655069   0.70969342   -1.9453756   0.12122019    11152.751     1000 
 2736000   0.50516433   -2.6550833   0.75698875   -1.8980946   0.11883595    11302.982     1000 
 2738000   0.46597832   -2.6004784   0.69826851   -1.9022099   0.12420236    11202.697     1000 
 2740000    0.4912857   -2.6319823   0.73619162   -1.8957907   0.13038636    11038.852     1000 
 2742000   0.47332476   -2.6898819   0.70927715   -1.9806047   0.15331334    10963.512     1000 
 2744000   0.49445781   -2.5924218   0.74094503   -1.8514767   0.12967732    11023.529     1000 
 2746000   0.46209758   -2.6391476   0.69245323   -1.9466944   0.13404846    11167.087     1000 
 2748000   0.49348649   -2.5754028    0.7394895   -1.8359133   0.14484794    10955.248     1000 
 2750000   0.45253831   -2.6474019   0.67812865   -1.9692733   0.12883716    11190.293     1000 
 2752000   0.47577015    -2.631854   0.71294157   -1.9189124    0.1283259     11136.44     1000 
 2754000   0.46391477   -2.6362416   0.69517628   -1.9410654   0.13630022     11052.48     1000 
 2756000    0.4760335   -2.6248556    0.7133362   -1.9115194   0.13029166    11029.138     1000 
 2758000    0.4613126   -2.6230739   0.69127693   -1.9317969   0.12639619    11155.879     1000 
 2760000     0.476889   -2.6356704   0.71461817   -1.9210522   0.11912144    11233.411     1000 
 2762000   0.46363743   -2.6112769   0.69476069   -1.9165162   0.12252907    11044.384     1000 
 2764000   0.48699642   -2.6317165   0.72976414   -1.9019523   0.13699772    10962.912     1000 
 2766000   0.46332255   -2.5980296   0.69428885   -1.9037408   0.12531054    11151.442     1000 
 2768000   0.46488638   -2.6093786   0.69663224   -1.9127463   0.12733502    11067.612     1000 
 2770000   0.46950447   -2.6574996   0.70355245   -1.9539471   0.10711646    11303.147     1000 
 2772000   0.49365784   -2.6374234   0.73974627   -1.8976771   0.11832538    11330.732     1000 
 2774000   0.50616836   -2.6139822   0.75849329   -1.8554889   0.11461563    11146.865     1000 
 2776000   0.50083795   -2.5567232   0.75050566   -1.8062175   0.13252595    11009.766     1000 
 2778000   0.47408746   -2.5684767   0.71042007   -1.8580566   0.14773673    10913.758     1000 
 2780000   0.47563962   -2.6231542   0.71274598   -1.9104083   0.12969848    11038.468     1000 
 2782000   0.47413352   -2.6688377   0.71048907   -1.9583487   0.14016465    11114.238     1000 
 2784000   0.47090293   -2.6161856   0.70564805   -1.9105375   0.12777197    10967.497     1000 
 2786000   0.48451902   -2.6064784   0.72605175   -1.8804266    0.1269381    11091.929     1000 
 2788000   0.46742028   -2.5767467   0.70042929   -1.8763174   0.13378796    11145.006     1000 
 2790000   0.48208654    -2.624674   0.72240668   -1.9022674   0.14292265    11100.499     1000 
 2792000   0.48421763    -2.656017   0.72560012   -1.9304169   0.13606686    10962.506     1000 
 2794000   0.47252393   -2.6674811   0.70807711    -1.959404   0.11165447    11276.536     1000 
 2796000   0.49063689   -2.6439578   0.73521938   -1.9087384   0.14576157    11109.063     1000 
 2798000   0.49286088   -2.6551603   0.73855203   -1.9166083   0.14418899    11038.124     1000 
 2800000   0.47779756   -2.6332388   0.71597965   -1.9172592   0.11983356    11230.139     1000 
 2802000   0.49211941   -2.6462617   0.73744093   -1.9088208   0.14138695    11211.252     1000 
 2804000   0.46387181   -2.6219129   0.69511191    -1.926801   0.14043292    11021.981     1000 
 2806000   0.47437473   -2.6233628   0.71085053   -1.9125123   0.13396454    11099.695     1000 
 2808000   0.48361817   -2.6032632   0.72470182   -1.8785614   0.13793383     11097.43     1000 
 2810000   0.47921865   -2.6224991   0.71810914     -1.90439   0.12463408    11104.637     1000 
 2812000    0.4851111   -2.6249513   0.72693899   -1.8980123   0.11284024    11090.455     1000 
 2814000   0.48260422   -2.6716516   0.72318242   -1.9484692   0.13377333    11195.497     1000 
 2816000   0.48846767   -2.6027691    0.7319688   -1.8708003   0.14137487    11069.251     1000 
 2818000   0.48269284   -2.6445446   0.72331523   -1.9212294    0.1314014    11034.048     1000 
 2820000   0.49933436   -2.5900022   0.74825254   -1.8417497   0.11153937    11193.793     1000 
 2822000   0.50272928   -2.6247766   0.75333982   -1.8714368   0.11648328    11253.984     1000 
 2824000    0.5029615   -2.6377045   0.75368781   -1.8840167   0.12262043    11130.241     1000 
 2826000   0.48280199   -2.6389246   0.72347878   -1.9154458   0.12883863    11076.431     1000 
 2828000   0.47792151   -2.6424949   0.71616539   -1.9263296   0.13029934    11208.032     1000 
 2830000   0.47002925   -2.5883966   0.70433883   -1.8840578   0.11525802    11029.113     1000 
 2832000   0.48312675   -2.6627005   0.72396544    -1.938735    0.1347707    11046.441     1000 
 2834000   0.48148537    -2.575482   0.72150583   -1.8539762   0.13312818    11143.077     1000 
 2836000   0.49762745   -2.6616438   0.74569473   -1.9159491   0.14053788    11037.761     1000 
 2838000   0.48549806    -2.626452   0.72751884   -1.8989332   0.13546871    11018.438     1000 
 2840000   0.46197086   -2.6168937   0.69226334   -1.9246304   0.13514039    10968.198     1000 
 2842000   0.50393658   -2.6642878   0.75514897   -1.9091389   0.12529719    11268.225     1000 
 2844000   0.48185555   -2.6385651   0.72206054   -1.9165045   0.14156458    11155.257     1000 
 2846000   0.46674203   -2.5782719   0.69941293    -1.878859   0.13508951    11012.055     1000 
 2848000   0.49283673   -2.6283424   0.73851584   -1.8898265   0.14516528    11148.088     1000 
 2850000   0.46972589   -2.6338477   0.70388425   -1.9299635   0.12416533    11134.069     1000 
 2852000   0.46723047   -2.6173691   0.70014486   -1.9172242   0.13606002    10996.544     1000 
 2854000   0.46542756   -2.6582645   0.69744319   -1.9608213   0.12023717    11288.217     1000 
 2856000   0.49311136   -2.6358064   0.73892738    -1.896879   0.13454553    11092.549     1000 
 2858000   0.48519234    -2.605638   0.72706072   -1.8785773   0.13016385    11141.326     1000 
 2860000   0.49284636   -2.6165943   0.73853026    -1.878064   0.12223083    11295.735     1000 
 2862000   0.49899185   -2.6332121   0.74773929   -1.8854728   0.12749486    11000.171     1000 
 2864000   0.49004977   -2.5705162   0.73433958   -1.8361766   0.13604326    10883.802     1000 
 2866000   0.48829531   -2.6213488   0.73171052   -1.8896383   0.13785773    10977.894     1000 
 2868000   0.47417195   -2.6210018   0.71054667   -1.9104551   0.11839345    11176.277     1000 
 2870000   0.47507392   -2.6117515   0.71189827   -1.8998532   0.13652911    11196.187     1000 
 2872000   0.48763907   -2.6407833   0.73072714   -1.9100561   0.13334494    11112.637     1000 
 2874000    0.4686445   -2.6056225   0.70226379   -1.9033587   0.13153085     11171.98     1000 
 2876000   0.48045449   -2.6158726   0.71996105   -1.8959115   0.13655851    11058.919     1000 
 2878000   0.45654784   -2.6543445   0.68413694   -1.9702076   0.13750866    11002.453     1000 
 2880000   0.47305378   -2.6670967   0.70887109   -1.9582256   0.11889997    11240.533     1000 
 2882000   0.46565647   -2.6223139   0.69778622   -1.9245277   0.13177976    11216.477     1000 
 2884000   0.50358766   -2.6554697   0.75462611   -1.9008436     0.140848    10990.776     1000 
 2886000   0.46222423   -2.6439091   0.69264301   -1.9512661   0.12933022    11111.104     1000 
 2888000   0.48509851   -2.6264331   0.72692012    -1.899513   0.14653872    10897.405     1000 
 2890000   0.46690411   -2.6340536   0.69965581   -1.9343978   0.12302471    11195.352     1000 
 2892000   0.48392469   -2.5979879   0.72516114   -1.8728268   0.12661712     11013.44     1000 
 2894000   0.49820415   -2.5920054   0.74655891   -1.8454465   0.13122948    10969.178     1000 
 2896000   0.47906121   -2.6185316   0.71787322   -1.9006583   0.13143975    11101.619     1000 
 2898000   0.48403294   -2.6319526   0.72532336   -1.9066292   0.13659076    11162.786     1000 
 2900000   0.49108001   -2.6700078    0.7358834   -1.9341244    0.1158398     11312.15     1000 
 2902000   0.47723543   -2.5798955   0.71513729   -1.8647582   0.14413682    11010.161     1000 
 2904000   0.47972404   -2.6290791   0.71886648   -1.9102126   0.14006405    10990.399     1000 
 2906000   0.49339445   -2.5952213   0.73935158   -1.8558697   0.12244885    11139.981     1000 
 2908000   0.48446442   -2.5912818   0.72596994   -1.8653119   0.13087008    11046.612     1000 
 2910000   0.47834955   -2.6572784    0.7168068   -1.9404716   0.12588336    11087.439     1000 
 2912000   0.48979341   -2.6079902   0.73395542   -1.8740347   0.13676536    11057.005     1000 
 2914000   0.47767748   -2.6402939   0.71579971   -1.9244942   0.13212316    11093.527     1000 
 2916000   0.46467495   -2.6012026   0.69631542   -1.9048872   0.13199612    11117.435     1000 
 2918000    0.4921864   -2.6385733   0.73754132    -1.901032   0.11833993    11223.677     1000 
 2920000   0.48663481   -2.6430696   0.72922226   -1.9138474   0.13493874    11195.105     1000 
 2922000    0.4520484   -2.6486958   0.67739452   -1.9713012   0.12230895    11188.114     1000 
 2924000   0.48253013   -2.5760684    0.7230714    -1.852997   0.14194101    10956.333     1000 
 2926000   0.47214816   -2.6129661   0.70751401   -1.9054521   0.12896942    11168.809     1000 
 2928000   0.49479504   -2.6413804   0.74145036     -1.89993   0.12823194     11179.46     1000 
 2930000   0.48789773   -2.5996173   0.73111475   -1.8685025   0.13172857    11009.221     1000 
 2932000   0.47572361   -2.5984988   0.71287182    -1.885627   0.13925267    10971.197     1000 
 2934000   0.47254381   -2.6663908   0.70810691   -1.9582839   0.13053979    10986.164     1000 
 2936000   0.46991206   -2.6375429   0.70416323   -1.9333796   0.13569044     11218.38     1000 
 2938000   0.47673544   -2.6216736   0.71438805   -1.9072856   0.12297103    11150.222     1000 
 2940000   0.48468949   -2.6166956    0.7263072   -1.8903884   0.12724254    11131.246     1000 
 2942000   0.50115194   -2.5561468   0.75097618   -1.8051706    0.1428526    11073.623     1000 
 2944000   0.49649106   -2.6541002   0.74399185   -1.9101084   0.13324202    11271.742     1000 
 2946000   0.48318318   -2.6065828   0.72404999   -1.8825328   0.12725464    11062.726     1000 
 2948000   0.47431078   -2.5740268    0.7107547   -1.8632721     0.125479    11152.061     1000 
 2950000   0.49851649   -2.6473353   0.74702696   -1.9003083   0.12815702    11267.942     1000 
 2952000   0.47967216    -2.662583   0.71878873   -1.9437942   0.13435812    11142.386     1000 
 2954000   0.48602248   -2.6230347   0.72830469     -1.89473     0.126222    11074.723     1000 
 2956000   0.48641268   -2.6282513   0.72888941   -1.8993619   0.13369934    11170.585     1000 
 2958000   0.50133961   -2.6009077   0.75125741   -1.8496503   0.11900509    11115.611     1000 
 2960000   0.49303234   -2.6187909   0.73880897    -1.879982   0.11968022    11047.382     1000 
 2962000    0.4821905   -2.5985288   0.72256246   -1.8759663   0.12544776    11055.921     1000 
 2964000   0.49755963   -2.5961801    0.7455931    -1.850587   0.13023555    11116.219     1000 
 2966000   0.45635327   -2.6398681   0.68384538   -1.9560227   0.12369696    11229.583     1000 
 2968000   0.46309995   -2.6098633   0.69395528    -1.915908   0.11749199    11083.565     1000 
 2970000   0.49177994     -2.60551   0.73693225   -1.8685778   0.13941699    10967.011     1000 
 2972000   0.48198377   -2.5857913   0.72225267   -1.8635386   0.11908045    11180.509     1000 
 2974000   0.45841089    -2.632801   0.68692872   -1.9458722   0.13210314    11106.388     1000 
 2976000   0.46729527   -2.6392017   0.70024195   -1.9389598   0.13528028     10976.32     1000 
 2978000   0.47097678   -2.6128038    0.7057587   -1.9070451   0.13553005    11066.415     1000 
 2980000   0.47862659   -2.6248963   0.71722195   -1.9076743   0.13918002    11225.187     1000 
 2982000   0.47707902    -2.647974   0.71490292   -1.9330711   0.12199163    11210.498     1000 
 2984000   0.49312959   -2.6533057    0.7389547    -1.914351   0.11104112    11321.434     1000 
 2986000   0.50388623   -2.6310186   0.75507352   -1.8759451   0.13756268    11096.101     1000 
 2988000   0.48072255   -2.6402944   0.72036274   -1.9199317   0.15331515    11116.669     1000 
 2990000   0.46729225   -2.6178066   0.70023743   -1.9175692   0.13010041    10990.536     1000 
 2992000   0.47201405   -2.6275406   0.70731306   -1.9202276   0.12185914    11143.669     1000 
 2994000    0.4902675    -2.577015   0.73466584   -1.8423492   0.13104006    11009.906     1000 
 2996000    0.4993818    -2.580699   0.74832362   -1.8323754   0.13069863    11073.584     1000 
 2998000   0.48359288   -2.6563241   0.72466393   -1.9316601   0.12894577    11111.041     1000 
 3000000    0.4951131   -2.5998645   0.74192697   -1.8579375   0.12959859     11017.17     1000 
Loop time of 1509.02 on 4 procs for 3000000 steps with 1000 atoms

Performance: 858833.477 tau/day, 1988.040 timesteps/s
95.0% CPU use with 4 MPI tasks x 1 OpenMP threads

MPI task timing breakdown:
Section |  min time  |  avg time  |  max time  |%varavg| %total
---------------------------------------------------------------
Pair    | 518.23     | 520.97     | 523.46     |   8.1 | 34.52
Neigh   | 61.158     | 61.429     | 61.969     |   4.2 |  4.07
Comm    | 114.93     | 116.9      | 119.32     |  15.5 |  7.75
Output  | 0.033948   | 3.7347     | 4.9706     | 110.6 |  0.25
Modify  | 799.32     | 800.81     | 803.93     |   6.5 | 53.07
Other   |            | 5.185      |            |       |  0.34

Nlocal:        250.000 ave         256 max         244 min
Histogram: 1 0 0 1 0 0 1 0 0 1
Nghost:        1740.25 ave        1749 max        1725 min
Histogram: 1 0 0 0 0 0 1 0 1 1
Neighs:        14878.2 ave       15394 max       14369 min
Histogram: 1 0 0 0 1 1 0 0 0 1

Total # of neighbors = 59513
Ave neighs/atom = 59.513000
Neighbor list builds = 150000
Dangerous builds not checked

Total wall time: 0:25:09
