LAMMPS (29 Sep 2021 - Update 2)
OMP_NUM_THREADS environment is not set. Defaulting to 1 thread. (src/comm.cpp:98)
  using 1 OpenMP thread(s) per MPI task
# ----------------------- Inicialização -----------------------

units			lj
atom_style 		atomic
dimension 		3
boundary 		p p p

# -------------------- Criação dos Átomos ---------------------

read_data 		topologia.txt
Reading data file ...
  orthogonal box = (0.0000000 0.0000000 0.0000000) to (21.540000 21.540000 21.540000)
  1 by 1 by 1 MPI processor grid
  reading atoms ...
  1000 atoms
  read_data CPU = 0.005 seconds

velocity 		all create ${temp} 87287 rot yes dist gaussian
velocity 		all create 0.80 87287 rot yes dist gaussian

# ------------------ Interação Interatômica -------------------

pair_style		table linear 2000
pair_coeff		1 1 force.table AA 10.0
WARNING: 3 of 2000 force values in table AA are inconsistent with -dE/dr.
WARNING:  Should only be flagged at inflection points (src/pair_table.cpp:465)
pair_coeff		1 2 force.table AB 10.0
WARNING: 1 of 2000 force values in table AB are inconsistent with -dE/dr.
WARNING:  Should only be flagged at inflection points (src/pair_table.cpp:465)
pair_coeff		2 2 force.table BB 10.0
pair_write		1 1 2000 r 0.008 10.0 table.check AA
Appending to table file table.check with DATE: 2023-06-17
Neighbor list info ...
  update every 1 steps, delay 10 steps, check yes
  max neighbors/atom: 2000, page size: 100000
  master list distance cutoff = 10.3
  ghost atom cutoff = 10.3
  binsize = 5.15, bins = 5 5 5
  1 neighbor lists, perpetual/occasional/extra = 1 0 0
  (1) pair table, perpetual
      attributes: half, newton on
      pair build: half/bin/atomonly/newton
      stencil: half/bin/3d
      bin: standard
pair_write		1 2 2000 r 0.008 10.0 table.check AB
Appending to table file table.check with DATE: 2023-06-17
pair_write		2 2 2000 r 0.008 10.0 table.check BB
Appending to table file table.check with DATE: 2023-06-17

neighbor 		0.3 bin
neigh_modify		every 20 delay 0 check no

# ------------------------- Ensemble --------------------------------------

fix 1			all npt temp ${temp} ${temp} 0.5 iso ${press} ${press} 5
fix 1			all npt temp 0.80 ${temp} 0.5 iso ${press} ${press} 5
fix 1			all npt temp 0.80 0.80 0.5 iso ${press} ${press} 5
fix 1			all npt temp 0.80 0.80 0.5 iso 0.13 ${press} 5
fix 1			all npt temp 0.80 0.80 0.5 iso 0.13 0.13 5

# ---------------------- Função de Distribuição Radial -----------------------

#compute RDF 		all rdf 2000 1 1 1 2 2 2
#fix 2 			all ave/time 1 2000 2000 c_RDF[*] file rdf.data mode vector

# ------------------------- Execução ---------------------------

timestep 		0.005
thermo_style		custom step temp pe ke etotal press vol atoms
thermo			2000
run			3000000
Per MPI rank memory allocation (min/avg/max) = 3.614 | 3.614 | 3.614 Mbytes
Step Temp PotEng KinEng TotEng Press Volume Atoms 
       0          0.8  -0.99611563       1.1988   0.20268437   0.14794455    9993.9483     1000 
    2000   0.80836465   -1.2444959    1.2113344 -0.033161474    0.1307675    11909.152     1000 
    4000    0.8242209   -1.2823795     1.235095  -0.04728446   0.14420037    11734.444     1000 
    6000   0.75813223   -1.3371842    1.1360611  -0.20112301   0.13017381    11844.316     1000 
    8000   0.79720203    -1.310498    1.1946072  -0.11589077   0.11256555    12039.393     1000 
   10000   0.79346859   -1.3056286    1.1890127  -0.11661593   0.13808979    11488.203     1000 
   12000   0.80008494   -1.3058786    1.1989273  -0.10695133   0.12786424    12032.384     1000 
   14000    0.7657054   -1.3591339    1.1474095  -0.21172435   0.12425098    11991.252     1000 
   16000   0.76447265    -1.348725    1.1455623  -0.20316268   0.11716621    12173.907     1000 
   18000   0.75756324   -1.3071888    1.1352085  -0.17198029   0.12620707    11823.307     1000 
   20000   0.74014737   -1.2724327    1.1091108  -0.16332189   0.12339538    11915.787     1000 
   22000   0.80931874   -1.3222695    1.2127641  -0.10950537   0.12489879    12079.969     1000 
   24000   0.76564733   -1.2407538    1.1473225 -0.093431292   0.12591838    12030.124     1000 
   26000   0.79690384   -1.2772503    1.1941604 -0.083089852   0.12969899     11909.61     1000 
   28000   0.81335237   -1.2864642    1.2188085 -0.067655719   0.12297403    12110.911     1000 
   30000   0.80887693   -1.2854163    1.2121021 -0.073314198   0.13060038    12119.623     1000 
   32000   0.80972878   -1.3004912    1.2133786 -0.087112627   0.12660337    11988.225     1000 
   34000   0.81553788   -1.2866395    1.2220835 -0.064556008   0.12654251    11987.505     1000 
   36000   0.80130095   -1.2913867    1.2007495 -0.090637222   0.11887489    12233.957     1000 
   38000   0.85023144    -1.269389    1.2740718 0.0046828529   0.14220462    11928.076     1000 
   40000    0.7841772   -1.3050381    1.1750895  -0.12994854   0.13267439    11746.609     1000 
   42000   0.80948548   -1.2934722     1.213014 -0.080458201   0.12232521     12108.17     1000 
   44000   0.80148847   -1.3180595    1.2010305  -0.11702903   0.12693776    12120.157     1000 
   46000   0.78089556    -1.326992     1.170172  -0.15681999   0.13279322     11716.15     1000 
   48000   0.82122143   -1.2575692    1.2306003 -0.026968901   0.14137573     11804.22     1000 
   50000   0.80152922   -1.3014342    1.2010915  -0.10034271    0.1215336    12145.114     1000 
   52000   0.81952178   -1.2962256    1.2280534 -0.068172174   0.13662573    11952.529     1000 
   54000    0.7855733   -1.2902752    1.1771816  -0.11309364   0.13044878     12049.06     1000 
   56000    0.8310309   -1.2694858    1.2452998 -0.024185998    0.1252058     12124.64     1000 
   58000   0.82181246   -1.2841873     1.231486 -0.052701355   0.13343743    11850.694     1000 
   60000   0.82914964   -1.3313259    1.2424807 -0.088845158   0.13209357    11964.875     1000 
   62000   0.78556569   -1.3047872    1.1771702  -0.12761704   0.11414564    12243.987     1000 
   64000   0.79068674   -1.2928339    1.1848441   -0.1079898   0.12949077    11838.919     1000 
   66000   0.78597765   -1.2879955    1.1777875    -0.110208   0.13518509    11953.125     1000 
   68000   0.79439489   -1.2959004    1.1904007  -0.10549963   0.14134336    11846.096     1000 
   70000   0.78759943   -1.3120227    1.1802177  -0.13180498   0.12807102    12108.272     1000 
   72000   0.79827916   -1.3239957    1.1962213  -0.12777437   0.11838662    12181.528     1000 
   74000   0.78861527   -1.3795537      1.18174  -0.19781368   0.12836552    12008.116     1000 
   76000    0.7693975   -1.3135053    1.1529422  -0.16056318   0.12848933    11910.993     1000 
   78000   0.80559843   -1.3136113    1.2071892  -0.10642202   0.11581482    12092.232     1000 
   80000   0.79336234   -1.3083118    1.1888535  -0.11945837   0.13075724    12013.075     1000 
   82000   0.78885452   -1.2758255    1.1820985 -0.093726966   0.13088581     11979.23     1000 
   84000   0.80878441   -1.3015927    1.2119634 -0.089629316   0.13104233    11944.294     1000 
   86000   0.79654175   -1.3367295    1.1936178  -0.14311172   0.13628448    11875.622     1000 
   88000   0.79217918   -1.3725592    1.1870805  -0.18547871   0.12804267    11990.425     1000 
   90000   0.82676158    -1.307414    1.2389022 -0.068511726   0.13156622    12223.684     1000 
   92000   0.82590036   -1.3264376    1.2376117 -0.088825916   0.14347358    11839.781     1000 
   94000   0.80147014   -1.2693759     1.201003 -0.068372888   0.11553376    12429.106     1000 
   96000   0.80009797   -1.3391294    1.1989468   -0.1401826   0.11812226    12146.734     1000 
   98000    0.8106735   -1.2073286    1.2147942 0.0074655901   0.13342433    11725.663     1000 
  100000   0.77927638   -1.3429578    1.1677457  -0.17521217   0.13497456    11957.413     1000 
  102000    0.8009572   -1.3692105    1.2002344  -0.16897616    0.1292265    11931.746     1000 
  104000   0.81446346   -1.2584309    1.2204735 -0.037957445    0.1342815    12019.818     1000 
  106000   0.80369858   -1.2962815    1.2043423 -0.091939172   0.13063273    11778.017     1000 
  108000    0.7878504   -1.2994965    1.1805938  -0.11890269   0.13418626    11799.063     1000 
  110000   0.83304895   -1.3525855    1.2483239  -0.10426168   0.13384971     11888.16     1000 
  112000   0.79012935   -1.3588094    1.1840088  -0.17480054   0.11266437    12239.712     1000 
  114000   0.78748454   -1.3396877    1.1800456  -0.15964213    0.1341554    11786.038     1000 
  116000   0.79997138    -1.283445    1.1987571 -0.084687909   0.13713256    12010.382     1000 
  118000   0.85734418   -1.3046384    1.2847303 -0.019908149   0.13219353     12188.19     1000 
  120000   0.82355952   -1.2224854    1.2341039  0.011618538   0.14011013     11835.02     1000 
  122000   0.82085343   -1.2963517    1.2300489 -0.066302842   0.12564408    12246.324     1000 
  124000   0.83538548   -1.3339516    1.2518251 -0.082126429   0.13490196    11883.582     1000 
  126000   0.82600405   -1.3425037    1.2377671  -0.10473661   0.12333461    11793.237     1000 
  128000   0.76928103   -1.3618771    1.1527676  -0.20910948   0.13126247    11698.241     1000 
  130000   0.80308009   -1.3151712    1.2034155  -0.11175565   0.13396014    12081.127     1000 
  132000   0.76116232   -1.3022566    1.1406017  -0.16165488   0.12304199    12205.673     1000 
  134000    0.8168734   -1.2883126    1.2240848 -0.064227839   0.13805279    11783.122     1000 
  136000   0.83312743   -1.2910773    1.2484415 -0.042635841   0.13939077    11969.225     1000 
  138000   0.77427079   -1.3325097    1.1602448  -0.17226495   0.12960928    12023.622     1000 
  140000   0.80418236   -1.3372585    1.2050673  -0.13219121    0.1446452    11854.518     1000 
  142000   0.79625367   -1.2677522    1.1931861  -0.07456612   0.11037769    12305.398     1000 
  144000   0.84173222   -1.3385922    1.2613357 -0.077256494   0.12217506    12071.689     1000 
  146000    0.8214098   -1.2760252    1.2308826 -0.045142571   0.13166375    11928.432     1000 
  148000   0.80425209   -1.2380284    1.2051718 -0.032856602   0.13965855    11798.511     1000 
  150000   0.77708993   -1.2651187    1.1644693  -0.10064948   0.12474458    11841.323     1000 
  152000   0.83536446   -1.3093102    1.2517936 -0.057516571   0.13235938    11807.906     1000 
  154000   0.80165219   -1.3219747    1.2012758   -0.1206989    0.1279284    11880.236     1000 
  156000   0.82526769    -1.297465    1.2366636 -0.060801395   0.12396006    12146.537     1000 
  158000   0.81533643    -1.333528    1.2217816  -0.11174639   0.12814317    12024.885     1000 
  160000   0.78284967   -1.2992009    1.1731002  -0.12610069   0.13220185    11644.216     1000 
  162000   0.82690715   -1.3220581    1.2391204 -0.082937755   0.14129177    11899.586     1000 
  164000   0.84469568   -1.3316237    1.2657765 -0.065847253   0.14061864    11958.797     1000 
  166000   0.80427553   -1.3454601    1.2052069  -0.14025318   0.11741206    12387.767     1000 
  168000   0.81533156   -1.3046632    1.2217743 -0.082888857   0.12627102    12106.906     1000 
  170000   0.82519986   -1.3247393     1.236562 -0.088177286   0.13841014    11885.588     1000 
  172000   0.81276589   -1.2731981    1.2179297 -0.055268382   0.14172511    11851.522     1000 
  174000   0.77587131   -1.3012196    1.1626432  -0.13857644   0.12297183    12023.754     1000 
  176000   0.80388252   -1.2300873    1.2046179 -0.025469388   0.14060033    11748.352     1000 
  178000   0.78798241   -1.2889302    1.1807916  -0.10813853   0.12919577    12199.052     1000 
  180000   0.79807127   -1.2863843    1.1959098 -0.090474547   0.12689835    11992.381     1000 
  182000   0.85861355   -1.2612684    1.2866324  0.025364007   0.14186804    11869.481     1000 
  184000   0.78495754   -1.2530966    1.1762589 -0.076837706   0.15312582     11679.28     1000 
  186000   0.77489639   -1.3481263    1.1611822  -0.18694404    0.1283321    12095.519     1000 
  188000   0.82562388   -1.3150775    1.2371974 -0.077880138   0.13217929    12030.227     1000 
  190000   0.80785185    -1.334571     1.210566  -0.12400502   0.12757121    12059.097     1000 
  192000   0.78738902   -1.3379359    1.1799024  -0.15803342   0.12402272    11933.457     1000 
  194000    0.8432912   -1.3192438    1.2636719  -0.05557195   0.12383735    12183.256     1000 
  196000   0.78633838   -1.3563704    1.1783281  -0.17804235   0.12837565     12146.87     1000 
  198000   0.78459412   -1.2991335    1.1757143  -0.12341924    0.1391453    11819.744     1000 
  200000   0.84399763   -1.3422823    1.2647304   -0.0775519   0.11697461    12262.056     1000 
  202000   0.82078917   -1.2629062    1.2299526 -0.032953608   0.13894608    11693.838     1000 
  204000    0.7880519   -1.3104052    1.1808958  -0.12950943   0.12790245    12159.399     1000 
  206000   0.81090715   -1.3038921    1.2151444 -0.088747724   0.12834681    12020.189     1000 
  208000   0.80520909   -1.2716193    1.2066058 -0.065013522   0.13772273    11770.989     1000 
  210000   0.81296599   -1.3369231    1.2182295  -0.11869353   0.12118239    12148.994     1000 
  212000   0.78538214    -1.285657    1.1768951  -0.10876191    0.1238384    12099.791     1000 
  214000   0.76507661   -1.2644643    1.1464673  -0.11799698   0.12918427     11883.89     1000 
  216000    0.8155867   -1.2267424    1.2221567 -0.0045857641   0.13143591    11992.857     1000 
  218000   0.80196333   -1.3148559    1.2017421  -0.11311385   0.11618003    12077.488     1000 
  220000   0.78750613   -1.3220105    1.1800779  -0.14193255   0.12489608    12026.326     1000 
  222000   0.83147694   -1.3555084    1.2459682  -0.10954021   0.12526577    11898.352     1000 
  224000   0.79881514   -1.2784652    1.1970245 -0.081440762   0.13490539    12126.075     1000 
  226000   0.79723178    -1.286384    1.1946518 -0.091732223   0.13387721    11796.099     1000 
  228000   0.74090044   -1.2606921    1.1102393  -0.15045281   0.11879721    12283.004     1000 
  230000   0.80926128   -1.3068036     1.212678 -0.094125559   0.12644595    12039.837     1000 
  232000   0.82186895   -1.2837448    1.2315706 -0.052174133   0.14513216    11780.343     1000 
  234000   0.78843088   -1.3030268    1.1814637  -0.12156316   0.12276249    12288.946     1000 
  236000   0.78761844   -1.2879826    1.1802462  -0.10773634   0.12994345    12072.959     1000 
  238000   0.80139763   -1.3039778    1.2008943   -0.1030835   0.12152811    12310.806     1000 
  240000   0.76676606   -1.3333942    1.1489989  -0.18439522   0.12065613    12312.234     1000 
  242000   0.77658629   -1.3875511    1.1637146   -0.2238365   0.12879167    12046.784     1000 
  244000   0.80355315   -1.3632427    1.2041244  -0.15911828   0.13230761    12120.128     1000 
  246000   0.82030155   -1.2492833    1.2292219 -0.020061467   0.13721656    11828.221     1000 
  248000   0.81964852   -1.2666407    1.2282433 -0.038397437   0.13980682    11967.382     1000 
  250000    0.7703373   -1.3031197    1.1543504  -0.14876922   0.12359428    12046.679     1000 
  252000   0.83340999   -1.3530986    1.2488649  -0.10423376   0.12422569     12397.39     1000 
  254000    0.8015862   -1.2718747    1.2011769 -0.070697778   0.12734049    11997.215     1000 
  256000   0.77426083    -1.245805    1.1602299 -0.085575166   0.13061569    11966.901     1000 
  258000   0.80451173   -1.3219542    1.2055608  -0.11639339   0.14433752    11879.897     1000 
  260000   0.82846367   -1.2861183    1.2414528 -0.044665489   0.13322706    11885.819     1000 
  262000   0.79222291   -1.2817085     1.187146 -0.094562477    0.1427053    11658.366     1000 
  264000   0.76376366   -1.3474155    1.1444998  -0.20291565   0.11717706    12181.419     1000 
  266000   0.83230027   -1.3107032     1.247202 -0.063501206   0.13096713    12050.826     1000 
  268000   0.79288962   -1.3208229    1.1881451  -0.13267783   0.13408848    11884.505     1000 
  270000   0.79706056   -1.3223025    1.1943953  -0.12790723   0.13269705    12026.541     1000 
  272000   0.77444085   -1.3366925    1.1604996  -0.17619291   0.11565682    12254.104     1000 
  274000   0.77313378   -1.2629706     1.158541  -0.10442967   0.12140305     12119.65     1000 
  276000   0.81799948   -1.2962564    1.2257722 -0.070484136   0.12975281    11929.935     1000 
  278000   0.82283702   -1.3080807    1.2330213 -0.075059463    0.1365474    12015.438     1000 
  280000   0.79347278   -1.2801299     1.189019 -0.091110937   0.10787355    12167.383     1000 
  282000   0.78352866   -1.2879483    1.1741177  -0.11383064   0.13623755    11917.848     1000 
  284000   0.76888781   -1.3097778    1.1521784  -0.15759944   0.13171553    11785.462     1000 
  286000   0.80037505   -1.3868444     1.199362  -0.18748241   0.13556033    11963.404     1000 
  288000   0.80357162   -1.3280059    1.2041521  -0.12385382    0.1336618    11988.762     1000 
  290000   0.80840532   -1.2759848    1.2113954 -0.064589421   0.12227815    12110.902     1000 
  292000   0.78778813     -1.28793    1.1805005  -0.10742952   0.13450092    12082.455     1000 
  294000   0.80780322   -1.3046595    1.2104931 -0.094166379   0.12972026    12273.037     1000 
  296000   0.79485058    -1.272467    1.1910836 -0.081383458   0.13563662    11955.548     1000 
  298000   0.81299441   -1.3129218    1.2182721 -0.094649658   0.14195027    11745.349     1000 
  300000   0.79604888   -1.3090652    1.1928792  -0.11618596   0.13897737    11829.889     1000 
  302000   0.77234401   -1.3121062    1.1573575  -0.15474867   0.13095587    12153.002     1000 
  304000   0.79323656   -1.3420884     1.188665   -0.1534234   0.12896311    12144.088     1000 
  306000   0.78010749   -1.3636683    1.1689911  -0.19467719   0.13672907    11676.892     1000 
  308000   0.77809033   -1.3062034    1.1659684  -0.14023505   0.13455286    11811.153     1000 
  310000   0.77848393   -1.3611373    1.1665582  -0.19457914   0.12548038    12083.562     1000 
  312000   0.78980729   -1.2579177    1.1835262 -0.074391432   0.13218291     11981.23     1000 
  314000    0.7849977    -1.327584    1.1763191  -0.15126498   0.13291409    11957.325     1000 
  316000   0.79332169   -1.2985597    1.1887926  -0.10976719   0.12861174    12062.222     1000 
  318000    0.8239182   -1.3731919    1.2346414  -0.13855051   0.11605611    12105.803     1000 
  320000   0.79951005   -1.3130273    1.1980658  -0.11496153   0.12845626    11962.513     1000 
  322000   0.80637261    -1.311536    1.2083494  -0.10318668   0.12720696     12038.54     1000 
  324000   0.81005921   -1.3065484    1.2138737 -0.092674675    0.1359677    11952.354     1000 
  326000   0.78906503   -1.3000289    1.1824139  -0.11761498   0.12093751    12168.542     1000 
  328000   0.81996369   -1.2786085    1.2287156 -0.049892954   0.14072374    11739.788     1000 
  330000   0.79622188   -1.3214726    1.1931385  -0.12833407   0.13134887     12013.84     1000 
  332000   0.77085566   -1.2936628    1.1551272  -0.13853556   0.12529379    12103.717     1000 
  334000   0.81699673   -1.3404702    1.2242696  -0.11620057   0.13177104    11909.579     1000 
  336000   0.81692136   -1.3131351    1.2241567 -0.088978419   0.14154799     11895.02     1000 
  338000   0.78326806   -1.3730678    1.1737272  -0.19934061    0.1277507    12123.417     1000 
  340000   0.81354337   -1.3250461    1.2190947  -0.10595138   0.14187668    11895.555     1000 
  342000   0.81957119     -1.27899    1.2281274 -0.050862554   0.12458993    11960.173     1000 
  344000   0.80355017   -1.2945172    1.2041199 -0.090397288   0.12677749     12332.77     1000 
  346000   0.81029481    -1.309388    1.2142268 -0.095161193   0.13410406    11810.329     1000 
  348000   0.81561485   -1.3535319    1.2221989  -0.13133299   0.12748277    11971.323     1000 
  350000   0.78073748   -1.3223146    1.1699351  -0.15237946   0.12583633    12334.612     1000 
  352000   0.81606446   -1.2944163    1.2228726 -0.071543672   0.13494259    11831.443     1000 
  354000   0.79952514   -1.2821445    1.1980884 -0.084056086   0.13459668    12039.292     1000 
  356000   0.79566981   -1.2936623    1.1923112  -0.10135107   0.14161229    11785.595     1000 
  358000   0.80863292   -1.3219694    1.2117364  -0.11023296   0.12882997    11989.265     1000 
  360000     0.805094   -1.2726286    1.2064334 -0.066195205   0.11921419    12107.681     1000 
  362000   0.80313273   -1.3314606    1.2034944  -0.12796625   0.13508044    11817.636     1000 
  364000    0.7932268   -1.2976327    1.1886504  -0.10898229   0.12315344    12020.396     1000 
  366000   0.79209859   -1.3326979    1.1869597  -0.14573812   0.13124432    11948.516     1000 
  368000     0.844398   -1.2696221    1.2653304 -0.0042916931    0.1448395     12017.72     1000 
  370000   0.79006707   -1.2707668    1.1839155 -0.086851342   0.11740107    12310.988     1000 
  372000   0.82459292   -1.3382551    1.2356525  -0.10260261    0.1332181     12102.11     1000 
  374000   0.83191186   -1.2849934    1.2466199 -0.038373475   0.12492583    12068.223     1000 
  376000   0.80072157   -1.2505766    1.1998813 -0.050695287   0.14207414    11855.379     1000 
  378000   0.82308388   -1.2381861    1.2333912 -0.0047949437   0.12680735    12106.879     1000 
  380000   0.81313809   -1.3548041    1.2184874  -0.13631662   0.11529122    12350.347     1000 
  382000   0.80890467   -1.2854104    1.2121436 -0.073266715   0.14504221    11811.417     1000 
  384000   0.77584637   -1.2692627    1.1626058  -0.10665697   0.12457098    12113.954     1000 
  386000   0.82142914   -1.2835574    1.2309116 -0.052645828   0.13806112    11828.456     1000 
  388000   0.78152166   -1.2834397    1.1711102  -0.11232946   0.13411424    11960.377     1000 
  390000     0.835811   -1.2761196    1.2524628 -0.023656836   0.12942118     11910.86     1000 
  392000   0.79135208    -1.260089    1.1858411  -0.07424786   0.12881693    11970.955     1000 
  394000   0.81862277   -1.2503679    1.2267062 -0.023661643   0.13582795     12047.83     1000 
  396000    0.8228773   -1.3348552    1.2330816  -0.10177352   0.12277924    12056.923     1000 
  398000   0.80504584   -1.2924301    1.2063612 -0.086068955   0.14649242    11829.848     1000 
  400000   0.76802669   -1.3421458     1.150888  -0.19125779   0.12713393    11911.531     1000 
  402000   0.80795416   -1.2936774    1.2107193 -0.082958041   0.13136861    11877.414     1000 
  404000    0.7604031   -1.3147465     1.139464  -0.17528247   0.12071296    11949.974     1000 
  406000   0.79068486   -1.2931283    1.1848413  -0.10828706   0.12916451    12035.663     1000 
  408000   0.77904022   -1.2738946    1.1673918  -0.10650279   0.12349972    12103.389     1000 
  410000   0.81406874   -1.2747385     1.219882 -0.054856535   0.13894865    11863.728     1000 
  412000   0.74865727   -1.3729042    1.1218629  -0.25104131   0.12820632    12072.745     1000 
  414000   0.80186915   -1.2949029    1.2016009 -0.093301949   0.12333228     12158.51     1000 
  416000   0.82008985   -1.3238693    1.2289046 -0.094964605   0.12300952    12236.705     1000 
  418000    0.7996434   -1.3462957    1.1982656  -0.14803008   0.13369321    11745.793     1000 
  420000   0.78387155   -1.3348664    1.1746315  -0.16023485   0.11598234    11947.537     1000 
  422000   0.81444843   -1.3301034     1.220451  -0.10965241   0.13781403    11676.847     1000 
  424000   0.80434615   -1.3425771    1.2053127  -0.13726438    0.1332451    11838.699     1000 
  426000   0.82522043   -1.3011184    1.2365928 -0.064525585    0.1335496    11786.217     1000 
  428000   0.79402038   -1.2941563    1.1898395  -0.10431678   0.12273864    12102.766     1000 
  430000   0.81315449   -1.3735934     1.218512  -0.15508142    0.1412093        11865     1000 
  432000    0.7918525   -1.3166179     1.186591  -0.13002689   0.13584656    11743.272     1000 
  434000   0.79483987   -1.3173299    1.1910675  -0.12626231   0.11525596    12029.964     1000 
  436000   0.81355971   -1.3180676    1.2191192 -0.098948355   0.12598199    12010.085     1000 
  438000   0.80844187   -1.3228823    1.2114501  -0.11143218   0.15101889    11727.223     1000 
  440000   0.78773281   -1.3112833    1.1804176  -0.13086565   0.11386506    12137.062     1000 
  442000   0.79917255   -1.2646815    1.1975601 -0.067121466    0.1282361    11778.999     1000 
  444000   0.83278073   -1.3686035    1.2479219  -0.12068159   0.11978828    12304.452     1000 
  446000   0.83877284   -1.2980727    1.2569011 -0.041171585   0.13467136     12032.71     1000 
  448000   0.84107261   -1.3806723    1.2603473  -0.12032499   0.13418232    12153.411     1000 
  450000    0.7907111   -1.2994519    1.1848806  -0.11457128   0.13816685    11917.643     1000 
  452000   0.80305495   -1.3443689    1.2033778    -0.140991   0.12934919    11810.747     1000 
  454000   0.78207623   -1.3025427    1.1719412  -0.13060147   0.12592658    12023.695     1000 
  456000   0.76466376   -1.3062937    1.1458486  -0.16044502   0.12087011    12046.663     1000 
  458000   0.82326044   -1.2463158    1.2336558 -0.012660012   0.13522986    11802.296     1000 
  460000   0.78611633   -1.3006276    1.1779953  -0.12263228   0.11685713    12148.092     1000 
  462000   0.80512103   -1.3792264    1.2064739  -0.17275258   0.12925557    11811.803     1000 
  464000   0.79173501    -1.352461    1.1864149  -0.16604611   0.12439353    12012.197     1000 
  466000   0.80973843   -1.3701415     1.213393  -0.15674847   0.12817432    12006.211     1000 
  468000   0.78675857   -1.2786969    1.1789577 -0.099739208   0.14397387    11760.166     1000 
  470000    0.8206724    -1.298049    1.2297776 -0.068271402   0.13542908    11957.535     1000 
  472000   0.77172743   -1.3553544    1.1564336  -0.19892083   0.12405275     11875.47     1000 
  474000   0.78729962   -1.3413716    1.1797685   -0.1616031   0.12563172    11984.602     1000 
  476000   0.79750671   -1.3360672    1.1950638  -0.14100336   0.12568992    12149.539     1000 
  478000   0.80585541   -1.3154921    1.2075743  -0.10791773   0.14296843    11799.682     1000 
  480000   0.81475764   -1.3295052    1.2209143  -0.10859086   0.13314975    12024.693     1000 
  482000   0.80047154   -1.2953292    1.1995066 -0.095822573   0.13336198    12102.496     1000 
  484000   0.77988804    -1.274336    1.1686622  -0.10567381   0.13392092    11775.052     1000 
  486000   0.79416337   -1.2894837    1.1900538 -0.099429854   0.12405155    11882.742     1000 
  488000   0.76188479   -1.2730739    1.1416844  -0.13138951   0.13354136    11943.033     1000 
  490000   0.81403447   -1.2942496    1.2198307  -0.07441892   0.13028382    12091.231     1000 
  492000   0.80971476    -1.313797    1.2133576  -0.10043939   0.13710459    11873.621     1000 
  494000   0.85553129   -1.3241845    1.2820136 -0.042170813   0.11760562    12105.479     1000 
  496000   0.82030097   -1.2720955     1.229221 -0.042874524   0.13470258    11776.698     1000 
  498000   0.78605161   -1.2924835    1.1778983  -0.11458518   0.12948033    12006.827     1000 
  500000   0.80785052   -1.3320437     1.210564  -0.12147965   0.13142756     11944.72     1000 
  502000   0.81237202   -1.3681438    1.2173395   -0.1508043   0.12913524    11892.966     1000 
  504000   0.82264571   -1.3337832    1.2327346  -0.10104856   0.12035783    12280.189     1000 
  506000   0.78405613   -1.3166881    1.1749081  -0.14178001   0.12353176    12130.044     1000 
  508000     0.799449   -1.2261358    1.1979743 -0.028161517   0.12783827    11923.213     1000 
  510000   0.81597976   -1.2876654    1.2227457 -0.064919766   0.13197472     11865.27     1000 
  512000   0.78460129   -1.2524901     1.175725 -0.076765076   0.12565264    12001.387     1000 
  514000   0.82013559    -1.358577    1.2289732  -0.12960379   0.13014832    11990.807     1000 
  516000   0.81595734   -1.2836224    1.2227121 -0.060910305   0.13733178    11876.472     1000 
  518000   0.80841235   -1.2968792    1.2114059 -0.085473283   0.11364851    12237.393     1000 
  520000   0.78924648   -1.2173441    1.1826858 -0.034658297   0.12965466    12034.938     1000 
  522000   0.84684299   -1.3085294    1.2689942 -0.039535137   0.14289138    11794.918     1000 
  524000   0.79611998     -1.28707    1.1929858 -0.094084234   0.12402857    12238.479     1000 
  526000   0.77370988   -1.3279908    1.1594043  -0.16858657    0.1301958    11773.294     1000 
  528000   0.77892204   -1.3411761    1.1672147   -0.1739614   0.13266037    11789.315     1000 
  530000   0.82927268   -1.3634334    1.2426651  -0.12076832   0.14178597    12020.802     1000 
  532000   0.79945808   -1.3078706    1.1979879  -0.10988268   0.12846709    12145.133     1000 
  534000   0.78559844   -1.3236313    1.1772193  -0.14641199   0.13069454    11788.614     1000 
  536000   0.82321902   -1.3202255    1.2335937 -0.086631809   0.13002447     11778.58     1000 
  538000   0.78429098   -1.3295098      1.17526  -0.15424978   0.13154261    11974.273     1000 
  540000   0.80515893   -1.3270877    1.2065307  -0.12055709   0.12141534    12095.084     1000 
  542000   0.74432621   -1.2567611    1.1153728  -0.14138831   0.12949071    11736.807     1000 
  544000   0.81695469   -1.2547411    1.2242066 -0.030534524   0.13377866    11796.409     1000 
  546000   0.78948834   -1.3005518    1.1830483  -0.11750347   0.14573195    11919.719     1000 
  548000   0.79825317    -1.261979    1.1961824 -0.065796662   0.14027822    11776.636     1000 
  550000   0.77737306    -1.280195    1.1648935  -0.11530145    0.1321504     11935.01     1000 
  552000   0.83002783    -1.285783    1.2437967 -0.041986279    0.1382616    11688.184     1000 
  554000   0.76774775    -1.222186      1.15047 -0.071715973    0.1242213    12057.368     1000 
  556000   0.83391105    -1.317289    1.2496157 -0.067673278   0.12800079    11896.738     1000 
  558000    0.7916761   -1.2956615    1.1863266  -0.10933481   0.12429123    12018.281     1000 
  560000   0.83395985   -1.3147257    1.2496888 -0.065036844   0.12767211    11912.306     1000 
  562000   0.76428278   -1.3311785    1.1452778  -0.18590072   0.12572562    11997.142     1000 
  564000    0.7900678   -1.2872481    1.1839166  -0.10333155   0.12757088    11978.241     1000 
  566000   0.83336625   -1.2836987    1.2487993 -0.034899407   0.15261888    11795.954     1000 
  568000   0.79580699   -1.3444736    1.1925168  -0.15195682   0.12310306    12216.157     1000 
  570000   0.79335678   -1.3172928    1.1888451  -0.12844765   0.15204588    11648.452     1000 
  572000   0.80448165   -1.2873652    1.2055157 -0.081849479   0.12863139     11980.72     1000 
  574000     0.763945   -1.2840447    1.1447716  -0.13927315   0.13714527    11906.478     1000 
  576000   0.82205295   -1.3216424    1.2318463 -0.089796036   0.12264497    11877.255     1000 
  578000   0.83049638   -1.3162371    1.2444988 -0.071738263   0.13405891    11987.735     1000 
  580000   0.81351031   -1.3088453    1.2190452 -0.089800062   0.14165227    11910.292     1000 
  582000   0.81123209   -1.2833772    1.2156313  -0.06774589   0.14503735    11842.457     1000 
  584000   0.77611786   -1.2464792    1.1630126 -0.083466553   0.13800324    11853.955     1000 
  586000   0.77546963    -1.350386    1.1620412  -0.18834473   0.12733554    12129.357     1000 
  588000   0.80419976   -1.2464198    1.2050933 -0.041326423   0.12810476     11858.18     1000 
  590000   0.77720255   -1.3329951     1.164638  -0.16835709   0.12747668    11988.062     1000 
  592000   0.80472979   -1.3346891    1.2058876  -0.12880153   0.13766591    11840.266     1000 
  594000   0.81300741   -1.2801725    1.2182916 -0.061880862   0.13475178    11823.351     1000 
  596000   0.80855847   -1.2892178    1.2116249 -0.077592975   0.13918681    11945.392     1000 
  598000    0.8397909   -1.3434636    1.2584267 -0.085036923    0.1230636     12171.42     1000 
  600000   0.82307719   -1.3165735    1.2333812 -0.083192282    0.1288574    11842.839     1000 
  602000   0.79342261   -1.2713257    1.1889438 -0.082381959   0.12316972    11911.393     1000 
  604000   0.84191857   -1.3005267     1.261615  -0.03891174   0.12578488    12282.238     1000 
  606000   0.79440793   -1.3181222    1.1904203  -0.12770187    0.1264519     12110.08     1000 
  608000   0.75745523   -1.3039533    1.1350467  -0.16890665   0.12651915    11965.412     1000 
  610000   0.83631212   -1.3543004    1.2532137  -0.10108673   0.12829818    12128.943     1000 
  612000   0.82708617   -1.3336884    1.2393886 -0.094299773   0.13720268    11735.865     1000 
  614000   0.84737433   -1.3061588    1.2697904  -0.03636833   0.13327667    12150.783     1000 
  616000   0.81603989   -1.3511728    1.2228358  -0.12833703   0.11721951    12142.776     1000 
  618000   0.77324811    -1.310626    1.1587123  -0.15191367   0.12821303    12025.699     1000 
  620000   0.79410672   -1.2626106    1.1899689 -0.072641715   0.11777312    12389.858     1000 
  622000    0.8094574   -1.2567567    1.2129719 -0.043784762    0.1378569    11974.124     1000 
  624000   0.78603112   -1.3447108    1.1778676  -0.16684321   0.12442404    12028.672     1000 
  626000   0.79434173   -1.3260708    1.1903211  -0.13574975   0.13723065     11975.85     1000 
  628000   0.81299082    -1.345669    1.2182667  -0.12740222   0.12824706    12005.744     1000 
  630000   0.79642938   -1.2838639    1.1934494  -0.09041452   0.12192017    12071.155     1000 
  632000   0.80692907   -1.3101699    1.2091832  -0.10098668   0.13435346      12107.1     1000 
  634000   0.79250139   -1.2893225    1.1875633  -0.10175916   0.12186419     12066.83     1000 
  636000   0.76778856   -1.3539503    1.1505312   -0.2034191   0.12015189    12072.685     1000 
  638000   0.79732818   -1.3109242    1.1947963  -0.11612792   0.14201252    11832.087     1000 
  640000   0.79402421   -1.2936446    1.1898453  -0.10379932   0.12161752    12120.621     1000 
  642000   0.77481081   -1.2954244     1.161054  -0.13437035    0.1141774    12065.542     1000 
  644000   0.82772409   -1.2946007    1.2403445 -0.054256165    0.1379327    11868.751     1000 
  646000   0.77795104   -1.2867879    1.1657596  -0.12102825     0.133518    11623.504     1000 
  648000   0.79921372   -1.2988732    1.1976218   -0.1012514   0.12846516    12092.805     1000 
  650000   0.79626048   -1.3045852    1.1931963  -0.11138888   0.13076467    12020.126     1000 
  652000   0.78288972   -1.2601985    1.1731602 -0.087038266   0.13202722    11800.737     1000 
  654000   0.75428929   -1.2857086    1.1303025  -0.15540606   0.12457765    11931.349     1000 
  656000   0.80245498   -1.2890221    1.2024788 -0.086543274   0.11895728    12106.629     1000 
  658000   0.81360665   -1.3934618    1.2191896  -0.17427223    0.1277644    11979.911     1000 
  660000   0.79859425   -1.3042832    1.1966935  -0.10758969   0.14344589    11857.258     1000 
  662000    0.8292491   -1.3166273    1.2426298 -0.073997558    0.1287876     12028.36     1000 
  664000   0.79628271   -1.3089928    1.1932296  -0.11576314   0.13281188     11927.01     1000 
  666000   0.78293523   -1.3313625    1.1732284  -0.15813406   0.11964954    12398.274     1000 
  668000   0.80928892    -1.315022    1.2127194  -0.10230258   0.11769943     12172.64     1000 
  670000     0.823268   -1.2820517    1.2336671 -0.048384646   0.11473525    12199.123     1000 
  672000   0.80087362   -1.3538096    1.2001091  -0.15370046   0.13189347    11936.875     1000 
  674000   0.80939281   -1.2671792    1.2128751 -0.054304035   0.12180564    12100.579     1000 
  676000   0.78098124    -1.330026    1.1703004  -0.15972565    0.1139246    12458.058     1000 
  678000   0.82198283   -1.3598315    1.2317413  -0.12809024   0.13673835    11961.173     1000 
  680000   0.80617751   -1.3466861     1.208057  -0.13862915      0.12477    12219.072     1000 
  682000   0.83855569   -1.2760563    1.2565757 -0.019480573    0.1289022    11920.774     1000 
  684000   0.76134378   -1.2663312    1.1408737  -0.12545754   0.12436288    12199.757     1000 
  686000   0.77960079    -1.271901    1.1682318  -0.10366924   0.11902215    12016.033     1000 
  688000   0.81121844   -1.3410209    1.2156108   -0.1254101   0.12574257    12141.954     1000 
  690000   0.80414273   -1.2880991    1.2050079  -0.08309119   0.12034697    12079.359     1000 
  692000   0.78726893   -1.3011684    1.1797225  -0.12144587   0.13423463     11929.99     1000 
  694000   0.81404869   -1.3075234     1.219852 -0.087671401   0.12564718    12174.399     1000 
  696000   0.77266066   -1.3137086     1.157832  -0.15587665   0.12041866    11895.583     1000 
  698000   0.78781584   -1.2957118     1.180542  -0.11516977   0.13043479    11835.097     1000 
  700000   0.81459064   -1.3328002    1.2206641  -0.11213612   0.11545848     12270.36     1000 
  702000   0.83439786   -1.2725585    1.2503452 -0.022213261   0.15310257    11789.277     1000 
  704000   0.77731796   -1.3286275     1.164811  -0.16381656   0.12779227    11944.235     1000 
  706000   0.79834423   -1.3204562    1.1963188  -0.12413734   0.13267384    12051.634     1000 
  708000   0.80535552   -1.3141604    1.2068252  -0.10733512   0.12630174    12146.317     1000 
  710000   0.80987214   -1.2707767    1.2135934  -0.05718333   0.13668296    11775.668     1000 
  712000   0.81020089   -1.3469623     1.214086   -0.1328763   0.12922305    12163.063     1000 
  714000   0.81586537   -1.2796471    1.2225743 -0.057072839   0.12880392      12065.7     1000 
  716000   0.80314465   -1.3189401    1.2035123  -0.11542789   0.14072754    11775.564     1000 
  718000   0.75096538   -1.3546384    1.1253216  -0.22931682   0.12468918      12058.4     1000 
  720000    0.7722794   -1.2817631    1.1572607  -0.12450243   0.13303823    11846.727     1000 
  722000   0.79594155   -1.3088751    1.1927184  -0.11615668    0.1243096    12045.797     1000 
  724000   0.76966011   -1.3309595    1.1533357  -0.17762382   0.12045756    11971.722     1000 
  726000   0.76814787   -1.3038768    1.1510696  -0.15280723   0.13477193    11918.508     1000 
  728000    0.7979952   -1.2570727    1.1957958 -0.061276879   0.14640675    11685.455     1000 
  730000   0.77365898   -1.2897377     1.159328  -0.13040975   0.10938445    12195.665     1000 
  732000   0.79647984   -1.3082162     1.193525  -0.11469112   0.11929941     11961.85     1000 
  734000   0.79114526    -1.308673    1.1855312  -0.12314178   0.11830679    12200.002     1000 
  736000    0.8050014   -1.3017468    1.2062946 -0.095452203   0.12990843    11824.013     1000 
  738000   0.82274801   -1.2715887    1.2328879 -0.038700847   0.13684017    11946.853     1000 
  740000   0.83892554   -1.2816704    1.2571299 -0.024540519   0.14088972    11707.932     1000 
  742000   0.81199477   -1.3258139    1.2167742  -0.10903977   0.12435761     12164.37     1000 
  744000   0.80837813   -1.2930012    1.2113546  -0.08164654   0.12801864    12163.351     1000 
  746000   0.80178898   -1.3228199    1.2014808  -0.12133914   0.11768738    12120.221     1000 
  748000   0.79772729   -1.3238064    1.1953943  -0.12841203   0.14666479    11747.723     1000 
  750000   0.81639033   -1.3421322    1.2233609   -0.1187713   0.11635033    12146.126     1000 
  752000   0.78445187   -1.3479648    1.1755011  -0.17246367   0.12266786    12111.199     1000 
  754000   0.82606369   -1.4091874    1.2378564  -0.17133097   0.12758397     11924.02     1000 
  756000    0.7877874   -1.3381548    1.1804994   -0.1576554   0.12588418    11919.954     1000 
  758000   0.83932739    -1.344893    1.2577321 -0.087160862   0.12371563    12297.284     1000 
  760000   0.80312178   -1.2490765     1.203478 -0.045598531   0.13445606    11902.292     1000 
  762000    0.8229214   -1.2993459    1.2331477 -0.066198209   0.12752649    11985.843     1000 
  764000      0.78632   -1.2812737    1.1783005  -0.10297314   0.13818995     11900.14     1000 
  766000   0.82852199   -1.3189653    1.2415402  -0.07742508   0.13382788    12086.961     1000 
  768000    0.8173592   -1.3088779    1.2248128 -0.084065147   0.13522444    11832.342     1000 
  770000   0.81258998   -1.3359821    1.2176661  -0.11831602   0.12606207    11862.818     1000 
  772000   0.83824315    -1.301266    1.2561074 -0.045158626   0.13859581    11892.441     1000 
  774000   0.78465053   -1.2605376    1.1757988 -0.084738729   0.11885722    12061.708     1000 
  776000   0.79901045   -1.2808574    1.1973172 -0.083540195   0.14391561    11669.076     1000 
  778000   0.79776799   -1.2528031    1.1954553 -0.057347782    0.1261068    12102.292     1000 
  780000   0.79669255   -1.3504175    1.1938438  -0.15657374   0.12688513    12071.549     1000 
  782000   0.77888549   -1.2722588    1.1671599   -0.1050989   0.13242338    11974.755     1000 
  784000   0.77980844   -1.2916945     1.168543  -0.12315157   0.12802903    11857.845     1000 
  786000   0.83637564   -1.2959994    1.2533089 -0.042690544   0.12939574    11968.274     1000 
  788000   0.79766905   -1.2853007    1.1953071 -0.089993605   0.12994668    12076.234     1000 
  790000   0.79444036     -1.37992    1.1904689  -0.18945108   0.13739311      11987.3     1000 
  792000   0.78561742   -1.3382446    1.1772477  -0.16099686   0.12428098    11920.557     1000 
  794000   0.78423303   -1.3146692    1.1751732  -0.13949605   0.13339171    11844.291     1000 
  796000    0.7676977   -1.3205591     1.150395  -0.17016408   0.12319142     12091.87     1000 
  798000   0.83218236   -1.2600401    1.2470253 -0.013014865   0.14210237    12045.119     1000 
  800000   0.79737581   -1.3418888    1.1948676  -0.14702112   0.11045473    12228.031     1000 
  802000    0.7841517   -1.2788365    1.1750513  -0.10378518   0.14399395    11809.353     1000 
  804000   0.80773123   -1.3248488    1.2103852  -0.11446358   0.12498212    11872.365     1000 
  806000    0.8335982   -1.2796936    1.2491469 -0.030546734   0.12392945    11992.256     1000 
  808000   0.76111695   -1.2467133    1.1405338  -0.10617959   0.11306333    12130.236     1000 
  810000   0.78221397   -1.2978671    1.1721476  -0.12571951   0.11860302    12168.271     1000 
  812000   0.79236322    -1.300268    1.1873563  -0.11291173   0.13971534    11731.833     1000 
  814000   0.78647938   -1.3053844    1.1785394  -0.12684508   0.11208459    12246.699     1000 
  816000    0.8108371   -1.3465361    1.2150394  -0.13149673   0.13672453    11824.362     1000 
  818000   0.83633771   -1.2635783    1.2532521 -0.010326275   0.12103358    12142.909     1000 
  820000   0.79403189   -1.2764855    1.1898568 -0.086628742   0.11830189    12305.593     1000 
  822000   0.82479216   -1.2849165    1.2359511 -0.048965431   0.14293932    11766.692     1000 
  824000   0.82331594   -1.2509159    1.2337389 -0.017176926   0.12615292    12075.908     1000 
  826000   0.78110052   -1.3039862    1.1704791  -0.13350707   0.12881397    12019.233     1000 
  828000   0.81249931   -1.3495412    1.2175302  -0.13201096    0.1304652    12062.548     1000 
  830000   0.82332501   -1.3245916    1.2337525 -0.090839072   0.13144337     12077.88     1000 
  832000   0.80973028   -1.3026743    1.2133808  -0.08929351   0.11584904    12366.975     1000 
  834000   0.81434669   -1.2861361    1.2202985 -0.065837585   0.13768919    11854.196     1000 
  836000   0.81336511   -1.2604653    1.2188276 -0.041637728   0.14156987     12007.18     1000 
  838000   0.82716854   -1.3045154    1.2395121 -0.065003297   0.13102533    11915.818     1000 
  840000   0.79107668   -1.3669928    1.1854284  -0.18156437    0.1201299    12186.127     1000 
  842000   0.79828625   -1.3173134    1.1962319  -0.12108146   0.12284417    12123.526     1000 
  844000   0.82519249   -1.2960595    1.2365509 -0.059508585   0.13757739    11995.404     1000 
  846000   0.74492053   -1.3100746    1.1162634  -0.19381121   0.12991663    11658.026     1000 
  848000   0.79936172   -1.3618492    1.1978435  -0.16400566   0.11844619    12091.616     1000 
  850000      0.77323   -1.3425413    1.1586852  -0.18385619    0.1233433    12132.338     1000 
  852000   0.79072876   -1.2860804     1.184907  -0.10117334   0.13461058    11914.111     1000 
  854000   0.82407675   -1.3462277     1.234879  -0.11134867   0.12067628    11898.514     1000 
  856000   0.83323955   -1.3177884    1.2486095 -0.069178895   0.12629256    12313.645     1000 
  858000   0.80880225   -1.3382772    1.2119902  -0.12628706    0.1354616    11909.949     1000 
  860000    0.7859591   -1.3135661    1.1777597  -0.13580635   0.13479456    11729.555     1000 
  862000   0.80776593   -1.1975387    1.2104372  0.012898549   0.14445794    11708.132     1000 
  864000   0.82448697   -1.3103764    1.2354937 -0.074882673   0.12480713    12175.344     1000 
  866000   0.79940386   -1.2610369    1.1979067 -0.063130248   0.12281606     12168.58     1000 
  868000   0.82247009    -1.304324    1.2324714 -0.071852613   0.13853398    11779.907     1000 
  870000   0.77559082   -1.3076367    1.1622228  -0.14541388   0.12588631    11909.322     1000 
  872000   0.82112005   -1.2879459    1.2304484 -0.057497471    0.1390019    11723.003     1000 
  874000   0.80073185   -1.3824291    1.1998967  -0.18253247   0.12612079    12072.792     1000 
  876000   0.78067896   -1.2896975    1.1698474  -0.11985004   0.12256977     12022.11     1000 
  878000   0.80948478   -1.2659763     1.213013 -0.052963384   0.14155687    11824.795     1000 
  880000    0.7920992    -1.306769    1.1869607  -0.11980836   0.11012066    12056.186     1000 
  882000   0.76651705   -1.3594177    1.1486258  -0.21079194   0.10547873    12499.997     1000 
  884000   0.85010019   -1.2978471    1.2738751 -0.023971948     0.132734    11890.118     1000 
  886000   0.83645498   -1.2766911    1.2534278 -0.023263266   0.14685744    11774.091     1000 
  888000   0.80205409   -1.3418178    1.2018781   -0.1399397   0.12569955    12167.969     1000 
  890000   0.77316195   -1.2909449    1.1585832  -0.13236174    0.1300723    11901.964     1000 
  892000   0.79889247   -1.2255468    1.1971404 -0.028406462   0.12530781     11962.83     1000 
  894000    0.7717607   -1.2796576    1.1564834  -0.12317418   0.12664096      11940.1     1000 
  896000   0.79871316    -1.332993    1.1968717   -0.1361213   0.12351611    12089.681     1000 
  898000   0.77648467   -1.2833032    1.1635623  -0.11974089   0.12898578    11612.042     1000 
  900000   0.81452061   -1.2973198    1.2205591  -0.07676066   0.13690208    12090.965     1000 
  902000   0.83799635   -1.2508848    1.2557375 0.0048527017   0.13903422    11938.937     1000 
  904000   0.77983471   -1.2487231    1.1685823 -0.080140768   0.12857826    11868.902     1000 
  906000    0.8243685   -1.3252212    1.2353162 -0.089905032   0.11526262    12270.688     1000 
  908000    0.7731815   -1.2599545    1.1586125  -0.10134198   0.12940825    11870.821     1000 
  910000   0.82644684   -1.2750152    1.2384306 -0.036584666   0.13356319     11993.69     1000 
  912000   0.79288324   -1.3010497    1.1881355   -0.1129142   0.13065356    11958.148     1000 
  914000   0.82392823   -1.2994227    1.2346565 -0.064766281   0.13940703    12122.219     1000 
  916000   0.78064342   -1.2997499    1.1697942  -0.12995571     0.135395    11803.686     1000 
  918000   0.79073577   -1.3182409    1.1849176  -0.13332339   0.12903674    11856.344     1000 
  920000   0.80642395   -1.3103628    1.2084263  -0.10193649   0.12965634     12083.57     1000 
  922000   0.80588198    -1.312811    1.2076142  -0.10519688    0.1318418     11795.22     1000 
  924000   0.80602127   -1.2660947    1.2078229 -0.058271865    0.1391916    11662.793     1000 
  926000   0.80940686   -1.2946601    1.2128962 -0.081763878    0.1326395    12081.942     1000 
  928000   0.77973909    -1.327638     1.168439  -0.15919899   0.12337521    12065.519     1000 
  930000   0.80962903   -1.2442973    1.2132291 -0.031068159   0.14525246    11732.377     1000 
  932000   0.81641487   -1.2718794    1.2233977 -0.048481709   0.12307868    12186.322     1000 
  934000   0.81924725   -1.2761983     1.227642 -0.048556324   0.14155265    11845.298     1000 
  936000   0.84976825   -1.2319102    1.2733777  0.041467479   0.13538936    12079.579     1000 
  938000   0.80997446    -1.313551    1.2137467 -0.099804293   0.12938155    11954.578     1000 
  940000    0.8182831   -1.2823225    1.2261972 -0.056125287   0.12279363    12251.553     1000 
  942000   0.83480878   -1.3174241     1.250961 -0.066463185   0.13148706    11933.443     1000 
  944000    0.8010966   -1.2801178    1.2004433 -0.079674532   0.14271065      11803.8     1000 
  946000   0.80683059   -1.3106058    1.2090356  -0.10157012   0.13668885     11959.36     1000 
  948000   0.80475589   -1.3119231    1.2059267  -0.10599641   0.13544686    12013.194     1000 
  950000   0.76844867    -1.241931    1.1515203 -0.090410651   0.12338392    11808.894     1000 
  952000   0.78538643   -1.3229809    1.1769016  -0.14607937   0.12829095    11907.304     1000 
  954000   0.81803644   -1.2690987    1.2258276 -0.043271067   0.11980226    12223.386     1000 
  956000   0.75907439   -1.2923156     1.137473  -0.15484263   0.13039578    11990.895     1000 
  958000   0.80085831   -1.3102203    1.2000862  -0.11013414   0.13665366    11934.336     1000 
  960000   0.82224387   -1.2926205    1.2321324 -0.060488061   0.13685581    12033.688     1000 
  962000   0.78765383    -1.349621    1.1802993   -0.1693217     0.132469    11980.951     1000 
  964000   0.79277183   -1.3179388    1.1879686  -0.12997025   0.11935385    12061.758     1000 
  966000    0.8305059   -1.3560855    1.2445131  -0.11157237   0.13532126    11869.784     1000 
  968000   0.80310337   -1.2659778    1.2034504 -0.062527385   0.14032799     11917.63     1000 
  970000   0.80275832   -1.3295361    1.2029333  -0.12660271   0.13776113    11665.298     1000 
  972000   0.78118644   -1.3360153    1.1706079  -0.16540745   0.12233881    12137.273     1000 
  974000   0.80071818   -1.3067545    1.1998762  -0.10687835   0.12566192    12078.782     1000 
  976000   0.80371553   -1.2894165    1.2043677 -0.085048746   0.14126715    12173.107     1000 
  978000   0.77871977    -1.304846    1.1669116  -0.13793445   0.12972415    11871.591     1000 
  980000    0.8358297   -1.3377061    1.2524908 -0.085215285   0.13162628    11870.497     1000 
  982000   0.81665472   -1.3206611    1.2237571 -0.096903969   0.13305973    11909.282     1000 
  984000   0.79705485   -1.2854376    1.1943867 -0.091050922   0.11732993     12140.63     1000 
  986000   0.81122754   -1.3461463    1.2156245   -0.1305218    0.1233143    11905.219     1000 
  988000   0.81683717   -1.3034726    1.2240305 -0.079442056   0.13781088    11837.821     1000 
  990000   0.78625286   -1.2958301    1.1781999  -0.11763023   0.12415621    12137.002     1000 
  992000   0.76805336   -1.2984469     1.150928  -0.14751896    0.1224944    12113.421     1000 
  994000   0.80148292   -1.3537117    1.2010222  -0.15268957     0.129358    11881.964     1000 
  996000   0.74823727   -1.3564851    1.1212335  -0.23525151   0.11916308     12029.34     1000 
  998000   0.79236895   -1.3342413    1.1873649  -0.14687648   0.12660919    12105.183     1000 
 1000000   0.84163787    -1.337702    1.2611943 -0.076507683   0.13751337    11966.034     1000 
 1002000   0.80872399   -1.2870205    1.2118729 -0.075147634   0.13071254    11905.643     1000 
 1004000   0.81492315   -1.2201236    1.2211623 0.0010387381   0.12577836    12307.154     1000 
 1006000   0.80329793   -1.2741327    1.2037419 -0.070390725   0.14261724    11800.635     1000 
 1008000   0.79425332   -1.3039709    1.1901886  -0.11378235   0.12527917    12251.778     1000 
 1010000   0.79027759   -1.3381048     1.184231  -0.15387385   0.13311485    12095.519     1000 
 1012000   0.80506157   -1.2995411    1.2063848 -0.093156368   0.12286152    11873.725     1000 
 1014000   0.76731849    -1.365505    1.1498268  -0.21567828   0.12621112    12091.024     1000 
 1016000   0.79142091   -1.2852025    1.1859442 -0.099258276   0.13990307    11904.031     1000 
 1018000    0.8181697   -1.2666313    1.2260273 -0.040604031   0.13659398    11886.454     1000 
 1020000   0.85797296   -1.2792537    1.2856725 0.0064187774   0.12292995    12104.343     1000 
 1022000    0.7987976   -1.2885579    1.1969982 -0.091559708   0.15911754    11606.195     1000 
 1024000   0.81908725   -1.2988139    1.2274023 -0.071411648   0.12886613    12175.234     1000 
 1026000   0.77591138   -1.3553872    1.1627032  -0.19268399   0.12381444    11885.218     1000 
 1028000   0.81821627   -1.3191812    1.2260971 -0.093084154   0.12459126    12320.067     1000 
 1030000   0.78747067   -1.2783503    1.1800248 -0.098325515   0.14334028    11800.945     1000 
 1032000   0.80828785   -1.3250279    1.2112193  -0.11380854   0.13062309     12155.95     1000 
 1034000   0.79281637   -1.3092313    1.1880353    -0.121196   0.13216232    11912.708     1000 
 1036000   0.79172259   -1.2880886    1.1863963  -0.10169229   0.13043185    11757.785     1000 
 1038000   0.79942118   -1.3164847    1.1979326  -0.11855203   0.12884822    12111.428     1000 
 1040000   0.78693725    -1.278253    1.1792255 -0.099027501   0.12240913    12000.804     1000 
 1042000   0.79316378   -1.3064719    1.1885559  -0.11791601   0.11845022    12111.205     1000 
 1044000   0.76118119   -1.3045827      1.14063   -0.1639527   0.13051451    12056.826     1000 
 1046000   0.80210393   -1.3407539    1.2019527  -0.13880115   0.11557175    12056.445     1000 
 1048000   0.81757636   -1.2572766    1.2251382 -0.032138388   0.14245253    11801.964     1000 
 1050000   0.83317919   -1.3695628     1.248519  -0.12104381   0.12289371    12063.937     1000 
 1052000   0.79954277   -1.3752847    1.1981148  -0.17716981   0.12928347    12213.758     1000 
 1054000   0.80963772   -1.2797094    1.2132421 -0.066467234   0.12710184     11992.89     1000 
 1056000   0.77729356   -1.2709315    1.1647744   -0.1061571   0.12561631    12070.108     1000 
 1058000   0.79346151   -1.2835334    1.1890021 -0.094531361   0.11526509    12189.235     1000 
 1060000   0.78577545   -1.2877177    1.1774845  -0.11023324   0.13163424    11961.588     1000 
 1062000   0.86315776   -1.3293413    1.2934419 -0.035899364   0.13698894    11945.983     1000 
 1064000   0.82137273   -1.3078912     1.230827 -0.077064193   0.13129913    11925.483     1000 
 1066000   0.76885428   -1.3047333    1.1521281  -0.15260517   0.12815061    11868.499     1000 
 1068000   0.82346621   -1.2925738    1.2339641 -0.058609706   0.13511406    12144.706     1000 
 1070000   0.81332652   -1.2664048    1.2187698 -0.047635049   0.14205281    11672.577     1000 
 1072000   0.79646865   -1.2866087    1.1935083 -0.093100471   0.12883981    12093.677     1000 
 1074000    0.8040052   -1.3356358    1.2048018  -0.13083402   0.13432812     11887.94     1000 
 1076000   0.76639839   -1.3132243     1.148448   -0.1647763   0.12753271    11821.806     1000 
 1078000    0.8124661   -1.3095162    1.2174805  -0.09203577   0.12507771     11959.26     1000 
 1080000   0.80065538   -1.2741495    1.1997821 -0.074367412    0.1400386    11874.184     1000 
 1082000   0.78101944   -1.2982741    1.1703576  -0.12791645     0.122751    11983.002     1000 
 1084000   0.77391052   -1.2985974    1.1597049  -0.13889246   0.11407759    12263.107     1000 
 1086000   0.77574131   -1.2815184    1.1624483  -0.11907005   0.13697887    11641.497     1000 
 1088000   0.80358461   -1.2819891    1.2041715 -0.077817545    0.1323894    11910.438     1000 
 1090000    0.7846073   -1.2899516     1.175734  -0.11421756   0.13521935    11746.249     1000 
 1092000   0.80582933   -1.3329399    1.2075353  -0.12540463   0.12939839    12065.113     1000 
 1094000   0.83122365   -1.3294023    1.2455886 -0.083813704   0.14712153    11873.505     1000 
 1096000   0.79688361   -1.3076608    1.1941301  -0.11353076   0.13303982    11933.353     1000 
 1098000   0.77095176   -1.3042761    1.1552712  -0.14900485   0.12541609     12164.46     1000 
 1100000   0.79272771   -1.2960549    1.1879025  -0.10815247   0.13183624    11802.424     1000 
 1102000   0.82286474   -1.3731831    1.2330628  -0.14012027   0.12446246    12102.164     1000 
 1104000    0.7613983   -1.2949123    1.1409554  -0.15395694   0.12253075    12069.433     1000 
 1106000   0.79954457   -1.2758208    1.1981175 -0.077703312    0.1424895    12035.858     1000 
 1108000   0.82260442   -1.2571652    1.2326727 -0.024492467    0.1336441     12208.75     1000 
 1110000   0.78695811   -1.3056481    1.1792567  -0.12639142   0.13207823    11984.547     1000 
 1112000   0.83557341   -1.2949855    1.2521068 -0.042878744   0.13715272     11824.69     1000 
 1114000   0.80842896   -1.3140168    1.2114308  -0.10258603   0.13411441    12140.263     1000 
 1116000   0.81720096   -1.3555246    1.2245756  -0.13094893   0.12480388     12128.31     1000 
 1118000   0.78148983   -1.2570104    1.1710625 -0.085947915   0.13507972     11898.42     1000 
 1120000   0.74154837   -1.2610479    1.1112102  -0.14983765   0.12649385    11885.753     1000 
 1122000   0.81003797   -1.3036221    1.2138419 -0.089780224   0.13089143    11980.531     1000 
 1124000   0.80027015   -1.2768858    1.1992048 -0.077680941   0.12547394    11994.806     1000 
 1126000   0.80330895   -1.3060374    1.2037585  -0.10227894   0.12691599    12011.986     1000 
 1128000   0.78173716   -1.2639321    1.1714331 -0.092498926   0.13194331    11954.669     1000 
 1130000   0.80169728   -1.2895719    1.2013434 -0.088228545   0.13664096    11802.511     1000 
 1132000   0.83716298   -1.3620466    1.2544887  -0.10755788   0.12827996    12047.507     1000 
 1134000   0.79882216   -1.3289257     1.197035  -0.13189071   0.12956138    12153.151     1000 
 1136000   0.82236148   -1.3340263    1.2323087  -0.10171766    0.1181511    12181.549     1000 
 1138000   0.77879878   -1.2794851      1.16703  -0.11245516   0.13595881     11918.48     1000 
 1140000   0.80319523   -1.3015081    1.2035881 -0.097920051   0.12157446    11902.334     1000 
 1142000    0.8146063   -1.3209573    1.2206875  -0.10026976   0.12665779    11996.657     1000 
 1144000   0.79624703   -1.2025152    1.1931762 -0.009339014    0.1420732    11680.484     1000 
 1146000   0.76553999   -1.2714435    1.1471617  -0.12428186    0.1304337    11894.975     1000 
 1148000   0.78416597   -1.2594181    1.1750727 -0.084345358   0.13333266    11958.977     1000 
 1150000   0.80275639   -1.3137966    1.2029304  -0.11086615   0.13478877    12052.296     1000 
 1152000   0.76192388   -1.3036583    1.1417429  -0.16191541   0.12373372    12001.512     1000 
 1154000   0.82764781   -1.3253336    1.2402302 -0.085103405   0.14027935    11892.276     1000 
 1156000    0.8735769   -1.3047112     1.309055 0.0043438025   0.13621011    11906.854     1000 
 1158000   0.82728257    -1.266203    1.2396829 -0.026520103   0.13118255    11942.639     1000 
 1160000   0.82080329   -1.2879468    1.2299737 -0.057973032   0.13804784     12042.28     1000 
 1162000   0.81004286   -1.3163369    1.2138492  -0.10248771   0.12732074    11978.028     1000 
 1164000   0.80588384   -1.3127569    1.2076169  -0.10514001   0.12752145    12240.237     1000 
 1166000   0.82296546   -1.3512186    1.2332137  -0.11800481   0.12026145    12187.303     1000 
 1168000   0.79486827   -1.3093733    1.1911101  -0.11826324   0.12669204    12011.481     1000 
 1170000   0.79274947   -1.2554408    1.1879351 -0.067505724   0.14140141    11767.463     1000 
 1172000   0.79781946   -1.3456677    1.1955325  -0.15013522   0.11821493    12136.159     1000 
 1174000   0.80069508   -1.2968069    1.1998416 -0.096965318   0.13103379    12045.118     1000 
 1176000   0.76918556   -1.3380908    1.1526246  -0.18546625   0.12691985     12041.25     1000 
 1178000   0.79047358   -1.3431879    1.1845247  -0.15866326   0.13832257    12097.027     1000 
 1180000   0.80825626   -1.2637397     1.211172 -0.052567724   0.13400917    11819.063     1000 
 1182000    0.8038405   -1.3528943     1.204555  -0.14833928   0.12530626    12193.431     1000 
 1184000   0.77603371    -1.276068    1.1628865  -0.11318145   0.12318729    12041.819     1000 
 1186000   0.83591836   -1.3042523    1.2526237 -0.051628633   0.12835081     12075.44     1000 
 1188000   0.83910293   -1.3205109    1.2573957 -0.063115166   0.13878839    11886.281     1000 
 1190000   0.76288637   -1.3078655    1.1431852  -0.16468028   0.12622301    12019.671     1000 
 1192000   0.79893379   -1.3476384    1.1972023  -0.15043616   0.12872323    12064.735     1000 
 1194000   0.79219409   -1.3547015    1.1871028  -0.16759861   0.12342599    12095.296     1000 
 1196000   0.78037473   -1.2972859    1.1693915  -0.12789433   0.14251408    12014.923     1000 
 1198000   0.81628073    -1.294499    1.2231967 -0.071302349    0.1259767    12060.434     1000 
 1200000   0.83398884   -1.2523536    1.2497323 -0.0026213027    0.1333279    11957.313     1000 
 1202000    0.7940704   -1.3144195    1.1899145    -0.124505   0.13459887     11908.37     1000 
 1204000   0.75889614   -1.3524785    1.1372059  -0.21527263   0.12615164    12004.483     1000 
 1206000   0.79842461   -1.2826584    1.1964393 -0.086219145   0.13272178    12029.581     1000 
 1208000   0.78164124    -1.346498    1.1712894   -0.1752086   0.14484498    11742.341     1000 
 1210000    0.7910417   -1.2605493     1.185376 -0.075173355   0.13485818    11771.095     1000 
 1212000   0.77725746    -1.265767    1.1647203  -0.10104672   0.12682162    12140.866     1000 
 1214000    0.7851038   -1.2720499     1.176478 -0.095571815   0.12376257    12064.716     1000 
 1216000   0.80752944   -1.3068038    1.2100829 -0.096720927   0.13917399    11990.874     1000 
 1218000   0.78984375    -1.294293    1.1835809  -0.11071215   0.12442115    12156.633     1000 
 1220000   0.77882508   -1.2853438    1.1670694   -0.1182744   0.12991536    11837.228     1000 
 1222000   0.81120561   -1.3401699    1.2155916  -0.12457831   0.12323917    11950.934     1000 
 1224000   0.81416998     -1.29948    1.2200337 -0.079446299   0.11983961    12126.701     1000 
 1226000   0.78631773   -1.3193132    1.1782971  -0.14101606   0.12967842    11968.816     1000 
 1228000   0.78320993   -1.3277587    1.1736401  -0.15411863    0.1240518    12124.434     1000 
 1230000   0.81045237   -1.2609779    1.2144629 -0.046515041   0.14443092    11631.864     1000 
 1232000   0.82293911   -1.2946436    1.2331743 -0.061469344    0.1306087    11905.759     1000 
 1234000   0.79110593   -1.3100034    1.1854722  -0.12453118   0.12716943    12098.187     1000 
 1236000    0.7795184   -1.3074172    1.1681083  -0.13930888   0.13396881        11744     1000 
 1238000   0.81558441   -1.2938168    1.2221532 -0.071663557   0.12609424    11953.312     1000 
 1240000   0.78403315   -1.3188277    1.1748737  -0.14395406   0.13204863    11774.977     1000 
 1242000     0.769534   -1.2717958    1.1531467   -0.1186491   0.12169645    12086.988     1000 
 1244000   0.77679895   -1.3785805    1.1640332   -0.2145473   0.11268525    12299.745     1000 
 1246000   0.78853703   -1.2494641    1.1816227 -0.067841404   0.13961893    11979.713     1000 
 1248000   0.80455764   -1.2842509    1.2056296 -0.078621243   0.12636219    11898.884     1000 
 1250000   0.80147691   -1.3158171    1.2010132  -0.11480392   0.14653852     11857.01     1000 
 1252000   0.82000292   -1.2982516    1.2287744 -0.069477249   0.12499836    11942.095     1000 
 1254000   0.78209461   -1.3172665    1.1719688  -0.14529777   0.12817565    12124.037     1000 
 1256000   0.82279911   -1.3118929    1.2329645 -0.078928417   0.13593727    11863.061     1000 
 1258000   0.78940976   -1.2565967    1.1829305 -0.073666219   0.13240075     11846.01     1000 
 1260000   0.78572474   -1.2990671    1.1774085  -0.12165862    0.1246884      11923.8     1000 
 1262000   0.81181094   -1.3197409    1.2164987  -0.10324216    0.1274775    12065.648     1000 
 1264000    0.7699646   -1.3262988    1.1537919  -0.17250686   0.13513736    11915.855     1000 
 1266000   0.81616345   -1.2751233    1.2230209 -0.052102414   0.13814221    11815.932     1000 
 1268000   0.80820564   -1.2976935    1.2110962 -0.086597375   0.12279989    12168.857     1000 
 1270000   0.80315723   -1.3751672    1.2035311  -0.17163612   0.13688738    12037.059     1000 
 1272000   0.80276777   -1.3181405    1.2029475  -0.11519304   0.13639151    11793.949     1000 
 1274000   0.80399218   -1.2871428    1.2047823 -0.082360521   0.13617206    11824.701     1000 
 1276000   0.79896174   -1.3023697    1.1972442  -0.10512551   0.13733843    11908.155     1000 
 1278000   0.76984238   -1.3275485    1.1536088  -0.17393969   0.12845779    11898.341     1000 
 1280000   0.81819323    -1.289276    1.2260625 -0.063213424   0.12752841    12057.967     1000 
 1282000    0.8280942    -1.318488    1.2408992 -0.077588846   0.14885896    11646.152     1000 
 1284000   0.81480683     -1.30507     1.220988 -0.084081994    0.1358927    12206.529     1000 
 1286000   0.80177583    -1.347213    1.2014611  -0.14575187   0.12830065    12020.197     1000 
 1288000   0.80694661   -1.3100085    1.2092095    -0.100799   0.11697237    12299.018     1000 
 1290000   0.80451025   -1.3125742    1.2055586  -0.10701561   0.13384936     11890.86     1000 
 1292000   0.81721601   -1.3501266    1.2245982  -0.12552838   0.12405392    12085.729     1000 
 1294000   0.79448434   -1.2774831    1.1905348 -0.086948294   0.12734053    12072.773     1000 
 1296000   0.77522926   -1.3264868     1.161681  -0.16480577   0.12776391    12177.742     1000 
 1298000   0.77443737   -1.2767976    1.1604944  -0.11630323   0.13705792    11825.011     1000 
 1300000   0.82060323   -1.3295966    1.2296739 -0.099922699   0.13140536    12083.193     1000 
 1302000   0.81191127   -1.2700072     1.216649 -0.053358141   0.15210655    11799.912     1000 
 1304000   0.78417993   -1.3049719    1.1750936  -0.12987824   0.12936075    11924.256     1000 
 1306000   0.82583612   -1.3459266    1.2375154  -0.10841121   0.13431354    12040.488     1000 
 1308000    0.8357412   -1.3105184    1.2523582 -0.058160254   0.11900611    12271.412     1000 
 1310000   0.77341182   -1.3390439    1.1589576  -0.18008629   0.12214987    12030.376     1000 
 1312000   0.79424464   -1.3099258    1.1901756  -0.11975017   0.12432359    11961.699     1000 
 1314000   0.81303226    -1.350757    1.2183288  -0.13242814   0.13498553    11878.307     1000 
 1316000   0.83173827    -1.297034    1.2463598 -0.050674216    0.1465897    11666.957     1000 
 1318000   0.81742741   -1.3025648     1.224915 -0.077649834   0.11579119     12328.49     1000 
 1320000   0.81036999   -1.2381898    1.2143394 -0.023850341   0.12967448    11812.977     1000 
 1322000   0.83312022   -1.3000413    1.2484306 -0.051610661   0.13885507    12009.119     1000 
 1324000   0.82608933    -1.363816    1.2378949  -0.12592109   0.13335511    11981.972     1000 
 1326000   0.79569237   -1.2983211     1.192345   -0.1059761   0.13210973    11835.307     1000 
 1328000   0.80531229   -1.2480585    1.2067605  -0.04129803   0.12927038    12214.534     1000 
 1330000   0.80190296   -1.3054982    1.2016516  -0.10384666   0.12777447    11819.659     1000 
 1332000   0.75162537   -1.2977907    1.1263106  -0.17148007   0.12379253     12011.15     1000 
 1334000   0.79667369   -1.3367185    1.1938155    -0.142903   0.15083762    11780.494     1000 
 1336000   0.75651089   -1.3245146    1.1336316  -0.19088303   0.13015665    12070.348     1000 
 1338000   0.77713746   -1.3148388    1.1645405  -0.15029831   0.14005021    11808.035     1000 
 1340000   0.79975803   -1.3134814    1.1984374  -0.11504398    0.1257764    11799.696     1000 
 1342000   0.80678918   -1.2779193    1.2089736 -0.068945672   0.12368418    11842.099     1000 
 1344000   0.77056634   -1.2568067    1.1546937  -0.10211299   0.13718468    11997.573     1000 
 1346000   0.81335368   -1.3747233    1.2188105  -0.15591279    0.1280799    12009.971     1000 
 1348000   0.81884927   -1.2833657    1.2270456 -0.056320093   0.14298534    12072.478     1000 
 1350000   0.83440721   -1.3583704    1.2503592  -0.10801117    0.1205209    12237.901     1000 
 1352000   0.78880544   -1.2417232    1.1820249 -0.059698211   0.13465993    11800.194     1000 
 1354000   0.76017887    -1.260469     1.139128  -0.12134094   0.13291419    11949.844     1000 
 1356000   0.80691833    -1.300705    1.2091671 -0.091537864   0.13035752    12128.249     1000 
 1358000   0.77176553   -1.3026513    1.1564907  -0.14616067   0.13659808    11718.176     1000 
 1360000   0.83308597   -1.3067775    1.2483793 -0.058398135   0.12424632    12168.426     1000 
 1362000   0.82221848   -1.3328748    1.2320944  -0.10078042   0.13110157    11877.422     1000 
 1364000    0.8010375   -1.3399965    1.2003547  -0.13964181   0.11877501    12020.323     1000 
 1366000    0.8091212   -1.3284108    1.2124681  -0.11594268   0.13665816     11749.63     1000 
 1368000   0.84744975   -1.2673897    1.2699035 0.0025137412   0.12676651    12034.725     1000 
 1370000   0.80752701   -1.2432961    1.2100792 -0.033216898   0.13525375    11849.349     1000 
 1372000    0.7602166   -1.3466656    1.1391846  -0.20748099   0.11890139    12111.123     1000 
 1374000   0.79750841   -1.3783538    1.1950664  -0.18328741   0.12859857    12165.594     1000 
 1376000   0.80866573   -1.3285416    1.2117856  -0.11675598   0.12852155    11825.513     1000 
 1378000   0.80844279   -1.3262126    1.2114515  -0.11476108   0.13262167    11995.168     1000 
 1380000   0.79834469   -1.2678898    1.1963195 -0.071570322   0.13855468    12029.533     1000 
 1382000   0.80377783   -1.3070872    1.2044611  -0.10262616    0.1357582    11911.774     1000 
 1384000   0.82495819   -1.3129006    1.2361999 -0.076700771   0.11897073     12148.73     1000 
 1386000   0.81535949   -1.2943033    1.2218162 -0.072487062   0.12922614    11883.275     1000 
 1388000   0.79134389   -1.3451064    1.1858288  -0.15927756   0.12564812    12248.852     1000 
 1390000   0.81249743   -1.2919313    1.2175274 -0.074403942   0.14037968    11812.014     1000 
 1392000   0.77924625   -1.3148604    1.1677005  -0.14715986   0.12723185    12189.157     1000 
 1394000   0.79806146   -1.3203533    1.1958951  -0.12445821   0.12931417     11984.13     1000 
 1396000   0.78860824   -1.3300246    1.1817294  -0.14829516    0.1301336    12126.916     1000 
 1398000   0.80167568   -1.3576854     1.201311  -0.15637444   0.12322169    12251.163     1000 
 1400000   0.79331588   -1.3021719    1.1887838  -0.11338806   0.13440844    11833.659     1000 
 1402000   0.83569952   -1.3006137    1.2522957 -0.048318013   0.12940108    11970.853     1000 
 1404000   0.81879494   -1.2902944    1.2269642 -0.063330163   0.12601491    12274.271     1000 
 1406000   0.78115392   -1.2746559    1.1705591  -0.10409673    0.1434385    11930.059     1000 
 1408000    0.7987171   -1.3333261    1.1968776   -0.1364485    0.1343514    11808.132     1000 
 1410000   0.78182877   -1.3912676    1.1715704  -0.21969715    0.1242334    11795.687     1000 
 1412000   0.82863302   -1.3318514    1.2417066 -0.090144872   0.13007316    12106.222     1000 
 1414000   0.80366853   -1.3214001    1.2042973   -0.1171028   0.13301034    11948.266     1000 
 1416000   0.81071096   -1.3256885    1.2148504  -0.11083814   0.11975122    12066.653     1000 
 1418000    0.7923906   -1.3025522    1.1873973  -0.11515493   0.12618086    11801.999     1000 
 1420000    0.8043012   -1.3321249    1.2052453  -0.12687959   0.12103136    12046.709     1000 
 1422000   0.80586239   -1.2804262    1.2075848  -0.07284138   0.12969078    12016.444     1000 
 1424000   0.81907648   -1.2763455    1.2273861 -0.048959447   0.11456631    12255.183     1000 
 1426000   0.81344795   -1.2966547    1.2189518 -0.077702975   0.13272315    11954.693     1000 
 1428000   0.79618269   -1.3354091    1.1930798  -0.14232932   0.12279142    12008.788     1000 
 1430000   0.79663389   -1.3692455    1.1937559  -0.17548962   0.11855547    12251.022     1000 
 1432000   0.79268222    -1.241632    1.1878343 -0.053797712   0.12381571    11992.167     1000 
 1434000    0.8210324   -1.3460827    1.2303171  -0.11576567   0.12256134    12046.486     1000 
 1436000   0.79453582   -1.3448967    1.1906119  -0.15428476   0.12170454    12386.731     1000 
 1438000   0.76079813   -1.3202405     1.140056  -0.18018454   0.13622068    11814.805     1000 
 1440000   0.80610892   -1.2790258    1.2079542 -0.071071551   0.13219446    11859.024     1000 
 1442000     0.792953   -1.2907522    1.1882401  -0.10251217   0.14489312    11885.762     1000 
 1444000   0.79139299   -1.3024811    1.1859024  -0.11657867   0.12775629    12004.424     1000 
 1446000    0.7692209   -1.3430787    1.1526775  -0.19040116   0.12511296    12094.178     1000 
 1448000   0.78881576   -1.2766196    1.1820404 -0.094579203   0.13217301    11795.785     1000 
 1450000   0.79770019   -1.2826576    1.1953537 -0.087303895   0.12744012    12000.697     1000 
 1452000   0.80580398    -1.311649    1.2074973  -0.10415175   0.13294471    12143.143     1000 
 1454000   0.80007945   -1.2831706    1.1989191 -0.084251548   0.13406587     12105.53     1000 
 1456000   0.81615552   -1.3382077     1.223009  -0.11519863   0.12949782    11946.293     1000 
 1458000   0.77562363   -1.2754139     1.162272  -0.11314188   0.12824224    11945.497     1000 
 1460000   0.77490697   -1.2786687    1.1611981  -0.11747059   0.13030239    11910.029     1000 
 1462000   0.79618763   -1.3789106    1.1930872  -0.18582339   0.12086607    12047.625     1000 
 1464000   0.75055329   -1.3218299    1.1247041  -0.19712577   0.13248237    11939.922     1000 
 1466000   0.77147178   -1.2999274    1.1560505  -0.14387689   0.12581143    12235.212     1000 
 1468000   0.85795543   -1.2752683    1.2856462  0.010377873   0.13174929    12128.794     1000 
 1470000   0.77519755   -1.3364266    1.1616335  -0.17479306    0.1362211    11778.761     1000 
 1472000   0.74174037   -1.3667457    1.1114979  -0.25524774   0.12383376    12089.116     1000 
 1474000   0.77264523   -1.3301113    1.1578089  -0.17230237   0.14784303    11803.125     1000 
 1476000   0.80153409   -1.3063506    1.2010988  -0.10525181    0.1197298    12263.391     1000 
 1478000   0.81386634   -1.2715238    1.2195787 -0.051945117   0.14406948    11831.224     1000 
 1480000   0.80959436   -1.3405537    1.2131771  -0.12737655   0.11177173     12266.91     1000 
 1482000   0.81445942   -1.3231104    1.2204674  -0.10264296    0.1325556     11810.41     1000 
 1484000   0.78459517   -1.3662856    1.1757159  -0.19056974   0.13094754    12100.884     1000 
 1486000    0.7990877    -1.303343    1.1974329  -0.10591009   0.13297523    11972.427     1000 
 1488000   0.82561689   -1.2412569    1.2371869 -0.004070002    0.1295855    11973.123     1000 
 1490000   0.80447261   -1.3323286    1.2055022  -0.12682641   0.12795428    12087.826     1000 
 1492000   0.79503782   -1.2914731    1.1913642  -0.10010888   0.13732353    11745.607     1000 
 1494000   0.79573446   -1.3339414    1.1924081  -0.14153332    0.1204653    12291.636     1000 
 1496000   0.81588934   -1.3178939    1.2226102 -0.095283684   0.13112355    11877.581     1000 
 1498000    0.8074004   -1.2697808    1.2098895 -0.059891343   0.14783384    11727.075     1000 
 1500000    0.7967011   -1.2733864    1.1938566 -0.079529799   0.13741413    11670.712     1000 
 1502000   0.80136559   -1.3602192    1.2008463  -0.15937288   0.13241564    11918.837     1000 
 1504000   0.82062739    -1.271004    1.2297102  -0.04129387   0.13213346    12018.637     1000 
 1506000   0.81310643   -1.2879717      1.21844 -0.069531672   0.13162005    12049.056     1000 
 1508000   0.83238583    -1.348465    1.2473302   -0.1011348   0.12618929    12056.643     1000 
 1510000    0.7910594   -1.2792404    1.1854025 -0.093837885   0.13169187    12025.463     1000 
 1512000   0.76832456   -1.3052122    1.1513344  -0.15387783   0.13401229      11797.7     1000 
 1514000   0.77339195   -1.3141447    1.1589278  -0.15521686   0.11998515    12270.768     1000 
 1516000   0.81896957    -1.271404    1.2272259 -0.044178141   0.13559833    11874.819     1000 
 1518000   0.81769578   -1.2890956    1.2253171 -0.063778467   0.14370838    11807.581     1000 
 1520000   0.81779933   -1.2631175    1.2254723  -0.03764524   0.12635546     12289.17     1000 
 1522000   0.81299529   -1.2976145    1.2182734  -0.07934109   0.14185538    11856.038     1000 
 1524000   0.79900927   -1.3333427    1.1973154  -0.13602731   0.12629719    11969.718     1000 
 1526000   0.77800558   -1.3178379    1.1658414  -0.15199655   0.12573482    12150.086     1000 
 1528000   0.84222296   -1.3360089    1.2620711 -0.073937761   0.13630539    11933.142     1000 
 1530000   0.79739531    -1.296001    1.1948969   -0.1011041   0.13435392    11708.523     1000 
 1532000     0.826598   -1.2883204    1.2386571 -0.049663271   0.13081284     11835.82     1000 
 1534000   0.83396075   -1.2820429    1.2496902 -0.032352665    0.1277209    12200.287     1000 
 1536000   0.82474103   -1.2748996    1.2358744 -0.039025173   0.13730713    11779.435     1000 
 1538000   0.77530225   -1.2811718    1.1617904   -0.1193814   0.13755346    11723.618     1000 
 1540000   0.80396912   -1.3357142    1.2047477  -0.13096649   0.12124892    12156.661     1000 
 1542000   0.81950766   -1.3554024    1.2280322  -0.12737017   0.12032241    12106.809     1000 
 1544000   0.79405841   -1.2710969    1.1898965 -0.081200406   0.12790739    11955.598     1000 
 1546000   0.80739636   -1.3159479    1.2098834  -0.10606443   0.12473481    11875.667     1000 
 1548000   0.77801269   -1.2784593     1.165852  -0.11260728    0.1209354    12099.138     1000 
 1550000    0.8168584   -1.2800014    1.2240623 -0.055939059   0.12668263    12102.425     1000 
 1552000   0.82073268   -1.2988763    1.2298679  -0.06900834   0.13625732    11794.367     1000 
 1554000   0.78608453   -1.3327026    1.1779477  -0.15475491    0.1186824    12089.592     1000 
 1556000    0.8051625   -1.3090611     1.206536  -0.10252508   0.14012745    11753.725     1000 
 1558000   0.80350859   -1.3926338    1.2040576  -0.18857617   0.12340814    12005.364     1000 
 1560000    0.8029766   -1.2989768    1.2032604 -0.095716367   0.12497667    12256.408     1000 
 1562000    0.8097976   -1.3619534    1.2134817  -0.14847171   0.10976267    12213.845     1000 
 1564000   0.81777259   -1.3477014    1.2254322   -0.1222692   0.12785761    12052.833     1000 
 1566000    0.8196521   -1.2276684    1.2282487 0.00058030867   0.13551436    11960.467     1000 
 1568000   0.77242459   -1.3333219    1.1574782  -0.17584367    0.1248352    12035.469     1000 
 1570000   0.81211989   -1.2608158    1.2169617 -0.043854123    0.1229329    12012.825     1000 
 1572000   0.78544472   -1.2654381    1.1769889 -0.088449188   0.12451284    11964.265     1000 
 1574000   0.81266206   -1.2713058    1.2177741 -0.053531747   0.13639357    12220.368     1000 
 1576000   0.79499651    -1.263401    1.1913023 -0.072098695   0.12193487    12173.261     1000 
 1578000   0.76733967   -1.2667588    1.1498585  -0.11690035   0.14148049    11729.725     1000 
 1580000   0.81868262   -1.2793526    1.2267959 -0.052556678   0.13302851    11994.591     1000 
 1582000   0.81156541    -1.277736    1.2161308 -0.061605263   0.13429326     11997.81     1000 
 1584000   0.80548328   -1.3098998    1.2070167   -0.1028831   0.13278866    12116.006     1000 
 1586000   0.80583598   -1.3225118    1.2075452   -0.1149666   0.12831098    12054.583     1000 
 1588000   0.80292084   -1.3708135    1.2031769  -0.16763664   0.13654562    11827.565     1000 
[...]
 2614000   0.82345598   -1.2693411    1.2339488 -0.035392258    0.1229107    12337.586     1000 
 2616000   0.82245601   -1.2959321    1.2324503 -0.063481758   0.13024451    11845.261     1000 
 2618000   0.78979109   -1.3399642     1.183502  -0.15646224   0.13146956    11865.037     1000 
 2620000    0.8231266   -1.2741406    1.2334552  -0.04068535   0.14778513    11781.517     1000 
 2622000   0.78949314   -1.2759063    1.1830555 -0.092850831   0.14185961    11834.308     1000 
 2624000   0.81769022   -1.2748906    1.2253088 -0.049581794   0.13155763    11861.207     1000 
 2626000   0.81479505   -1.3217308    1.2209704  -0.10076039   0.13307686    11961.304     1000 
 2628000   0.82390265   -1.2865028    1.2346181 -0.051884659   0.12930187    11707.842     1000 
 2630000   0.83321135   -1.2897024    1.2485672 -0.041135178   0.13177514    12151.168     1000 
 2632000   0.82302695   -1.3008344    1.2333059 -0.067528555   0.13401835    11843.886     1000 
 2634000   0.78645647   -1.2708152     1.178505 -0.092310133   0.14400728    11577.039     1000 
 2636000   0.79929011   -1.2328645    1.1977362 -0.035128254   0.12759496    12225.748     1000 
 2638000   0.82713605   -1.2889284    1.2394634 -0.049464997   0.12860007    11953.552     1000 
 2640000   0.75306051   -1.2817855    1.1284612  -0.15332436   0.13320528    11953.598     1000 
 2642000   0.80657412   -1.3570123    1.2086513  -0.14836094    0.1261435    11972.381     1000 
 2644000   0.85136639   -1.2854713    1.2757725 -0.009698755   0.13118059    12092.806     1000 
 2646000   0.80263586    -1.307706    1.2027498  -0.10495616   0.13361861    11968.877     1000 
 2648000   0.78255716   -1.2763375    1.1726619  -0.10367562   0.14617881     11753.68     1000 
 2650000   0.81705012   -1.3238916    1.2243496  -0.09954196   0.12362319    11972.401     1000 
 2652000   0.80687317    -1.320669    1.2090994  -0.11156956   0.11815883    12225.032     1000 
 2654000   0.80692447   -1.3663478    1.2091763  -0.15717151   0.13693236    11959.557     1000 
 2656000   0.81275072   -1.3112644     1.217907 -0.093357415   0.13953686    11920.361     1000 
 2658000   0.78146228   -1.3774545    1.1710212  -0.20643323   0.12518154    12248.711     1000 
 2660000   0.77530219   -1.3320086    1.1617903  -0.17021823   0.11592361    12261.853     1000 
 2662000   0.78981775   -1.2971091    1.1835419  -0.11356721    0.1263274    12131.658     1000 
 2664000   0.77963825   -1.2892457    1.1682879  -0.12095774   0.13507629    11931.478     1000 
 2666000   0.80607367   -1.2972685    1.2079014 -0.089367116   0.13068236    12135.713     1000 
 2668000   0.81937166   -1.2488899    1.2278284 -0.021061417   0.13300912    11898.011     1000 
 2670000   0.82345204   -1.2726469    1.2339429  -0.03870404   0.12948259    11964.693     1000 
 2672000   0.74737899   -1.2922717    1.1199474  -0.17232429   0.12176742    12136.482     1000 
 2674000   0.79146842   -1.2967882    1.1860154  -0.11077274    0.1259886    12014.184     1000 
 2676000   0.83567232    -1.253768     1.252255 -0.0015129911   0.14428557    11613.312     1000 
 2678000   0.79804363   -1.2829297    1.1958684 -0.087061315   0.12384188     12122.47     1000 
 2680000    0.7952614   -1.2863474    1.1916992 -0.094648162    0.1373339     11839.38     1000 
 2682000   0.84556224   -1.2779543     1.267075 -0.010879285   0.13373763    12001.352     1000 
 2684000   0.83480486   -1.2517425    1.2509551 -0.00078741065   0.12714794    12223.586     1000 
 2686000   0.78562885   -1.2899351    1.1772648  -0.11267027   0.12448008    11914.907     1000 
 2688000   0.82381489   -1.2720933    1.2344866 -0.037606697   0.13416805    12021.686     1000 
 2690000   0.77807123   -1.2663489    1.1659397  -0.10040916    0.1302482    11763.711     1000 
 2692000   0.77847969   -1.3050503    1.1665518  -0.13849845   0.12377629    12044.885     1000 
 2694000     0.811298   -1.2737461    1.2157301 -0.058016022   0.13334589    11937.042     1000 
 2696000   0.78980439    -1.295251    1.1835219  -0.11172908   0.11933097    12096.093     1000 
 2698000   0.84509027   -1.2790498    1.2663678 -0.012682005   0.14574124    11613.585     1000 
 2700000   0.78879698   -1.2666962    1.1820123  -0.08468391   0.11826398    12017.518     1000 
 2702000   0.80123866    -1.292417    1.2006561  -0.09176091   0.13922528     11832.09     1000 
 2704000   0.82235837   -1.2657207     1.232304 -0.033416725   0.12152604    12109.381     1000 
 2706000   0.83532398   -1.2700031     1.251733 -0.018270078   0.14068019    11797.346     1000 
 2708000   0.77926336   -1.3301349    1.1677261  -0.16240873   0.12417462    12102.876     1000 
 2710000   0.80868155   -1.3522049    1.2118093  -0.14039563   0.12269604    12154.069     1000 
 2712000   0.78985661    -1.294293    1.1836001   -0.1106929   0.12411261    12021.777     1000 
 2714000   0.78893423    -1.296396    1.1822179  -0.11417806   0.14269288    11705.757     1000 
 2716000   0.79179325   -1.3226026    1.1865022  -0.13610042   0.11561652     12441.35     1000 
 2718000   0.75609315   -1.3255563    1.1330056  -0.19255075   0.11259567    12084.998     1000 
 2720000   0.78205249   -1.2970705    1.1719057  -0.12516486   0.13454416    11940.378     1000 
 2722000   0.78460336   -1.3113799    1.1757281  -0.13565176   0.12325225    12062.583     1000 
 2724000   0.79219298   -1.3060216    1.1871012  -0.11892044   0.13484748    11775.691     1000 
 2726000    0.8270387   -1.3440016    1.2393175  -0.10468413   0.12558476    12114.348     1000 
 2728000    0.7855522   -1.3097084      1.17715   -0.1325584   0.13302883    11642.634     1000 
 2730000   0.79729833   -1.2896741    1.1947515 -0.094922533    0.1250355    12088.995     1000 
 2732000   0.76943385   -1.2862595    1.1529966  -0.13326291   0.13357277     12011.22     1000 
 2734000   0.75814193   -1.3108141    1.1360757  -0.17473843   0.14214273    11789.956     1000 
 2736000   0.79023969   -1.2840173    1.1841742 -0.099843125   0.13438109    11995.411     1000 
 2738000   0.80078313   -1.3230238    1.1999735  -0.12305029    0.1331191    11875.595     1000 
 2740000   0.86047276   -1.3135712    1.2894184 -0.024152805   0.13190463    12008.686     1000 
 2742000   0.78992217   -1.3156547    1.1836984  -0.13195636    0.1229927    12044.582     1000 
 2744000    0.8164329   -1.3129243    1.2234247  -0.08949959   0.13390421    11779.969     1000 
 2746000    0.8477903   -1.2850659    1.2704138 -0.014652091   0.13740121    11934.693     1000 
 2748000   0.77042968   -1.3330027    1.1544889  -0.17851382   0.12494011    11915.862     1000 
 2750000   0.82163747   -1.3163473    1.2312237 -0.085123582   0.12091217    12218.383     1000 
 2752000   0.83292453   -1.3405001    1.2481374 -0.092362707    0.1404431    11944.268     1000 
 2754000   0.82291113   -1.3093431    1.2331323 -0.076210772   0.14732816    11553.821     1000 
 2756000   0.77292298   -1.2720839    1.1582251  -0.11385884   0.11894845    12016.452     1000 
 2758000   0.79362771   -1.2775988    1.1892511 -0.088347695   0.13326201    11753.848     1000 
 2760000   0.82074698   -1.3501636    1.2298894  -0.12027422   0.12912484    11892.837     1000 
 2762000    0.8089124   -1.2657729    1.2121552 -0.053617635   0.14497552    11672.062     1000 
 2764000   0.79393047    -1.327788    1.1897048  -0.13808315   0.12687425    11925.844     1000 
 2766000   0.77882962   -1.3001374    1.1670762  -0.13306117   0.13464125    11825.582     1000 
 2768000   0.78290283   -1.3555942    1.1731799  -0.18241433    0.1305829    12040.341     1000 
 2770000   0.80520641    -1.298099    1.2066018 -0.091497237   0.12360996    11847.967     1000 
 2772000   0.79309519   -1.2660858    1.1884531 -0.077632704   0.13296942     11879.36     1000 
 2774000   0.80740049   -1.2940899    1.2098896 -0.084200284   0.12369501    12088.347     1000 
 2776000   0.80284612   -1.2889791    1.2030649 -0.085914239   0.15191658    11758.646     1000 
 2778000   0.76761477   -1.2709499    1.1502707  -0.12067919   0.11684627    12222.512     1000 
 2780000   0.77298188   -1.3534687    1.1583133  -0.19515533   0.14011344    11646.577     1000 
 2782000   0.81045065   -1.3153873    1.2144603  -0.10092702   0.14248082    11803.773     1000 
 2784000   0.79755017   -1.3521139    1.1951289  -0.15698499   0.12375473    11867.457     1000 
 2786000    0.8172142   -1.2939121    1.2245955 -0.069316609   0.12729578    12137.015     1000 
 2788000   0.77908148   -1.2876839    1.1674536   -0.1202303   0.13196401    11975.822     1000 
 2790000   0.84009991   -1.2736616    1.2588897 -0.014771929   0.13691776    11808.482     1000 
 2792000   0.76945543    -1.279363     1.153029  -0.12633409   0.12617184    11984.774     1000 
 2794000   0.84290613   -1.2689306    1.2630948 -0.0058357299   0.13060235     12097.93     1000 
 2796000   0.80443947   -1.3348914    1.2054525  -0.12943889    0.1371581    11963.499     1000 
 2798000   0.80856175   -1.3326659    1.2116298  -0.12103612   0.12452306    12245.312     1000 
 2800000   0.77336199   -1.3689126    1.1588829  -0.21002964   0.12178477    12133.526     1000 
 2802000   0.79561563   -1.2238237      1.19223 -0.031593702   0.13298517    11858.798     1000 
 2804000   0.80276509   -1.2828685    1.2029435 -0.079925064   0.12203639    12269.054     1000 
 2806000   0.77125218   -1.3205503    1.1557214  -0.16482886   0.12826525    12021.235     1000 
 2808000   0.81319261   -1.3897401    1.2185691  -0.17117098   0.11840174    12325.112     1000 
 2810000   0.79697123   -1.2786879    1.1942614 -0.084426492   0.13650007     11844.66     1000 
 2812000   0.84470743    -1.276673    1.2657941 -0.010878923   0.14089578    11769.545     1000 
 2814000   0.79501885   -1.3052011    1.1913357   -0.1138654   0.13241162    11910.537     1000 
 2816000    0.7918276   -1.3105401    1.1865537  -0.12398648    0.1192554    12011.463     1000 
 2818000   0.79004021   -1.3654463    1.1838753  -0.18157101   0.12918593    12183.341     1000 
 2820000   0.79214437   -1.2828761    1.1870283 -0.095847762   0.12341839    11923.212     1000 
 2822000   0.80698856   -1.3178113    1.2092724   -0.1085389   0.12480442    12244.078     1000 
 2824000    0.7660294   -1.2490275    1.1478951   -0.1011325   0.13619086    11842.055     1000 
 2826000   0.79780834   -1.3518695    1.1955158  -0.15635368   0.12312836     12263.36     1000 
 2828000   0.77956315   -1.2819606    1.1681754   -0.1137852   0.13220411    11923.116     1000 
 2830000   0.79023304   -1.2592144    1.1841642 -0.075050155   0.12869064    11890.049     1000 
 2832000   0.78513219   -1.2775203    1.1765206  -0.10099971   0.14128291    11911.015     1000 
 2834000   0.82241655   -1.3594065    1.2323912  -0.12701529   0.13634485    11786.886     1000 
 2836000   0.80522809   -1.3288958    1.2066343  -0.12226155   0.12628142    11987.315     1000 
 2838000   0.80317354   -1.3021947    1.2035556 -0.098639103   0.12069179    12006.452     1000 
 2840000   0.83181065   -1.3436374    1.2464683 -0.097169123   0.14590464    11688.068     1000 
 2842000   0.79162181   -1.3153787    1.1862453  -0.12913344    0.1225184    12194.244     1000 
 2844000   0.78522661    -1.304652    1.1766621  -0.12798992   0.13526202    11805.087     1000 
 2846000   0.80096991   -1.2797561    1.2002534 -0.079502727   0.14361004    11871.222     1000 
 2848000   0.80011486   -1.2526103    1.1989721  -0.05363819   0.14292319    11803.951     1000 
 2850000   0.81674851   -1.3607134    1.2238976  -0.13681577   0.12987446    12130.334     1000 
 2852000   0.80171534    -1.304429    1.2013704  -0.10305855   0.13594559    12185.981     1000 
 2854000   0.83128976   -1.2979264    1.2456877 -0.052238671   0.13113773    11863.749     1000 
 2856000   0.76497408   -1.2696546    1.1463137  -0.12334099   0.12730408    11928.588     1000 
 2858000   0.81499043   -1.2716536    1.2212632 -0.050390483   0.14221986    11778.642     1000 
 2860000   0.78888481    -1.238857    1.1821439 -0.056713068   0.11502027    11944.736     1000 
 2862000   0.80479867   -1.2941162    1.2059908   -0.0881254   0.13531577    11777.513     1000 
 2864000    0.8157537    -1.283336    1.2224069 -0.060929032   0.12645411    11995.561     1000 
 2866000   0.81486968   -1.2631349    1.2210822 -0.042052719   0.13923587    12021.796     1000 
 2868000   0.82503627   -1.3089008    1.2363168 -0.072583965   0.13294027    11739.448     1000 
 2870000   0.79704823   -1.2952871    1.1943768  -0.10091034   0.12655196    12100.524     1000 
 2872000   0.77943362   -1.3075978    1.1679813  -0.13961654   0.13763318    11951.666     1000 
 2874000   0.79711795   -1.3356253    1.1944812  -0.14114401   0.13057247    11932.709     1000 
 2876000   0.78348848   -1.3203685    1.1740575  -0.14631105   0.11995506    12059.436     1000 
 2878000   0.83895893   -1.2816293      1.25718 -0.024449334   0.13122445    11909.915     1000 
 2880000   0.81029736   -1.2668723    1.2142306 -0.052641671    0.1329064    11916.467     1000 
 2882000   0.82029696    -1.308283     1.229215 -0.079068024   0.14801707    11759.799     1000 
 2884000    0.8133211   -1.3454334    1.2187617   -0.1266717   0.11982093    12096.782     1000 
 2886000   0.82825693   -1.2351992     1.241143 0.0059437677   0.12539448    12093.767     1000 
 2888000   0.78431624   -1.2635837    1.1752979 -0.088285826   0.12820725    12025.903     1000 
 2890000   0.79127052   -1.2142959    1.1857189 -0.028577029   0.13478939    11971.581     1000 
 2892000   0.80733592   -1.3101685    1.2097929  -0.10037565   0.13549609    12012.892     1000 
 2894000   0.83630532    -1.346571    1.2532035 -0.093367492   0.12561054    12073.799     1000 
 2896000   0.78812468   -1.2394883    1.1810048 -0.058483516   0.12983847    11492.333     1000 
 2898000   0.78161391   -1.3170998    1.1712484  -0.14585135   0.12993943    11848.016     1000 
 2900000   0.82191928     -1.27621     1.231646 -0.044564011   0.10932551    12211.394     1000 
 2902000   0.76556578   -1.3543622    1.1472003  -0.20716186   0.13108515    11945.986     1000 
 2904000   0.77785365   -1.3626561    1.1656137   -0.1970424   0.13403124    12021.181     1000 
 2906000   0.79014851   -1.2822359    1.1840375 -0.098198391   0.13015785    12031.017     1000 
 2908000     0.825147   -1.2827187    1.2364828 -0.046235961   0.12682839     11878.66     1000 
 2910000   0.79743431   -1.2945101    1.1949553 -0.099554819   0.12750949    12195.674     1000 
 2912000   0.78974393   -1.2570369    1.1834313 -0.073605642   0.12772802    11704.434     1000 
 2914000   0.81312058   -1.2890652    1.2184612 -0.070603976   0.13149001    12028.278     1000 
 2916000   0.81389801   -1.2984269    1.2196262 -0.078800754   0.13072965     12174.96     1000 
 2918000   0.78368488    -1.286438    1.1743518  -0.11208617   0.13622877    11966.322     1000 
 2920000   0.79496845   -1.2585711    1.1912602 -0.067310848   0.13292211    11913.237     1000 
 2922000   0.78128304   -1.3233675    1.1707526  -0.15261485   0.12242856    12051.258     1000 
 2924000   0.80247015   -1.2908481    1.2025015 -0.088346581   0.13331958    12052.753     1000 
 2926000   0.82704559   -1.3038568    1.2393278 -0.064528969   0.12505093    12182.353     1000 
 2928000   0.78834762   -1.2652446    1.1813389 -0.083905643   0.13570131    11880.608     1000 
 2930000   0.79941743   -1.3059899     1.197927  -0.10806287   0.12135814    12100.988     1000 
 2932000   0.80774836   -1.2433975    1.2104109 -0.032986575   0.14004245    11638.203     1000 
 2934000   0.79911471   -1.3527178    1.1974734   -0.1552444   0.13777081     11716.22     1000 
 2936000   0.80461042   -1.3208793    1.2057087  -0.11517056   0.13328289    11964.507     1000 
 2938000    0.8025342   -1.2869935    1.2025975 -0.084395998   0.14053572    11799.843     1000 
 2940000     0.792959   -1.2873483    1.1882491 -0.099099243   0.13404303    11992.778     1000 
 2942000   0.82675129   -1.2299435    1.2388868 0.0089433511   0.12908055    11871.295     1000 
 2944000   0.78805306   -1.3087172    1.1808975  -0.12781965   0.14493274    11661.105     1000 
 2946000   0.79190693   -1.3224177    1.1866725  -0.13574517   0.12985337    11948.422     1000 
 2948000   0.76216141   -1.2772927    1.1420989  -0.13519386   0.13922401    11910.992     1000 
 2950000   0.82707999   -1.2850792    1.2393794 -0.045699819   0.13473422    12253.725     1000 
 2952000   0.77648289   -1.3508373    1.1635596  -0.18727767   0.13867256    12060.903     1000 
 2954000   0.75486894   -1.2620602    1.1311711  -0.13088906    0.1265248    11886.557     1000 
 2956000   0.80578047   -1.2698231     1.207462 -0.062361066   0.13896649     11853.75     1000 
 2958000   0.84945413   -1.3468704     1.272907 -0.073963379   0.12801984    12146.817     1000 
 2960000    0.8378322   -1.3182381    1.2554915 -0.062746576   0.13231093    11845.001     1000 
 2962000   0.81411112   -1.3393053    1.2199455   -0.1193598   0.13227455    11958.519     1000 
 2964000   0.85370231   -1.2556182    1.2792729  0.023654683   0.13171017    11987.616     1000 
 2966000   0.83241822   -1.2578249    1.2473787 -0.010446244   0.14041005    11738.474     1000 
 2968000   0.81711279   -1.3131054    1.2244435 -0.088661861   0.13157043    12039.062     1000 
 2970000   0.79314647   -1.3506148      1.18853  -0.16208483   0.12400494    12200.972     1000 
 2972000   0.78493782   -1.2403518    1.1762293 -0.064122527   0.13235508    11738.559     1000 
 2974000   0.77653135   -1.2723542    1.1636322  -0.10872198   0.12596342    11908.516     1000 
 2976000   0.82999631    -1.285184    1.2437495 -0.041434551   0.14657481    11687.784     1000 
 2978000   0.77836859    -1.347729    1.1663853  -0.18134368   0.11242809    12263.915     1000 
 2980000   0.76010181   -1.3114219    1.1390126  -0.17240931   0.12690948    11739.566     1000 
 2982000    0.7995603   -1.3083384    1.1981411  -0.11019732   0.13052655    12066.084     1000 
 2984000   0.80983545   -1.3481086    1.2135384  -0.13457017   0.12171341    12323.593     1000 
 2986000   0.80527233   -1.3279679    1.2067006   -0.1212673   0.13208946    11816.351     1000 
 2988000   0.81221709   -1.2664092    1.2171073  -0.04930189   0.13310241    11938.394     1000 
 2990000    0.7857647   -1.2307263    1.1774684 -0.053257902   0.12175328    12036.951     1000 
 2992000   0.78605121   -1.2948249    1.1778977  -0.11692718   0.12760771    11750.501     1000 
 2994000   0.82764981   -1.2523915    1.2402332  -0.01215824   0.13058441    11816.285     1000 
 2996000   0.78647539   -1.3113747    1.1785334  -0.13284131   0.13221258     12005.15     1000 
 2998000   0.78760759   -1.2994961      1.18023  -0.11926612   0.12948208    12080.281     1000 
 3000000   0.82164396   -1.2084509    1.2312335  0.022782546   0.13635555    11887.128     1000 
Loop time of 7306.8 on 1 procs for 3000000 steps with 1000 atoms

Performance: 177369.078 tau/day, 410.577 timesteps/s
100.0% CPU use with 1 MPI tasks x 1 OpenMP threads

MPI task timing breakdown:
Section |  min time  |  avg time  |  max time  |%varavg| %total
---------------------------------------------------------------
Pair    | 6585.5     | 6585.5     | 6585.5     |   0.0 | 90.13
Neigh   | 572.18     | 572.18     | 572.18     |   0.0 |  7.83
Comm    | 62.917     | 62.917     | 62.917     |   0.0 |  0.86
Output  | 0.027949   | 0.027949   | 0.027949   |   0.0 |  0.00
Modify  | 75.546     | 75.546     | 75.546     |   0.0 |  1.03
Other   |            | 10.62      |            |       |  0.15

Nlocal:        1000.00 ave        1000 max        1000 min
Histogram: 1 0 0 0 0 0 0 0 0 0
Nghost:        5869.00 ave        5869 max        5869 min
Histogram: 1 0 0 0 0 0 0 0 0 0
Neighs:        192192.0 ave      192192 max      192192 min
Histogram: 1 0 0 0 0 0 0 0 0 0

Total # of neighbors = 192192
Ave neighs/atom = 192.19200
Neighbor list builds = 150000
Dangerous builds not checked

Total wall time: 2:01:46
