LAMMPS (29 Sep 2021 - Update 2)
OMP_NUM_THREADS environment is not set. Defaulting to 1 thread. (src/comm.cpp:98)
  using 1 OpenMP thread(s) per MPI task
# ----------------------- Inicialização -----------------------

units			lj
atom_style 		atomic
dimension 		3
boundary 		p p p

# -------------------- Criação dos Átomos ---------------------

read_data 		topologia.txt
Reading data file ...
  orthogonal box = (0.0000000 0.0000000 0.0000000) to (21.540000 21.540000 21.540000)
  1 by 1 by 1 MPI processor grid
  reading atoms ...
  1000 atoms
  read_data CPU = 0.005 seconds

velocity 		all create ${temp} 87287 rot yes dist gaussian
velocity 		all create 0.60 87287 rot yes dist gaussian

# ------------------ Interação Interatômica -------------------

pair_style		table linear 2000
pair_coeff		1 1 force.table AA 10.0
WARNING: 3 of 2000 force values in table AA are inconsistent with -dE/dr.
WARNING:  Should only be flagged at inflection points (src/pair_table.cpp:465)
pair_coeff		1 2 force.table AB 10.0
WARNING: 1 of 2000 force values in table AB are inconsistent with -dE/dr.
WARNING:  Should only be flagged at inflection points (src/pair_table.cpp:465)
pair_coeff		2 2 force.table BB 10.0
pair_write		1 1 2000 r 0.008 10.0 table.check AA
Appending to table file table.check with DATE: 2023-06-17
Neighbor list info ...
  update every 1 steps, delay 10 steps, check yes
  max neighbors/atom: 2000, page size: 100000
  master list distance cutoff = 10.3
  ghost atom cutoff = 10.3
  binsize = 5.15, bins = 5 5 5
  1 neighbor lists, perpetual/occasional/extra = 1 0 0
  (1) pair table, perpetual
      attributes: half, newton on
      pair build: half/bin/atomonly/newton
      stencil: half/bin/3d
      bin: standard
pair_write		1 2 2000 r 0.008 10.0 table.check AB
Appending to table file table.check with DATE: 2023-06-17
pair_write		2 2 2000 r 0.008 10.0 table.check BB
Appending to table file table.check with DATE: 2023-06-17

neighbor 		0.3 bin
neigh_modify		every 20 delay 0 check no

# ------------------------- Ensemble --------------------------------------

fix 1			all npt temp ${temp} ${temp} 0.5 iso ${press} ${press} 5
fix 1			all npt temp 0.60 ${temp} 0.5 iso ${press} ${press} 5
fix 1			all npt temp 0.60 0.60 0.5 iso ${press} ${press} 5
fix 1			all npt temp 0.60 0.60 0.5 iso 0.13 ${press} 5
fix 1			all npt temp 0.60 0.60 0.5 iso 0.13 0.13 5

# ---------------------- Função de Distribuição Radial -----------------------

#compute RDF 		all rdf 2000 1 1 1 2 2 2
#fix 2 			all ave/time 1 2000 2000 c_RDF[*] file rdf.data mode vector

# ------------------------- Execução ---------------------------

timestep 		0.005
thermo_style		custom step temp pe ke etotal press vol atoms
thermo			2000
run			3000000
Per MPI rank memory allocation (min/avg/max) = 3.614 | 3.614 | 3.614 Mbytes
Step Temp PotEng KinEng TotEng Press Volume Atoms 
       0          0.6  -0.99611563       0.8991 -0.097015629   0.12795245    9993.9483     1000 
    2000   0.60140578   -1.7056508   0.90120656  -0.80444421   0.13726971    11336.324     1000 
    4000    0.6066077   -1.6898597   0.90900164  -0.78085811   0.13790354    11365.585     1000 
    6000    0.5932929   -1.6665061   0.88904941  -0.77745673   0.11745755     11696.79     1000 
    8000    0.5785792   -1.7023164   0.86700093  -0.83531546   0.13043642    11278.511     1000 
   10000   0.59094421   -1.6591753   0.88552989  -0.77364539   0.13226605    11423.226     1000 
   12000   0.60766742   -1.7550539   0.91058962   -0.8444643   0.11551738    11807.174     1000 
   14000    0.5887665    -1.678265   0.88226661  -0.79599837   0.12271441    11627.886     1000 
   16000   0.62199829   -1.6767608   0.93206443  -0.74469634   0.13090782    11584.341     1000 
   18000   0.58349236   -1.6377799   0.87436329  -0.76341656   0.13979306    11411.967     1000 
   20000   0.60971242   -1.7153753   0.91365406  -0.80172126   0.14970422    11327.922     1000 
   22000    0.5906536   -1.6206233   0.88509442  -0.73552887   0.13515072    11295.774     1000 
   24000   0.60316444   -1.6690283   0.90384191  -0.76518644   0.12803738    11495.385     1000 
   26000   0.59479036   -1.7535531   0.89129335  -0.86225975   0.12137901    11828.925     1000 
   28000   0.57181422   -1.6758151   0.85686361  -0.81895145   0.12497309     11666.75     1000 
   30000   0.60019322   -1.6613866   0.89938954  -0.76199704   0.12477391    11604.253     1000 
   32000   0.58269813   -1.6311436   0.87317315  -0.75797042   0.14316575    11399.097     1000 
   34000   0.58625377   -1.6800596   0.87850128  -0.80155835   0.12753973    11459.786     1000 
   36000    0.5886607   -1.6850218   0.88210807  -0.80291374   0.12900161    11563.715     1000 
   38000   0.61008167   -1.6793991   0.91420738  -0.76519168    0.1206024    11635.975     1000 
   40000   0.59687631   -1.6242138   0.89441915  -0.72979465   0.14102831    11145.661     1000 
   42000   0.62865654   -1.6564508   0.94204182  -0.71440898   0.12746089    11625.448     1000 
   44000    0.5941803   -1.6696738   0.89037918  -0.77929463   0.14727292    11404.098     1000 
   46000   0.58424154   -1.6705518   0.87548594  -0.79506583   0.12766795      11650.4     1000 
   48000   0.61204327   -1.6825413   0.91714683  -0.76539442    0.1234033    11594.218     1000 
   50000   0.62023781   -1.6587085   0.92942636  -0.72928219   0.13854873    11363.663     1000 
   52000   0.59211355   -1.7016938   0.88728216  -0.81441164   0.13544232    11466.821     1000 
   54000   0.62648075   -1.6461734   0.93878141  -0.70739197   0.13624262    11446.132     1000 
   56000   0.61443599   -1.6038007   0.92073233  -0.68306835   0.13779494    11438.485     1000 
   58000   0.57631598   -1.6703231    0.8636095  -0.80671357   0.13590012    11456.328     1000 
   60000   0.58853698   -1.6657773   0.88192266  -0.78385466   0.12246864    11626.333     1000 
   62000   0.58902584   -1.6684681   0.88265522  -0.78581292   0.12994176    11436.058     1000 
   64000   0.61266107   -1.6390129   0.91807262  -0.72094023   0.13278374    11419.646     1000 
   66000   0.60061182   -1.6476351   0.90001682  -0.74761832   0.13041459    11542.609     1000 
   68000    0.5852979   -1.6897488    0.8770689  -0.81267989   0.11611668    11552.092     1000 
   70000   0.60422293   -1.6548991   0.90542805  -0.74947103   0.12683489    11514.623     1000 
   72000   0.59593839   -1.6965739   0.89301368  -0.80356019   0.13096662    11500.707     1000 
   74000   0.59907773   -1.6565788   0.89771797  -0.75886086   0.13365718    11434.313     1000 
   76000   0.61387574   -1.6308969    0.9198928  -0.71100409   0.12890743    11602.717     1000 
   78000   0.61058994   -1.7123005   0.91496903  -0.79733146   0.12658976    11614.401     1000 
   80000   0.62110166   -1.6829352   0.93072083  -0.75221441   0.12530591      11546.5     1000 
   82000   0.58994427   -1.6599718   0.88403149  -0.77594034   0.11433836    11815.815     1000 
   84000   0.58764318    -1.682395    0.8805833  -0.80181168     0.132207    11408.375     1000 
   86000   0.61022662   -1.6809458   0.91442459  -0.76652123   0.12057135    11675.654     1000 
   88000   0.61222418   -1.6260323   0.91741794  -0.70861433   0.14218568    11383.419     1000 
   90000   0.59016765   -1.6649941   0.88436622  -0.78062784   0.12268111    11522.753     1000 
   92000    0.5933271    -1.611966   0.88910066  -0.72286534   0.13455045    11406.215     1000 
   94000   0.62091733   -1.6868068   0.93044462  -0.75636221   0.13635761    11426.089     1000 
   96000   0.60968647   -1.6205197   0.91361517  -0.70690452   0.14230269    11400.881     1000 
   98000   0.59730336   -1.6667443   0.89505908  -0.77168523   0.13619258    11290.015     1000 
  100000   0.60691728   -1.6922544   0.90946555  -0.78278881   0.12591124     11621.08     1000 
  102000   0.60858801   -1.6975605   0.91196914  -0.78559139   0.13133087    11508.352     1000 
  104000   0.59780255   -1.6437372   0.89580712  -0.74793008   0.13515405    11506.322     1000 
  106000    0.6126548   -1.7061879   0.91806322  -0.78812464   0.11718031    11707.245     1000 
  108000   0.59894372   -1.6713004   0.89751717  -0.77378323   0.12938181    11605.017     1000 
  110000    0.5967646   -1.6688853   0.89425175   -0.7746335   0.12288239    11384.136     1000 
  112000   0.58326256   -1.6827804   0.87401894  -0.80876149   0.11865734     11635.95     1000 
  114000   0.58732895   -1.6839693   0.88011243   -0.8038569   0.13517428     11459.37     1000 
  116000   0.62934843   -1.7031997   0.94307863  -0.76012104   0.13773691    11411.309     1000 
  118000    0.6051723   -1.6791667   0.90685069  -0.77231604   0.14797856    11360.864     1000 
  120000   0.60483957   -1.6956466   0.90635209  -0.78929451   0.12740671    11598.289     1000 
  122000   0.60548302    -1.660622   0.90731631  -0.75330572   0.13375678    11537.253     1000 
  124000   0.62867403   -1.6716779   0.94206803  -0.72960983   0.14091926    11527.905     1000 
  126000    0.6139879   -1.6789624   0.92006087   -0.7589015   0.12898955    11421.151     1000 
  128000   0.60318988   -1.6751424   0.90388003  -0.77126235   0.12326567    11659.206     1000 
  130000   0.57515961   -1.6686889   0.86187667  -0.80681223    0.1226522    11573.096     1000 
  132000   0.60479244   -1.6290831   0.90628146  -0.72280164   0.14256963    11374.084     1000 
  134000   0.58757882   -1.6884464   0.88048687  -0.80795949    0.1297819    11317.059     1000 
  136000   0.57215886   -1.6872055   0.85738005  -0.82982544   0.11676441    11625.066     1000 
  138000   0.60215068   -1.6502331   0.90232279  -0.74791029   0.11829041    11540.841     1000 
  140000   0.60196663   -1.6299128   0.90204699  -0.72786582   0.12923142    11398.228     1000 
  142000   0.59096308   -1.6959403   0.88555818  -0.81038216   0.13910383     11526.69     1000 
  144000   0.61124706   -1.6797065   0.91595372  -0.76375278   0.13521155    11394.973     1000 
  146000   0.60423783   -1.6630908   0.90545038  -0.75764041   0.13720478    11447.436     1000 
  148000   0.58127349   -1.6396444   0.87103833  -0.76860607   0.12743375    11431.907     1000 
  150000   0.63141209    -1.702655   0.94617101  -0.75648399   0.12116749    11589.186     1000 
  152000   0.60664888   -1.6598142   0.90906335  -0.75075086   0.14308311    11191.159     1000 
  154000   0.60939917   -1.6701806   0.91318466  -0.75699594   0.13095214    11527.362     1000 
  156000   0.58743672    -1.609523   0.88027392  -0.72924912   0.11956876    11771.291     1000 
  158000   0.61538046   -1.6457049   0.92214761  -0.72355726   0.12694846    11483.475     1000 
  160000   0.60874747   -1.7056965   0.91220809  -0.79348842   0.12859913    11491.169     1000 
  162000   0.60021128   -1.6884396   0.89941661  -0.78902298   0.13299654    11443.607     1000 
  164000     0.595344   -1.6898013   0.89212298  -0.79767836   0.12079103    11484.972     1000 
  166000   0.61719379   -1.6468216   0.92486489  -0.72195668    0.1465958    11418.242     1000 
  168000   0.62301026   -1.6901254   0.93358088  -0.75654454   0.13431422    11576.459     1000 
  170000   0.61247971   -1.7083816   0.91780084   -0.7905808   0.11851594    11722.203     1000 
  172000   0.61781842   -1.6901685    0.9258009  -0.76436758   0.13859437     11448.21     1000 
  174000   0.59705488   -1.7006102   0.89468674  -0.80592347   0.13276497     11462.62     1000 
  176000    0.5979288   -1.6784185    0.8959963  -0.78242222   0.13528855    11453.572     1000 
  178000   0.59712225   -1.6932069   0.89478768   -0.7984192   0.12161596      11417.2     1000 
  180000   0.60052009   -1.6669444   0.89987936  -0.76706503   0.13687476    11563.929     1000 
  182000   0.62200363    -1.657932   0.93207245  -0.72585958   0.13351151     11514.43     1000 
  184000   0.58386562   -1.6283062   0.87492263  -0.75338361   0.13865296    11354.694     1000 
  186000   0.59450744   -1.7091474    0.8908694  -0.81827798   0.12205457     11598.79     1000 
  188000   0.61395453    -1.649732   0.92001086  -0.72972116   0.11637239    11567.587     1000 
  190000   0.62474048   -1.6798739   0.93617361  -0.74370027   0.13165827    11410.185     1000 
  192000   0.60237168   -1.6408628   0.90265396  -0.73820882   0.13186691    11474.321     1000 
  194000   0.62026702   -1.6433433   0.92947012  -0.71387313   0.13032194    11579.174     1000 
  196000   0.58359873   -1.6882022    0.8745227  -0.81367951   0.13198853    11465.838     1000 
  198000    0.5993691   -1.6297406    0.8981546  -0.73158598   0.14756761    11349.273     1000 
  200000   0.60012423   -1.6630397   0.89928615  -0.76375351   0.13200853    11430.489     1000 
  202000   0.64094096   -1.7080928   0.96045002  -0.74764282   0.12774546    11500.509     1000 
  204000   0.59414872   -1.6582062   0.89033186  -0.76787429   0.12017849    11577.238     1000 
  206000   0.59384557   -1.7061837   0.88987759  -0.81630609   0.12401412    11581.138     1000 
  208000   0.62036183   -1.7238651   0.92961221  -0.79425288   0.13800498    11450.885     1000 
  210000   0.59826878   -1.6509634   0.89650577  -0.75445758   0.11830547    11505.378     1000 
  212000   0.59535625   -1.6809437   0.89214134  -0.78880234   0.13118948     11479.18     1000 
  214000   0.61818117   -1.6936868   0.92634448  -0.76734232   0.14978749    11409.236     1000 
  216000    0.5946208   -1.7014152   0.89103926  -0.81037597   0.13660682     11325.99     1000 
  218000   0.60686287   -1.5812478   0.90938401  -0.67186381    0.1341081    11468.212     1000 
  220000   0.59763304   -1.6257629   0.89555311  -0.73020977   0.13486333    11346.882     1000 
  222000   0.60695874   -1.7249189   0.90952768  -0.81539123   0.11637211    11705.361     1000 
  224000   0.61071822   -1.6066267   0.91516126  -0.69146549   0.12593359    11560.301     1000 
  226000   0.61557432    -1.653336   0.92243811  -0.73089791   0.12359227    11599.833     1000 
  228000   0.61023598   -1.6973278   0.91443862  -0.78288923   0.12833605    11534.582     1000 
  230000   0.56896191   -1.6915448   0.85258942  -0.83895536   0.12181973    11616.952     1000 
  232000   0.60379138   -1.6586878   0.90478139  -0.75390637   0.12610384    11437.799     1000 
  234000    0.5608174   -1.6676598   0.84038488  -0.82727495   0.12836375    11498.932     1000 
  236000    0.5914731   -1.6648336   0.88632244  -0.77851114   0.13022045    11477.986     1000 
  238000   0.56670447   -1.6535248   0.84920664  -0.80431812   0.13485625    11284.637     1000 
  240000   0.59294757   -1.5875826   0.88853193  -0.69905065   0.13129343    11338.752     1000 
  242000   0.58721387   -1.6595436   0.87993999  -0.77960365   0.11905982    11632.326     1000 
  244000   0.57869235   -1.6699328   0.86717049  -0.80276232   0.12540371    11378.161     1000 
  246000   0.60336102   -1.6616703   0.90413649  -0.75753383   0.12980711    11338.909     1000 
  248000   0.60879912   -1.6805724   0.91228549  -0.76828694   0.12598697    11577.317     1000 
  250000   0.61108152   -1.6299219   0.91570566  -0.71421627   0.12622036    11607.805     1000 
  252000   0.62025826   -1.6603587     0.929457  -0.73090173   0.12849359    11444.279     1000 
  254000   0.58172977   -1.6867531   0.87172206  -0.81503099   0.12353135    11434.794     1000 
  256000    0.6268991   -1.6600292    0.9394083  -0.72062089   0.12023722    11663.356     1000 
  258000   0.58656154    -1.677541   0.87896247  -0.79857854   0.12728502    11635.061     1000 
  260000   0.58191246   -1.6654977   0.87199582  -0.79350188   0.12514806    11543.681     1000 
  262000   0.58437165   -1.6600961   0.87568091  -0.78441521   0.13293945    11583.674     1000 
  264000   0.58736451   -1.6671128   0.88016572  -0.78694705   0.13144634    11492.982     1000 
  266000   0.60326377   -1.6378241   0.90399076  -0.73383334   0.12916853    11548.864     1000 
  268000   0.59228888   -1.7135073   0.88754489  -0.82596239    0.1298646    11542.993     1000 
  270000    0.6354547   -1.6644543   0.95222886  -0.71222543   0.13787984    11393.668     1000 
  272000   0.60499257   -1.6271763   0.90658136  -0.72059494   0.13193111    11545.307     1000 
  274000   0.58515493   -1.6116158   0.87685466  -0.73476112   0.12553886    11452.914     1000 
  276000   0.60448576   -1.6704089   0.90582191  -0.76458701   0.12020756    11594.432     1000 
  278000   0.59626938   -1.6740553   0.89350966  -0.78054561   0.12603626    11686.301     1000 
  280000   0.58304236   -1.6601928   0.87368898  -0.78650382   0.13145379     11506.31     1000 
  282000   0.61281886    -1.632198   0.91830906  -0.71388889   0.13109187    11425.716     1000 
  284000    0.5806864   -1.7050189   0.87015857   -0.8348603   0.12838603    11560.952     1000 
  286000   0.59683562   -1.6029384   0.89435817  -0.70858019   0.13307163    11414.249     1000 
  288000   0.62365071   -1.6737343    0.9345406  -0.73919367   0.14394649    11293.701     1000 
  290000   0.60749624   -1.6955407   0.91033311  -0.78520758   0.14642207    11465.358     1000 
  292000   0.60506784   -1.7044449   0.90669417   -0.7977507   0.14203168    11422.878     1000 
  294000   0.62326546    -1.684316   0.93396329  -0.75035276   0.13906372    11521.455     1000 
  296000   0.58072221   -1.6814979   0.87021223  -0.81128568   0.12798383    11526.108     1000 
  298000   0.59004794   -1.6565214   0.88418684  -0.77233455   0.11996106     11579.75     1000 
  300000   0.59973805   -1.6448131   0.89870746  -0.74610566   0.12857154    11488.486     1000 
  302000   0.60926662   -1.6694063   0.91298603  -0.75642025   0.12870734    11581.571     1000 
  304000   0.60454148   -1.6489363    0.9059054  -0.74303087   0.12488599    11542.466     1000 
  306000   0.58237062   -1.7082709   0.87268237  -0.83558849   0.11401794    11618.932     1000 
  308000   0.58998812   -1.6543026    0.8840972  -0.77020543     0.136909    11519.495     1000 
  310000    0.5841642   -1.6519199   0.87537006  -0.77654983   0.12303861    11426.579     1000 
  312000   0.60080114   -1.6549432   0.90030051   -0.7546427   0.13945659    11316.414     1000 
  314000   0.57992265   -1.6752642   0.86901409  -0.80625013   0.12907776    11450.125     1000 
  316000   0.61493719   -1.6757201   0.92148337  -0.75423674   0.13313588    11403.763     1000 
  318000   0.59936509    -1.622439   0.89814859  -0.72429039   0.13165147    11470.615     1000 
  320000   0.58820691   -1.6546187   0.88142806  -0.77319061   0.12838571    11477.648     1000 
  322000   0.60128788   -1.7176593   0.90102988  -0.81662944   0.12047527    11692.363     1000 
  324000   0.63473024   -1.6864587   0.95114326  -0.73531543   0.11820474    11504.599     1000 
  326000   0.59622092   -1.6797201   0.89343705  -0.78628302   0.14647011    11361.671     1000 
  328000   0.59218677    -1.650571   0.88739188  -0.76317912   0.12993119    11639.427     1000 
  330000   0.59472336   -1.6745417   0.89119295  -0.78334877   0.12415474    11618.632     1000 
  332000   0.60376661   -1.6511979   0.90474427  -0.74645362   0.12780997     11464.25     1000 
  334000   0.62708238   -1.6875409   0.93968294  -0.74785793   0.13449977    11422.584     1000 
  336000   0.59009717   -1.6941121    0.8842606  -0.80985148   0.12129189    11611.861     1000 
  338000   0.58352595   -1.6927994   0.87441363  -0.81838581   0.13443106    11494.444     1000 
  340000   0.59401112   -1.7025132   0.89012567  -0.81238753    0.1300605    11546.148     1000 
  342000   0.59368738    -1.644004   0.88964054  -0.75436342   0.12759148    11540.159     1000 
  344000   0.55242703   -1.6977657    0.8278119  -0.86995378   0.12158901    11548.493     1000 
  346000   0.59000328   -1.6726582   0.88411992  -0.78853827   0.12714988    11562.693     1000 
  348000   0.61214596   -1.6675818   0.91730072  -0.75028112   0.12347727    11373.375     1000 
  350000   0.58261253   -1.6937701   0.87304488  -0.82072521   0.12518523    11587.956     1000 
  352000    0.5899526   -1.6065241   0.88404398  -0.72248009   0.13287504     11359.87     1000 
  354000   0.59099804   -1.6896909   0.88561056  -0.80408037   0.14453481    11253.461     1000 
  356000   0.59548403      -1.7044   0.89233282  -0.81206722   0.13330969    11483.837     1000 
  358000   0.57849085   -1.6442998   0.86686854  -0.77743129   0.13314108    11451.798     1000 
  360000   0.60488622   -1.6510734   0.90642201  -0.74465142   0.13978973    11329.778     1000 
  362000   0.59415166    -1.633051   0.89033626  -0.74271474   0.13272112    11544.529     1000 
  364000   0.60277197   -1.6513036   0.90325379  -0.74804981   0.12241479    11525.495     1000 
  366000   0.60188273   -1.6515356   0.90192127  -0.74961437   0.13341445    11495.516     1000 
  368000   0.58076098   -1.6888592   0.87027032  -0.81858886   0.12205713    11505.175     1000 
  370000   0.56316973   -1.6822961   0.84390984  -0.83838622   0.12667691    11532.406     1000 
  372000   0.60929997   -1.6284857   0.91303601  -0.71544974   0.12830393    11591.702     1000 
  374000   0.59743712   -1.7020185   0.89525953  -0.80675894   0.12012104    11809.778     1000 
  376000   0.61601477   -1.7696693   0.92309813  -0.84657119   0.13493219    11613.254     1000 
  378000   0.59665865   -1.7076596   0.89409299  -0.81356662   0.12987702    11409.864     1000 
  380000   0.57320758   -1.6521915   0.85895155  -0.79323998   0.13405599    11555.298     1000 
  382000   0.57672375   -1.6422247   0.86422054  -0.77800414   0.12326726    11469.534     1000 
  384000   0.62196069   -1.6940688    0.9320081  -0.76206068   0.12932184    11645.411     1000 
  386000   0.60634958   -1.6735256   0.90861484  -0.76491078   0.12834275    11454.253     1000 
  388000   0.59990875   -1.6649207   0.89896326  -0.76595746   0.13200521    11296.203     1000 
  390000   0.62357418   -1.6947578    0.9344259  -0.76033193   0.12447863    11590.541     1000 
  392000   0.60394532   -1.6574924   0.90501206  -0.75248037   0.13738413    11366.047     1000 
  394000   0.59979551   -1.6170973   0.89879358  -0.71830374   0.13759481    11370.556     1000 
  396000   0.60003387   -1.5876023   0.89915075  -0.68845154   0.12848224    11534.132     1000 
  398000   0.58544421   -1.6446526   0.87728815   -0.7673644   0.13724053    11360.624     1000 
  400000   0.61513906   -1.6359562   0.92178589  -0.71417031   0.13282616    11535.032     1000 
  402000   0.58807104    -1.645713   0.88122446  -0.76448857   0.12572413     11461.48     1000 
  404000   0.58604225   -1.6298314   0.87818431  -0.75164711   0.12850419    11462.989     1000 
  406000   0.60385507    -1.707474   0.90487682  -0.80259721   0.12490496    11688.907     1000 
  408000   0.56034056    -1.656826   0.83967033  -0.81715569   0.12888593    11462.747     1000 
  410000   0.60435518   -1.6576778   0.90562624  -0.75205154   0.12316744    11503.876     1000 
  412000   0.58749358    -1.722977   0.88035913  -0.84261789   0.12993931    11517.552     1000 
  414000   0.60023554   -1.7010682   0.89945295  -0.80161524   0.13308575    11404.723     1000 
  416000   0.60659205   -1.6763193   0.90897819  -0.76734106   0.12944235     11511.35     1000 
  418000   0.60587959    -1.695353   0.90791057  -0.78744241   0.13871795    11434.093     1000 
  420000   0.59658169   -1.6309559   0.89397766  -0.73697819   0.13864431    11242.508     1000 
  422000    0.5997513   -1.6213458   0.89872732  -0.72261845   0.13337348    11484.432     1000 
  424000   0.62873922   -1.7037576   0.94216572  -0.76159184   0.12183801     11641.36     1000 
  426000   0.57581191   -1.6730639   0.86285415  -0.81020971   0.12340221    11520.997     1000 
  428000   0.59504038     -1.67736   0.89166802  -0.78569197   0.12553321    11656.233     1000 
  430000    0.6048572   -1.6549249   0.90637851  -0.74854641   0.13166174    11424.371     1000 
  432000   0.60549269    -1.661177    0.9073308  -0.75384617   0.12451271    11711.897     1000 
  434000   0.63330178   -1.7260872   0.94900272  -0.77708448   0.12141213    11728.934     1000 
  436000   0.57200558   -1.6631219   0.85715036  -0.80597153   0.12975477    11505.006     1000 
  438000   0.62243316   -1.6054789    0.9327161  -0.67276285   0.14868117    11378.749     1000 
  440000   0.59620836   -1.6479773   0.89341822  -0.75455909   0.11897729    11621.927     1000 
  442000   0.64455062    -1.683609    0.9658591  -0.71774986   0.12821271    11726.334     1000 
  444000   0.60289415   -1.6197714   0.90343688  -0.71633453   0.12739478    11505.806     1000 
  446000   0.59271385   -1.6866714    0.8881817   -0.7984897   0.13457106    11584.905     1000 
  448000   0.60782885   -1.6406898   0.91083153  -0.72985831   0.14224001    11380.307     1000 
  450000   0.61734965   -1.6473952   0.92509845  -0.72229675   0.14470318    11371.791     1000 
  452000   0.59718624    -1.632249   0.89488358  -0.73736544   0.13079121    11406.472     1000 
  454000   0.58201024   -1.6661399   0.87214235  -0.79399752   0.14069582    11380.336     1000 
  456000   0.58026135   -1.6289797   0.86952164   -0.7594581   0.12574955    11689.303     1000 
  458000   0.59116074   -1.6550419   0.88585436  -0.76918749   0.13243756    11310.939     1000 
  460000   0.58907318   -1.6696142   0.88272616    -0.786888   0.11576495    11693.134     1000 
  462000   0.58489029   -1.7318835   0.87645809  -0.85542537   0.12175894     11567.27     1000 
  464000   0.58166492   -1.6598318   0.87162489  -0.78820687   0.13007321    11431.486     1000 
  466000   0.60994913   -1.6972588   0.91400877  -0.78325001   0.11717686    11727.991     1000 
  468000   0.61851136   -1.7000444   0.92683927  -0.77320518   0.12855705    11526.811     1000 
  470000    0.6247019   -1.6874341    0.9361158  -0.75131831   0.12061614    11564.272     1000 
  472000   0.59799812   -1.7213805   0.89610018   -0.8252803   0.12635907    11382.615     1000 
  474000   0.62102347   -1.6326632   0.93060368  -0.70205954   0.13968545    11394.726     1000 
  476000   0.61257893   -1.7219875   0.91794953  -0.80403793   0.12889483    11529.352     1000 
  478000   0.58241694   -1.6846203   0.87275178  -0.81186854      0.12106    11386.362     1000 
  480000   0.59325041   -1.6528023   0.88898573  -0.76381656   0.12149792    11498.153     1000 
  482000   0.60116338   -1.6541153   0.90084332  -0.75327199   0.12735877    11447.989     1000 
  484000   0.60050057   -1.6642554    0.8998501  -0.76440528   0.13686677    11367.241     1000 
  486000   0.62127289   -1.6711113   0.93097743  -0.74013392   0.12846015    11535.478     1000 
  488000   0.60482212   -1.6666123   0.90632595   -0.7602863   0.12736716    11667.663     1000 
  490000   0.62011639   -1.6957372   0.92924441  -0.76649275   0.13630397     11453.24     1000 
  492000   0.62070474   -1.6956894   0.93012605  -0.76556335    0.1197329    11572.774     1000 
  494000   0.57838811   -1.7142497   0.86671458  -0.84753507   0.11208515    11564.843     1000 
  496000   0.56279951   -1.6658658   0.84335506  -0.82251074   0.12602066    11589.001     1000 
  498000   0.58843144   -1.7083186   0.88176452  -0.82655409   0.11045344    11720.098     1000 
  500000   0.60259152   -1.6264074   0.90298339  -0.72342399   0.12510664    11408.545     1000 
  502000   0.61415965    -1.671641   0.92031823  -0.75132276   0.12205693    11528.289     1000 
  504000   0.59214196   -1.6723839   0.88732472  -0.78505914    0.1293815    11559.387     1000 
  506000   0.61365096   -1.7319382   0.91955597  -0.81238224   0.13482985     11612.78     1000 
  508000   0.58438609   -1.6662955   0.87570256  -0.79059289   0.11974874    11502.511     1000 
  510000   0.60444922   -1.6873118   0.90576716   -0.7815446   0.12828676    11538.042     1000 
  512000    0.5748623   -1.6779851   0.86143115  -0.81655391   0.13019828    11563.103     1000 
  514000   0.60581946    -1.639404   0.90782046  -0.73158354   0.12437252    11500.252     1000 
  516000    0.5929901   -1.7235537   0.88859567  -0.83495801   0.12735143    11569.581     1000 
  518000   0.59377984   -1.7088356   0.88977909   -0.8190565   0.13439649    11500.689     1000 
  520000   0.61183738   -1.7004544   0.91683831  -0.78361612   0.12161235    11578.944     1000 
  522000   0.59979522    -1.681364   0.89879313  -0.78257088   0.13189901    11523.359     1000 
  524000   0.58977062    -1.699169   0.88377128  -0.81539772   0.12423627    11708.453     1000 
  526000   0.59589018   -1.7032975   0.89294144  -0.81035608   0.12240299    11816.974     1000 
  528000   0.58966199   -1.6536757   0.88360849  -0.77006723    0.1432579    11259.589     1000 
  530000   0.58819219   -1.6336168   0.88140599  -0.75221082   0.12760597    11534.413     1000 
  532000   0.59874499   -1.6523142   0.89721937  -0.75509486   0.13264002    11552.442     1000 
  534000   0.60391192   -1.6884416   0.90496202  -0.78347961   0.12126627     11560.51     1000 
  536000   0.59107381   -1.6293225    0.8857241  -0.74359835   0.12892492    11567.484     1000 
  538000   0.60875945   -1.6883314   0.91222604  -0.77610539   0.12510604    11687.186     1000 
  540000   0.62039854   -1.6470182   0.92966721  -0.71735097   0.13737797    11319.102     1000 
  542000   0.57529847   -1.6605527   0.86208475  -0.79846799   0.12932097    11548.624     1000 
  544000   0.60345529   -1.6995479   0.90427775  -0.79527011   0.12367569    11508.829     1000 
  546000    0.5978601   -1.7010237   0.89589337  -0.80513034   0.13112961    11303.787     1000 
  548000   0.59177349     -1.66757   0.88677258   -0.7807974   0.13361633    11436.011     1000 
  550000   0.60075382   -1.6367324    0.9002296  -0.73650277   0.13810703    11294.854     1000 
  552000   0.56631472   -1.7024665   0.84862261  -0.85384389   0.12637392     11572.73     1000 
  554000   0.60918433   -1.6973131   0.91286272  -0.78445034   0.13337946    11398.669     1000 
  556000   0.62278368   -1.6801016   0.93324134  -0.74686029   0.13509749    11508.292     1000 
  558000   0.57899906   -1.6629806    0.8676301  -0.79535052   0.12742491    11411.256     1000 
  560000   0.62032441   -1.6641732   0.92955613   -0.7346171   0.13325455    11593.858     1000 
  562000   0.59470867   -1.6642383   0.89117094  -0.77306736   0.13252777    11584.985     1000 
  564000   0.59030993   -1.6670879   0.88457944  -0.78250848    0.1174973    11684.611     1000 
  566000   0.60460087   -1.6500764    0.9059944  -0.74408196    0.1274962    11523.953     1000 
  568000   0.61373552   -1.6932764   0.91968267   -0.7735937   0.12459895    11811.901     1000 
  570000   0.60627118   -1.6758071   0.90849736  -0.76730972   0.13316218    11426.549     1000 
  572000   0.60654337   -1.7037685   0.90890524  -0.79486329   0.12681132    11610.275     1000 
  574000   0.57053876   -1.6362786   0.85495233  -0.78132625   0.11743488    11474.918     1000 
  576000   0.61769778   -1.6773319   0.92562013   -0.7517118   0.13395034    11534.067     1000 
  578000   0.60463269    -1.688656   0.90604208  -0.78261396   0.13492736     11459.29     1000 
  580000   0.57224763   -1.6894158   0.85751308  -0.83190276    0.1311299    11558.625     1000 
  582000   0.58941215   -1.6654848    0.8832341  -0.78225074   0.12168612    11675.597     1000 
  584000   0.60836018   -1.7007957   0.91162773  -0.78916796   0.13263835    11629.136     1000 
  586000    0.5939154   -1.7006377   0.88998222  -0.81065545   0.11991085     11749.88     1000 
  588000   0.58753308   -1.6512789   0.88041832  -0.77086058   0.12653082    11599.369     1000 
  590000   0.58551422   -1.6724677   0.87739306  -0.79507463   0.12860017    11359.297     1000 
  592000   0.60537517   -1.6521692   0.90715469   -0.7450145   0.13713744    11507.365     1000 
  594000   0.59865773   -1.6459878   0.89708861  -0.74889924   0.13096766    11427.087     1000 
  596000   0.58613235    -1.651645   0.87831932  -0.77332564    0.1213946    11380.199     1000 
  598000    0.6074228   -1.6840606   0.91022306  -0.77383758   0.12282425    11598.253     1000 
  600000   0.57507844   -1.7488861   0.86175504  -0.88713102    0.1216542    11657.276     1000 
  602000   0.59479629   -1.6568678   0.89130224  -0.76556553   0.13592529    11320.549     1000 
  604000   0.58872866   -1.6502066    0.8822099  -0.76799666   0.13308771    11333.081     1000 
  606000    0.6043419   -1.7423103   0.90560634    -0.836704    0.1348956    11564.183     1000 
  608000   0.61455199   -1.7131098   0.92090616  -0.79220362   0.12901741    11465.244     1000 
  610000   0.58753013   -1.6478626    0.8804139  -0.76744871   0.12225749    11481.783     1000 
  612000   0.59482905    -1.696956   0.89135133  -0.80560468   0.12737589    11567.012     1000 
  614000   0.59036725   -1.6611197   0.88466533  -0.77645436   0.14297821    11329.271     1000 
  616000   0.60044839   -1.6624366   0.89977191  -0.76266473   0.14206268    11440.326     1000 
  618000   0.60167086   -1.7088077   0.90160379  -0.80720388   0.12185632    11557.042     1000 
  620000   0.57682686   -1.6858172   0.86437505  -0.82144211   0.13060296    11470.561     1000 
  622000   0.59594726   -1.6816841   0.89302697  -0.78865714   0.11713672    11604.906     1000 
  624000   0.61524532   -1.6845247   0.92194512  -0.76257955   0.13098667    11557.495     1000 
  626000   0.57782561   -1.6916328   0.86587168  -0.82576114   0.12019194    11582.613     1000 
  628000   0.56833305   -1.6501482   0.85164707  -0.79850108    0.1263035    11548.611     1000 
  630000   0.59689244   -1.6460066   0.89444332  -0.75156329   0.13638075    11409.308     1000 
  632000   0.60776595   -1.6134063   0.91073727  -0.70266904   0.13135486    11479.154     1000 
  634000   0.61531973    -1.623859   0.92205661  -0.70180238   0.13579193    11551.297     1000 
  636000   0.61216862   -1.6756869   0.91733468  -0.75835218   0.12271586    11504.142     1000 
  638000   0.61372495   -1.7058598   0.91966683  -0.78619295   0.13065842    11608.181     1000 
  640000   0.58329552   -1.7005025   0.87406834  -0.82643412   0.12510662    11520.489     1000 
  642000   0.59877252   -1.6179545   0.89726061  -0.72069387   0.12479083    11489.234     1000 
  644000   0.61019984   -1.6582711   0.91438446  -0.74388667   0.12310917    11611.376     1000 
  646000   0.61950972   -1.6536184   0.92833532   -0.7252831   0.13486326    11437.934     1000 
  648000   0.60606907   -1.6544766   0.90819451  -0.74628214   0.12178735     11519.83     1000 
  650000   0.59904164   -1.6343031   0.89766389   -0.7366392   0.12714629    11503.893     1000 
  652000   0.59262489   -1.6275414   0.88804839  -0.73949296   0.12126939    11646.573     1000 
  654000   0.62414938   -1.7072021   0.93528785   -0.7719143   0.13441272     11493.47     1000 
  656000   0.62480551   -1.6814577   0.93627106  -0.74518664   0.14101754    11504.544     1000 
  658000   0.57544946   -1.6237526   0.86231102  -0.76144154   0.12268258     11511.99     1000 
  660000   0.59552938   -1.7133145   0.89240078  -0.82091372   0.11911206    11602.003     1000 
  662000   0.60665487   -1.6496392   0.90907233  -0.74056688   0.12919572    11538.467     1000 
  664000   0.59337835   -1.5991879   0.88917746   -0.7100104   0.13958069     11274.31     1000 
  666000   0.59880392   -1.6610174   0.89730767  -0.76370976   0.12859297    11477.597     1000 
  668000   0.60579253   -1.7428378   0.90778011  -0.83505768   0.13271357    11530.017     1000 
  670000   0.62255958   -1.6438121   0.93290554  -0.71090658   0.13457488    11291.535     1000 
  672000    0.6008592   -1.6234515   0.90038752  -0.72306402   0.12128485    11475.643     1000 
  674000   0.59253843   -1.6691922   0.88791883  -0.78127335   0.13012891    11517.494     1000 
  676000   0.60899883   -1.6570654   0.91258474  -0.74448064     0.134531    11438.606     1000 
  678000   0.61473896   -1.6685333   0.92118633  -0.74734694   0.12923345    11645.806     1000 
  680000   0.59576754   -1.6836618   0.89275766  -0.79090417   0.14260518    11344.004     1000 
  682000   0.60110732   -1.6322457   0.90075932  -0.73148641   0.13518737    11259.961     1000 
  684000    0.5993888   -1.7284414   0.89818411  -0.83025733   0.13347036    11414.715     1000 
  686000   0.57218829   -1.6887114   0.85742415  -0.83128722   0.11412682    11510.517     1000 
  688000   0.59433941   -1.6893322   0.89061761  -0.79871463    0.1238737    11724.758     1000 
  690000   0.61438802   -1.6413147   0.92066045  -0.72065423   0.13529586    11418.846     1000 
  692000    0.6005684   -1.7096573   0.89995175  -0.80970552   0.13368448    11473.666     1000 
  694000   0.57874922   -1.6887812   0.86725571  -0.82152553   0.12031486     11607.22     1000 
  696000   0.62739459   -1.6494467   0.94015079  -0.70929595     0.132921    11579.196     1000 
  698000   0.58866262   -1.6805386   0.88211094   -0.7984277   0.13330773    11399.756     1000 
  700000   0.60411707   -1.6841364   0.90526944  -0.77886693   0.12546097    11586.415     1000 
  702000   0.61593838   -1.6316125   0.92298367  -0.70862887   0.13972977    11338.691     1000 
  704000   0.59140766     -1.69182   0.88622437  -0.80559567    0.1293885    11570.177     1000 
  706000   0.61852338   -1.6886393   0.92685728    -0.761782   0.12988281    11504.521     1000 
  708000   0.60299686   -1.6128962   0.90359079  -0.70930541   0.12412696    11599.424     1000 
  710000   0.62329128   -1.6768321   0.93400199  -0.74283012    0.1337718    11631.971     1000 
  712000   0.60671577    -1.721821   0.90916359  -0.81265741    0.1315886    11357.371     1000 
  714000   0.57979789   -1.6764136   0.86882713  -0.80758645   0.13777698    11375.657     1000 
  716000   0.62785857   -1.6416285   0.94084606   -0.7007824   0.12513323    11690.483     1000 
  718000   0.60564144   -1.6731355   0.90755369  -0.76558184    0.1261503    11525.101     1000 
  720000   0.62977474   -1.6525242   0.94371744  -0.70880681   0.13797339    11496.949     1000 
  722000   0.61597642   -1.6358177   0.92304067  -0.71277703   0.14222992    11427.006     1000 
  724000   0.58723616   -1.6544394   0.87997339  -0.77446604   0.13495367    11562.626     1000 
  726000   0.61516535   -1.6929874   0.92182527  -0.77116209    0.1420103    11288.226     1000 
  728000   0.59761628   -1.6647921     0.895528  -0.76926406   0.14143787    11384.837     1000 
  730000   0.59017472   -1.6591145   0.88437681  -0.77473766   0.12504367     11577.07     1000 
  732000   0.60388479   -1.6894504   0.90492136  -0.78452908   0.12353565    11474.118     1000 
  734000   0.61053678   -1.6491659   0.91488937  -0.73427656   0.13813151    11442.809     1000 
  736000   0.58844607   -1.6937309   0.88178644  -0.81194446   0.13702126    11395.213     1000 
  738000      0.59181   -1.6801418   0.88682729  -0.79331448   0.13700869    11366.112     1000 
  740000   0.57821434   -1.6934101   0.86645419  -0.82695592   0.12892904    11407.827     1000 
  742000   0.61393883   -1.6600482   0.91998733  -0.74006083    0.1227583     11595.69     1000 
  744000   0.60424573   -1.6593974   0.90546222  -0.75393522   0.12361136    11642.604     1000 
  746000    0.6334557   -1.6803551   0.94923337  -0.73112177   0.12677943    11755.724     1000 
  748000   0.60010951    -1.649814   0.89926411   -0.7505499   0.14057247    11340.118     1000 
  750000   0.61837261   -1.6427032   0.92663136  -0.71607185   0.12948943    11421.352     1000 
  752000   0.62596518   -1.6601304   0.93800881  -0.72212155   0.12519446    11646.274     1000 
  754000   0.59089213   -1.6677907   0.88545186  -0.78233882   0.11933336    11678.372     1000 
  756000   0.59888202    -1.693877   0.89742471  -0.79645234   0.12566886    11545.751     1000 
  758000   0.60870472     -1.67957   0.91214402  -0.76742596   0.12130114    11584.489     1000 
  760000   0.59020398   -1.6320675   0.88442066  -0.74764682   0.13317178    11477.029     1000 
  762000   0.62380094   -1.6931079   0.93476571  -0.75834219   0.13254923    11384.956     1000 
  764000   0.56554305    -1.651966   0.84746627  -0.80449972   0.11995749    11571.661     1000 
  766000   0.60731756   -1.6599365   0.91006536  -0.74987115   0.13173261    11510.995     1000 
  768000   0.58342817   -1.6752632   0.87426711  -0.80099609   0.11752928    11506.278     1000 
  770000   0.60406514   -1.6983511   0.90519162  -0.79315944   0.12929796    11570.387     1000 
  772000   0.62178177   -1.6387792   0.93173998  -0.70703924   0.12778298    11635.135     1000 
  774000   0.61007703   -1.5925581   0.91420043  -0.67835768   0.13827413    11449.737     1000 
  776000   0.58479596   -1.6187158   0.87631674  -0.74239907    0.1327564    11335.233     1000 
  778000   0.61204794   -1.6760844   0.91715385  -0.75893058   0.13784996    11300.864     1000 
  780000   0.61738233   -1.6780489   0.92514742  -0.75290148   0.12353526     11640.39     1000 
  782000    0.6078167   -1.6955195   0.91081333  -0.78470617   0.12842406    11474.446     1000 
  784000   0.58784649   -1.6198907   0.88088797  -0.73900269    0.1294825    11404.487     1000 
  786000   0.60630953   -1.6661237   0.90855484   -0.7575689   0.12655705    11451.889     1000 
  788000   0.59501219   -1.6578664   0.89162576  -0.76624062   0.12763788    11594.224     1000 
  790000   0.59560198   -1.6349021   0.89250956  -0.74239249   0.14267917    11386.237     1000 
  792000   0.60113544   -1.6379833   0.90080145  -0.73718185   0.13477379     11473.76     1000 
  794000   0.58882678   -1.7024098   0.88235693  -0.82005285   0.12769501    11676.076     1000 
  796000   0.58409013   -1.6910695   0.87525906  -0.81581044   0.12595818    11691.981     1000 
  798000   0.59010748   -1.6469204   0.88427606  -0.76264432   0.11836158    11490.671     1000 
  800000   0.60743273   -1.6899748   0.91023794  -0.77973681   0.13128204     11402.45     1000 
  802000   0.62109976   -1.6866037     0.930718   -0.7558857   0.13376206    11393.243     1000 
  804000   0.59933206   -1.7129026   0.89809909  -0.81480347   0.13004558    11348.485     1000 
  806000   0.58793536   -1.6517303   0.88102114  -0.77070913   0.11675149     11601.88     1000 
  808000    0.6035804   -1.6764541   0.90446523  -0.77198885   0.13312716    11430.866     1000 
  810000   0.59611927   -1.6513025   0.89328473  -0.75801778    0.1345201    11186.392     1000 
  812000   0.62314799   -1.6523947   0.93378727  -0.71860741   0.13459665    11385.089     1000 
  814000   0.59799113   -1.6844301    0.8960897   -0.7883404   0.11847978     11653.76     1000 
  816000   0.58676673   -1.6867896   0.87926994  -0.80751969   0.12293952    11734.401     1000 
  818000   0.62300752   -1.6634712   0.93357676  -0.72989447   0.13471375    11443.922     1000 
  820000   0.60823947   -1.6751206   0.91144685  -0.76367371   0.13581557    11475.151     1000 
  822000   0.59202513   -1.6613546   0.88714966  -0.77420498   0.13099998    11486.831     1000 
  824000   0.58966754   -1.6680704   0.88361681  -0.78445362    0.1306692     11535.88     1000 
  826000   0.59592229   -1.6274957   0.89298955  -0.73450617   0.11789918    11733.924     1000 
  828000   0.59603011   -1.6692367   0.89315111  -0.77608556   0.13624547     11471.16     1000 
  830000   0.59082617   -1.7060361   0.88535301  -0.82068308   0.12668618    11568.023     1000 
  832000   0.63692645   -1.6759506   0.95443428  -0.72151628    0.1304736    11577.059     1000 
  834000   0.57426519   -1.6156608   0.86053639  -0.75512439   0.13260071    11513.969     1000 
  836000   0.60908718   -1.6950474   0.91271714  -0.78233023   0.12395021    11680.768     1000 
  838000   0.61511078   -1.7291892    0.9217435  -0.80744565   0.11930066    11626.003     1000 
  840000    0.5970347   -1.7052544   0.89465649   -0.8105979   0.13367712    11400.783     1000 
  842000    0.6251611   -1.6907116   0.93680391  -0.75390772   0.13509084    11446.811     1000 
  844000   0.58670834   -1.7000534   0.87918245  -0.82087096   0.12927786    11573.621     1000 
  846000   0.59965511   -1.6383408   0.89858318  -0.73975758   0.14040034    11376.087     1000 
  848000   0.62230052   -1.6558285   0.93251733  -0.72331115   0.13671899    11535.978     1000 
  850000   0.58289168   -1.7099533   0.87346318  -0.83649012   0.14051218    11426.573     1000 
  852000   0.59349444   -1.6898575   0.88935141   -0.8005061   0.13638514    11429.819     1000 
  854000   0.59555038   -1.6601803   0.89243225  -0.76774804   0.13414073    11412.852     1000 
  856000   0.59530308   -1.6922627   0.89206167  -0.80020104   0.13645461    11475.691     1000 
  858000   0.62565079   -1.6233126    0.9375377  -0.68577487   0.12411904    11653.502     1000 
  860000   0.58885311   -1.6717537   0.88239638   -0.7893573   0.13773592    11395.761     1000 
  862000   0.60403827   -1.7024184   0.90515135  -0.79726702    0.1247229     11416.78     1000 
  864000   0.60541665   -1.7098772   0.90721686  -0.80266034   0.13376871    11457.847     1000 
  866000   0.58861568    -1.653732    0.8820406  -0.77169144   0.11621996     11579.19     1000 
  868000   0.58295892   -1.6684403   0.87356394  -0.79487634   0.12588248     11590.76     1000 
  870000   0.59495872   -1.6182527   0.89154564  -0.72670701   0.13121743    11355.143     1000 
  872000   0.61955886   -1.6923577   0.92840896  -0.76394877   0.12367327    11443.603     1000 
  874000   0.59908184   -1.6953007   0.89772413  -0.79757656   0.13015522     11627.12     1000 
  876000   0.61652364   -1.6366721   0.92386067  -0.71281141   0.12603577    11389.699     1000 
  878000   0.61283853   -1.6653774   0.91833854  -0.74703882    0.1308304    11529.808     1000 
  880000   0.58130187   -1.7240668   0.87108086  -0.85298599   0.12068129    11724.166     1000 
  882000   0.57737186   -1.7182274   0.86519173  -0.85303571   0.12807707    11463.852     1000 
  884000   0.59492718    -1.665504   0.89149838  -0.77400559   0.13296099    11357.716     1000 
  886000   0.58860991   -1.6890817   0.88203195  -0.80704972   0.12093332    11688.766     1000 
  888000   0.60925168    -1.692096   0.91296364   -0.7791324   0.12334931    11717.002     1000 
  890000   0.57002236   -1.6642107   0.85417851   -0.8100322   0.13120348    11400.852     1000 
  892000   0.61525291   -1.6460592   0.92195649  -0.72410268   0.12513622     11600.06     1000 
  894000   0.60382133   -1.6629393   0.90482627  -0.75811302   0.12336248    11554.808     1000 
  896000   0.61519633   -1.6036157   0.92187171  -0.68174396   0.12957222    11318.847     1000 
  898000   0.61049413   -1.6946566   0.91482545  -0.77983115   0.13042939    11464.259     1000 
  900000   0.60345849   -1.6754987   0.90428255  -0.77121616   0.13140425    11399.167     1000 
  902000   0.62423374    -1.667409   0.93541425  -0.73199473    0.1295504    11507.715     1000 
  904000   0.61661914   -1.6515575   0.92400379  -0.72755368   0.13721737    11415.753     1000 
  906000    0.6075958   -1.7155557    0.9104823  -0.80507336   0.13150426    11678.623     1000 
  908000     0.601194   -1.6570196   0.90088921  -0.75613037   0.12011291    11501.401     1000 
  910000   0.61231889   -1.6548782   0.91755986  -0.73731838   0.13888092    11458.493     1000 
  912000   0.60492888    -1.682708   0.90648593  -0.77622211   0.13590152    11358.637     1000 
  914000    0.5976131   -1.6306854   0.89552323  -0.73516221    0.1360791    11331.696     1000 
  916000   0.60055219    -1.650981   0.89992746  -0.75105353    0.1221799    11572.329     1000 
  918000    0.5822045   -1.6606187   0.87243344  -0.78818527   0.12698568     11308.51     1000 
  920000   0.60600359    -1.681755   0.90809638  -0.77365859   0.12666807    11548.312     1000 
  922000   0.60523608   -1.6371347   0.90694627  -0.73018846   0.12000567    11781.381     1000 
  924000   0.59031096   -1.7077306   0.88458097  -0.82314961   0.12589141    11381.155     1000 
  926000   0.58452857   -1.6660734   0.87591606  -0.79015738   0.11624876    11788.914     1000 
  928000   0.59299911   -1.6348854   0.88860917  -0.74627619   0.13172576    11438.936     1000 
  930000   0.61778995   -1.6747552   0.92575824  -0.74899692    0.1350254     11377.68     1000 
  932000   0.59147702   -1.7053338   0.88632832  -0.81900547   0.13084971    11450.845     1000 
  934000   0.61978547   -1.6942345   0.92874853  -0.76548599   0.13292402    11590.498     1000 
  936000   0.58772176   -1.6759016   0.88070105  -0.79520056   0.12401234    11552.475     1000 
  938000    0.5926781   -1.6923038   0.88812813  -0.80417568   0.12613171    11471.727     1000 
  940000   0.61513366   -1.6474052   0.92177779  -0.72562738   0.13192449    11493.163     1000 
  942000   0.61575812   -1.7021102   0.92271355  -0.77939665   0.13694768    11393.779     1000 
  944000   0.59223802   -1.6877074   0.88746868  -0.80023874   0.13531769     11390.83     1000 
  946000   0.60126831   -1.6873154   0.90100056  -0.78631479   0.13777342    11365.941     1000 
  948000   0.59287001   -1.6845218   0.88841571  -0.79610608   0.12335214    11592.021     1000 
  950000   0.59981664   -1.6660339   0.89882524  -0.76720871   0.12640128    11653.213     1000 
  952000   0.59078938   -1.6832212   0.88529789   -0.7979233   0.13376885    11426.418     1000 
  954000    0.5956629   -1.6216431   0.89260086  -0.72904222   0.12954835    11415.405     1000 
  956000   0.60186721   -1.6797674   0.90189801  -0.77786941   0.12495943    11449.912     1000 
  958000    0.6116763   -1.6964651   0.91659694  -0.77986814   0.13989408    11252.158     1000 
  960000   0.58936019   -1.6381229   0.88315625  -0.75496662   0.13463525     11419.84     1000 
  962000   0.60359903   -1.6871925   0.90449314  -0.78269935   0.13197744    11633.887     1000 
  964000   0.58562063   -1.6468943   0.87755252  -0.76934174   0.11907719    11493.602     1000 
  966000   0.61971172   -1.6794253   0.92863801  -0.75078733   0.12882992    11471.358     1000 
  968000    0.6245641   -1.6829592   0.93590931  -0.74704985   0.13834029    11399.309     1000 
  970000   0.58593787   -1.6468585    0.8780279  -0.76883059   0.13063877    11360.944     1000 
  972000   0.60912362   -1.6659702   0.91277175  -0.75319845   0.12559468    11399.365     1000 
  974000   0.60119471   -1.6346294   0.90089028   -0.7337391     0.124423     11548.99     1000 
  976000   0.59783448   -1.6909121   0.89585498  -0.79505712   0.13342715     11374.85     1000 
  978000   0.60058191   -1.6553162   0.89997199  -0.75534419   0.13821655    11487.477     1000 
  980000   0.58253123   -1.6537939   0.87292305  -0.78087087   0.13063024    11505.428     1000 
  982000   0.61804985   -1.7045959   0.92614769  -0.77844819   0.12686905    11578.273     1000 
  984000   0.57091151   -1.6967456    0.8555109  -0.84123471   0.13175498    11389.181     1000 
  986000   0.59688941   -1.6629918   0.89443878  -0.76855301   0.12795423    11534.216     1000 
  988000   0.61676073   -1.6759796   0.92421596  -0.75176363   0.12991356    11518.207     1000 
  990000   0.60727445   -1.6405936   0.91000076  -0.73059287   0.13049681     11494.62     1000 
  992000   0.59522611   -1.6690819   0.89194633  -0.77713562   0.11979709    11637.878     1000 
  994000   0.58937173    -1.661355   0.88317354   -0.7781815   0.13334088    11478.663     1000 
  996000   0.59850687   -1.6760057   0.89686255  -0.77914313   0.13350623    11414.623     1000 
  998000   0.60430268   -1.6652642   0.90554756  -0.75971664   0.12923263    11385.015     1000 
 1000000   0.58454339   -1.6577018   0.87593827  -0.78176354   0.12876844    11422.254     1000 
 1002000   0.59676157   -1.6878787   0.89424721   -0.7936315   0.14017507      11466.2     1000 
 1004000   0.60274056   -1.6857122   0.90320673  -0.78250544   0.14059994    11491.591     1000 
 1006000   0.59173968   -1.6765187    0.8867219  -0.78979681   0.13657473    11392.133     1000 
 1008000   0.58387806   -1.6865701   0.87494128  -0.81162882   0.12252655    11548.472     1000 
 1010000    0.6043264   -1.6509654    0.9055831  -0.74538225   0.12930365    11409.142     1000 
 1012000   0.59429074   -1.7223277   0.89054467  -0.83178299   0.12199556    11749.788     1000 
 1014000   0.62487201    -1.693346   0.93637071  -0.75697524   0.13594257    11498.933     1000 
 1016000   0.59209447   -1.6987182   0.88725356  -0.81146462   0.14039975    11306.933     1000 
 1018000   0.59604023   -1.6600846   0.89316628  -0.76691832   0.12323357    11558.911     1000 
 1020000     0.615015   -1.6516324   0.92159998  -0.73003246   0.13209676    11497.446     1000 
 1022000   0.61142426   -1.6872493   0.91621925  -0.77103005   0.11753867    11487.793     1000 
 1024000   0.63132936   -1.6969053   0.94604704  -0.75085822   0.13291163    11632.402     1000 
 1026000   0.61385272   -1.6655797    0.9198583  -0.74572139   0.14259738    11359.879     1000 
 1028000   0.60992158   -1.7088763   0.91396748  -0.79490878   0.12184754     11565.65     1000 
 1030000    0.6169097    -1.715775   0.92443919  -0.79133578   0.12735086     11554.65     1000 
 1032000   0.63219703   -1.6296372   0.94734725  -0.68228998   0.13283127    11292.162     1000 
 1034000    0.5761426   -1.7122903   0.86334969  -0.84894059   0.12701917    11758.275     1000 
 1036000   0.59475711   -1.6576897   0.89124353  -0.76644618    0.1382265    11460.285     1000 
 1038000   0.57637722   -1.6790029   0.86370127  -0.81530162   0.11378166    11510.297     1000 
 1040000   0.59637263   -1.6728824   0.89366439  -0.77921803   0.13113404    11535.526     1000 
 1042000   0.60615034   -1.6509942   0.90831628  -0.74267796   0.12682377    11546.255     1000 
 1044000   0.58925329    -1.672939   0.88299605  -0.78994291   0.14002054    11385.034     1000 
 1046000   0.63523087   -1.6168234   0.95189345  -0.66492996   0.13670501    11406.175     1000 
 1048000   0.57293448   -1.6820439   0.85854232  -0.82350162    0.1141145    11561.736     1000 
 1050000    0.6131824    -1.697134   0.91885382  -0.77828019   0.14777947     11473.76     1000 
 1052000   0.61838876   -1.6939215   0.92665556  -0.76726599   0.12183871    11597.736     1000 
 1054000   0.61777748   -1.5997198   0.92573956  -0.67398023   0.14007428    11368.585     1000 
 1056000   0.59490361    -1.703029   0.89146306  -0.81156598   0.13384293    11524.653     1000 
 1058000   0.60525122   -1.6449907   0.90696895  -0.73802174   0.13486823    11328.931     1000 
 1060000   0.61607469   -1.6297894   0.92318792  -0.70660151    0.1324172    11444.135     1000 
 1062000   0.64219301   -1.7287985   0.96232623  -0.76647222   0.12796665    11486.291     1000 
 1064000   0.59585193   -1.6366234   0.89288412  -0.74373926   0.12651422    11734.663     1000 
 1066000   0.59644016   -1.6517968   0.89376558  -0.75803124   0.13318476    11473.619     1000 
 1068000   0.61065518    -1.636741   0.91506679  -0.72167425   0.13331989    11424.831     1000 
 1070000   0.59264143   -1.6725934   0.88807318  -0.78452023   0.12814893    11472.523     1000 
 1072000   0.59248308   -1.6652523   0.88783589  -0.77741639   0.13552968    11396.177     1000 
 1074000   0.62107935   -1.7007167    0.9306874  -0.77002927   0.13291242    11471.108     1000 
 1076000   0.58762971   -1.6474443   0.88056311  -0.76688122   0.13411337    11481.402     1000 
 1078000   0.60436549   -1.6783513   0.90564169  -0.77270959   0.11430018    11680.878     1000 
 1080000   0.59327886   -1.6265902   0.88902837  -0.73756186   0.12420011    11486.601     1000 
 1082000   0.58471983   -1.6753517   0.87620267  -0.79914899   0.13586109    11634.009     1000 
 1084000   0.59072156   -1.7028987   0.88519625  -0.81770247   0.14055409    11305.295     1000 
 1086000   0.60677426   -1.6821391   0.90925123  -0.77288784   0.13359982    11420.855     1000 
 1088000   0.58730361   -1.6361586   0.88007447  -0.75608418    0.1162124    11579.667     1000 
 1090000    0.6099056   -1.6519069   0.91394354   -0.7379634   0.13434488    11510.227     1000 
 1092000   0.61207832   -1.7386212   0.91719936  -0.82142183   0.13393575    11433.856     1000 
 1094000    0.5917296    -1.664839   0.88670681  -0.77813217   0.13043356    11508.215     1000 
 1096000   0.57873701   -1.6716539   0.86723741  -0.80441645   0.12715271    11692.993     1000 
 1098000   0.59679013   -1.6544213   0.89429001  -0.76013126   0.12261398    11608.457     1000 
 1100000   0.60374257   -1.6957077   0.90470824  -0.79099945   0.12558171    11522.875     1000 
 1102000   0.62262752   -1.6729331   0.93300734  -0.73992572   0.12909972    11619.487     1000 
 1104000   0.59909793   -1.6492179   0.89774825  -0.75146961   0.12396535    11438.433     1000 
 1106000    0.6021972   -1.6428773    0.9023925  -0.74048477   0.11886487    11520.533     1000 
 1108000   0.58293709   -1.6538614   0.87353123  -0.78033015    0.1277901    11503.943     1000 
 1110000   0.60551283   -1.7523238   0.90736098  -0.84496281   0.13442951    11450.797     1000 
 1112000   0.60582385   -1.6873656   0.90782703  -0.77953853   0.13810052    11379.163     1000 
 1114000   0.59055451   -1.6353956   0.88494593  -0.75044968   0.14076623    11454.038     1000 
 1116000   0.60519141   -1.6472063   0.90687933  -0.74032699   0.12955771    11436.824     1000 
 1118000   0.64887738   -1.6886299   0.97234275  -0.71628712   0.12762772    11555.763     1000 
 1120000    0.5695192   -1.6657531   0.85342451  -0.81232863   0.13575722    11385.827     1000 
 1122000   0.61559879   -1.7617724   0.92247479  -0.83929759   0.13821541    11448.343     1000 
 1124000   0.61199318   -1.6603285   0.91707178  -0.74325675   0.13264239    11610.686     1000 
 1126000   0.60019656   -1.6627577   0.89939455  -0.76336311   0.13026354    11436.564     1000 
 1128000   0.60009675   -1.6652144   0.89924499  -0.76596945   0.12192062     11655.86     1000 
 1130000   0.61776097   -1.6513165   0.92571481  -0.72560166   0.13174825    11417.832     1000 
 1132000   0.59104788   -1.6025388   0.88568524  -0.71685356   0.11817802    11712.202     1000 
 1134000    0.6043387   -1.6715991   0.90560154   -0.7659976   0.13180782    11539.715     1000 
 1136000    0.6036603   -1.6446521   0.90458495  -0.74006712   0.13814957    11347.767     1000 
 1138000   0.59706122   -1.6931696   0.89469624  -0.79847339   0.13611891    11502.771     1000 
 1140000   0.58810674   -1.7133414   0.88127796  -0.83206343   0.12746959    11617.626     1000 
 1142000   0.62708091   -1.6997374   0.93968074  -0.76005661   0.13284749     11597.07     1000 
 1144000   0.59173235   -1.6611843   0.88671093  -0.77447337   0.14019154    11445.683     1000 
 1146000   0.61013834   -1.6753638    0.9142923   -0.7610715   0.14448707    11411.076     1000 
 1148000   0.63050483   -1.6756871   0.94481149  -0.73087565   0.14643754      11474.9     1000 
 1150000   0.59427757   -1.6968967   0.89052494  -0.80637172   0.12975379    11487.948     1000 
 1152000   0.62443017   -1.6836683   0.93570862  -0.74795967   0.12661783    11327.982     1000 
 1154000   0.57868855   -1.5836645   0.86716479  -0.71649974   0.13568808    11323.513     1000 
 1156000   0.59641304   -1.6528026   0.89372494  -0.75907762   0.12630008    11491.871     1000 
 1158000   0.62497797   -1.6813937   0.93652949  -0.74486422   0.13732154    11461.103     1000 
 1160000   0.58506495   -1.6480157   0.87671982  -0.77129585   0.13024789    11489.088     1000 
 1162000   0.59410342   -1.6908113   0.89026398  -0.80054731   0.13099104    11518.282     1000 
 1164000    0.5973137   -1.6920969   0.89507458  -0.79702237   0.14633424    11345.116     1000 
 1166000   0.58289233   -1.6589169   0.87346416  -0.78545269   0.12660879    11434.213     1000 
 1168000   0.62753331   -1.6428595   0.94035867  -0.70250084   0.13997288    11353.338     1000 
 1170000   0.60481695   -1.6476881    0.9063182  -0.74136994    0.1261334    11616.665     1000 
 1172000   0.58881331   -1.6512049   0.88233674  -0.76886813   0.11818201    11647.403     1000 
 1174000   0.58555409   -1.6424287    0.8774528  -0.76497588   0.12516587    11586.644     1000 
 1176000   0.59405999    -1.611357    0.8901989  -0.72115811   0.13237855    11403.431     1000 
 1178000    0.5764206   -1.6535658   0.86376626  -0.78979958   0.12834068    11450.537     1000 
 1180000   0.57706988   -1.6767051   0.86473921  -0.81196589   0.11629408    11563.134     1000 
 1182000    0.6180599   -1.6696956   0.92616275  -0.74353283   0.12235162    11645.487     1000 
 1184000   0.57636107   -1.6502041   0.86367707  -0.78652701   0.13046754    11602.677     1000 
 1186000   0.59408615   -1.7022335    0.8902381  -0.81199536   0.12464702    11624.603     1000 
 1188000   0.58774658   -1.6636293   0.88073826  -0.78289106   0.13379304    11371.545     1000 
 1190000   0.60456573   -1.6688727   0.90594174  -0.76293096   0.13163187    11505.466     1000 
 1192000   0.61446976   -1.6695685   0.92078293  -0.74878554   0.13484333     11480.75     1000 
 1194000   0.60360358   -1.6671593   0.90449996  -0.76265938   0.12608452    11617.193     1000 
 1196000   0.59436647   -1.6741363   0.89065815  -0.78347814   0.13780553    11463.931     1000 
 1198000   0.59514077   -1.6244497   0.89181845  -0.73263125    0.1335321    11541.406     1000 
 1200000   0.59461546   -1.6694926   0.89103127  -0.77846137   0.13470813    11371.499     1000 
 1202000   0.61172503   -1.6211644   0.91666996  -0.70449447   0.14650534    11128.241     1000 
 1204000   0.58929523   -1.6299008    0.8830589  -0.74684188   0.13429448    11410.476     1000 
 1206000   0.59528323   -1.6914624   0.89203191  -0.79943044   0.12929663    11447.341     1000 
 1208000   0.58437819   -1.5948553   0.87569072  -0.71916461   0.12855811    11358.677     1000 
 1210000   0.61027495   -1.6625561   0.91449702  -0.74805903   0.12799054    11517.964     1000 
 1212000   0.59787852   -1.6317034   0.89592096  -0.73578248   0.13300558    11439.591     1000 
 1214000    0.6058907   -1.6580219   0.90792721  -0.75009465   0.13329758     11399.86     1000 
 1216000   0.56912807   -1.6923946   0.85283841   -0.8395562   0.13002136    11598.428     1000 
 1218000    0.6176054   -1.6771355   0.92548169  -0.75165384   0.12790382    11589.562     1000 
 1220000   0.59396161   -1.6879708   0.89005147  -0.79791933   0.11635194    11602.918     1000 
 1222000   0.59841198   -1.6543357   0.89672036  -0.75761533   0.12455746    11707.205     1000 
 1224000   0.58687241   -1.6369684    0.8794283  -0.75754007   0.12515025     11468.96     1000 
 1226000   0.63816486   -1.6594203   0.95629004   -0.7031303   0.12885464    11571.737     1000 
 1228000   0.57406525    -1.665104   0.86023678  -0.80486721   0.12203383    11540.996     1000 
 1230000   0.61339127   -1.6956558   0.91916683  -0.77648894   0.14229061    11348.479     1000 
 1232000   0.60426566    -1.660801   0.90549209  -0.75530891   0.13087494    11318.645     1000 
 1234000   0.62772492   -1.6186511   0.94064579  -0.67800527   0.13625611    11563.032     1000 
 1236000   0.60826573   -1.6785681    0.9114862  -0.76708189   0.13247057    11526.444     1000 
 1238000   0.59850964   -1.6184863    0.8968667  -0.72161965   0.12832951    11545.021     1000 
 1240000   0.61640408   -1.6638411   0.92368151  -0.74015961   0.12229877    11622.905     1000 
 1242000   0.60672163   -1.6387715   0.90917236  -0.72959914   0.13155561    11433.482     1000 
 1244000   0.60624917   -1.5576419   0.90846438   -0.6491775   0.14528289    11263.823     1000 
 1246000   0.58511101   -1.6314991   0.87678885  -0.75471021   0.13034638    11302.692     1000 
 1248000   0.56096384   -1.6439359   0.84060431  -0.80333161   0.11970212    11449.772     1000 
 1250000    0.5994079    -1.705073   0.89821274  -0.80686022   0.13008691     11431.23     1000 
 1252000   0.56881267   -1.6716713   0.85236579  -0.81930552    0.1191215    11563.776     1000 
 1254000   0.60698992   -1.5952515   0.90957439  -0.68567715   0.14114439    11499.441     1000 
 1256000    0.5969854   -1.7076506   0.89458262  -0.81306798   0.12633952    11487.625     1000 
 1258000   0.60155027    -1.635961   0.90142308  -0.73453795   0.12852379    11489.335     1000 
 1260000   0.58000083   -1.6675067   0.86913124  -0.79837545   0.12290966    11682.838     1000 
 1262000   0.60454045   -1.6586173   0.90590387  -0.75271344   0.13093032    11456.264     1000 
 1264000   0.61250659   -1.6985933   0.91784113  -0.78075217   0.12723743    11603.696     1000 
 1266000   0.59232745   -1.6730674   0.88760268  -0.78546469   0.11975289    11535.875     1000 
 1268000   0.59753749   -1.6582939   0.89540993  -0.76288397   0.12586062    11500.555     1000 
 1270000   0.56903415   -1.6697621   0.85269767  -0.81706443    0.1178096    11523.439     1000 
 1272000   0.61461423   -1.7264212   0.92099942  -0.80542174   0.13010285    11585.418     1000 
 1274000   0.62148121   -1.6595926    0.9312896  -0.72830304   0.13963628     11489.33     1000 
 1276000   0.60690811   -1.7017067   0.90945181   -0.7922549   0.12189265    11683.203     1000 
 1278000    0.6016091   -1.6685145   0.90151124  -0.76700326   0.13374672    11487.395     1000 
 1280000   0.58658874    -1.644459   0.87900323  -0.76545579   0.13851803    11263.966     1000 
 1282000   0.59850842   -1.6872228   0.89686486  -0.79035792   0.12599813    11556.583     1000 
 1284000   0.59398114   -1.6904889   0.89008073  -0.80040819   0.12275945    11636.704     1000 
 1286000   0.59437491   -1.6790966    0.8906708  -0.78842583   0.12891644    11472.211     1000 
 1288000   0.60616711   -1.6587558   0.90834142  -0.75041438   0.13894424    11447.634     1000 
 1290000    0.6188642    -1.639728     0.927368     -0.71236   0.13040918     11357.93     1000 
 1292000   0.58143786     -1.73694   0.87128463   -0.8656554   0.12906378    11556.179     1000 
 1294000   0.59896205   -1.6833086   0.89754463  -0.78576395   0.12708118    11663.508     1000 
 1296000   0.59300226   -1.6556214   0.88861389  -0.76700751   0.11432249    11423.393     1000 
 1298000   0.58185282    -1.767783   0.87190645  -0.89587659   0.13024051    11494.517     1000 
 1300000   0.61222698   -1.6605116   0.91742212   -0.7430895   0.11085506    11901.253     1000 
 1302000    0.5763929   -1.6518699   0.86372476  -0.78814514    0.1422861    11315.008     1000 
 1304000   0.60726883   -1.6316615   0.90999234  -0.72166912   0.12586332    11654.045     1000 
 1306000   0.60774847   -1.6477987   0.91071109   -0.7370876   0.12242965    11455.501     1000 
 1308000     0.594303   -1.6713545   0.89056305  -0.78079144   0.12450883    11486.321     1000 
 1310000   0.58197738   -1.6711956    0.8720931  -0.79910249    0.1241153    11482.934     1000 
 1312000   0.58790339   -1.6578483   0.88097322  -0.77687512    0.1319944    11362.843     1000 
 1314000   0.58462388   -1.6278176   0.87605888  -0.75175868   0.12193176    11641.602     1000 
 1316000   0.59457758   -1.6729816   0.89097451  -0.78200708   0.12929839    11479.282     1000 
 1318000   0.59593148   -1.6885189   0.89300332  -0.79551559   0.12027586    11741.824     1000 
 1320000   0.59687489   -1.7049533   0.89441702  -0.81053628   0.13207572    11427.957     1000 
 1322000   0.61660738   -1.6936039   0.92398616  -0.76961772   0.12443527    11515.046     1000 
 1324000   0.62120879   -1.6790414   0.93088137  -0.74816004   0.13798829    11437.634     1000 
 1326000    0.6097209   -1.6914127   0.91366677  -0.77774595   0.12919786    11560.074     1000 
 1328000   0.59755055   -1.6383029    0.8954295  -0.74287338   0.12731576    11568.058     1000 
 1330000   0.59949491   -1.6705698   0.89834312   -0.7722267   0.13082076    11495.221     1000 
 1332000     0.583248   -1.6021555   0.87399713  -0.72815835   0.13701857    11437.226     1000 
 1334000   0.61408736   -1.7187996   0.92020991  -0.79858966   0.12177575    11778.226     1000 
 1336000   0.58232065   -1.6502117    0.8726075  -0.77760425   0.12107158    11591.246     1000 
 1338000   0.60572428    -1.716947   0.90767784  -0.80926912   0.13041366    11608.034     1000 
 1340000    0.5910471   -1.6914706   0.88568408  -0.80578656   0.13065127    11388.857     1000 
 1342000   0.59010004   -1.6349712   0.88426491  -0.75070632   0.13126625    11357.359     1000 
 1344000   0.61825828   -1.6877629   0.92646003  -0.76130287   0.11502417    11698.278     1000 
 1346000   0.60185239   -1.6652782   0.90187581  -0.76340239   0.12692491    11631.476     1000 
 1348000   0.58831879   -1.6717646    0.8815957   -0.7901689   0.14226769    11307.854     1000 
 1350000   0.59359217   -1.6633831   0.88949786  -0.77388524   0.12836545    11604.393     1000 
 1352000    0.6030288    -1.695285   0.90363866   -0.7916463   0.12125556    11605.142     1000 
 1354000   0.61949781   -1.6486504   0.92831748  -0.72033288   0.13206672    11493.828     1000 
 1356000   0.62690216   -1.7214983   0.93941289  -0.78208542   0.11457939    11759.889     1000 
 1358000   0.58686139   -1.6959107   0.87941179  -0.81649894   0.11300632    11674.423     1000 
 1360000    0.6093316   -1.6350742   0.91308341  -0.72199077   0.11847058    11562.571     1000 
 1362000   0.62482845   -1.6550467   0.93630544  -0.71874125   0.14199443    11411.177     1000 
 1364000   0.57122346   -1.6493046   0.85597835  -0.79332625   0.11884654    11539.728     1000 
 1366000   0.60299066   -1.6806006   0.90358151  -0.77701906    0.1356526    11463.162     1000 
 1368000   0.59607256   -1.6682186   0.89321473  -0.77500392   0.13582963    11444.297     1000 
 1370000   0.60081847   -1.6806919   0.90032648  -0.78036538    0.1251752    11751.732     1000 
 1372000   0.58397047   -1.6712455   0.87507975  -0.79616572    0.1266417    11307.254     1000 
 1374000   0.61741234   -1.6906505   0.92519239   -0.7654581   0.14147043    11448.367     1000 
 1376000   0.58545748   -1.6372656   0.87730804  -0.75995752   0.13060657    11507.134     1000 
 1378000    0.6084306   -1.6937411   0.91173325  -0.78200789   0.13082294    11494.816     1000 
 1380000   0.61284639   -1.6505588   0.91835031  -0.73220848   0.13554305    11395.387     1000 
 1382000   0.60800965   -1.6845561   0.91110246  -0.77345367   0.13372764    11421.963     1000 
 1384000   0.59930576   -1.6624781   0.89805969  -0.76441842   0.13219553    11445.326     1000 
 1386000   0.57519795   -1.6817135   0.86193413   -0.8197794    0.1241795    11576.429     1000 
 1388000   0.58405081   -1.6035597   0.87520014   -0.7283596   0.12852674    11462.427     1000 
 1390000    0.6098205   -1.6471042   0.91381602  -0.73328814   0.11257157    11704.585     1000 
 1392000   0.60465761   -1.6484144   0.90607943  -0.74233496   0.12737323    11536.229     1000 
 1394000   0.59726791   -1.7125161   0.89500596  -0.81751011   0.11889086    11651.946     1000 
 1396000   0.57882742   -1.6818538   0.86737289  -0.81448092   0.12344403    11401.893     1000 
 1398000   0.61564972   -1.7094494    0.9225511  -0.78689825   0.14118064    11496.298     1000 
 1400000   0.60004094   -1.6467474   0.89916134  -0.74758608   0.11627477     11574.54     1000 
 1402000   0.60378646   -1.6594207   0.90477401  -0.75464673   0.13051721    11530.815     1000 
 1404000   0.62068933   -1.6472215   0.93010296  -0.71711852   0.12991274    11679.251     1000 
 1406000   0.57375927   -1.6360969   0.85977826  -0.77631862   0.12776684    11299.479     1000 
 1408000   0.57456477   -1.6893059   0.86098531  -0.82832055   0.12951433    11410.239     1000 
 1410000   0.59432385   -1.6720093   0.89059429  -0.78141498   0.12638818    11597.256     1000 
 1412000   0.60581582   -1.7138268   0.90781501   -0.8060118   0.12849358    11511.978     1000 
 1414000   0.62690696   -1.6685582   0.93942008  -0.72913816   0.15024788    11332.592     1000 
 1416000     0.618407   -1.6287238   0.92668288  -0.70204092   0.12495226    11422.992     1000 
 1418000   0.61710798   -1.6678576   0.92473631  -0.74312126   0.14408048    11322.405     1000 
 1420000   0.57492491   -1.6013263   0.86152498  -0.73980137   0.13620474    11487.079     1000 
 1422000   0.59558039   -1.7000313   0.89247721  -0.80755411    0.1319821    11425.009     1000 
 1424000   0.57685495   -1.7042904   0.86441714  -0.83987321   0.12551098    11360.292     1000 
 1426000   0.60621992   -1.6484211   0.90842056  -0.74000051   0.12228224    11630.575     1000 
 1428000   0.59787742   -1.7091809   0.89591931  -0.81326161   0.12866644    11450.629     1000 
 1430000   0.58083553   -1.6645704   0.87038204   -0.7941884   0.12592998    11510.127     1000 
 1432000   0.58934858   -1.6479767   0.88313885  -0.76483784   0.12933793    11430.117     1000 
 1434000   0.62072893   -1.6751301    0.9301623  -0.74496775   0.11630888    11825.577     1000 
 1436000   0.59839817   -1.6579196   0.89669966  -0.76121993   0.13446853     11407.19     1000 
 1438000   0.60182327   -1.6370478   0.90183217  -0.73521561    0.1259204    11546.746     1000 
 1440000    0.5977901   -1.6643046   0.89578846   -0.7685161   0.13212944     11415.52     1000 
 1442000   0.59902158   -1.6862949   0.89763384  -0.78866103   0.12104478    11522.624     1000 
 1444000   0.59799409   -1.7263422   0.89609414  -0.83024802   0.12453069    11743.303     1000 
 1446000   0.59615463   -1.6281497   0.89333771  -0.73481204    0.1319194    11386.833     1000 
 1448000    0.6158221    -1.666989   0.92280941   -0.7441796    0.1335601    11497.489     1000 
 1450000   0.62159651   -1.6682145   0.93146238  -0.73675209   0.13574754    11487.647     1000 
 1452000   0.62191149   -1.6551157   0.93193436  -0.72318138   0.12956251    11433.053     1000 
 1454000   0.57454508   -1.6435578    0.8609558    -0.782602   0.12485816      11533.4     1000 
 1456000   0.58567001   -1.6804164   0.87762651  -0.80278986   0.12218369    11471.803     1000 
 1458000   0.61157642   -1.7071947   0.91644727   -0.7907474   0.13495294     11613.91     1000 
 1460000   0.60225667   -1.7150532   0.90248162  -0.81257162   0.12835761    11513.331     1000 
 1462000   0.60639982   -1.5934372   0.90869013  -0.68474709   0.13747763    11323.806     1000 
 1464000   0.60203655   -1.6651543   0.90215177  -0.76300249   0.13276684     11478.34     1000 
 1466000   0.61516012   -1.6589877   0.92181744  -0.73717026   0.14215377    11497.191     1000 
 1468000   0.60723728   -1.6378815   0.90994507  -0.72793647   0.11842993    11562.538     1000 
 1470000    0.5957925    -1.662639   0.89279506  -0.76984397   0.12185697    11548.664     1000 
 1472000   0.60298452   -1.6647795   0.90357231  -0.76120715   0.13357868    11472.115     1000 
 1474000   0.58696104   -1.6464296   0.87956111  -0.76686845   0.12732105    11486.701     1000 
 1476000   0.61482063   -1.6448862   0.92130872  -0.72357745   0.13310011    11475.743     1000 
 1478000   0.60294236   -1.6981261   0.90350913  -0.79461693   0.13535191    11507.309     1000 
 1480000   0.60351753   -1.7079764   0.90437102  -0.80360535   0.13148196    11684.124     1000 
 1482000   0.59985483   -1.6747274   0.89888247  -0.77584491   0.12799669    11570.764     1000 
 1484000    0.5967095   -1.7223126   0.89416919  -0.82814337   0.12919974    11608.239     1000 
 1486000   0.60267736   -1.6775674   0.90311203  -0.77445539   0.13304255    11481.348     1000 
 1488000   0.60384455   -1.6799529   0.90486106  -0.77509182   0.13274271     11344.18     1000 
 1490000   0.62156199   -1.6713077   0.93141064  -0.73989708   0.13462636    11567.667     1000 
 1492000   0.59305825   -1.6604662   0.88869778  -0.77176845   0.12397907    11477.901     1000 
 1494000   0.60958024   -1.7091016   0.91345599  -0.79564561   0.13794531    11447.933     1000 
 1496000     0.588768   -1.6847733   0.88226884  -0.80250442   0.12961411    11385.947     1000 
 1498000   0.57532496   -1.7087523   0.86212445  -0.84662786   0.14297916    11399.774     1000 
 1500000   0.61744182   -1.6525014   0.92523656  -0.72726486   0.13515684    11341.939     1000 
 1502000   0.60541758   -1.6477694   0.90721824  -0.74055112   0.14020421    11383.207     1000 
 1504000   0.63396582   -1.6540542   0.94999778  -0.70405638   0.13063714    11521.659     1000 
 1506000    0.6128188   -1.6265896   0.91830898  -0.70828059   0.12943852    11633.621     1000 
 1508000   0.59453237   -1.6383255   0.89090675   -0.7474188   0.13650776    11365.642     1000 
 1510000   0.58223497   -1.7340174    0.8724791  -0.86153828   0.13021624    11483.132     1000 
 1512000   0.62014892   -1.7294227   0.92929315  -0.80012955   0.13482925    11519.218     1000 
 1514000   0.61598848    -1.710288   0.92305874  -0.78722923   0.12590437    11462.324     1000 
 1516000   0.60265763   -1.6670393   0.90308246  -0.76395687   0.11965218    11714.576     1000 
 1518000   0.55744989   -1.6605049   0.83533866   -0.8251662   0.11531176    11652.773     1000 
 1520000    0.6167513   -1.7057297   0.92420183  -0.78152783   0.11738231    11758.971     1000 
 1522000   0.56806974   -1.6599324    0.8512525   -0.8086799   0.11662356    11482.199     1000 
 1524000   0.59456757   -1.7470026   0.89095951  -0.85604313   0.12813852    11508.969     1000 
 1526000   0.61801561   -1.7088243   0.92609639  -0.78272791   0.12455727    11384.764     1000 
 1528000   0.57669372   -1.6655426   0.86417554  -0.80136702   0.12135627    11524.431     1000 
 1530000   0.60099182   -1.6731308   0.90058624  -0.77254457   0.13603946    11416.392     1000 
 1532000   0.58214006   -1.6854367   0.87233688  -0.81309984   0.13111141    11652.163     1000 
 1534000   0.60874017   -1.5821499   0.91219715  -0.66995279   0.13446729    11228.029     1000 
 1536000   0.57748632   -1.6463005   0.86536325  -0.78093727   0.11750689      11622.1     1000 
 1538000   0.58629025   -1.6668687   0.87855595  -0.78831272   0.13796499    11371.789     1000 
 1540000   0.60081285     -1.63323   0.90031806  -0.73291198   0.13328386    11506.194     1000 
 1542000   0.59681716   -1.7172809   0.89433051  -0.82295038   0.14045683    11360.055     1000 
 1544000   0.60323397   -1.6514614    0.9039461  -0.74751534   0.12945147    11396.593     1000 
 1546000   0.56373424   -1.6788444   0.84475576  -0.83408866    0.1323686    11456.446     1000 
 1548000   0.62348401   -1.7004641   0.93429079  -0.76617328   0.11396571    11790.478     1000 
 1550000   0.61228238    -1.658008   0.91750515  -0.74050282   0.12731936    11528.782     1000 
 1552000   0.58927663   -1.6473395   0.88303103  -0.76430843   0.13895735     11420.66     1000 
 1554000   0.62515074   -1.6665949   0.93678838  -0.72980649   0.13040756    11573.645     1000 
 1556000   0.62449978   -1.6551478   0.93581292  -0.71933489   0.13040298    11628.977     1000 
 1558000   0.63107135   -1.6401783   0.94566041   -0.6945179   0.13190667    11565.654     1000 
 1560000   0.62087606   -1.6920858   0.93038278  -0.76170305   0.11794487    11723.745     1000 
 1562000    0.5833404   -1.6974462    0.8741356  -0.82331061   0.13282064    11601.159     1000 
 1564000    0.5906733   -1.7095068   0.88512394   -0.8243829   0.13966481    11406.806     1000 
 1566000   0.59367994   -1.6768515    0.8896294  -0.78722215   0.12658698    11495.491     1000 
 1568000   0.60094785    -1.639317   0.90052036  -0.73879659   0.12936342    11415.266     1000 
 1570000   0.61221578   -1.6261574   0.91740534  -0.70875206    0.1359627    11216.955     1000 
 1572000   0.61658505   -1.7130186   0.92395269  -0.78906591   0.12917703    11485.774     1000 
 1574000   0.59241384   -1.6183203   0.88773214  -0.73058817   0.13103415    11406.101     1000 
 1576000   0.60947108   -1.6845875   0.91329242   -0.7712951   0.12228574    11534.806     1000 
 1578000   0.59218931   -1.7005968   0.88739568  -0.81320111   0.12113163     11694.85     1000 
 1580000   0.60831472   -1.6762593    0.9115596  -0.76469974   0.12487853    11474.492     1000 
 1582000     0.623451   -1.6763673   0.93424132    -0.742126   0.11794964     11672.57     1000 
 1584000   0.60071418   -1.6377954    0.9001702  -0.73762523   0.13288744    11437.667     1000 
 1586000   0.59366446   -1.6675867   0.88960619  -0.77798047   0.12490928     11345.22     1000 
 1588000   0.55685299    -1.682637   0.83444421  -0.84819275   0.12490215    11378.811     1000 
[...]
 2614000   0.59386032   -1.6897973   0.88989969  -0.79989757    0.1195927    11792.444     1000 
 2616000   0.59851947   -1.6475971   0.89688143  -0.75071565   0.14103184    11477.474     1000 
 2618000    0.6043294   -1.6548112   0.90558761  -0.74922358    0.1245035    11514.465     1000 
 2620000   0.59690682   -1.7005418   0.89446487   -0.8060769   0.12892178    11591.796     1000 
 2622000   0.60766531   -1.6913027   0.91058646  -0.78071624    0.1269727    11515.156     1000 
 2624000   0.59773958   -1.6320635   0.89571277  -0.73635074   0.12419326    11334.333     1000 
 2626000   0.59803268     -1.70196   0.89615197    -0.805808   0.11983612    11746.412     1000 
 2628000   0.57725436    -1.643976   0.86501566  -0.77896038   0.13570434    11381.627     1000 
 2630000   0.58748361   -1.6450475   0.88034419  -0.76470331   0.12011752    11524.784     1000 
 2632000   0.57588634   -1.6622313   0.86296568  -0.79926563   0.13320349    11319.418     1000 
 2634000   0.59947683   -1.6921864   0.89831603  -0.79387037   0.12267871    11482.071     1000 
 2636000   0.58998717   -1.6813101   0.88409578  -0.79721435   0.11992023    11622.626     1000 
 2638000    0.5664485   -1.6927373   0.84882308   -0.8439142   0.13488165     11419.78     1000 
 2640000   0.58691357   -1.6384998   0.87948999  -0.75900977   0.13660529    11581.052     1000 
 2642000   0.59526899   -1.7075114   0.89201059  -0.81550076   0.12988866    11487.497     1000 
 2644000   0.58645843   -1.6314115   0.87880796  -0.75260359    0.1182618    11424.744     1000 
 2646000   0.59491519   -1.7172721   0.89148042  -0.82579167   0.13211081    11466.949     1000 
 2648000   0.57808154   -1.6864732   0.86625518  -0.82021803    0.1336696    11389.416     1000 
 2650000   0.63527441   -1.6611959    0.9519587  -0.70923724   0.13606412    11539.785     1000 
 2652000   0.59720341   -1.6614995   0.89490931  -0.76659023   0.13721262     11334.23     1000 
 2654000   0.63649703   -1.6718711    0.9537908   -0.7180803   0.13007974    11553.282     1000 
 2656000   0.62894748   -1.6136929   0.94247779   -0.6712151   0.12425042    11632.955     1000 
 2658000   0.62919768   -1.6317917   0.94285273  -0.68893901   0.13528065    11477.322     1000 
 2660000   0.60424552   -1.6665966   0.90546192  -0.76113469   0.13329568    11449.233     1000 
 2662000    0.5936262   -1.7181287   0.88954886  -0.82857985   0.12111804    11597.418     1000 
 2664000    0.5918978   -1.6212279   0.88695885   -0.7342691     0.133047    11425.464     1000 
 2666000   0.58284272   -1.6582094   0.87338981  -0.78481958   0.13266938     11357.19     1000 
 2668000   0.59629953    -1.676903   0.89355485  -0.78334815   0.12624818     11580.53     1000 
 2670000   0.60039666    -1.699784   0.89969439   -0.8000896   0.12771907    11391.836     1000 
 2672000   0.61767152   -1.6594775   0.92558078  -0.73389669   0.13096519    11424.214     1000 
 2674000   0.59208371   -1.6794679   0.88723744  -0.79223049    0.1201505    11650.342     1000 
 2676000   0.60739506    -1.632325   0.91018149  -0.72214349   0.13126919    11543.528     1000 
 2678000    0.6263381   -1.6858457   0.93856765  -0.74727803   0.12933969    11631.617     1000 
 2680000   0.59500458   -1.6681218   0.89161436  -0.77650744   0.12359263     11604.98     1000 
 2682000   0.61038007   -1.6587736   0.91465453  -0.74411912   0.12884566    11443.615     1000 
 2684000   0.60610107   -1.6890422   0.90824245   -0.7807997   0.12791273    11741.697     1000 
 2686000   0.60074471   -1.5837808   0.90021594   -0.6835649   0.13613159    11417.015     1000 
 2688000    0.5904876   -1.6593107   0.88484566  -0.77446504   0.13328146    11498.513     1000 
 2690000   0.58520387   -1.6647711   0.87692799  -0.78784311   0.13690854    11517.441     1000 
 2692000   0.58043099   -1.6946969   0.86977584  -0.82492108   0.13012505    11492.556     1000 
 2694000   0.56461022    -1.701335   0.84606842  -0.85526663   0.12200538     11637.04     1000 
 2696000   0.57976327    -1.647565   0.86877526  -0.77878978   0.12570757    11563.742     1000 
 2698000   0.61583281   -1.6535529   0.92282547  -0.73072742   0.13359747    11325.278     1000 
 2700000   0.57855832     -1.67212   0.86696965  -0.80515032   0.12777045    11408.463     1000 
 2702000   0.59709892   -1.6600147   0.89475273  -0.76526202   0.14351036     11367.27     1000 
 2704000    0.6260101   -1.6669047   0.93807614  -0.72882853   0.13882277    11335.806     1000 
 2706000   0.58917219   -1.6967103   0.88287453  -0.81383577   0.12353356    11486.612     1000 
 2708000   0.59974407   -1.6814453   0.89871648  -0.78272881   0.12657472    11659.803     1000 
 2710000   0.58168606   -1.6573769   0.87165656  -0.78572032   0.12204588    11606.383     1000 
 2712000   0.56477514   -1.6732009   0.84631554  -0.82688533   0.12719281    11482.656     1000 
 2714000    0.5855159   -1.6845234   0.87739557  -0.80712785   0.11736085    11591.886     1000 
 2716000   0.62044205    -1.652606   0.92973242  -0.72287356   0.12658374    11460.792     1000 
 2718000   0.59341207   -1.6400982   0.88922799  -0.75087022   0.14363803    11468.943     1000 
 2720000   0.60786187   -1.6675129   0.91088102  -0.75663188   0.12925728    11475.759     1000 
 2722000   0.59052745   -1.6703745   0.88490538  -0.78546911    0.1340245    11477.801     1000 
 2724000   0.59534511   -1.6737592   0.89212464  -0.78163455    0.1330192     11554.84     1000 
 2726000   0.61480603   -1.6642227   0.92128683  -0.74293587   0.13714773    11469.482     1000 
 2728000   0.59416782   -1.6820566   0.89036047  -0.79169614   0.12055839    11537.131     1000 
 2730000   0.61210641   -1.6457982   0.91724146  -0.72855677   0.13987989    11324.921     1000 
 2732000   0.61405153   -1.6572621   0.92015621  -0.73710585   0.12297918    11459.435     1000 
 2734000   0.58465884   -1.6148886   0.87611127  -0.73877732   0.14717971    11362.959     1000 
 2736000   0.61130534   -1.7101593   0.91604105  -0.79411822   0.12512966    11553.774     1000 
 2738000   0.61277972   -1.7100448   0.91825042  -0.79179435   0.12473271    11611.329     1000 
 2740000    0.5707914   -1.6253565   0.85533091  -0.77002563    0.1315969    11411.154     1000 
 2742000   0.59556254   -1.6276701   0.89245046  -0.73521965   0.12812422    11553.468     1000 
 2744000   0.59866468   -1.6123653   0.89709902  -0.71526632   0.14111321     11367.06     1000 
 2746000   0.57228053   -1.6901134   0.85756238    -0.832551   0.13309554    11459.011     1000 
 2748000   0.57346221   -1.6845711   0.85933312  -0.82523798   0.14060468    11274.562     1000 
 2750000   0.61622124   -1.6579871   0.92340753  -0.73457957   0.13355827    11423.167     1000 
 2752000   0.60231612      -1.6384   0.90257071  -0.73582933   0.12065272     11548.05     1000 
 2754000   0.62885527   -1.6649596   0.94233963  -0.72261992   0.12952731    11495.131     1000 
 2756000   0.59277519   -1.7220522   0.88827362  -0.83377858   0.12457275    11477.396     1000 
 2758000   0.60760836   -1.6924046   0.91050113  -0.78190342   0.12811331    11670.827     1000 
 2760000   0.60896874    -1.664867   0.91253966  -0.75232733   0.12518179    11504.809     1000 
 2762000   0.60606421   -1.7214255   0.90818721  -0.81323826   0.11866173    11736.485     1000 
 2764000   0.65722357   -1.6293154   0.98484952  -0.64446588   0.13963779    11499.189     1000 
 2766000   0.60829254   -1.6327016   0.91152637  -0.72117523   0.12464629    11495.925     1000 
 2768000   0.63601183   -1.6714257   0.95306373  -0.71836193   0.12995404    11717.776     1000 
 2770000   0.61551678   -1.6490068    0.9223519  -0.72665485   0.13213417    11529.036     1000 
 2772000   0.62064351    -1.704783    0.9300343  -0.77474875   0.12747689    11554.784     1000 
 2774000   0.59893478    -1.695322   0.89750377  -0.79781822   0.12558721    11469.075     1000 
 2776000   0.60509414   -1.7086884   0.90673356  -0.80195487   0.12895282    11521.242     1000 
 2778000    0.6107454   -1.7389017   0.91520198  -0.82369973   0.12066906    11739.988     1000 
 2780000   0.59034678   -1.6757248   0.88463464  -0.79109016   0.12539455    11536.517     1000 
 2782000   0.60932102   -1.7259302   0.91306755  -0.81286264   0.13250241    11488.282     1000 
 2784000   0.59633154   -1.6622802   0.89360282   -0.7686774   0.13577999    11435.997     1000 
 2786000   0.60523508   -1.7312183   0.90694477  -0.82427358   0.13187557    11545.656     1000 
 2788000   0.60504472    -1.624667   0.90665952  -0.71800753    0.1297342    11229.486     1000 
 2790000   0.59756585   -1.6828251   0.89545242   -0.7873727   0.13372487    11508.249     1000 
 2792000   0.59793066   -1.6167539    0.8959991  -0.72075477   0.12286353    11531.866     1000 
 2794000   0.58575918   -1.6233902   0.87776013  -0.74563004   0.13784087    11403.356     1000 
 2796000   0.60726497   -1.7089089   0.90998655  -0.79892238   0.10836514    11835.415     1000 
 2798000   0.60252076   -1.6914329   0.90287737  -0.78855553   0.12412649    11731.726     1000 
 2800000   0.62406534   -1.7161603   0.93516191  -0.78099838   0.12521026    11623.556     1000 
 2802000   0.63665389   -1.6318116   0.95402585  -0.67778575   0.13360858    11352.156     1000 
 2804000    0.6105502   -1.6602352   0.91490947  -0.74532575   0.13013352    11452.493     1000 
 2806000   0.60629257   -1.6082344   0.90852942  -0.69970496   0.12796327    11640.248     1000 
 2808000   0.60345785   -1.6663433   0.90428159  -0.76206172   0.15718929    11185.605     1000 
 2810000   0.59045141   -1.7235212   0.88479144  -0.83872975   0.14047252    11430.593     1000 
 2812000   0.59225453   -1.6806257   0.88749341  -0.79313234   0.13423067     11534.72     1000 
 2814000   0.56890914   -1.6456083   0.85251035    -0.793098   0.13620264    11425.689     1000 
 2816000   0.56057656   -1.6159554   0.84002398  -0.77593143   0.13871122    11263.261     1000 
 2818000   0.59987167   -1.6583577   0.89890769  -0.75945004    0.1305782    11634.112     1000 
 2820000    0.5728278   -1.6997132   0.85838245  -0.84133075   0.11568906    11587.614     1000 
 2822000   0.61405449   -1.6820459   0.92016066  -0.76188519   0.12850874    11625.316     1000 
 2824000   0.60293799   -1.6630137   0.90350258  -0.75951113   0.13158711    11367.254     1000 
 2826000   0.60417122   -1.6109386   0.90535057  -0.70558804   0.14123297    11457.491     1000 
 2828000   0.57795482   -1.7189199   0.86606529  -0.85285462   0.13238474    11408.988     1000 
 2830000   0.58672149   -1.6696209   0.87920216  -0.79041871   0.11758474    11537.526     1000 
 2832000   0.61781183   -1.5995171   0.92579102  -0.67372608   0.13281205    11431.585     1000 
 2834000   0.58536013   -1.6913088   0.87716216  -0.81414664   0.12809782    11393.573     1000 
 2836000   0.62728073   -1.6373095   0.93998018  -0.69732936   0.13669738    11357.422     1000 
 2838000   0.58518465   -1.6721665    0.8768992  -0.79526729   0.12411143    11601.276     1000 
 2840000   0.61746352   -1.6541902   0.92526908   -0.7289211   0.12736138    11409.569     1000 
 2842000   0.63222499   -1.6788502   0.94738915  -0.73146105   0.12935675    11476.332     1000 
 2844000   0.61057132   -1.6788032   0.91494112  -0.76386213   0.13953402    11414.469     1000 
 2846000   0.60601733   -1.7055285   0.90811697  -0.79741153    0.1276828    11582.458     1000 
 2848000    0.5916256    -1.670266   0.88655096  -0.78371506   0.13673809    11506.407     1000 
 2850000   0.59072472   -1.6847509   0.88520099  -0.79954996   0.11856957    11707.957     1000 
 2852000   0.56935742   -1.6679193   0.85318209   -0.8147372   0.11862559    11562.824     1000 
 2854000   0.60256987   -1.6957678   0.90295096   -0.7928168   0.13350739    11671.698     1000 
 2856000    0.6062706   -1.6306955    0.9084965    -0.722199   0.13151746    11401.936     1000 
 2858000   0.63022076   -1.6307543    0.9443858  -0.68636854   0.12962151    11376.422     1000 
 2860000     0.626524   -1.6628847   0.93884621  -0.72403847   0.13649355        11476     1000 
 2862000   0.60774957   -1.6609639   0.91071273  -0.75025121    0.1307432     11419.84     1000 
 2864000   0.62089037    -1.715061   0.93040421  -0.78465681   0.13312008    11720.371     1000 
 2866000    0.5975173   -1.6337589   0.89537967  -0.73837919   0.12435449    11412.952     1000 
 2868000   0.57905569   -1.6882532   0.86771495  -0.82053829   0.13105927     11452.05     1000 
 2870000   0.62574934   -1.6098576   0.93768539  -0.67217224   0.14595464    11287.136     1000 
 2872000   0.60182462   -1.6828585    0.9018342  -0.78102426   0.13056867    11391.863     1000 
 2874000   0.58890648   -1.6960321   0.88247636  -0.81355569   0.12244778    11654.907     1000 
 2876000   0.57431645   -1.7312488   0.86061321  -0.87063556   0.12742851    11693.666     1000 
 2878000   0.61836314   -1.6776865   0.92661716  -0.75106934   0.13701903    11493.963     1000 
 2880000   0.62896054   -1.6690565   0.94249737  -0.72655908    0.1217141      11487.7     1000 
 2882000   0.62335117   -1.6961345   0.93409172  -0.76204278    0.1255203    11481.945     1000 
 2884000   0.60460406   -1.6651411   0.90599918  -0.75914187   0.12668223    11554.167     1000 
 2886000   0.59974133   -1.6445877   0.89871238  -0.74587528    0.1402654    11373.611     1000 
 2888000   0.62106609    -1.717955   0.93066753   -0.7872875   0.13046853    11563.231     1000 
 2890000   0.62702067   -1.6632026   0.93959048  -0.72361216   0.12451622    11743.853     1000 
 2892000   0.61712171   -1.6641717   0.92475688   -0.7394148   0.14667122    11350.998     1000 
 2894000   0.61455346   -1.7361968   0.92090836  -0.81528848    0.1333236    11464.751     1000 
 2896000   0.57969858   -1.7093391   0.86867832  -0.84066082    0.1179448    11723.054     1000 
 2898000   0.60268126   -1.6360622   0.90311786  -0.73294429   0.12776162    11412.838     1000 
 2900000   0.58653979   -1.6578976   0.87892987   -0.7789677   0.13353168    11385.344     1000 
 2902000    0.5603073    -1.654307   0.83962049  -0.81468649   0.13398607    11364.007     1000 
 2904000   0.57568561   -1.6491766   0.86266488  -0.78651169   0.12160643    11608.647     1000 
 2906000   0.58734926   -1.6762037   0.88014286  -0.79606081   0.12439641    11568.235     1000 
 2908000   0.59803765   -1.6777147   0.89615942   -0.7815553   0.12523834     11665.22     1000 
 2910000   0.59028786   -1.6598156   0.88454635  -0.77526927   0.13067193    11581.407     1000 
 2912000   0.57056882   -1.6327393   0.85499738  -0.77774189   0.12854104    11476.009     1000 
 2914000   0.60222849   -1.6305651   0.90243939  -0.72812572   0.14664463    11291.102     1000 
 2916000   0.61043729   -1.6425114   0.91474027  -0.72777109   0.13437557    11420.885     1000 
 2918000   0.56978267   -1.6654966   0.85381933  -0.81167729   0.12605524     11539.24     1000 
 2920000   0.59362468   -1.7040468   0.88954658  -0.81450023   0.13092364    11571.464     1000 
 2922000   0.56985295   -1.7005757   0.85392465  -0.84665104   0.12617062    11467.846     1000 
 2924000   0.58049803   -1.6255359   0.86987629  -0.75565963   0.13549451     11427.25     1000 
 2926000   0.58448512   -1.6478666   0.87585095  -0.77201567   0.13559957    11293.377     1000 
 2928000   0.60880448   -1.6704779   0.91229352  -0.75818439   0.12689971    11536.364     1000 
 2930000   0.62052141   -1.6247301   0.92985133  -0.69487882   0.12775841    11439.695     1000 
 2932000   0.59020215   -1.6335719   0.88441792  -0.74915403   0.13164239    11401.771     1000 
 2934000   0.60561062   -1.7065975   0.90750751  -0.79908994    0.1218328    11618.065     1000 
 2936000   0.61131297   -1.5653391   0.91605248  -0.64928665   0.14197115    11378.389     1000 
 2938000   0.61960832    -1.651642   0.92848306  -0.72315889   0.12491446    11722.234     1000 
 2940000   0.62142797   -1.7040813   0.93120981  -0.77287148    0.1256433    11587.655     1000 
 2942000    0.6108595   -1.6775031   0.91537296  -0.76213018   0.12556898    11565.491     1000 
 2944000   0.61215503   -1.6735473   0.91731431  -0.75623294   0.13038993    11535.982     1000 
 2946000   0.59768496   -1.6482152   0.89563091   -0.7525843   0.12508906    11535.864     1000 
 2948000   0.57395476   -1.6248852    0.8600712  -0.76481395    0.1323452    11424.369     1000 
 2950000   0.61590386   -1.6827104   0.92293194  -0.75977843    0.1294442    11446.837     1000 
 2952000   0.59140449   -1.6303706   0.88621962  -0.74415097   0.12267532    11470.884     1000 
 2954000   0.59746452   -1.6283067   0.89530059  -0.73300608    0.1397968    11448.689     1000 
 2956000   0.59113172   -1.6344653   0.88581088  -0.74865447   0.13622155    11418.176     1000 
 2958000   0.57889444   -1.6826151   0.86747331   -0.8151418   0.13100267    11479.446     1000 
 2960000   0.60374682   -1.6525614    0.9047146  -0.74784678   0.13392204     11568.43     1000 
 2962000   0.60809659   -1.6822126   0.91123273  -0.77097985   0.14444711     11384.89     1000 
 2964000     0.596762   -1.6885997   0.89424786  -0.79435188   0.12760206    11529.998     1000 
 2966000   0.60576895   -1.6845442   0.90774477   -0.7767994   0.12971449    11521.334     1000 
 2968000   0.62472618   -1.6908879   0.93615218  -0.75473571   0.12140951    11684.748     1000 
 2970000   0.58867828   -1.6680309   0.88213441  -0.78589654   0.14424384    11212.144     1000 
 2972000   0.57745342   -1.6496356   0.86531395  -0.78432168   0.12458685    11502.049     1000 
 2974000   0.58777797   -1.6765224   0.88078529   -0.7957371   0.12121299    11606.302     1000 
 2976000   0.58032971   -1.6985972   0.86962407  -0.82897316   0.12492367    11536.523     1000 
 2978000   0.62593915   -1.6205934   0.93796982  -0.68262363   0.12768581    11501.639     1000 
 2980000   0.58466863   -1.6504174   0.87612594  -0.77429144   0.12873119     11363.48     1000 
 2982000    0.5930855    -1.643615   0.88873862  -0.75487638   0.13116522    11523.097     1000 
 2984000   0.58912047   -1.6293756   0.88279703  -0.74657858   0.12258964     11510.44     1000 
 2986000   0.57428398   -1.5971651   0.86056454  -0.73660059    0.1309062    11274.098     1000 
 2988000   0.60780493   -1.6624636    0.9107957  -0.75166786   0.12277762    11487.205     1000 
 2990000   0.60253861    -1.665419   0.90290411  -0.76251485   0.12980202    11468.163     1000 
 2992000   0.62662258   -1.6723053   0.93899394  -0.73331135   0.13647229    11453.861     1000 
 2994000   0.60700738   -1.6308148   0.90960056  -0.72121429   0.13543253    11537.898     1000 
 2996000   0.61200889   -1.6394636   0.91709532  -0.72236828   0.13325341    11520.784     1000 
 2998000   0.59660595     -1.69154   0.89401402  -0.79752594   0.12770778    11571.456     1000 
 3000000   0.60872949   -1.6436892   0.91218114  -0.73150806   0.13170311    11474.829     1000 
Loop time of 7409.73 on 1 procs for 3000000 steps with 1000 atoms

Performance: 174905.194 tau/day, 404.873 timesteps/s
100.0% CPU use with 1 MPI tasks x 1 OpenMP threads

MPI task timing breakdown:
Section |  min time  |  avg time  |  max time  |%varavg| %total
---------------------------------------------------------------
Pair    | 6683.4     | 6683.4     | 6683.4     |   0.0 | 90.20
Neigh   | 576.65     | 576.65     | 576.65     |   0.0 |  7.78
Comm    | 63.003     | 63.003     | 63.003     |   0.0 |  0.85
Output  | 0.028342   | 0.028342   | 0.028342   |   0.0 |  0.00
Modify  | 76.083     | 76.083     | 76.083     |   0.0 |  1.03
Other   |            | 10.56      |            |       |  0.14

Nlocal:        1000.00 ave        1000 max        1000 min
Histogram: 1 0 0 0 0 0 0 0 0 0
Nghost:        6015.00 ave        6015 max        6015 min
Histogram: 1 0 0 0 0 0 0 0 0 0
Neighs:        198659.0 ave      198659 max      198659 min
Histogram: 1 0 0 0 0 0 0 0 0 0

Total # of neighbors = 198659
Ave neighs/atom = 198.65900
Neighbor list builds = 150000
Dangerous builds not checked

Total wall time: 2:03:29
