LAMMPS (29 Sep 2021 - Update 2)
OMP_NUM_THREADS environment is not set. Defaulting to 1 thread. (src/comm.cpp:98)
  using 1 OpenMP thread(s) per MPI task
# ----------------------- Inicialização -----------------------

units			lj
atom_style 		atomic
dimension 		3
boundary 		p p p

# -------------------- Criação dos Átomos ---------------------

read_data 		topologia.txt
Reading data file ...
  orthogonal box = (0.0000000 0.0000000 0.0000000) to (21.540000 21.540000 21.540000)
  1 by 1 by 1 MPI processor grid
  reading atoms ...
  1000 atoms
  read_data CPU = 0.005 seconds

velocity 		all create ${temp} 87287 rot yes dist gaussian
velocity 		all create 0.56 87287 rot yes dist gaussian

# ------------------ Interação Interatômica -------------------

pair_style		table linear 2000
pair_coeff		1 1 force.table AA 10.0
WARNING: 3 of 2000 force values in table AA are inconsistent with -dE/dr.
WARNING:  Should only be flagged at inflection points (src/pair_table.cpp:465)
pair_coeff		1 2 force.table AB 10.0
WARNING: 1 of 2000 force values in table AB are inconsistent with -dE/dr.
WARNING:  Should only be flagged at inflection points (src/pair_table.cpp:465)
pair_coeff		2 2 force.table BB 10.0
pair_write		1 1 2000 r 0.008 10.0 table.check AA
Appending to table file table.check with DATE: 2023-06-17
Neighbor list info ...
  update every 1 steps, delay 10 steps, check yes
  max neighbors/atom: 2000, page size: 100000
  master list distance cutoff = 10.3
  ghost atom cutoff = 10.3
  binsize = 5.15, bins = 5 5 5
  1 neighbor lists, perpetual/occasional/extra = 1 0 0
  (1) pair table, perpetual
      attributes: half, newton on
      pair build: half/bin/atomonly/newton
      stencil: half/bin/3d
      bin: standard
pair_write		1 2 2000 r 0.008 10.0 table.check AB
Appending to table file table.check with DATE: 2023-06-17
pair_write		2 2 2000 r 0.008 10.0 table.check BB
Appending to table file table.check with DATE: 2023-06-17

neighbor 		0.3 bin
neigh_modify		every 20 delay 0 check no

# ------------------------- Ensemble --------------------------------------

fix 1			all npt temp ${temp} ${temp} 0.5 iso ${press} ${press} 5
fix 1			all npt temp 0.56 ${temp} 0.5 iso ${press} ${press} 5
fix 1			all npt temp 0.56 0.56 0.5 iso ${press} ${press} 5
fix 1			all npt temp 0.56 0.56 0.5 iso 0.13 ${press} 5
fix 1			all npt temp 0.56 0.56 0.5 iso 0.13 0.13 5

# ---------------------- Função de Distribuição Radial -----------------------

#compute RDF 		all rdf 2000 1 1 1 2 2 2
#fix 2 			all ave/time 1 2000 2000 c_RDF[*] file rdf.data mode vector

# ------------------------- Execução ---------------------------

timestep 		0.005
thermo_style		custom step temp pe ke etotal press vol atoms
thermo			2000
run			3000000
Per MPI rank memory allocation (min/avg/max) = 3.614 | 3.614 | 3.614 Mbytes
Step Temp PotEng KinEng TotEng Press Volume Atoms 
       0         0.56  -0.99611563      0.83916  -0.15695563   0.12395403    9993.9483     1000 
    2000   0.57821359   -1.7601948   0.86645306  -0.89374178    0.1266278    11433.501     1000 
    4000   0.56306622   -1.7412406   0.84375473  -0.89748589   0.12675211    11484.256     1000 
    6000   0.53758145   -1.8015712    0.8055658  -0.99600541   0.12545952    11583.935     1000 
    8000   0.57095489   -1.7185836    0.8555759  -0.86300772   0.13275285    11450.276     1000 
   10000    0.5761905   -1.7420703   0.86342146  -0.87864886   0.15215161    11339.463     1000 
   12000   0.56707502   -1.7880577   0.84976191  -0.93829582   0.12394957    11437.193     1000 
   14000   0.54923068   -1.8003249   0.82302217  -0.97730275   0.12795582    11474.489     1000 
   16000   0.57384212   -1.7767853   0.85990242  -0.91688289   0.12702334     11513.76     1000 
   18000   0.55783603    -1.751001   0.83591729  -0.91508369    0.1394876    11383.121     1000 
   20000   0.56389779   -1.7694586   0.84500084  -0.92445775   0.13116742    11404.818     1000 
   22000   0.54304857   -1.7425493   0.81375829  -0.92879105   0.13220202    11441.351     1000 
   24000   0.56754321   -1.7232162    0.8504635  -0.87275265   0.12922758    11394.634     1000 
   26000   0.55539799   -1.7584156   0.83226389  -0.92615174   0.12030909    11412.033     1000 
   28000   0.56261159   -1.8029097   0.84307347  -0.95983624   0.13180205    11492.616     1000 
   30000   0.57603049   -1.7707974   0.86318169  -0.90761572   0.14458267     11371.19     1000 
   32000   0.54955908   -1.8078608   0.82351429  -0.98434655   0.12289187     11463.87     1000 
   34000    0.5841835   -1.7802784   0.87539897  -0.90487939   0.13875216    11252.642     1000 
   36000   0.56938639   -1.7672117    0.8532255  -0.91398624    0.1355593    11367.968     1000 
   38000   0.54933526    -1.757768   0.82317889  -0.93458915   0.13124503    11412.591     1000 
   40000   0.57660624   -1.7204822   0.86404445  -0.85643773   0.13365643    11379.785     1000 
   42000   0.57150868   -1.7718428   0.85640576  -0.91543701   0.12555089    11390.068     1000 
   44000    0.5554841   -1.7356375   0.83239293  -0.90324454   0.13082214    11544.135     1000 
   46000   0.57167824   -1.7827985   0.85665984  -0.92613863   0.12677685    11344.414     1000 
   48000   0.54785999   -1.7955275    0.8209682  -0.97455934   0.13880578    11400.774     1000 
   50000   0.54092283   -1.7851853   0.81057286  -0.97461243   0.12509375    11464.946     1000 
   52000    0.5768789   -1.7680799   0.86445304  -0.90362685   0.12280188    11597.314     1000 
   54000   0.57603486   -1.8014154   0.86318823  -0.93822716   0.13690026    11469.411     1000 
   56000    0.5547801   -1.7310494   0.83133798  -0.89971143   0.13939178    11236.425     1000 
   58000    0.5586699   -1.7888329   0.83716684  -0.95166607   0.13598704    11481.824     1000 
   60000   0.56775879   -1.7888462   0.85078655  -0.93805964   0.13787114    11402.753     1000 
   62000   0.54877526   -1.7771803   0.82233973  -0.95484061   0.11809549    11587.942     1000 
   64000   0.58882482   -1.7546115   0.88235399  -0.87225748   0.12896465    11496.045     1000 
   66000   0.54334123   -1.8232324   0.81419684   -1.0090356    0.1238139     11591.92     1000 
   68000   0.53442618   -1.7707219   0.80083763  -0.96988424   0.13922626     11346.27     1000 
   70000   0.54313762    -1.814045   0.81389172   -1.0001533   0.12468549    11510.031     1000 
   72000   0.59578263   -1.7613228   0.89278028  -0.86854252   0.12057683    11495.061     1000 
   74000   0.53528267   -1.7337817   0.80212108  -0.93166062   0.12254519    11496.156     1000 
   76000    0.5599701   -1.7683173   0.83911519  -0.92920215   0.11793215    11577.602     1000 
   78000   0.58678986   -1.7543484   0.87930461  -0.87504382   0.13899967     11215.19     1000 
   80000   0.54725537   -1.7471654   0.82006217  -0.92710321   0.13602014    11281.802     1000 
   82000   0.55163348   -1.7934215   0.82662278  -0.96679872   0.12973486    11549.637     1000 
   84000   0.55821111   -1.8476785   0.83647935   -1.0111991    0.1218906    11694.141     1000 
   86000   0.52422123   -1.8111665   0.78554551   -1.0256209   0.12083949    11545.103     1000 
   88000    0.5442356   -1.7518433   0.81553705  -0.93630621   0.12477052    11369.291     1000 
   90000   0.55196313   -1.7904341   0.82711675  -0.96331734   0.13707466    11288.393     1000 
   92000   0.53383989    -1.730295   0.79995908  -0.93033588   0.14888902    11282.041     1000 
   94000   0.57501858   -1.7317062   0.86166535  -0.87004089    0.1373305    11408.924     1000 
   96000   0.57570159   -1.7268547   0.86268884  -0.86416583   0.14449074    11239.413     1000 
   98000   0.56584872   -1.7332995   0.84792431  -0.88537522    0.1470678    11273.345     1000 
  100000   0.57332657   -1.7674891   0.85912987  -0.90835923   0.12706589    11567.081     1000 
  102000   0.56512442   -1.7635933   0.84683895  -0.91675435   0.13365408    11370.401     1000 
  104000   0.55570597   -1.7693027    0.8327254  -0.93657731   0.13057772    11337.411     1000 
  106000   0.54484625   -1.7796968   0.81645211   -0.9632447   0.12158408    11538.841     1000 
  108000   0.53720383   -1.7631502   0.80499995  -0.95815023   0.12137365    11638.103     1000 
  110000   0.54518604   -1.7207636   0.81696128   -0.9038023   0.12818439     11417.96     1000 
  112000   0.54854375   -1.7836088   0.82199281  -0.96161597   0.12994664    11462.064     1000 
  114000    0.5598116   -1.7536523   0.83887768  -0.91477462   0.12349066     11590.74     1000 
  116000   0.53567906   -1.7755062   0.80271507  -0.97279117   0.13766007    11233.013     1000 
  118000   0.55307313   -1.7782238   0.82878008   -0.9494437    0.1293633    11483.165     1000 
  120000   0.57427943   -1.7656685   0.86055772  -0.90511076   0.13617594    11297.559     1000 
  122000   0.56074871   -1.7571147   0.84028194  -0.91683281   0.12832078    11412.229     1000 
  124000   0.56530285   -1.7821076   0.84710631  -0.93500125   0.12655804    11551.034     1000 
  126000   0.55377936     -1.77148   0.82983837  -0.94164165   0.12849234    11357.006     1000 
  128000   0.56476708   -1.8107647   0.84630346  -0.96446124   0.12641505    11345.413     1000 
  130000   0.55706047   -1.7652791   0.83475511  -0.93052403   0.12562492    11419.143     1000 
  132000   0.57191882    -1.730577   0.85702035  -0.87355667   0.12114773    11375.046     1000 
  134000   0.55274612   -1.7704785   0.82829007  -0.94218847   0.12994218     11349.93     1000 
  136000   0.57226689   -1.7751966   0.85754193  -0.91765467   0.13695419    11403.289     1000 
  138000   0.54801216   -1.7536151   0.82119623  -0.93241889   0.13498766    11366.131     1000 
  140000   0.56388447   -1.8242227   0.84498088  -0.97924185   0.11951924    11547.657     1000 
  142000   0.55109548   -1.7552456   0.82581657  -0.92942907    0.1338008     11431.95     1000 
  144000   0.55630347   -1.7152993   0.83362076  -0.88167853   0.14395421    11258.885     1000 
  146000   0.54483836   -1.7829107   0.81644029  -0.96647045   0.12549326     11580.76     1000 
  148000   0.59129521   -1.7831285   0.88605587  -0.89707259   0.13961618    11403.745     1000 
  150000   0.55923878   -1.7870616   0.83801932  -0.94904229   0.12512382    11540.247     1000 
  152000   0.54946794   -1.7547658   0.82337771   -0.9313881    0.1287689     11526.84     1000 
  154000   0.56123611   -1.7335687   0.84101231  -0.89255638   0.13712465    11315.724     1000 
  156000   0.53636085   -1.7491971   0.80373674  -0.94546033   0.13245446    11294.169     1000 
  158000   0.53786956   -1.7065747   0.80599753  -0.90057716    0.1228912    11441.787     1000 
  160000   0.55417457   -1.7733082    0.8304306  -0.94287758   0.14290494    11358.513     1000 
  162000   0.54316742   -1.7335303   0.81393637  -0.91959392   0.13138188    11333.666     1000 
  164000    0.5640469   -1.7975017   0.84522428  -0.95227739   0.11416231    11683.357     1000 
  166000   0.58169964   -1.7802432    0.8716769  -0.90856634   0.13634242    11407.232     1000 
  168000   0.58318183    -1.751481   0.87389797  -0.87758305   0.13289302    11456.169     1000 
  170000   0.56103831   -1.7457203   0.84071591   -0.9050044   0.12524014    11534.754     1000 
  172000   0.54281825   -1.7802616   0.81341316  -0.96684845   0.12087237    11620.986     1000 
  174000   0.53790628   -1.7662853   0.80605256  -0.96023277   0.13321478        11429     1000 
  176000   0.55663413   -1.7784967   0.83411624  -0.94438043   0.13343474     11420.82     1000 
  178000   0.56211264   -1.7668914   0.84232579  -0.92456565   0.14185418    11339.219     1000 
  180000   0.56055706   -1.7244841   0.83999476  -0.88448931   0.12996497    11585.905     1000 
  182000   0.57393671   -1.7788885   0.86004416  -0.91884437   0.13000391    11380.649     1000 
  184000   0.54010244   -1.7540453   0.80934351  -0.94470181    0.1240366    11516.616     1000 
  186000   0.56079947   -1.7677541   0.84035801  -0.92739605   0.12598663    11379.332     1000 
  188000   0.55786278   -1.7821683   0.83595738   -0.9462109   0.12996611    11397.887     1000 
  190000   0.56702026   -1.7515996   0.84967986  -0.90191977   0.10806193    11725.535     1000 
  192000    0.5602247   -1.7203179   0.83949671  -0.88082123    0.1386704    11351.865     1000 
  194000   0.56736338   -1.7639472   0.85019403   -0.9137532   0.13258006    11370.069     1000 
  196000    0.5437696   -1.7660883   0.81483874  -0.95124958   0.12561478    11335.719     1000 
  198000   0.54270461   -1.8071086   0.81324287  -0.99386578   0.12020438    11366.347     1000 
  200000   0.56347072   -1.7993834   0.84436088  -0.95502249   0.13922737    11301.156     1000 
  202000   0.57244516   -1.7240569   0.85780908  -0.86624779   0.13234493    11492.304     1000 
  204000   0.57517622   -1.8047588   0.86190157  -0.94285722   0.14360567    11432.733     1000 
  206000   0.53790098   -1.7324003   0.80604462  -0.92635568   0.12941707    11249.306     1000 
  208000   0.57161599   -1.7212056   0.85656655  -0.86463902   0.12341322    11417.994     1000 
  210000   0.55199801   -1.7536941   0.82716902  -0.92652508   0.13804651    11306.941     1000 
  212000   0.55470335   -1.7051307   0.83122297  -0.87390774   0.12922394     11433.48     1000 
  214000   0.56258152   -1.7832719    0.8430284  -0.94024346    0.1260696    11501.089     1000 
  216000   0.57729045   -1.7094168   0.86506973  -0.84434709   0.13366655    11357.363     1000 
  218000   0.57032939   -1.7386994   0.85463858  -0.88406081   0.12794239    11327.577     1000 
  220000   0.52234576   -1.7320837   0.78273511  -0.94934854   0.12958421    11428.486     1000 
  222000   0.51999948   -1.6795463   0.77921923  -0.90032704   0.13712623    11337.707     1000 
  224000   0.55064544   -1.7802303   0.82514219  -0.95508809    0.1411082     11426.45     1000 
  226000   0.55867704   -1.8060791   0.83717754  -0.96890151   0.12732062    11470.772     1000 
  228000   0.57885893   -1.7665111    0.8674201    -0.899091   0.14143675    11385.889     1000 
  230000   0.57227396   -1.7918936   0.85755253  -0.93434109   0.13002888    11442.283     1000 
  232000   0.53472511   -1.7086404   0.80128558  -0.90735484   0.13243969    11455.641     1000 
  234000   0.55542356   -1.7997716   0.83230221  -0.96746939   0.13752433     11422.12     1000 
  236000   0.53813985   -1.7926957   0.80640257  -0.98629316   0.12764886    11542.943     1000 
  238000   0.54680956   -1.7894756   0.81939413  -0.97008152   0.12168916    11594.989     1000 
  240000   0.59019167   -1.7693958   0.88440222  -0.88499362   0.13057836     11421.38     1000 
  242000   0.54564955   -1.7963441   0.81765585  -0.97868829   0.13677501    11269.419     1000 
  244000   0.56045348   -1.7312396   0.83983954  -0.89140005   0.11682751    11498.963     1000 
  246000    0.5777903   -1.7420899   0.86581876  -0.87627114   0.13914338    11366.244     1000 
  248000   0.55412337   -1.7678366   0.83035387  -0.93748273    0.1221574    11638.681     1000 
  250000   0.55620736   -1.7485134   0.83347674  -0.91503669   0.14091586    11395.401     1000 
  252000   0.56432351   -1.7639179   0.84563879  -0.91827908   0.13172975    11476.974     1000 
  254000    0.5593987   -1.7240575   0.83825895  -0.88579857   0.11766428    11588.811     1000 
  256000   0.55475149    -1.776218    0.8312951  -0.94492293   0.12425048    11537.109     1000 
  258000   0.56196498   -1.7712232   0.84210453   -0.9291187    0.1102938    11721.879     1000 
  260000   0.56252236   -1.7849798   0.84293975  -0.94204006   0.12689543    11384.524     1000 
  262000   0.57512854   -1.7866378   0.86183012  -0.92480771   0.13676527    11397.839     1000 
  264000   0.57547888   -1.6928466    0.8623551  -0.83049154   0.14111323    11256.036     1000 
  266000   0.55936862   -1.7541898   0.83821388  -0.91597597   0.11723337     11575.68     1000 
  268000   0.54150025   -1.7598619   0.81143813  -0.94842378   0.13048065    11527.096     1000 
  270000   0.54285187   -1.7515494   0.81346353  -0.93808588   0.13262392    11342.479     1000 
  272000   0.55694508   -1.7232323   0.83458221  -0.88865012   0.12514517    11484.065     1000 
  274000   0.54645994   -1.7362052   0.81887022  -0.91733495   0.11882403    11507.526     1000 
  276000   0.53258946   -1.7600166   0.79808531  -0.96193133   0.12842935    11435.076     1000 
  278000   0.54338916    -1.752829   0.81426866  -0.93856038   0.11717089    11542.212     1000 
  280000   0.55452026   -1.7973652   0.83094861  -0.96641656    0.1196068    11539.861     1000 
  282000   0.56061222   -1.8095745   0.84007742  -0.96949709   0.14011533     11512.69     1000 
  284000   0.57092046   -1.7610588   0.85552431  -0.90553453   0.14229225    11248.415     1000 
  286000   0.55798915    -1.762469   0.83614674   -0.9263223   0.13354953    11324.899     1000 
  288000   0.55730683   -1.7576061   0.83512428  -0.92248181   0.13116795    11496.154     1000 
  290000   0.55415713   -1.7616843   0.83040446  -0.93127986    0.1305273    11503.181     1000 
  292000   0.57309392   -1.6962204   0.85878124  -0.83743911   0.13350503    11401.718     1000 
  294000   0.57877194   -1.7418409   0.86728975  -0.87455114   0.12381541     11566.63     1000 
  296000   0.55741744   -1.7485333   0.83529004  -0.91324328   0.13224324     11421.22     1000 
  298000   0.58175837   -1.6889001   0.87176492  -0.81713516   0.13592658    11259.705     1000 
  300000   0.54781468   -1.7851477    0.8209003  -0.96424743   0.12530134      11582.9     1000 
  302000   0.52701846   -1.7145851   0.78973716  -0.92484789   0.13432542    11374.084     1000 
  304000   0.56975172   -1.8013187   0.85377296  -0.94754573   0.13239528    11355.293     1000 
  306000   0.56280887   -1.7585624   0.84336909  -0.91519329   0.13164391    11497.604     1000 
  308000   0.57166037   -1.7360822   0.85663307  -0.87944914   0.13061373    11429.947     1000 
  310000   0.56212389   -1.7045472   0.84234265   -0.8622045   0.13496657     11397.84     1000 
  312000   0.55622008   -1.7636798   0.83349579  -0.93018402   0.13017425    11379.448     1000 
  314000   0.53454319   -1.8021294   0.80101297   -1.0011164   0.12425008    11577.023     1000 
  316000   0.55463816   -1.7843907   0.83112528   -0.9532654   0.12845775    11412.663     1000 
  318000   0.56427444   -1.7814965   0.84556525  -0.93593125   0.12204356    11543.745     1000 
  320000   0.55037574   -1.7711867   0.82473804  -0.94644868   0.11593872    11689.009     1000 
  322000   0.55978656   -1.7662795   0.83884016  -0.92743929   0.12485822    11549.948     1000 
  324000   0.56911556   -1.7331119   0.85281967  -0.88029218   0.13639968    11327.486     1000 
  326000   0.57065109   -1.7593279   0.85512066  -0.90420727   0.13984692    11327.503     1000 
  328000   0.57517465   -1.8023379   0.86189921  -0.94043868   0.12590478     11498.21     1000 
  330000   0.55259751   -1.7282168   0.82806736  -0.90014947   0.13416755    11305.432     1000 
  332000    0.5275361   -1.7971179   0.79051285    -1.006605   0.13057048    11401.988     1000 
  334000    0.5615959   -1.7702288   0.84155146  -0.92867734   0.13748342    11471.299     1000 
  336000   0.54993927   -1.8679127   0.82408399   -1.0438287   0.12703812    11603.393     1000 
  338000   0.55284704   -1.7317269   0.82844129  -0.90328558   0.12264556    11492.769     1000 
  340000   0.56546533   -1.7865598    0.8473498  -0.93920998   0.12507165    11485.888     1000 
  342000   0.56084964   -1.7735564   0.84043318  -0.93312318   0.12108116    11499.173     1000 
  344000   0.55310165    -1.641814   0.82882283  -0.81299118   0.13736065    11249.217     1000 
  346000   0.57370965   -1.7019414   0.85970391  -0.84223747   0.13119956    11413.018     1000 
  348000   0.55567213   -1.7886295   0.83267469  -0.95595485   0.12192909    11576.505     1000 
  350000     0.578357   -1.7866049   0.86666796  -0.91993692   0.12589892    11433.473     1000 
  352000   0.54472331   -1.7472425   0.81626788  -0.93097461   0.12041452    11610.068     1000 
  354000   0.54668083   -1.7830193   0.81920122  -0.96381809   0.14855634    11191.343     1000 
  356000   0.54456584   -1.8193334   0.81603191   -1.0033015   0.13287631    11449.715     1000 
  358000   0.57478062   -1.7333319   0.86130876  -0.87202312   0.13617864     11589.64     1000 
  360000   0.57239975   -1.7714541   0.85774103  -0.91371309     0.124131      11523.4     1000 
  362000    0.5493738    -1.766513   0.82323664  -0.94327633    0.1284356    11450.075     1000 
  364000   0.55406947   -1.7504524   0.83027311  -0.92017931   0.13488646     11388.18     1000 
  366000    0.5985956   -1.7948282   0.89699551  -0.89783267   0.12474825    11522.511     1000 
  368000   0.56451001   -1.7843463   0.84591826  -0.93842806   0.12244463    11684.992     1000 
  370000   0.57250848   -1.7906587   0.85790396   -0.9327547   0.13271783    11537.913     1000 
  372000   0.54067984   -1.7714142   0.81020874  -0.96120541   0.12775257    11520.658     1000 
  374000   0.57842196   -1.7918297   0.86676531  -0.92506442   0.12884552     11435.35     1000 
  376000    0.5570728   -1.7673176   0.83477358  -0.93254399   0.14248022    11252.526     1000 
  378000   0.54149871   -1.8017758   0.81143581  -0.99033994    0.1330067     11437.93     1000 
  380000    0.5526721   -1.7284112   0.82817914  -0.90023209   0.12053308    11536.242     1000 
  382000   0.55388513   -1.8073981   0.82999686  -0.97740128   0.12763274    11594.938     1000 
  384000   0.54131823   -1.7444583   0.81116537  -0.93329295   0.12179001    11618.577     1000 
  386000   0.56525233   -1.7454054   0.84703061  -0.89837477   0.14795168    11282.822     1000 
  388000   0.57990243   -1.7359537    0.8689838   -0.8669699   0.12906781    11291.824     1000 
  390000   0.56972632   -1.7668436    0.8537349  -0.91310871   0.14824787    11319.006     1000 
  392000   0.54735903    -1.771395   0.82021751  -0.95117752   0.12794452    11564.799     1000 
  394000   0.56606876   -1.7514422   0.84825404  -0.90318812   0.13389332    11525.419     1000 
  396000   0.54046321     -1.73397   0.80988412  -0.92408583   0.13288666    11477.393     1000 
  398000    0.5587884   -1.7324294   0.83734442  -0.89508497   0.13959978    11297.486     1000 
  400000   0.54136802   -1.7441345   0.81123998  -0.93289449   0.13589039    11294.107     1000 
  402000   0.56429657   -1.7546226   0.84559841  -0.90902423   0.14141227    11476.413     1000 
  404000   0.57075808   -1.7965756   0.85528098  -0.94129466   0.13576033    11337.629     1000 
  406000   0.54526946   -1.7554008   0.81708629  -0.93831451   0.13440816    11387.579     1000 
  408000   0.52923531   -1.7723158   0.79305912  -0.97925672   0.12815281    11410.581     1000 
  410000   0.55833052   -1.7290279   0.83665828  -0.89236964   0.13087962     11341.71     1000 
  412000    0.5609364   -1.7391584    0.8405632  -0.89859521     0.131983    11375.082     1000 
  414000   0.58067147   -1.7631668    0.8701362  -0.89303056    0.1290909     11567.38     1000 
  416000   0.54927107    -1.747138    0.8230827   -0.9240553   0.13173425    11450.672     1000 
  418000   0.54622477   -1.7310813   0.81851782  -0.91256353   0.12825079    11343.358     1000 
  420000    0.5688571   -1.6714975   0.85243237  -0.81906509   0.14211283     11252.73     1000 
  422000    0.5390319   -1.7212364    0.8077393  -0.91349708   0.12883449     11403.03     1000 
  424000    0.5361282   -1.7486987   0.80338811  -0.94531054   0.13027927    11429.172     1000 
  426000   0.54757951   -1.7987319    0.8205479    -0.978184   0.13161001    11549.268     1000 
  428000   0.56033101   -1.7681095   0.83965602  -0.92845348   0.13518297    11315.147     1000 
  430000   0.57871608   -1.7651993   0.86720605  -0.89799323   0.12363461    11585.534     1000 
  432000   0.57601558   -1.8154699   0.86315935   -0.9523105   0.14052118    11463.333     1000 
  434000   0.56298727   -1.7612207   0.84363643  -0.91758431   0.12736554    11451.221     1000 
  436000   0.57102104   -1.7634532   0.85567503  -0.90777815    0.1375956    11371.236     1000 
  438000   0.54997307    -1.744315   0.82413465  -0.92018031   0.13399893    11339.478     1000 
  440000   0.56307125    -1.779995   0.84376227   -0.9362327   0.13847451    11374.055     1000 
  442000   0.57707005   -1.7822119   0.86473947  -0.91747241   0.11569172    11622.895     1000 
  444000   0.54059627   -1.7583757   0.81008351  -0.94829219   0.12072699    11453.718     1000 
  446000    0.5651299   -1.7710618   0.84684716  -0.92421461   0.13089808    11319.516     1000 
  448000   0.55818214   -1.7126285   0.83643594  -0.87619254   0.12418981    11456.636     1000 
  450000   0.57417436   -1.7790084   0.86040028  -0.91860816   0.12751367    11499.415     1000 
  452000   0.57799212   -1.7390359   0.86612119  -0.87291471   0.14818003    11242.722     1000 
  454000   0.55280337   -1.7450171   0.82837585  -0.91664126   0.13311597    11370.346     1000 
  456000   0.55930209   -1.7789069   0.83811419  -0.94079275   0.12239783    11612.917     1000 
  458000   0.56065666   -1.7886059   0.84014401  -0.94846186   0.13762151    11324.805     1000 
  460000   0.55143596   -1.7425141   0.82632679  -0.91618728   0.12840101    11466.426     1000 
  462000   0.57172266   -1.7938487   0.85672641  -0.93712225   0.12868008    11424.806     1000 
  464000   0.55347826   -1.7222613   0.82938717   -0.8928741   0.11814117     11489.12     1000 
  466000   0.58597289   -1.7877882   0.87808037  -0.90970779    0.1222952    11534.689     1000 
  468000   0.57702707   -1.7585293   0.86467506  -0.89385423   0.14398276    11351.887     1000 
  470000   0.56215021   -1.7786809   0.84238208  -0.93629883   0.12480892    11457.266     1000 
  472000   0.54860112   -1.7590038   0.82207877  -0.93692505   0.13778277    11360.719     1000 
  474000   0.56166519   -1.8160206   0.84165529  -0.97436528   0.12839549    11404.181     1000 
  476000   0.54164551   -1.7606435    0.8116558  -0.94898766   0.12937216    11427.661     1000 
  478000   0.58109294   -1.7397672   0.87076777  -0.86899946   0.13577757    11282.612     1000 
  480000   0.55675951   -1.7627094   0.83430412  -0.92840528   0.13486415    11305.305     1000 
  482000   0.54835055    -1.738918   0.82170329  -0.91721468   0.13795849    11485.002     1000 
  484000   0.54353286   -1.7586408   0.81448399  -0.94415682   0.14165653    11252.092     1000 
  486000   0.59070425   -1.7307388   0.88517033  -0.84556845   0.14099324    11325.969     1000 
  488000   0.57212619   -1.7278164    0.8573311  -0.87048532   0.13970884    11304.036     1000 
  490000   0.57108094    -1.798755   0.85576478  -0.94299019   0.12966431    11499.565     1000 
  492000   0.56483492   -1.7344783   0.84640513  -0.88807313   0.13072516    11322.493     1000 
  494000   0.55219007   -1.7503418   0.82745682  -0.92288502   0.14513519    11217.647     1000 
  496000   0.56668663   -1.7847696   0.84917991  -0.93558967   0.12112326    11587.301     1000 
  498000    0.5753799   -1.7289896   0.86220678  -0.86678285   0.13151518    11456.608     1000 
  500000   0.55231276    -1.713497   0.82764067  -0.88585638   0.13881985    11349.918     1000 
  502000   0.57606141   -1.7706962   0.86322803  -0.90746813   0.12042215    11546.174     1000 
  504000   0.58681978   -1.7738885   0.87934944  -0.89453907   0.14669226    11233.934     1000 
  506000   0.55253016    -1.811986   0.82796644  -0.98401961   0.11249375    11468.385     1000 
  508000   0.57939362   -1.8178055   0.86822133  -0.94958417    0.1253331    11537.744     1000 
  510000   0.54475016   -1.7908554   0.81630812  -0.97454732   0.13023007    11576.236     1000 
  512000   0.58742842   -1.7873344   0.88026149  -0.90707294   0.12957808    11475.696     1000 
  514000    0.5572569   -1.7074196   0.83504947  -0.87237009   0.14363374    11206.519     1000 
  516000   0.56051487   -1.7158546   0.83993153  -0.87592304   0.12804033    11408.513     1000 
  518000   0.54227634   -1.7544228   0.81260109  -0.94182176   0.12946151    11484.494     1000 
  520000    0.5535406   -1.7747868   0.82948059  -0.94530617   0.12629801    11538.461     1000 
  522000   0.55986291    -1.748902   0.83895457  -0.90994743   0.14458295    11301.864     1000 
  524000   0.54185096   -1.7927352   0.81196367  -0.98077156   0.14337547    11246.313     1000 
  526000   0.57528631   -1.7216669   0.86206654  -0.85960033   0.12727323    11440.896     1000 
  528000   0.54524734   -1.7713839   0.81705315  -0.95433076   0.12615126    11517.757     1000 
  530000   0.52417735    -1.729998   0.78547976   -0.9445182   0.13135908    11155.071     1000 
  532000   0.55276337   -1.7364833   0.82831592  -0.90816743   0.13675995    11279.637     1000 
  534000   0.55855135    -1.784107    0.8369892   -0.9471178   0.12865109    11485.558     1000 
  536000   0.53399974   -1.7166902   0.80019862  -0.91649155   0.12982218    11503.055     1000 
  538000   0.55129675   -1.7543098   0.82611819  -0.92819166   0.13343649    11362.387     1000 
  540000   0.56105422   -1.8090938   0.84073975  -0.96835401   0.13411185    11367.616     1000 
  542000   0.57201724   -1.7185797   0.85716783  -0.86141187    0.1392951    11314.039     1000 
  544000   0.54313404   -1.7341769   0.81388636  -0.92029057   0.14158214    11438.937     1000 
  546000   0.54832096   -1.8021846   0.82165897  -0.98052564   0.13607886     11552.64     1000 
  548000   0.56083375   -1.7297956   0.84040938  -0.88938624   0.13800728    11346.245     1000 
  550000   0.56879366   -1.7264026    0.8523373  -0.87406526   0.13563192    11428.428     1000 
  552000   0.53580735    -1.766971   0.80290732  -0.96406364   0.12567315    11340.634     1000 
  554000   0.54957401   -1.7852753   0.82353665  -0.96173869   0.12243155    11605.888     1000 
  556000   0.55683489   -1.7269781   0.83441708  -0.89256105   0.12395235    11469.455     1000 
  558000   0.56699237   -1.7864212   0.84963806   -0.9367831    0.1241413    11493.632     1000 
  560000   0.54857255    -1.727476   0.82203596  -0.90544001   0.12223737    11524.467     1000 
  562000   0.55474404   -1.7645257   0.83128394  -0.93324178   0.12440836    11518.654     1000 
  564000   0.55891978   -1.7872109   0.83754129   -0.9496696   0.11901008    11556.169     1000 
  566000   0.56407728   -1.7637288    0.8452698  -0.91845903   0.12660654    11387.506     1000 
  568000   0.56292829   -1.7610607   0.84354805  -0.91751269   0.12497489    11378.954     1000 
  570000   0.56301613   -1.7184931   0.84367967  -0.87481345   0.13718355     11171.06     1000 
  572000   0.56839631   -1.7533633   0.85174188  -0.90162139   0.13528433    11395.644     1000 
  574000   0.52719053   -1.7492186   0.78999501   -0.9592236    0.1282597    11391.432     1000 
  576000   0.55974894   -1.8350253   0.83878379  -0.99624156   0.11904347    11650.149     1000 
  578000   0.55940974    -1.813243    0.8382755   -0.9749675   0.13052269    11452.659     1000 
  580000   0.56092298   -1.7514296   0.84054308  -0.91088649   0.12056386    11474.214     1000 
  582000   0.56752746   -1.7192144    0.8504399  -0.86877453   0.13095485    11487.412     1000 
  584000   0.55844511    -1.774925      0.83683    -0.938095   0.12559789    11547.917     1000 
  586000   0.54685598   -1.7656874   0.81946369  -0.94622373   0.13776349    11435.206     1000 
  588000   0.52637981   -1.7844206   0.78878014   -0.9956405   0.13451955    11406.311     1000 
  590000   0.56926204   -1.7775705   0.85303917  -0.92453137   0.13108971    11324.844     1000 
  592000   0.57608853   -1.8033743   0.86326866  -0.94010561   0.13577563    11256.948     1000 
  594000   0.56560174   -1.7254286    0.8475542  -0.87787437   0.14920299    11254.135     1000 
  596000   0.56766636   -1.7676066   0.85064804  -0.91695858   0.12459165    11469.917     1000 
  598000   0.58888966   -1.7875352   0.88245116  -0.90508408   0.13608195     11439.94     1000 
  600000    0.5698495   -1.7072612   0.85391947  -0.85334175    0.1368024    11295.735     1000 
  602000   0.54842164   -1.7538375   0.82180983  -0.93202769   0.14668935    11269.868     1000 
  604000   0.55710549   -1.7535849   0.83482258  -0.91876236   0.12206763    11605.298     1000 
  606000   0.56074172   -1.7890828   0.84027146  -0.94881132   0.12677873     11573.44     1000 
  608000    0.5882494   -1.7493229   0.88149173  -0.86783121    0.1442294    11247.296     1000 
  610000   0.53831747   -1.7592642   0.80666873  -0.95259552   0.12529116    11347.302     1000 
  612000   0.54029571   -1.7716722   0.80963312  -0.96203905   0.11653397    11530.166     1000 
  614000    0.5470003   -1.7471677   0.81967995  -0.92748777   0.12800594    11373.355     1000 
  616000   0.58143775   -1.7837998   0.87128447   -0.9125153   0.12885686    11424.756     1000 
  618000   0.56382958   -1.7419467   0.84489863  -0.89704812   0.13102515    11513.909     1000 
  620000   0.54499276   -1.7247856   0.81667165  -0.90811393   0.12659374    11487.248     1000 
  622000   0.54485285   -1.7485176   0.81646199  -0.93205562   0.13298687    11311.109     1000 
  624000   0.55205645   -1.7523175    0.8272566  -0.92506091   0.13533678    11419.795     1000 
  626000   0.56052155    -1.727617   0.83994155  -0.88767543   0.12481615    11473.883     1000 
  628000   0.55085697   -1.7329872   0.82545917    -0.907528   0.13442466    11327.772     1000 
  630000   0.55163973   -1.7287132   0.82663213  -0.90208111   0.13103803    11434.495     1000 
  632000   0.56059087   -1.7489654   0.84004542  -0.90891995   0.14329139    11290.341     1000 
  634000   0.55455293   -1.7708876   0.83099757  -0.93988999   0.12748295    11511.829     1000 
  636000   0.52984578   -1.7948624    0.7939739   -1.0008885   0.12131481    11566.317     1000 
  638000   0.56988785   -1.7881889   0.85397694    -0.934212   0.13186414    11438.627     1000 
  640000   0.54092603   -1.7553116   0.81057766  -0.94473391   0.12289814    11583.807     1000 
  642000   0.56116088   -1.7665251   0.84089958  -0.92562548   0.12662804    11378.953     1000 
  644000   0.56501523   -1.8025448   0.84667532  -0.95586949   0.14614719    11373.566     1000 
  646000   0.55256761   -1.7623313   0.82802257  -0.93430877   0.13458266    11360.479     1000 
  648000   0.54393392   -1.7286238   0.81508498  -0.91353883   0.12629484    11380.475     1000 
  650000    0.5617294   -1.8078901   0.84175151  -0.96613863   0.13111093    11500.132     1000 
  652000   0.56594425   -1.7584363   0.84806746  -0.91036886   0.12989078    11489.737     1000 
  654000   0.56941785   -1.7761996   0.85327264  -0.92292696   0.12590949    11464.277     1000 
  656000   0.56067421   -1.7622886    0.8401703  -0.92211826   0.12281794     11615.04     1000 
  658000   0.55363249    -1.755609   0.82961829  -0.92599071   0.13459006    11359.041     1000 
  660000   0.56755525    -1.768101   0.85048154   -0.9176195   0.14347085    11315.967     1000 
  662000    0.5806549   -1.7716514   0.87011137  -0.90154001   0.14400519    11204.027     1000 
  664000   0.56507799    -1.762613   0.84676937   -0.9158436   0.12730207    11524.128     1000 
  666000   0.56606136   -1.8103629   0.84824295  -0.96211996   0.12575366    11558.898     1000 
  668000   0.59028608   -1.7729374   0.88454369  -0.88839369   0.13439488    11399.086     1000 
  670000   0.57865767    -1.761814   0.86711851  -0.89469553   0.13219376    11523.031     1000 
  672000   0.56152787   -1.7527096   0.84144952  -0.91126012   0.13572431    11413.036     1000 
  674000   0.54180807   -1.7679553    0.8118994  -0.95605592   0.12633486      11486.2     1000 
  676000   0.56610367   -1.8137941   0.84830635  -0.96548778   0.13654214    11564.372     1000 
  678000   0.56848678   -1.7343016   0.85187745  -0.88242411   0.11320029    11568.345     1000 
  680000   0.55636542   -1.7608184   0.83371359  -0.92710479   0.12223672    11533.478     1000 
  682000   0.53172856    -1.745879   0.79679525  -0.94908377   0.12812448    11258.644     1000 
  684000   0.57486425   -1.7913596   0.86143408  -0.92992554   0.11975906    11626.839     1000 
  686000   0.55976733   -1.7586731   0.83881134  -0.91986176    0.1240421    11461.765     1000 
  688000   0.55276686   -1.7188487   0.82832114   -0.8905276   0.13414673    11216.219     1000 
  690000   0.57488508   -1.7723446   0.86146529  -0.91087929   0.13922021    11323.939     1000 
  692000   0.57802875   -1.7400219   0.86617609  -0.87384583   0.12920675    11477.224     1000 
  694000    0.5423776   -1.7970106   0.81275283  -0.98425781   0.12966653    11455.784     1000 
  696000    0.5706334   -1.8233156   0.85509415  -0.96822143   0.13181346    11476.327     1000 
  698000   0.54137069   -1.7002871   0.81124397   -0.8890431   0.15032059    11354.819     1000 
  700000   0.57819563   -1.6876817   0.86642616  -0.82125556   0.13300796    11497.211     1000 
  702000   0.54340045   -1.7223086   0.81428557    -0.908023    0.1304278     11357.41     1000 
  704000   0.55927686    -1.767083   0.83807638  -0.92900661   0.13135656     11470.42     1000 
  706000     0.540526   -1.7027923   0.80997821  -0.89281414   0.12006141    11516.626     1000 
  708000    0.5626781   -1.7567971   0.84317314  -0.91362392   0.13951654    11234.125     1000 
  710000   0.55742159   -1.7731232   0.83529626  -0.93782691   0.13835715    11319.387     1000 
  712000   0.55333873   -1.7829801   0.82917809  -0.95380203   0.13109363    11418.429     1000 
  714000   0.55701685   -1.7919262   0.83468975   -0.9572365   0.11535749    11641.996     1000 
  716000   0.53915593   -1.7359849   0.80792517   -0.9280597   0.12978543     11499.28     1000 
  718000   0.58643196   -1.7808699   0.87876829  -0.90210157   0.12493011    11560.325     1000 
  720000   0.55373566   -1.7545836   0.82977288   -0.9248107   0.12263185    11433.903     1000 
  722000   0.55820942   -1.7638545   0.83647682  -0.92737773   0.13739981    11437.358     1000 
  724000   0.55669669   -1.7349227   0.83420998  -0.90071276   0.12345218    11411.844     1000 
  726000   0.55061676   -1.7172823   0.82509922  -0.89218309   0.12466597    11493.985     1000 
  728000   0.55715365   -1.7576072   0.83489475  -0.92271247   0.12688275    11458.411     1000 
  730000   0.55993088   -1.7594346   0.83905642  -0.92037815    0.1296411    11286.891     1000 
  732000   0.58111662   -1.7829314   0.87080325  -0.91212816   0.13235331    11477.179     1000 
  734000   0.55480941   -1.7553717    0.8313819  -0.92398977   0.12243027    11556.725     1000 
  736000   0.56317264   -1.7897524    0.8439142  -0.94583823   0.13291542    11449.763     1000 
  738000    0.5616148   -1.8222669   0.84157978  -0.98068716   0.14671641    11382.628     1000 
  740000   0.53821591   -1.8059916   0.80651654  -0.99947505   0.13059214    11364.114     1000 
  742000   0.55604478   -1.7856404   0.83323311  -0.95240728   0.11991645    11457.767     1000 
  744000   0.56859884   -1.7271556   0.85204536  -0.87511019   0.14021186    11178.578     1000 
  746000   0.55536033   -1.7638435   0.83220746  -0.93163606    0.1290827    11503.623     1000 
  748000   0.54448356    -1.806698   0.81590861  -0.99078936    0.1277798    11561.241     1000 
  750000   0.55633535    -1.711366   0.83366853  -0.87769749   0.12241291      11453.3     1000 
  752000   0.55848204   -1.7660823   0.83688533  -0.92919697    0.1256758    11463.343     1000 
  754000   0.56693423   -1.7744717   0.84955094  -0.92492077   0.14039795    11324.517     1000 
  756000   0.56979064   -1.7408474   0.85383128   -0.8870161   0.13049891    11411.695     1000 
  758000   0.58543787   -1.7418625   0.87727864  -0.86458384   0.14094169     11342.62     1000 
  760000   0.55890115   -1.8106886   0.83751337  -0.97317518   0.13408713    11441.097     1000 
  762000   0.56684882   -1.7977581   0.84942295  -0.94833511   0.13567811    11428.453     1000 
  764000   0.51662411   -1.8041394   0.77416124   -1.0299782   0.13091797     11449.17     1000 
  766000   0.57472493   -1.7685156   0.86122531  -0.90729034   0.13840478    11429.799     1000 
  768000   0.51699014    -1.800471   0.77470972   -1.0257613   0.12784577    11290.178     1000 
  770000    0.5563575   -1.7501134   0.83370171  -0.91641172   0.13631655    11369.198     1000 
  772000   0.54625797   -1.7049492   0.81856756  -0.88638164   0.14147129    11325.654     1000 
  774000   0.55185077   -1.7680351   0.82694837  -0.94108672     0.137146    11237.252     1000 
  776000    0.5680649   -1.7612908   0.85124525  -0.91004559   0.13677891    11357.395     1000 
  778000   0.55103341   -1.7542304   0.82572357  -0.92850684   0.13977073    11217.513     1000 
  780000   0.56957536    -1.770701   0.85350868  -0.91719232   0.13725035    11395.437     1000 
  782000   0.55928252   -1.7325634   0.83808485  -0.89447857   0.13052698    11391.927     1000 
  784000   0.55056807   -1.7886143   0.82502626  -0.96358806   0.13049078    11494.286     1000 
  786000   0.54959415   -1.7781257   0.82356683  -0.95455889   0.12491097    11530.183     1000 
  788000   0.55255046   -1.7932976   0.82799687  -0.96530072   0.13600798    11537.904     1000 
  790000   0.56721238   -1.7378546   0.84996775   -0.8878869   0.13238585    11341.109     1000 
  792000   0.55921986   -1.7318279   0.83799096  -0.89383697    0.1295879    11461.109     1000 
  794000   0.57412345   -1.8082584   0.86032399  -0.94793445   0.12025416    11713.823     1000 
  796000   0.58409545   -1.7223018   0.87526703  -0.84703474   0.13996178    11316.086     1000 
  798000   0.56117921   -1.7819483   0.84092705  -0.94102128   0.12496392    11515.248     1000 
  800000   0.55043653   -1.8021654   0.82482914  -0.97733628   0.13721843    11448.208     1000 
  802000   0.55854679   -1.7213569   0.83698236  -0.88437449   0.12528196     11572.48     1000 
  804000   0.58303873   -1.7312539   0.87368354   -0.8575704   0.12719649    11466.694     1000 
  806000    0.5894962   -1.7516201   0.88336005     -0.86826   0.13435754    11416.761     1000 
  808000   0.55921053   -1.8024452   0.83797699  -0.96446818    0.1206846    11621.505     1000 
  810000   0.59299458   -1.7789768   0.88860238  -0.89037441   0.12941695    11373.925     1000 
  812000   0.55861228   -1.7538978    0.8370805   -0.9168173   0.12609602    11537.437     1000 
  814000   0.57014794   -1.7801924   0.85436668  -0.92582574   0.12146225    11637.746     1000 
  816000   0.56988898   -1.7439907   0.85397864  -0.89001202   0.13686946    11399.778     1000 
  818000   0.52992286   -1.7471023    0.7940894  -0.95301293   0.13017877    11452.628     1000 
  820000   0.56056766   -1.7369704   0.84001064  -0.89695976   0.13675066    11342.651     1000 
  822000    0.5481568   -1.7443338   0.82141297  -0.92292084   0.14325174     11164.69     1000 
  824000   0.55309914   -1.8158705   0.82881906   -0.9870514   0.12863371    11335.091     1000 
  826000   0.56869244   -1.7543169   0.85218563  -0.90213126   0.14468076    11480.315     1000 
  828000   0.56424997    -1.740791   0.84552858  -0.89526237   0.14149747    11249.442     1000 
  830000   0.52435775   -1.7136119   0.78575008  -0.92786183   0.14326884    11313.392     1000 
  832000   0.53995812    -1.764105   0.80912725  -0.95497779    0.1322753    11343.767     1000 
  834000   0.58179421   -1.7568337   0.87181863  -0.88501504   0.12463996    11438.301     1000 
  836000   0.54809571   -1.7427239   0.82132142  -0.92140249   0.13242432    11386.674     1000 
  838000   0.55804737   -1.7490712   0.83623399  -0.91283718   0.12026771    11503.545     1000 
  840000   0.55209046   -1.7514532   0.82730756  -0.92414568   0.11832966    11598.565     1000 
  842000   0.59682141   -1.8192192   0.89433688  -0.92488235   0.13496083    11454.528     1000 
  844000   0.55675968   -1.7298511   0.83430439  -0.89554672   0.12412798    11529.469     1000 
  846000   0.55398315   -1.8332446   0.83014374   -1.0031009   0.11867905    11676.031     1000 
  848000   0.60113836   -1.7514998   0.90080583  -0.85069394    0.1373395    11475.324     1000 
  850000   0.57202047   -1.7866119   0.85717267  -0.92943924   0.13089277      11456.9     1000 
  852000   0.55377765   -1.7851442   0.82983581  -0.95530844   0.12058326    11407.287     1000 
  854000    0.5549729   -1.7750265   0.83162688  -0.94339962   0.13620214    11485.495     1000 
  856000   0.56452148   -1.7385263   0.84593543  -0.89259091   0.12289259    11413.167     1000 
  858000   0.56520354   -1.8265854    0.8469575  -0.97962789   0.13911766    11363.609     1000 
  860000   0.57004556   -1.7087382   0.85421328  -0.85452492   0.13211126    11352.554     1000 
  862000   0.55543604   -1.7444614   0.83232091  -0.91214047   0.11958247    11444.671     1000 
  864000    0.5537402    -1.761277   0.82977968  -0.93149731   0.12909995    11451.644     1000 
  866000   0.57154502   -1.8241726   0.85646022  -0.96771238   0.12686628    11588.528     1000 
  868000   0.54377667   -1.7479659   0.81484934  -0.93311651   0.12999396    11369.534     1000 
  870000    0.5560797   -1.7861272   0.83328544  -0.95284181   0.12228702    11436.966     1000 
  872000   0.54587315   -1.7112103   0.81799092  -0.89321935   0.13283229     11357.87     1000 
  874000   0.55509664   -1.7199937   0.83181232  -0.88818141   0.12987248    11486.997     1000 
  876000   0.53946245   -1.7502781   0.80838448  -0.94189359   0.13355093    11409.731     1000 
  878000   0.53435384   -1.7468469   0.80072923  -0.94611767   0.12659283    11534.533     1000 
  880000   0.55446229   -1.7276314   0.83086174  -0.89676962    0.1266942    11379.463     1000 
  882000   0.55611473   -1.8168307   0.83333792  -0.98349276   0.12226286    11711.621     1000 
  884000   0.57096716   -1.7049593   0.85559428  -0.84936506    0.1378532     11260.33     1000 
  886000   0.56060101   -1.7759425   0.84006062  -0.93588191   0.13735947    11319.269     1000 
  888000   0.56053899   -1.8062995   0.83996768  -0.96633185   0.13308109    11433.645     1000 
  890000   0.57521992   -1.8150051   0.86196705  -0.95303806   0.12378625    11562.025     1000 
  892000   0.58786617   -1.6921797   0.88091746   -0.8112622   0.15218957    11193.397     1000 
  894000   0.54094796   -1.7135572   0.81061052  -0.90294663   0.13405511    11291.945     1000 
  896000    0.5425475   -1.7529671   0.81300743  -0.93995963   0.12987598    11316.765     1000 
  898000   0.54254444   -1.7354029   0.81300285   -0.9224001   0.12677916    11646.789     1000 
  900000    0.5746333   -1.7929816     0.861088  -0.93189359    0.1278377    11573.924     1000 
  902000   0.58287889   -1.7015707   0.87344401  -0.82812668   0.14212499    11262.012     1000 
  904000   0.54883138   -1.8043206   0.82242383  -0.98189678   0.12631572    11543.118     1000 
  906000   0.58012253   -1.7454129   0.86931361  -0.87609931    0.1369671    11376.878     1000 
  908000   0.54240708    -1.775903   0.81279701  -0.96310596   0.12426805    11511.983     1000 
  910000   0.53561051   -1.7719254   0.80261235  -0.96931301   0.12558273    11454.897     1000 
  912000   0.55783154   -1.7776392   0.83591057  -0.94172862   0.13412706    11292.368     1000 
  914000   0.54395823   -1.6996809   0.81512141  -0.88455953   0.12252481    11450.701     1000 
  916000   0.56264233   -1.7926949   0.84311953   -0.9495754    0.1288677    11577.946     1000 
  918000   0.56530817   -1.7738931   0.84711429   -0.9267788   0.12845023    11463.622     1000 
  920000   0.53925846   -1.7567311    0.8080788   -0.9486523   0.10943355    11595.302     1000 
  922000   0.56177947   -1.7626759   0.84182653  -0.92084934   0.13242176    11338.594     1000 
  924000   0.56048218   -1.7419641   0.83988255  -0.90208158   0.13890782    11227.999     1000 
  926000    0.5313776   -1.7111205   0.79626934  -0.91485113   0.11539535    11535.178     1000 
  928000   0.53943432   -1.7694024   0.80834232  -0.96106011   0.11249847    11520.251     1000 
  930000   0.55043383   -1.7472723   0.82482509  -0.92244723   0.12936205     11198.26     1000 
  932000   0.56520727    -1.795483    0.8469631  -0.94851986    0.1248465    11597.828     1000 
  934000     0.545417   -1.7603664   0.81730738  -0.94305897    0.1332308    11368.043     1000 
  936000   0.56789935   -1.7056709   0.85099717  -0.85467373   0.14297318    11268.153     1000 
  938000    0.5807825    -1.759844   0.87030258  -0.88954145   0.14406477    11304.946     1000 
  940000   0.56622589   -1.7877889   0.84848949   -0.9392994   0.13071853    11442.955     1000 
  942000    0.5677628   -1.7693242   0.85079255  -0.91853161   0.12969035    11370.957     1000 
  944000    0.5738604   -1.7473888   0.85992981  -0.88745897   0.12549326    11306.541     1000 
  946000     0.561236   -1.8188843   0.84101214   -0.9778722   0.12910728    11453.715     1000 
  948000   0.55271121   -1.7563605   0.82823776  -0.92812271    0.1371653    11487.363     1000 
  950000   0.55797652   -1.7784223   0.83612781  -0.94229447    0.1272353    11374.032     1000 
  952000   0.56772217   -1.7504852   0.85073167  -0.89975352   0.15399727    11211.856     1000 
  954000   0.57075977   -1.7600584   0.85528351  -0.90477491   0.13561528    11484.706     1000 
  956000   0.57623774   -1.6966354   0.86349225  -0.83314314   0.13385525     11479.69     1000 
  958000   0.59498799   -1.7632932    0.8915895  -0.87170374    0.1190292    11661.709     1000 
  960000   0.55199449   -1.7502251   0.82716374  -0.92306135   0.13689677    11467.431     1000 
  962000   0.57015431   -1.7742761   0.85437623   -0.9198999   0.11945727    11487.576     1000 
  964000   0.56561209    -1.794848   0.84756971  -0.94727825   0.12922971    11368.497     1000 
  966000   0.55995064   -1.8354854   0.83908603  -0.99639938   0.11655612    11566.053     1000 
  968000   0.56743954   -1.7550564   0.85030816  -0.90474825   0.12849386    11377.273     1000 
  970000   0.53649103   -1.7784346   0.80393181  -0.97450279   0.13694036    11411.274     1000 
  972000   0.54332705   -1.8056842   0.81417558  -0.99150859   0.11547887     11646.23     1000 
  974000   0.55289078    -1.756018   0.82850684   -0.9275112   0.13413668    11552.475     1000 
  976000   0.55084119   -1.8274549   0.82543553   -1.0020194   0.12891415    11482.543     1000 
  978000   0.54093457   -1.6959412   0.81059045  -0.88535075   0.13902876    11234.731     1000 
  980000   0.54519984   -1.7793897   0.81698196   -0.9624077   0.13328242    11369.325     1000 
  982000   0.55670443   -1.7983082   0.83422159  -0.96408662   0.13239236     11318.37     1000 
  984000   0.56199679    -1.781993   0.84215218  -0.93984082   0.11643279    11731.422     1000 
  986000   0.58621821    -1.782322   0.87844799  -0.90387401   0.13308746    11432.597     1000 
  988000   0.55755464   -1.8036317   0.83549563  -0.96813607   0.11994497    11560.915     1000 
  990000   0.55352874   -1.7529606   0.82946282  -0.92349776   0.12357379     11509.35     1000 
  992000    0.5593709   -1.7858536   0.83821729  -0.94763627   0.14341733    11476.827     1000 
  994000   0.56080805   -1.7776349   0.84037087  -0.93726403   0.12770141    11471.267     1000 
  996000   0.54654716    -1.742414   0.81900092  -0.92341306   0.12937162    11393.898     1000 
  998000   0.55530214   -1.7519713   0.83212026  -0.91985106   0.12395585    11539.571     1000 
 1000000   0.54877271   -1.7170875   0.82233591  -0.89475159   0.12455124    11575.198     1000 
 1002000   0.54714408   -1.7972468    0.8198954  -0.97735136   0.11219847    11685.106     1000 
 1004000   0.56224291   -1.7923972   0.84252099  -0.94987622   0.12902843    11500.021     1000 
 1006000   0.55474019   -1.7533206   0.83127818  -0.92204246   0.13013924    11314.099     1000 
 1008000   0.55046929   -1.7310297   0.82487823   -0.9061515   0.13520691    11274.777     1000 
 1010000    0.5904771   -1.8051859   0.88482993  -0.92035601   0.13362316    11408.096     1000 
 1012000   0.58940954   -1.7542786    0.8832302  -0.87104839   0.12611119    11526.241     1000 
 1014000   0.52997388   -1.7558295   0.79416585  -0.96166369   0.13278688    11345.439     1000 
 1016000   0.56897358    -1.725843   0.85260691  -0.87323606    0.1380474    11336.724     1000 
 1018000   0.52250035    -1.719698   0.78296677  -0.93673127   0.11718552    11501.945     1000 
 1020000   0.56837691   -1.7564963    0.8517128  -0.90478353   0.11771676    11469.617     1000 
 1022000   0.56642531   -1.7738203   0.84878832  -0.92503201   0.12861982    11548.807     1000 
 1024000   0.56077698   -1.7831275    0.8403243   -0.9428032   0.11366057    11600.264     1000 
 1026000   0.54101561   -1.7365362   0.81071189  -0.92582436   0.13276273    11457.337     1000 
 1028000   0.54790025   -1.7611903   0.82102852  -0.94016175   0.12617356    11488.278     1000 
 1030000   0.58610828   -1.7569999   0.87828326  -0.87871668   0.14329645    11417.182     1000 
 1032000   0.55694307   -1.7623241   0.83457919   -0.9277449   0.12531716      11523.9     1000 
 1034000   0.55586265   -1.7771842   0.83296018  -0.94422405   0.12969336    11287.978     1000 
 1036000   0.54602574   -1.7164891   0.81821957  -0.89826952   0.11743799    11524.177     1000 
 1038000   0.53755804   -1.7506486   0.80553072  -0.94511791   0.12946325     11310.62     1000 
 1040000   0.55716316   -1.7569121   0.83490899  -0.92200313   0.12875346    11359.463     1000 
 1042000   0.58468214   -1.7803256   0.87614618  -0.90417937   0.13174234    11463.475     1000 
 1044000   0.54475559    -1.707144   0.81631625  -0.89082773   0.12481221    11526.036     1000 
 1046000   0.56298241   -1.6944381   0.84362915  -0.85080893   0.14194997    11384.332     1000 
 1048000   0.55921047   -1.7274124   0.83797688  -0.88943556   0.12939824    11386.913     1000 
 1050000   0.54255769   -1.7904985    0.8130227  -0.97747575   0.13622766    11394.572     1000 
 1052000   0.58130621   -1.6972223   0.87108735  -0.82613499   0.12543453    11499.311     1000 
 1054000   0.58038503    -1.794267   0.86970696  -0.92456004    0.1326932    11311.368     1000 
 1056000   0.56813293   -1.7047919   0.85134719  -0.85344467   0.13067772    11345.867     1000 
 1058000   0.60208767   -1.7756062   0.90222838  -0.87337785   0.12764895    11552.074     1000 
 1060000   0.55650069   -1.7602087   0.83391629   -0.9262924   0.13746078    11302.689     1000 
 1062000   0.55099627   -1.7640251   0.82566791  -0.93835718   0.12500347    11557.595     1000 
 1064000    0.5700757   -1.7624942   0.85425844  -0.90823577   0.13957021    11383.068     1000 
 1066000   0.54584933   -1.7721322   0.81795522  -0.95417703   0.13388379    11445.914     1000 
 1068000   0.56373285   -1.8290637   0.84475367  -0.98431004   0.12798539    11404.836     1000 
 1070000   0.55115117    -1.759488   0.82590003  -0.93358801   0.13003354    11526.609     1000 
 1072000   0.58966749   -1.7654471   0.88361674  -0.88183035   0.14039643    11409.837     1000 
 1074000   0.56215801    -1.758001   0.84239378  -0.91560722   0.13218287    11508.943     1000 
 1076000   0.58119308   -1.7964216   0.87091783  -0.92550378   0.12964451    11577.039     1000 
 1078000   0.54553211   -1.7933981   0.81747987  -0.97591826   0.13406424    11406.086     1000 
 1080000   0.55751219   -1.8057202   0.83543202  -0.97028822   0.13646893    11342.197     1000 
 1082000   0.56433299   -1.7402226   0.84565298  -0.89456963   0.13435411    11347.232     1000 
 1084000   0.57582055   -1.7630394    0.8628671   -0.9001723   0.13390792    11450.077     1000 
 1086000   0.54938527   -1.7081882   0.82325383  -0.88493433   0.12759382     11504.12     1000 
 1088000    0.5498183     -1.73954   0.82390273  -0.91563728   0.13842585    11353.062     1000 
 1090000    0.5729996    -1.805215    0.8586399  -0.94657512   0.12234685    11411.573     1000 
 1092000   0.56707725   -1.7829874   0.84976527  -0.93322209   0.13723884    11520.316     1000 
 1094000    0.5457008   -1.7342691   0.81773265  -0.91653648   0.13083527    11378.728     1000 
 1096000   0.55011746   -1.7660428   0.82435102  -0.94169179   0.12854142    11480.568     1000 
 1098000   0.56664584   -1.7738772   0.84911879  -0.92475844    0.1275881    11516.172     1000 
 1100000    0.5659288   -1.7626152   0.84804431  -0.91457088   0.13219679    11413.208     1000 
 1102000   0.56005081   -1.8223027   0.83923614  -0.98306652   0.12711469    11586.166     1000 
 1104000   0.55502018   -1.7535034   0.83169775  -0.92180567   0.13231776    11327.722     1000 
 1106000   0.57911643   -1.7353315   0.86780597  -0.86752554   0.14539573    11274.107     1000 
 1108000   0.57335271   -1.7606873   0.85916904  -0.90151828    0.1409697     11355.81     1000 
 1110000   0.56679715   -1.7335766   0.84934553  -0.88423107   0.12934157    11269.578     1000 
 1112000   0.56560763    -1.743118   0.84756303  -0.89555501   0.12625614    11403.262     1000 
 1114000   0.55403892   -1.7578943   0.83022732    -0.927667   0.11307043    11615.177     1000 
 1116000   0.55863479   -1.7954032   0.83711423  -0.95828894   0.11204449        11622     1000 
 1118000   0.55434737   -1.7624308   0.83068953  -0.93174127   0.13319524     11318.35     1000 
 1120000   0.53110036   -1.7934026   0.79585389  -0.99754871   0.11366361     11630.14     1000 
 1122000    0.5496153   -1.8258011   0.82359852   -1.0022026   0.13422695    11398.158     1000 
 1124000   0.55210135   -1.7056105   0.82732387  -0.87828664   0.13658557    11312.787     1000 
 1126000   0.53979278   -1.7801428   0.80887948  -0.97126333   0.12974688    11328.782     1000 
 1128000   0.56078079   -1.7382604   0.84033001  -0.89793042   0.13164699    11250.994     1000 
 1130000   0.56727908   -1.7992121    0.8500677  -0.94914442   0.12034629    11621.644     1000 
 1132000   0.55698296   -1.7523272   0.83463896  -0.91768824   0.12700788     11258.37     1000 
 1134000   0.53196302   -1.7503911   0.79714658  -0.95324453   0.11957117    11754.837     1000 
 1136000   0.55030374   -1.8304912   0.82463016    -1.005861   0.12466389    11527.597     1000 
 1138000   0.53388804   -1.7240841   0.80003123  -0.92405291   0.13156778     11463.77     1000 
 1140000   0.58231933   -1.7208848   0.87260551  -0.84827925   0.14723009    11379.178     1000 
 1142000   0.54044021   -1.7521581   0.80984965  -0.94230846   0.12800011    11386.726     1000 
 1144000   0.56644143   -1.7831698   0.84881249  -0.93435729   0.13496318     11455.75     1000 
 1146000   0.56206843   -1.7731033   0.84225954  -0.93084377   0.13034279    11503.694     1000 
 1148000   0.57843071    -1.806606   0.86677841  -0.93982763   0.13126681    11464.107     1000 
 1150000   0.54777808   -1.7748535   0.82084545  -0.95400804   0.11427462    11429.414     1000 
 1152000    0.5781957   -1.7395345   0.86642626  -0.87310822   0.13382896    11470.037     1000 
 1154000   0.54953658   -1.7824286   0.82348057  -0.95894806   0.12012644    11536.367     1000 
 1156000   0.59079265   -1.7963359   0.88530278  -0.91103312   0.14935748    11392.704     1000 
 1158000   0.54137575   -1.8098862   0.81125156   -0.9986346    0.1276519    11524.857     1000 
 1160000   0.55234383   -1.7706998   0.82768723  -0.94301256   0.12424408    11597.741     1000 
 1162000   0.55426821   -1.7787811   0.83057091   -0.9482102   0.13818101    11299.887     1000 
 1164000   0.58233806   -1.7717341   0.87263358   -0.8991005   0.14377706    11456.237     1000 
 1166000   0.56323551   -1.7277215   0.84400842  -0.88371306    0.1371754    11535.172     1000 
 1168000   0.54114239   -1.7668222   0.81090188  -0.95592034   0.12687996    11567.325     1000 
 1170000   0.56630996   -1.7458732   0.84861548   -0.8972577    0.1358202    11376.159     1000 
 1172000   0.54702326   -1.7692399   0.81971435  -0.94952556   0.12723219    11429.841     1000 
 1174000   0.56546743   -1.8162221   0.84735294  -0.96886918   0.13110777    11402.833     1000 
 1176000   0.56404856   -1.7164021   0.84522676  -0.87117538   0.13799283    11364.833     1000 
 1178000   0.56651765   -1.7058871    0.8489267  -0.85696042   0.15159528    11203.086     1000 
 1180000   0.55649453   -1.7589036   0.83390706  -0.92499655   0.11355501    11554.234     1000 
 1182000   0.56781343   -1.7876764   0.85086842  -0.93680794   0.13497429    11477.292     1000 
 1184000   0.56918376   -1.7146993   0.85292187  -0.86177742   0.12477525     11484.75     1000 
 1186000   0.55354907   -1.7852368   0.82949328  -0.95574356   0.10611919    11598.996     1000 
 1188000   0.55919952    -1.750772   0.83796048  -0.91281154   0.13165287    11480.194     1000 
 1190000   0.54006134   -1.7690081   0.80928191  -0.95972621   0.12527093    11424.285     1000 
 1192000   0.57635451   -1.7624819   0.86366723   -0.8988147    0.1345183    11410.263     1000 
 1194000   0.55234721   -1.7564201   0.82769229  -0.92872781   0.11043876    11593.738     1000 
 1196000   0.55342608   -1.7533965   0.82930898  -0.92408754   0.12679686    11364.907     1000 
 1198000   0.56577485   -1.6958622   0.84781361  -0.84804854   0.14263332    11365.622     1000 
 1200000   0.54498955    -1.783688   0.81666684  -0.96702113   0.12782336    11506.978     1000 
 1202000   0.55986512   -1.7361961   0.83895789   -0.8972382   0.13580421     11308.87     1000 
 1204000   0.53791894   -1.7303989   0.80607153  -0.92432737   0.14480574    11275.676     1000 
 1206000   0.57529936   -1.7589971   0.86208609  -0.89691097   0.12832254    11298.843     1000 
 1208000   0.55311048   -1.7505913   0.82883606  -0.92175526   0.13100121    11328.701     1000 
 1210000   0.57751363   -1.8417592   0.86540418    -0.976355    0.1381252    11446.225     1000 
 1212000   0.55822781   -1.7626274   0.83650437  -0.92612301   0.12531571    11486.663     1000 
 1214000   0.55814998   -1.7878979   0.83638774  -0.95151015   0.13346659    11519.189     1000 
 1216000   0.54112637   -1.7471813   0.81087787   -0.9363034   0.13622062    11404.908     1000 
 1218000   0.55779299   -1.7520046    0.8358528  -0.91615183   0.12209082    11498.902     1000 
 1220000   0.55514677   -1.7292531   0.83188744  -0.89736565   0.13684475    11391.841     1000 
 1222000   0.55418407   -1.7186798   0.83044482  -0.88823502   0.12204901    11437.877     1000 
 1224000   0.55175473   -1.8018982   0.82680446  -0.97509375   0.13125066    11399.015     1000 
 1226000   0.55349151   -1.7841095   0.82940703   -0.9547025     0.135009     11338.62     1000 
 1228000   0.55893797   -1.7590681   0.83756854  -0.92149954   0.13314276    11357.019     1000 
 1230000   0.55330606   -1.8050487   0.82912913  -0.97591956   0.12696013     11477.86     1000 
 1232000   0.55787223   -1.7675465   0.83597154  -0.93157491   0.12433662    11469.107     1000 
 1234000   0.55908751   -1.7648135   0.83779264  -0.92702084    0.1375193    11280.572     1000 
 1236000   0.54710228   -1.7106034   0.81983276  -0.89077059   0.11237861    11616.794     1000 
 1238000    0.5184257   -1.7579454    0.7768609  -0.98108448   0.14196623    11276.344     1000 
 1240000   0.58063312   -1.8124973   0.87007873  -0.94241853   0.14111903    11326.936     1000 
 1242000   0.53499887   -1.7880081   0.80169581  -0.98631232   0.11387101    11520.837     1000 
 1244000   0.56933362   -1.7699362   0.85314643  -0.91678972   0.13350921    11313.731     1000 
 1246000   0.58474517   -1.7714263   0.87624064  -0.89518567   0.12981539    11399.392     1000 
 1248000   0.56120588   -1.7480528   0.84096701  -0.90708584   0.12267158    11613.469     1000 
 1250000   0.55367809   -1.7242241   0.82968662   -0.8945375   0.12572533     11516.55     1000 
 1252000   0.55215164   -1.7304473   0.82739923  -0.90304807   0.13127047     11372.04     1000 
 1254000    0.5775691   -1.7859991    0.8654873   -0.9205118   0.12808742    11525.859     1000 
 1256000   0.55875651   -1.7536418   0.83729663  -0.91634522   0.12318158    11491.266     1000 
 1258000    0.5813631   -1.8098052    0.8711726  -0.93863256   0.14002954    11503.595     1000 
 1260000   0.56673019   -1.7809559   0.84924519  -0.93171067    0.1301102    11427.916     1000 
 1262000   0.52194889   -1.7717737   0.78214041  -0.98963328    0.1380425    11353.596     1000 
 1264000    0.5726955   -1.7719097    0.8581842  -0.91372549   0.14167976    11446.644     1000 
 1266000   0.57587062   -1.7382545   0.86294212  -0.87531238   0.11483026     11458.81     1000 
 1268000    0.5660218   -1.7523322   0.84818367  -0.90414853   0.14048381    11356.897     1000 
 1270000   0.56312328   -1.7742571   0.84384024  -0.93041685   0.12752621    11493.318     1000 
 1272000   0.56487509   -1.7788473   0.84646532  -0.93238195   0.13321368    11386.321     1000 
 1274000   0.56941972   -1.7900912   0.85327546  -0.93681571   0.11810373    11546.031     1000 
 1276000   0.57252836   -1.7288512   0.85793375  -0.87091747   0.12280704    11521.017     1000 
 1278000   0.56406643   -1.7430447   0.84525354  -0.89779114    0.1143693    11490.467     1000 
 1280000   0.56220027     -1.73207    0.8424571  -0.88961288   0.13173618    11374.011     1000 
 1282000   0.56874912   -1.7862712   0.85227056   -0.9340006   0.13287808    11533.301     1000 
 1284000   0.57948346   -1.7857676   0.86835597  -0.91741161   0.14119384    11373.162     1000 
 1286000   0.55622118   -1.7281381   0.83349744  -0.89464069   0.12762416    11327.611     1000 
 1288000   0.54292667    -1.738625   0.81357562  -0.92504937   0.12696834      11337.5     1000 
 1290000   0.56914323   -1.7495029   0.85286113  -0.89664174   0.13632785    11421.179     1000 
 1292000   0.52251306   -1.7709185   0.78298583   -0.9879327    0.1344014    11410.785     1000 
 1294000   0.55858518    -1.741605   0.83703989   -0.9045651   0.13271764    11440.714     1000 
 1296000   0.55706947   -1.7649646    0.8347686  -0.93019597   0.12718998    11440.335     1000 
 1298000   0.56361785   -1.7758778   0.84458134  -0.93129649   0.13710971    11324.196     1000 
 1300000   0.55413269   -1.7430868   0.83036783  -0.91271893   0.13608008    11320.308     1000 
 1302000   0.56378093   -1.7732135   0.84482573  -0.92838773   0.12350847    11477.797     1000 
 1304000   0.55361269   -1.7547596   0.82958862    -0.925171   0.12610521    11355.158     1000 
 1306000   0.56883157   -1.7740596   0.85239411  -0.92166551   0.14022353    11332.745     1000 
 1308000   0.53158747   -1.7710265   0.79658382  -0.97444265   0.13207585    11404.904     1000 
 1310000   0.54650081   -1.7279481   0.81893146  -0.90901659   0.11528647    11512.312     1000 
 1312000   0.54766079   -1.7331641    0.8206697  -0.91249437   0.13471732    11255.787     1000 
 1314000   0.53345321   -1.7973148   0.79937964  -0.99793515   0.12712689    11534.304     1000 
 1316000   0.56380142   -1.7714044   0.84485643  -0.92654797     0.135024    11315.188     1000 
 1318000   0.55985753   -1.7658095   0.83894651  -0.92686296   0.13971741    11374.818     1000 
 1320000   0.55907123   -1.7630227   0.83776823  -0.92525447    0.1231403    11455.092     1000 
 1322000   0.56931902    -1.743306   0.85312455  -0.89018149   0.11993738    11553.251     1000 
 1324000   0.54922314   -1.7259296   0.82301088   -0.9029187   0.13485161    11423.371     1000 
 1326000   0.54973639    -1.738154   0.82377998    -0.914374   0.13206425    11293.712     1000 
 1328000   0.55225072   -1.8010903    0.8275477  -0.97354262   0.11657161    11550.994     1000 
 1330000   0.59363018   -1.7615252   0.88955483  -0.87197037   0.13687606    11326.026     1000 
 1332000   0.56951404   -1.7937408   0.85341679  -0.94032398   0.12926076    11518.159     1000 
 1334000   0.54578097   -1.7829866   0.81785278  -0.96513381   0.12257607      11611.8     1000 
 1336000   0.54128127   -1.7605229   0.81110999  -0.94941296   0.13196835    11433.933     1000 
 1338000   0.56304399   -1.7800968   0.84372142  -0.93637541   0.12689163    11466.802     1000 
 1340000    0.5699465   -1.7833308   0.85406483  -0.92926597   0.11792081    11597.151     1000 
 1342000   0.55131364   -1.6969006   0.82614349  -0.87075714   0.12453301    11583.566     1000 
 1344000   0.54819515     -1.72432   0.82147044  -0.90284952   0.13248467    11304.741     1000 
 1346000   0.56130257    -1.790841   0.84111191  -0.94972912   0.12789723    11549.459     1000 
 1348000   0.55312925   -1.7479534   0.82886419  -0.91908926   0.14252824    11260.354     1000 
 1350000   0.54780377     -1.73972   0.82088395  -0.91883609   0.12877978    11471.123     1000 
 1352000   0.55638597   -1.7771307   0.83374438  -0.94338633   0.12487684    11402.104     1000 
 1354000   0.55076878   -1.7094552   0.82532701  -0.88412821   0.13815051    11372.861     1000 
 1356000   0.55761671   -1.7042303   0.83558865  -0.86864167   0.13286455    11291.193     1000 
 1358000   0.59604123   -1.7272636   0.89316779  -0.83409583   0.12277558    11522.922     1000 
 1360000   0.55541945    -1.792728   0.83229605  -0.96043196   0.12739973    11585.757     1000 
 1362000   0.56105261   -1.7739799   0.84073734  -0.93324253   0.11890242    11592.898     1000 
 1364000   0.54560972   -1.7452963   0.81759616  -0.92770015   0.11757468    11701.362     1000 
 1366000   0.56387132   -1.7319465   0.84496117  -0.88698534   0.13359368    11342.198     1000 
 1368000   0.53916254   -1.7685831   0.80793506  -0.96064809   0.13014884    11376.702     1000 
 1370000   0.55585777    -1.727137   0.83295286  -0.89418414    0.1354249     11369.11     1000 
 1372000   0.57463645   -1.7427437   0.86109273  -0.88165095   0.14010418    11415.298     1000 
 1374000   0.55865257   -1.7566077   0.83714088  -0.91946683   0.13036443    11529.133     1000 
 1376000   0.55429611   -1.7308781   0.83061272  -0.90026534   0.13134473    11518.577     1000 
 1378000   0.58089546   -1.8107334   0.87047185  -0.94026158   0.13841309    11333.265     1000 
 1380000   0.54733706   -1.7768995   0.82018459   -0.9567149   0.12581055    11574.026     1000 
 1382000   0.56847255   -1.7969011   0.85185612  -0.94504496   0.12990757    11528.702     1000 
 1384000    0.5760127    -1.755556   0.86315503  -0.89240096   0.12965987    11463.006     1000 
 1386000   0.55051303   -1.7508302   0.82494377  -0.92588643    0.1545451    11229.363     1000 
 1388000   0.55091901   -1.7761848   0.82555213  -0.95063267   0.14076404    11328.674     1000 
 1390000   0.58009148   -1.7327609   0.86926709  -0.86349384   0.12639743    11314.574     1000 
 1392000   0.57300187   -1.7790079   0.85864331  -0.92036458   0.12654007    11299.114     1000 
 1394000   0.55741235   -1.7148155    0.8352824  -0.87953311   0.12743303    11515.239     1000 
 1396000   0.54887461   -1.7921314   0.82248861  -0.96964276   0.11615558    11682.313     1000 
 1398000   0.56612085   -1.7273834   0.84833209  -0.87905127   0.14023556     11286.94     1000 
 1400000   0.56018397   -1.7436335   0.83943568  -0.90419784   0.13074216    11370.306     1000 
 1402000   0.55158607   -1.7827236   0.82655172  -0.95617193   0.13253539    11312.798     1000 
 1404000   0.54983797   -1.7898207   0.82393219  -0.96588854   0.14045779    11379.598     1000 
 1406000   0.53473089   -1.7622989   0.80129423  -0.96100464   0.11942066    11580.272     1000 
 1408000   0.54270083   -1.7346894   0.81323719  -0.92145222   0.12648448    11425.146     1000 
 1410000   0.56064374    -1.755481   0.84012465  -0.91535637   0.13612967    11535.447     1000 
 1412000   0.57155785   -1.7920436   0.85647943  -0.93556413   0.13281434    11459.774     1000 
 1414000   0.56516287   -1.7697264   0.84689656  -0.92282988   0.13636178    11468.734     1000 
 1416000   0.55968546   -1.7452029   0.83868866  -0.90651429   0.13500595    11306.708     1000 
 1418000   0.58006063   -1.7194848   0.86922085  -0.85026396   0.11963367     11566.51     1000 
 1420000   0.56036597   -1.7808657   0.83970841  -0.94115734     0.124044    11464.562     1000 
 1422000   0.55890278   -1.7573217   0.83751581  -0.91980593   0.12130349    11578.738     1000 
 1424000    0.5589602   -1.7909412   0.83760187  -0.95333929   0.12898853    11412.167     1000 
 1426000   0.55220961   -1.7421042    0.8274861  -0.91461811    0.1520548    11280.502     1000 
 1428000   0.59202633   -1.7624656   0.88715145  -0.87531415   0.13250389    11549.417     1000 
 1430000   0.55680383   -1.8004473   0.83437054  -0.96607678   0.10971683    11695.248     1000 
 1432000   0.58443768   -1.8004579   0.87577987  -0.92467801   0.13195631    11446.983     1000 
 1434000   0.55658999   -1.7736419    0.8340501  -0.93959183    0.1219592    11530.479     1000 
 1436000   0.53637454   -1.7628845   0.80375725  -0.95912725   0.13418048    11396.059     1000 
 1438000   0.59796279   -1.7115191   0.89604724  -0.81547188   0.13911991    11251.944     1000 
 1440000   0.55419535    -1.771484   0.83046173  -0.94102222   0.12380302    11447.635     1000 
 1442000   0.56262291   -1.8021739   0.84309043  -0.95908345   0.11950902    11517.706     1000 
 1444000   0.55258699   -1.8096511    0.8280516  -0.98159954   0.13218464     11410.36     1000 
 1446000    0.5449211   -1.8369214   0.81656427   -1.0203571   0.11063169    11696.724     1000 
 1448000   0.55698467   -1.7632165   0.83464153  -0.92857501   0.13063673     11369.03     1000 
 1450000   0.55644821   -1.7551996   0.83383765  -0.92136194   0.12534538     11454.35     1000 
 1452000   0.53932065   -1.7585287     0.808172  -0.95035669   0.12455734    11482.106     1000 
 1454000   0.53957639   -1.7450387   0.80855521  -0.93648353   0.13781904     11366.85     1000 
 1456000   0.58308742    -1.721232   0.87375649  -0.84747555   0.12691035    11502.007     1000 
 1458000   0.56996341   -1.8237387   0.85409017  -0.96964849   0.13529172    11488.479     1000 
 1460000   0.55460164   -1.7377801   0.83107056  -0.90670957   0.13032024    11463.052     1000 
 1462000   0.56225408   -1.8005316   0.84253773   -0.9579939   0.12844278    11602.289     1000 
 1464000   0.54719383   -1.7432797   0.81996995  -0.92330971   0.13461604    11434.617     1000 
 1466000   0.55305321   -1.7599567   0.82875023  -0.93120651   0.13117669    11382.655     1000 
 1468000   0.57186883   -1.7974224   0.85694544  -0.94047692   0.13719831    11383.259     1000 
 1470000   0.56965134   -1.7914812   0.85362253  -0.93785865    0.1360874     11362.39     1000 
 1472000   0.57560097   -1.7602936   0.86253806  -0.89775559   0.13072612    11457.659     1000 
 1474000   0.54905509   -1.7099325   0.82275905  -0.88717342   0.14042013    11304.107     1000 
 1476000   0.57463264   -1.7563798   0.86108701   -0.8952928    0.1317131    11365.513     1000 
 1478000    0.5735798   -1.6745356   0.85950933  -0.81502629   0.13807529    11239.786     1000 
 1480000   0.53650921   -1.8538768   0.80395905   -1.0499177   0.11765097    11632.835     1000 
 1482000   0.56490002    -1.743427   0.84650268  -0.89692432   0.12155776    11479.533     1000 
 1484000   0.55085563   -1.7783976   0.82545716  -0.95294047   0.12176316    11468.022     1000 
 1486000    0.5575162   -1.7119426   0.83543803  -0.87650458   0.12912177    11443.402     1000 
 1488000   0.56319706   -1.7863937   0.84395079  -0.94244291   0.13195913    11420.109     1000 
 1490000   0.57586353   -1.7663585   0.86293149  -0.90342699   0.12556379      11517.3     1000 
 1492000   0.55340357   -1.8202762   0.82927524  -0.99100096   0.12220317    11642.321     1000 
 1494000   0.55342453   -1.7180147   0.82930665  -0.88870805   0.14204185    11350.448     1000 
 1496000   0.56658325   -1.7296077     0.849025  -0.88058266   0.12769639    11349.498     1000 
 1498000   0.54870087    -1.738072   0.82222825  -0.91584372    0.1267361     11388.51     1000 
 1500000   0.55098828    -1.779335   0.82565594   -0.9536791   0.12754589    11611.293     1000 
 1502000   0.56722098    -1.759075   0.84998063  -0.90909434   0.13126195    11412.555     1000 
 1504000   0.55317471   -1.6854542    0.8289323  -0.85652186   0.13804103    11264.059     1000 
 1506000   0.57134125   -1.7924614   0.85615487  -0.93630648   0.14705358    11495.975     1000 
 1508000   0.58072687    -1.739449   0.87021921  -0.86922975   0.12998117    11482.577     1000 
 1510000   0.56820835     -1.77236   0.85146022  -0.92089977   0.14014558    11270.631     1000 
 1512000    0.5524556   -1.7337306   0.82785472   -0.9058759   0.12770908    11389.059     1000 
 1514000    0.5460124   -1.7691859   0.81819959   -0.9509863   0.13027044    11477.491     1000 
 1516000   0.55452384   -1.7220038   0.83095398  -0.89104983    0.1351587     11394.59     1000 
 1518000    0.5627118   -1.7824621   0.84322363  -0.93923848   0.12385278    11583.628     1000 
 1520000   0.56877539   -1.7400503   0.85230992  -0.88774041    0.1304662    11358.117     1000 
 1522000   0.56743235   -1.8582377   0.85029738   -1.0079403   0.12966239    11535.879     1000 
 1524000   0.53546248   -1.8106885   0.80239052    -1.008298   0.11990591    11624.898     1000 
 1526000   0.57746572   -1.7348326   0.86533238  -0.86950027   0.13510117    11398.388     1000 
 1528000   0.56603476   -1.7604243   0.84820308   -0.9122212   0.13756414    11436.315     1000 
 1530000   0.55426343    -1.772911   0.83056375  -0.94234727   0.12815207    11431.448     1000 
 1532000    0.5450806   -1.8147723   0.81680329  -0.99796905   0.13072195     11589.62     1000 
 1534000   0.58168806   -1.7926985   0.87165956  -0.92103892   0.15689028    11257.012     1000 
 1536000   0.55646705   -1.7875477   0.83386588   -0.9536818    0.1262282    11641.997     1000 
 1538000   0.55265645   -1.7838134   0.82815569  -0.95565775   0.13095706    11443.333     1000 
 1540000   0.53633246    -1.742364   0.80369419  -0.93866986    0.1173691    11738.517     1000 
 1542000   0.55302993   -1.8136784   0.82871535  -0.98496301   0.12000605     11640.87     1000 
 1544000   0.55825309   -1.7836153   0.83654226  -0.94707301   0.13185515    11497.346     1000 
 1546000   0.54390937   -1.7752049   0.81504819  -0.96015668   0.13634726    11430.652     1000 
 1548000   0.57565983   -1.7197713   0.86262625  -0.85714504   0.12810891    11390.085     1000 
 1550000   0.55471597   -1.7472171   0.83124189   -0.9159752   0.13702411    11359.125     1000 
 1552000   0.52711178   -1.7798822     0.789877  -0.99000525   0.13075481    11449.361     1000 
 1554000    0.5421073   -1.8134515   0.81234779   -1.0011037   0.13410063    11393.898     1000 
 1556000   0.57938742   -1.7968361   0.86821205  -0.92862406   0.13394905    11490.891     1000 
 1558000   0.54755562   -1.8314614    0.8205121   -1.0109493   0.13298917    11554.739     1000 
 1560000   0.57868279   -1.7995165   0.86715617  -0.93236035   0.13053887    11483.283     1000 
 1562000   0.56645578   -1.7714058   0.84883399  -0.92257182   0.12912103    11504.814     1000 
 1564000   0.56323564    -1.812419   0.84400861   -0.9684104   0.12125694    11497.939     1000 
 1566000   0.55665357   -1.7943801   0.83414538  -0.96023468   0.12124431     11554.51     1000 
 1568000   0.54627368   -1.7714492   0.81859111  -0.95285811   0.13428178    11273.425     1000 
 1570000   0.55289336   -1.7662005    0.8285107  -0.93768981   0.13332658    11422.952     1000 
 1572000   0.55428781    -1.756333   0.83060028  -0.92573272   0.10739217    11611.894     1000 
 1574000   0.56744346   -1.7523689   0.85031403   -0.9020549   0.11446885    11550.168     1000 
 1576000    0.5380131   -1.7622593   0.80621263  -0.95604669   0.11937842    11488.145     1000 
 1578000   0.54829742    -1.757504   0.82162369  -0.93588028   0.12629259    11429.386     1000 
 1580000   0.57396832    -1.772362   0.86009153  -0.91227044   0.13641909     11245.66     1000 
 1582000   0.57690314   -1.7287267   0.86448936  -0.86423729   0.13183133    11450.335     1000 
 1584000   0.56456165   -1.7315359   0.84599564   -0.8855403   0.12099045    11756.927     1000 
 1586000   0.57516213   -1.8116885   0.86188045  -0.94980801   0.13636767    11284.421     1000 
 1588000   0.58433973    -1.784814   0.87563308  -0.90918088   0.12076937    11584.023     1000 
[...]
 2614000   0.55621107   -1.7564276    0.8334823  -0.92294534   0.11370118    11645.721     1000 
 2616000   0.57475171   -1.7815961   0.86126544   -0.9203307   0.11282162    11634.762     1000 
 2618000   0.60951948   -1.7709337   0.91336495  -0.85756877   0.14224778     11444.29     1000 
 2620000   0.56453767   -1.7767329    0.8459597  -0.93077324   0.11513686    11602.242     1000 
 2622000   0.54982829   -1.7432811    0.8239177  -0.91936343   0.12774796    11507.561     1000 
 2624000   0.55986663   -1.7385958   0.83896014  -0.89963563   0.13508348    11437.972     1000 
 2626000   0.56085131   -1.7578611   0.84043569   -0.9174254   0.13157006    11351.147     1000 
 2628000   0.54803411   -1.7674299   0.82122911  -0.94620081   0.13744406    11227.848     1000 
 2630000   0.56722625   -1.7689757   0.84998853  -0.91898713    0.1310789    11322.542     1000 
 2632000   0.57538333   -1.7785778   0.86221192  -0.91636585   0.12957312    11439.862     1000 
 2634000   0.54997826   -1.8012662   0.82414242  -0.97712377   0.12928299    11511.664     1000 
 2636000   0.55128949    -1.742852    0.8261073  -0.91674466   0.13463819    11287.453     1000 
 2638000   0.57245767   -1.8114991   0.85782782  -0.95367127   0.12717534    11532.632     1000 
 2640000   0.54726614   -1.7940649    0.8200783   -0.9739866   0.13443207    11252.234     1000 
 2642000    0.5726917   -1.8096487   0.85817851  -0.95147019   0.12770298    11554.605     1000 
 2644000   0.57865858     -1.75659   0.86711988  -0.88947017   0.12581133    11480.188     1000 
 2646000   0.54771815   -1.7694151   0.82075564  -0.94865947   0.13848288    11255.623     1000 
 2648000   0.54445024   -1.7788228   0.81585869  -0.96296407   0.12531097    11474.042     1000 
 2650000   0.58264562   -1.7741621   0.87309446  -0.90106767   0.13227466    11479.649     1000 
 2652000   0.56502978   -1.7689424   0.84669713  -0.92224529   0.12612777    11491.306     1000 
 2654000   0.58021085   -1.7790143   0.86944596  -0.90956837   0.12516815    11633.812     1000 
 2656000   0.54362802   -1.7560064   0.81462658  -0.94137986   0.11101341    11622.169     1000 
 2658000   0.56341485   -1.7753578   0.84427715  -0.93108069   0.12838642    11430.659     1000 
 2660000   0.56439572   -1.8083416   0.84574698  -0.96259457   0.12506213    11619.325     1000 
 2662000   0.55281371   -1.7272145   0.82839134  -0.89882312   0.13693582    11332.182     1000 
 2664000    0.5529029   -1.7431553     0.828525  -0.91463032   0.12737608    11534.394     1000 
 2666000   0.55227849    -1.779959   0.82758932  -0.95236967    0.1240325    11528.866     1000 
 2668000   0.56110411   -1.7572513   0.84081451  -0.91643675   0.13292264    11308.468     1000 
 2670000    0.5563492    -1.750251   0.83368927  -0.91656171   0.13249609    11357.887     1000 
 2672000   0.54776956   -1.7369854   0.82083269  -0.91615266   0.14213029    11313.842     1000 
 2674000   0.56569386   -1.7374848   0.84769225  -0.88979258   0.13494307    11332.978     1000 
 2676000   0.55880552    -1.754974   0.83737008  -0.91760392   0.12322369    11518.265     1000 
 2678000    0.5641525   -1.7839744   0.84538253  -0.93859191   0.12226119    11549.755     1000 
 2680000    0.5669326    -1.813035    0.8495485  -0.96348649   0.12908699    11608.968     1000 
 2682000   0.54917167   -1.8235343   0.82293375   -1.0006006   0.13537558    11418.617     1000 
 2684000   0.55827663    -1.707721   0.83657753  -0.87114351   0.13225926    11282.763     1000 
 2686000   0.55483309   -1.7618793   0.83141738  -0.93046191   0.13316541    11386.044     1000 
 2688000   0.58267103   -1.7550466   0.87313254  -0.88191406   0.13818164    11327.987     1000 
 2690000    0.5574384   -1.8008555   0.83532144  -0.96553402   0.12755953    11501.328     1000 
 2692000   0.56562126   -1.8014031   0.84758345  -0.95381962   0.13069843    11479.257     1000 
 2694000   0.54326733   -1.7726014    0.8140861  -0.95851533   0.12567399    11485.843     1000 
 2696000   0.57054009   -1.7369975   0.85495433  -0.88204317   0.12631678    11493.279     1000 
 2698000   0.60135672    -1.732924   0.90113304  -0.83179099   0.12472487    11597.313     1000 
 2700000    0.5272303   -1.7146096   0.79005461  -0.92455497   0.13089637      11252.8     1000 
 2702000   0.55310169    -1.779267   0.82882289  -0.95044411   0.12673251    11575.094     1000 
 2704000   0.54148641   -1.7366343   0.81141739  -0.92521692    0.1290143    11456.784     1000 
 2706000    0.5883615   -1.7868289   0.88165971  -0.90516919   0.13883113    11449.101     1000 
 2708000   0.56356298   -1.7156816   0.84449913  -0.87118247   0.12701455    11263.272     1000 
 2710000   0.55242976   -1.8066111   0.82781599  -0.97879513    0.1385179    11352.867     1000 
 2712000   0.53469078   -1.7845726   0.80123413  -0.98333847   0.13541583    11316.522     1000 
 2714000    0.5676825   -1.7789026   0.85067222  -0.92823037   0.14339854    11229.705     1000 
 2716000   0.57294747   -1.7377978   0.85856178  -0.87923601   0.13216494    11441.667     1000 
 2718000   0.53474281   -1.7858189    0.8013121  -0.98450678   0.11043008    11669.694     1000 
 2720000   0.55378207   -1.7515404   0.82984243  -0.92169794   0.12701611    11396.852     1000 
 2722000   0.55243685   -1.7398854   0.82782663  -0.91205876   0.14305206    11344.302     1000 
 2724000   0.55485056   -1.7286165   0.83144356  -0.89717296    0.1321995    11370.295     1000 
 2726000   0.55590967   -1.7552732   0.83303064  -0.92224259   0.12478434    11515.096     1000 
 2728000   0.55994902   -1.7688696   0.83908361    -0.929786    0.1242923    11659.387     1000 
 2730000    0.5665625   -1.7770142   0.84899391   -0.9280203   0.14048731    11286.377     1000 
 2732000   0.54005066    -1.787664   0.80926591  -0.97839804   0.13633992    11411.626     1000 
 2734000   0.54309332   -1.8006383   0.81382534  -0.98681297   0.12676681    11390.185     1000 
 2736000   0.56087988   -1.7603644   0.84047849  -0.91988589   0.12351169    11588.976     1000 
 2738000   0.56667629   -1.7451934   0.84916442  -0.89602901   0.15616003    11341.493     1000 
 2740000   0.57763117   -1.7422046    0.8655803  -0.87662429   0.13163604    11253.429     1000 
 2742000   0.56700424     -1.73718   0.84965585  -0.88752412    0.1453323    11348.367     1000 
 2744000   0.55512351   -1.7485247   0.83185257  -0.91667213   0.12961856    11484.684     1000 
 2746000   0.55812184   -1.7910272   0.83634558  -0.95468158    0.1276106    11471.447     1000 
 2748000   0.56490021   -1.7895725   0.84650296  -0.94306958   0.12547102     11493.59     1000 
 2750000   0.55302038    -1.765652   0.82870105  -0.93695099   0.12683179    11526.294     1000 
 2752000   0.57539993   -1.7545685    0.8622368  -0.89233172   0.13752123     11239.32     1000 
 2754000   0.55965418   -1.7233762   0.83864179  -0.88473441   0.13020628     11366.47     1000 
 2756000    0.5463113   -1.7757846   0.81864749  -0.95713716   0.11942168    11463.384     1000 
 2758000   0.52881671   -1.7974299   0.79243184   -1.0049981    0.1234336    11521.894     1000 
 2760000   0.57318221   -1.7273265   0.85891355  -0.86841291   0.13037042    11343.029     1000 
 2762000   0.57953621    -1.773818   0.86843501  -0.90538295   0.11371444    11637.367     1000 
 2764000   0.55854572   -1.7774155   0.83698077  -0.94043469   0.12465351    11347.549     1000 
 2766000   0.55733386   -1.7511434   0.83516479   -0.9159786   0.13543246     11418.23     1000 
 2768000   0.53252678   -1.8085369   0.79799138   -1.0105455   0.12374876    11512.562     1000 
 2770000   0.53029786    -1.807949   0.79465134   -1.0132977   0.13209602    11442.943     1000 
 2772000   0.54049636    -1.760551    0.8099338  -0.95061717    0.1330469    11480.312     1000 
 2774000   0.54150484   -1.7640783     0.811445  -0.95263333   0.12977565    11353.703     1000 
 2776000   0.56169192   -1.7971155   0.84169534  -0.95542017   0.12243232    11534.255     1000 
 2778000   0.57072263   -1.7794497   0.85522785  -0.92422187   0.13171507    11542.999     1000 
 2780000   0.57136767   -1.7724257   0.85619446  -0.91623128   0.13611048    11515.038     1000 
 2782000   0.56385052   -1.7234262      0.84493  -0.87849615   0.11961925    11428.043     1000 
 2784000   0.56886139    -1.740606    0.8524388  -0.88816716   0.13361773    11425.745     1000 
 2786000   0.58179223   -1.7346563   0.87181566  -0.86284062   0.13308558    11344.281     1000 
 2788000   0.55263413   -1.7087971   0.82812224  -0.88067481     0.157714    11185.481     1000 
 2790000   0.57948102   -1.6451182   0.86835232  -0.77676588   0.13844312    11147.089     1000 
 2792000   0.53847321      -1.7254   0.80690211  -0.91849789   0.12504994    11497.133     1000 
 2794000    0.5609554   -1.7799235   0.84059166  -0.93933188   0.13622049    11347.703     1000 
 2796000   0.56651413    -1.751523   0.84892143  -0.90260152    0.1360107    11232.555     1000 
 2798000   0.55624006   -1.7323367   0.83352573    -0.898811   0.13579064    11418.499     1000 
 2800000   0.54544268   -1.7444197   0.81734586  -0.92707384   0.12956325    11517.949     1000 
 2802000   0.58897108   -1.7870947   0.88257317  -0.90452152   0.12978751    11492.688     1000 
 2804000   0.56352562   -1.7800804   0.84444314  -0.93563726   0.12806007    11477.295     1000 
 2806000   0.60138447   -1.7652575   0.90117463  -0.86408284   0.13187138    11520.208     1000 
 2808000   0.54990662   -1.7712528   0.82403506  -0.94721772    0.1281973    11517.941     1000 
 2810000   0.57524526   -1.7785868   0.86200502  -0.91658174   0.12838512    11495.838     1000 
 2812000   0.56019889   -1.7834749   0.83945803  -0.94401687   0.14137802    11282.909     1000 
 2814000   0.57745102   -1.7900864   0.86531035  -0.92477609   0.12747517    11486.178     1000 
 2816000   0.57445577   -1.7813022   0.86082198  -0.92048018   0.11835442    11629.258     1000 
 2818000   0.58793764   -1.7504375   0.88102456  -0.86941294   0.14016469    11214.952     1000 
 2820000   0.55748474   -1.7581663   0.83539088  -0.92277543   0.13328664    11309.142     1000 
 2822000   0.56760739   -1.7938192   0.85055968  -0.94325951       0.1356    11294.551     1000 
 2824000   0.56348813   -1.7781572   0.84438696  -0.93377022   0.12576735    11447.389     1000 
 2826000   0.59489322   -1.7701962    0.8914475  -0.87874874   0.14212823    11365.217     1000 
 2828000   0.56212731   -1.7650051   0.84234778  -0.92265729   0.12757612     11297.14     1000 
 2830000    0.5636372   -1.7004553   0.84461034  -0.85584501   0.12784752    11266.023     1000 
 2832000    0.5449351   -1.6922563   0.81658524  -0.87567105   0.12840771     11327.15     1000 
 2834000   0.57426558   -1.7692114   0.86053698  -0.90867445   0.12354401    11498.364     1000 
 2836000   0.57129727   -1.7760283   0.85608896  -0.91993935    0.1363751      11323.4     1000 
 2838000   0.53586036   -1.7294198   0.80298675  -0.92643304   0.13335335    11336.072     1000 
 2840000   0.56571635    -1.726842   0.84772595  -0.87911604   0.12161131    11422.979     1000 
 2842000   0.57423921   -1.7851277   0.86049745  -0.92463021   0.13111089    11626.471     1000 
 2844000   0.56381483   -1.7977354   0.84487652  -0.95285883   0.11214505    11795.386     1000 
 2846000   0.55504036   -1.7327041   0.83172797  -0.90097611   0.13798388    11361.915     1000 
 2848000   0.56140969   -1.7547071   0.84127242  -0.91343465   0.12350155    11523.211     1000 
 2850000   0.54898036    -1.770682   0.82264707  -0.94803498   0.12688936    11460.232     1000 
 2852000   0.56394991   -1.7570166   0.84507893  -0.91193766   0.12804403    11366.223     1000 
 2854000   0.54529821   -1.6990641   0.81712937  -0.88193477   0.13075019    11402.889     1000 
 2856000   0.56006831   -1.7618204   0.83926237  -0.92255808   0.14422535    11227.719     1000 
 2858000   0.54383048   -1.8108256   0.81492997  -0.99589563   0.10326236    11488.824     1000 
 2860000   0.56449853   -1.7849422   0.84590104  -0.93904113   0.12259561    11462.559     1000 
 2862000   0.56339035    -1.772564   0.84424044  -0.92832356   0.14194312    11483.938     1000 
 2864000   0.56245835   -1.7693026   0.84284384  -0.92645881   0.13363196    11478.771     1000 
 2866000   0.57485153   -1.7429451   0.86141502  -0.88153008    0.1431744    11402.844     1000 
 2868000   0.55808614   -1.7477469   0.83629207  -0.91145483   0.12414182    11451.209     1000 
 2870000   0.56338999    -1.727328    0.8442399  -0.88308815   0.14269151    11285.708     1000 
 2872000   0.56921615   -1.8022538    0.8529704  -0.94928343   0.13142986     11460.74     1000 
 2874000   0.56981304   -1.7735181   0.85386484  -0.91965327   0.12332384    11576.048     1000 
 2876000    0.5645939   -1.7641614   0.84604395  -0.91811746   0.12458405    11533.521     1000 
 2878000   0.59256743   -1.7443598   0.88796229  -0.85639748   0.13395963    11354.529     1000 
 2880000    0.5534257   -1.7850523   0.82930841  -0.95574389   0.13420227    11400.062     1000 
 2882000   0.56894455   -1.7669651   0.85256341  -0.91440168    0.1392972    11461.976     1000 
 2884000   0.58166212   -1.7526211   0.87162069  -0.88100037   0.12115302     11603.34     1000 
 2886000   0.57140916   -1.7018724   0.85625663  -0.84561576   0.14007002     11444.69     1000 
 2888000   0.56319443   -1.7289876   0.84394686   -0.8850407   0.13734764     11424.85     1000 
 2890000   0.55098361   -1.7529541   0.82564895  -0.92730514   0.11380878    11675.561     1000 
 2892000    0.5434801   -1.8439314   0.81440493   -1.0295265   0.13116926    11568.026     1000 
 2894000   0.55303302   -1.7579986   0.82871998  -0.92927862   0.12395263    11500.812     1000 
 2896000   0.58159146   -1.7733123   0.87151481  -0.90179751   0.14688381    11387.421     1000 
 2898000   0.55736294    -1.740376   0.83520837  -0.90516765    0.1311528    11273.913     1000 
 2900000    0.5490143   -1.7320265   0.82269794  -0.90932852    0.1404369     11259.39     1000 
 2902000   0.53189547   -1.7286494   0.79704536  -0.93160401   0.13620066     11396.18     1000 
 2904000   0.57468644   -1.7740119   0.86116763  -0.91284422   0.12563588    11675.005     1000 
 2906000   0.54351055   -1.7327511   0.81445057  -0.91830049    0.1318254    11485.671     1000 
 2908000   0.57328526   -1.7140882   0.85906796  -0.85502029   0.12722937    11377.784     1000 
 2910000   0.52826587   -1.7900191    0.7916064  -0.99841269   0.11733718    11569.444     1000 
 2912000   0.55456695   -1.7834895   0.83101857  -0.95247089   0.13108544    11551.783     1000 
 2914000   0.54861641   -1.7679788   0.82210169  -0.94587714   0.13462503    11399.716     1000 
 2916000   0.54288308   -1.7348769    0.8135103  -0.92136663   0.13069953     11376.38     1000 
 2918000   0.54619806    -1.786182   0.81847779  -0.96770424   0.13684837    11482.811     1000 
 2920000   0.56092061   -1.7188971   0.84053954  -0.87835753    0.1348979    11410.459     1000 
 2922000    0.5351987    -1.768674   0.80199525  -0.96667875    0.1280762    11522.676     1000 
 2924000   0.53811442   -1.7677902   0.80636446  -0.96142579   0.13128286    11410.199     1000 
 2926000   0.54778962   -1.7468559   0.82086275  -0.92599319   0.12224133    11525.522     1000 
 2928000   0.57372026   -1.7760123   0.85971982  -0.91629244   0.11476462      11623.4     1000 
 2930000    0.5576904   -1.7793489   0.83569906  -0.94364985   0.12902262    11473.555     1000 
 2932000   0.54684185   -1.7514669   0.81944251  -0.93202435   0.13786296    11268.628     1000 
 2934000   0.54202645   -1.7692998   0.81222664  -0.95707312   0.12625828    11331.337     1000 
 2936000   0.55669708   -1.7484983   0.83421058  -0.91428769   0.14060999    11490.575     1000 
 2938000   0.55973055     -1.72741   0.83875622  -0.88865378   0.12800769    11354.372     1000 
 2940000   0.56354404   -1.7352598   0.84447075  -0.89078905   0.12764829    11467.381     1000 
 2942000   0.56791087   -1.7912449   0.85101444  -0.94023048   0.12090815    11443.504     1000 
 2944000   0.55252084   -1.8359756   0.82795248   -1.0080231   0.12571674    11452.123     1000 
 2946000    0.5807931   -1.7853536   0.87031845  -0.91503516   0.12624575    11530.194     1000 
 2948000   0.53948233   -1.7602003   0.80841428  -0.95178604   0.13818269    11422.827     1000 
 2950000   0.54328616   -1.7438682   0.81411431  -0.92975387   0.13638974    11371.695     1000 
 2952000   0.55017739   -1.7259824   0.82444082  -0.90154156   0.11689391    11469.209     1000 
 2954000   0.56441684   -1.8176756   0.84577864  -0.97189692   0.12231861    11451.108     1000 
 2956000   0.56640577   -1.7950646   0.84875904  -0.94630558   0.12331432    11545.416     1000 
 2958000   0.54872026    -1.763935   0.82225731  -0.94167772   0.13464149    11424.146     1000 
 2960000   0.54116052   -1.7801885   0.81092903  -0.96925949   0.12853468    11397.856     1000 
 2962000   0.57814802   -1.7774247   0.86635481  -0.91106993   0.12516839    11558.482     1000 
 2964000   0.54316809    -1.746686   0.81393739  -0.93274863   0.12723712    11530.326     1000 
 2966000   0.55816305   -1.7383195   0.83640733  -0.90191213   0.12247219    11505.246     1000 
 2968000   0.55255028   -1.7430919   0.82799659  -0.91509531    0.1297947    11320.456     1000 
 2970000   0.52293798   -1.7431294   0.78362256  -0.95950688   0.13969155    11339.214     1000 
 2972000   0.56955496   -1.7860343   0.85347811  -0.93255617   0.13004782    11457.734     1000 
 2974000   0.55278627   -1.7376043   0.82835023  -0.90925407   0.12691727    11456.205     1000 
 2976000   0.55677178   -1.7761208   0.83432251  -0.94179824   0.12322336    11418.596     1000 
 2978000   0.53790112    -1.819878   0.80604483   -1.0138332   0.12271453    11547.113     1000 
 2980000   0.56638815   -1.7743997   0.84873264  -0.92566707   0.13164627    11448.246     1000 
 2982000   0.57576441   -1.7284173   0.86278296   -0.8656343   0.13274405    11382.291     1000 
 2984000   0.55886964   -1.7464867   0.83746615  -0.90902055   0.12119321    11617.728     1000 
 2986000   0.54778473   -1.7608194   0.82085541  -0.93996394   0.12234711    11388.866     1000 
 2988000   0.56201689   -1.7814134   0.84218231  -0.93923114   0.12776423    11572.417     1000 
 2990000   0.57380792   -1.8165955   0.85985116  -0.95674438   0.12013289    11661.231     1000 
 2992000   0.55819067   -1.7483943   0.83644872  -0.91194562   0.13976897    11414.061     1000 
 2994000   0.56173128   -1.7733242   0.84175432  -0.93156989   0.13687166    11309.353     1000 
 2996000   0.52226026   -1.7387681     0.782607  -0.95616109   0.12629035    11279.851     1000 
 2998000   0.54607339   -1.7565916   0.81829097  -0.93830066   0.12154421    11487.585     1000 
 3000000   0.55668215   -1.7165206    0.8341882  -0.88233241   0.13871095    11196.207     1000 
Loop time of 7342.63 on 1 procs for 3000000 steps with 1000 atoms

Performance: 176503.626 tau/day, 408.573 timesteps/s
100.0% CPU use with 1 MPI tasks x 1 OpenMP threads

MPI task timing breakdown:
Section |  min time  |  avg time  |  max time  |%varavg| %total
---------------------------------------------------------------
Pair    | 6622.7     | 6622.7     | 6622.7     |   0.0 | 90.19
Neigh   | 569.75     | 569.75     | 569.75     |   0.0 |  7.76
Comm    | 62.691     | 62.691     | 62.691     |   0.0 |  0.85
Output  | 0.028567   | 0.028567   | 0.028567   |   0.0 |  0.00
Modify  | 76.818     | 76.818     | 76.818     |   0.0 |  1.05
Other   |            | 10.67      |            |       |  0.15

Nlocal:        1000.00 ave        1000 max        1000 min
Histogram: 1 0 0 0 0 0 0 0 0 0
Nghost:        6112.00 ave        6112 max        6112 min
Histogram: 1 0 0 0 0 0 0 0 0 0
Neighs:        203669.0 ave      203669 max      203669 min
Histogram: 1 0 0 0 0 0 0 0 0 0

Total # of neighbors = 203669
Ave neighs/atom = 203.66900
Neighbor list builds = 150000
Dangerous builds not checked

Total wall time: 2:02:22
