LAMMPS (29 Sep 2021 - Update 2)
OMP_NUM_THREADS environment is not set. Defaulting to 1 thread. (src/comm.cpp:98)
  using 1 OpenMP thread(s) per MPI task
# ----------------------- Inicialização -----------------------

units			lj
atom_style 		atomic
dimension 		3
boundary 		p p p

# -------------------- Criação dos Átomos ---------------------

read_data 		topologia.txt
Reading data file ...
  orthogonal box = (0.0000000 0.0000000 0.0000000) to (21.540000 21.540000 21.540000)
  1 by 1 by 1 MPI processor grid
  reading atoms ...
  1000 atoms
  read_data CPU = 0.005 seconds

velocity 		all create ${temp} 87287 rot yes dist gaussian
velocity 		all create 0.49 87287 rot yes dist gaussian

# ------------------ Interação Interatômica -------------------

pair_style		table linear 2000
pair_coeff		1 1 force.table AA 10.0
WARNING: 3 of 2000 force values in table AA are inconsistent with -dE/dr.
WARNING:  Should only be flagged at inflection points (src/pair_table.cpp:465)
pair_coeff		1 2 force.table AB 10.0
WARNING: 1 of 2000 force values in table AB are inconsistent with -dE/dr.
WARNING:  Should only be flagged at inflection points (src/pair_table.cpp:465)
pair_coeff		2 2 force.table BB 10.0
pair_write		1 1 2000 r 0.008 10.0 table.check AA
Appending to table file table.check with DATE: 2023-06-17
Neighbor list info ...
  update every 1 steps, delay 10 steps, check yes
  max neighbors/atom: 2000, page size: 100000
  master list distance cutoff = 10.3
  ghost atom cutoff = 10.3
  binsize = 5.15, bins = 5 5 5
  1 neighbor lists, perpetual/occasional/extra = 1 0 0
  (1) pair table, perpetual
      attributes: half, newton on
      pair build: half/bin/atomonly/newton
      stencil: half/bin/3d
      bin: standard
pair_write		1 2 2000 r 0.008 10.0 table.check AB
Appending to table file table.check with DATE: 2023-06-17
pair_write		2 2 2000 r 0.008 10.0 table.check BB
Appending to table file table.check with DATE: 2023-06-17

neighbor 		0.3 bin
neigh_modify		every 20 delay 0 check no

# ------------------------- Ensemble --------------------------------------

fix 1			all npt temp ${temp} ${temp} 0.5 iso ${press} ${press} 5
fix 1			all npt temp 0.49 ${temp} 0.5 iso ${press} ${press} 5
fix 1			all npt temp 0.49 0.49 0.5 iso ${press} ${press} 5
fix 1			all npt temp 0.49 0.49 0.5 iso 0.13 ${press} 5
fix 1			all npt temp 0.49 0.49 0.5 iso 0.13 0.13 5

# ---------------------- Função de Distribuição Radial -----------------------

#compute RDF 		all rdf 2000 1 1 1 2 2 2
#fix 2 			all ave/time 1 2000 2000 c_RDF[*] file rdf.data mode vector

# ------------------------- Execução ---------------------------

timestep 		0.005
thermo_style		custom step temp pe ke etotal press vol atoms
thermo			2000
run			3000000
Per MPI rank memory allocation (min/avg/max) = 3.614 | 3.614 | 3.614 Mbytes
Step Temp PotEng KinEng TotEng Press Volume Atoms 
       0         0.49  -0.99611563     0.734265  -0.26185063   0.11695679    9993.9483     1000 
    2000   0.50673816   -1.9666762   0.75934713    -1.207329   0.13377402    11449.737     1000 
    4000    0.4989347   -1.8948194   0.74765364   -1.1471658   0.12930377     11286.69     1000 
    6000   0.47926956   -1.9018187   0.71818544   -1.1836332   0.13613039    11313.307     1000 
    8000    0.4857036   -1.9664522   0.72782685   -1.2386254   0.14132859    11280.437     1000 
   10000   0.48405429   -1.9364235   0.72535536   -1.2110681   0.13053053    11310.163     1000 
   12000   0.48173944   -1.9273898   0.72188656   -1.2055033   0.13996536    11143.683     1000 
   14000   0.50236337   -1.9287364   0.75279151   -1.1759449   0.12686543    11438.937     1000 
   16000   0.49688402   -1.9449015   0.74458071   -1.2003208    0.1254155    11439.322     1000 
   18000   0.48479359   -1.9600671    0.7264632   -1.2336039   0.12950063    11358.765     1000 
   20000   0.49278217   -1.9060496   0.73843409   -1.1676155   0.12408335     11451.67     1000 
   22000   0.47420124   -1.9947922   0.71059056   -1.2842017   0.11811507    11545.167     1000 
   24000   0.49700894   -1.9244444   0.74476789   -1.1796765   0.12994716    11348.541     1000 
   26000    0.4551128   -1.9810515   0.68198653    -1.299065   0.12945983    11390.251     1000 
   28000    0.4900669   -1.9512871   0.73436526   -1.2169219     0.137113    11242.714     1000 
   30000   0.51084348    -1.967661   0.76549895    -1.202162   0.12882338    11359.393     1000 
   32000   0.50286665   -1.9291834   0.75354568   -1.1756377   0.12932252    11333.821     1000 
   34000   0.50145989   -1.9053561   0.75143764   -1.1539185   0.14095176     11313.03     1000 
   36000   0.49427294    -1.955533   0.74066801   -1.2148649   0.12306418    11493.533     1000 
   38000   0.47848006   -1.9417043   0.71700237   -1.2247019   0.13570626    11351.027     1000 
   40000   0.48091332   -1.9371322   0.72064862   -1.2164836    0.1322718    11303.491     1000 
   42000    0.4906842   -1.8997403   0.73529027     -1.16445   0.12778365    11385.409     1000 
   44000   0.50074966   -1.9732559   0.75037337   -1.2228825   0.12659531    11495.703     1000 
   46000   0.48155838   -1.9335736   0.72161524   -1.2119583    0.1212751    11430.861     1000 
   48000   0.48087317   -1.9507334   0.72058845   -1.2301449   0.11892664    11405.094     1000 
   50000   0.49020076   -1.9173988   0.73456583    -1.182833   0.12876133      11431.2     1000 
   52000   0.49315797   -1.9673648   0.73899721   -1.2283676    0.1303302    11458.082     1000 
   54000   0.49271999    -1.961362    0.7383409   -1.2230211   0.14069114    11276.443     1000 
   56000   0.49343836   -1.9536183   0.73941738    -1.214201   0.11919207    11497.467     1000 
   58000   0.48394182   -1.9865977   0.72518682   -1.2614109   0.12648113    11268.994     1000 
   60000   0.48711062   -1.9900566   0.72993527   -1.2601214   0.13367958    11370.272     1000 
   62000   0.48694286   -1.9527833   0.72968387   -1.2230994    0.1212111    11472.335     1000 
   64000   0.48157276   -1.9437855   0.72163679   -1.2221487   0.12743817    11440.454     1000 
   66000   0.49815937   -1.9469871   0.74649181   -1.2004953     0.119672    11462.358     1000 
   68000   0.45490392   -1.9209429   0.68167352   -1.2392694   0.12347894    11445.092     1000 
   70000   0.47322468   -1.9323935   0.70912719   -1.2232663   0.12923299    11315.841     1000 
   72000   0.48824363   -2.0012872   0.73163308   -1.2696541   0.13212291    11362.309     1000 
   74000   0.47469418   -1.9604774   0.71132923   -1.2491482   0.12870286     11306.29     1000 
   76000   0.46584979   -1.9427479    0.6980759    -1.244672     0.129238    11361.695     1000 
   78000    0.5107406   -1.9173205   0.76534478   -1.1519757   0.12478035    11434.014     1000 
   80000   0.50395353    -1.923274   0.75517437   -1.1680996   0.13046453    11284.282     1000 
   82000   0.48655387   -1.9324346   0.72910097   -1.2033336   0.13060407    11318.237     1000 
   84000   0.47896029   -1.9769463   0.71772199   -1.2592243   0.12455451    11522.561     1000 
   86000   0.50450378   -1.8932718   0.75599892   -1.1372729   0.13388194    11392.179     1000 
   88000   0.50910319    -1.921441   0.76289113   -1.1585499   0.14184641    11320.044     1000 
   90000   0.49269368   -1.9306649   0.73830148   -1.1923634   0.12143495    11467.862     1000 
   92000   0.47807146   -1.9261567   0.71639008   -1.2097667   0.13313678      11337.4     1000 
   94000   0.51683305   -1.8904836   0.77447433   -1.1160092   0.14299691    11253.707     1000 
   96000   0.50769613   -1.8896283   0.76078265   -1.1288456    0.1220609    11441.734     1000 
   98000   0.50034689   -1.9494673   0.74976981   -1.1996975   0.13549547    11315.374     1000 
  100000   0.48905552   -1.8729371    0.7328497   -1.1400874   0.13284865    11304.063     1000 
  102000   0.48124086   -1.9444893   0.72113943   -1.2233499   0.13877361    11250.426     1000 
  104000   0.49543075   -1.9360412   0.74240297   -1.1936382   0.13494489    11355.633     1000 
  106000   0.48238026   -1.9148457   0.72284682   -1.1919988   0.13442831    11287.301     1000 
  108000   0.49738663   -1.9647633   0.74533387   -1.2194294   0.12418146    11494.905     1000 
  110000   0.51123195   -1.9225805   0.76608108   -1.1564994   0.13463188    11373.102     1000 
  112000   0.50484224   -1.8846938   0.75650609   -1.1281877   0.11805401    11400.092     1000 
  114000   0.47108838   -1.9041651   0.70592593   -1.1982391   0.11498285    11481.712     1000 
  116000   0.49694077   -1.8941685   0.74466574   -1.1495027   0.12894545    11322.042     1000 
  118000   0.50660621   -1.9798103   0.75914941   -1.2206609   0.13633145    11303.124     1000 
  120000   0.50100331   -1.9514064   0.75075345   -1.2006529   0.12617574    11392.421     1000 
  122000   0.48810606   -1.9543022   0.73142693   -1.2228752   0.13595471     11266.88     1000 
  124000   0.48884101   -1.9809202   0.73252825    -1.248392   0.12630851    11447.434     1000 
  126000   0.49625531   -1.9663498   0.74363858   -1.2227113   0.13416025    11357.776     1000 
  128000   0.48514655    -1.950073   0.72699211   -1.2230808   0.12583663    11501.987     1000 
  130000    0.4816705   -1.9661748   0.72178324   -1.2443916   0.13313721    11343.373     1000 
  132000   0.49752143   -1.9617624   0.74553586   -1.2162265   0.12672837    11402.778     1000 
  134000    0.5091151   -1.9086525   0.76290898   -1.1457435   0.13630255    11441.098     1000 
  136000   0.48217008   -1.9887164   0.72253186   -1.2661846   0.13132301    11372.063     1000 
  138000   0.49166536   -1.9436883   0.73676054   -1.2069278   0.13940355    11246.647     1000 
  140000   0.50183709   -1.9074787   0.75200288   -1.1554758   0.13695243    11249.083     1000 
  142000   0.48220978   -1.9375378   0.72259135   -1.2149464   0.11940336    11364.048     1000 
  144000   0.50584008   -1.9754759   0.75800136   -1.2174746    0.1267812    11337.889     1000 
  146000   0.48903944   -1.9317207    0.7328256   -1.1988951   0.12777561     11376.54     1000 
  148000   0.47878101    -1.955463   0.71745334   -1.2380097   0.13486698    11365.486     1000 
  150000   0.47630262   -1.9449177   0.71373947   -1.2311782    0.1287132    11423.455     1000 
  152000   0.47568141   -2.0231539   0.71280859   -1.3103453   0.11966934    11398.782     1000 
  154000   0.47843796   -1.9686655   0.71693929   -1.2517262   0.12184464    11410.719     1000 
  156000   0.48325192   -1.9178051     0.724153   -1.1936521   0.13605488    11356.624     1000 
  158000   0.47165001   -1.9539004   0.70676754   -1.2471328   0.11892701     11444.83     1000 
  160000   0.49922368   -1.9765502   0.74808668   -1.2284635   0.13500849    11335.638     1000 
  162000   0.47586588   -1.9511766   0.71308502   -1.2380916   0.13780379     11368.75     1000 
  164000   0.48408028   -1.9346286   0.72539431   -1.2092343   0.12837624    11295.391     1000 
  166000   0.48435412   -1.9871457   0.72580465    -1.261341   0.12813499     11443.46     1000 
  168000   0.48937158   -1.9326491   0.73332331   -1.1993257   0.11884864    11583.266     1000 
  170000   0.48951778   -1.9526465   0.73354239   -1.2191041   0.12133819    11489.113     1000 
  172000   0.48925916   -1.9210349   0.73315485   -1.1878801   0.11404569    11518.527     1000 
  174000   0.47679344   -1.8913426   0.71447496   -1.1768677   0.13709809    11315.424     1000 
  176000   0.47915694   -1.9464384   0.71801668   -1.2284218   0.12758917    11414.714     1000 
  178000   0.48168422   -1.9611049   0.72180381   -1.2393011   0.13363813    11366.923     1000 
  180000    0.4965994   -1.9661772   0.74415421    -1.222023   0.13873124    11333.392     1000 
  182000   0.49213454   -1.9771974   0.73746361   -1.2397338   0.11887276    11390.903     1000 
  184000   0.49824175   -1.9410872   0.74661527   -1.1944719   0.13263586    11297.797     1000 
  186000   0.49796999   -1.9425781   0.74620802     -1.19637   0.12192796     11369.14     1000 
  188000   0.48264691   -1.9553137   0.72324639   -1.2320673   0.12634774    11402.009     1000 
  190000     0.479099   -1.9335661   0.71792985   -1.2156362   0.12720307    11402.999     1000 
  192000   0.48200993   -1.9186958   0.72229188   -1.1964039   0.13206688    11286.348     1000 
  194000   0.47295111    -1.972703   0.70871724   -1.2639857   0.12116502    11532.991     1000 
  196000   0.50941773   -1.9027118   0.76336247   -1.1393494   0.11831531    11421.168     1000 
  198000    0.4808307   -1.9856869   0.72052481   -1.2651621   0.13018916    11389.905     1000 
  200000   0.49233606   -1.9463963   0.73776558   -1.2086307   0.12690435    11355.824     1000 
  202000   0.48990742   -1.9702818   0.73412627   -1.2361556    0.1317591    11365.568     1000 
  204000   0.48414414   -1.9423858   0.72548999   -1.2168958   0.13116525    11364.819     1000 
  206000   0.46646516   -1.9235787   0.69899804   -1.2245806   0.12012524    11509.738     1000 
  208000   0.49135794   -1.9116125   0.73629987   -1.1753126    0.1370087    11310.971     1000 
  210000   0.48489978   -1.9549724   0.72662232   -1.2283501   0.11810777    11554.796     1000 
  212000   0.49956383   -1.9225064    0.7485964     -1.17391   0.12664537    11343.728     1000 
  214000   0.49502188   -1.9203696   0.74179029   -1.1785793   0.13038752    11353.161     1000 
  216000   0.47858087   -1.9588945   0.71715343   -1.2417411   0.11827215    11552.989     1000 
  218000   0.47227066   -1.9363822   0.70769758   -1.2286846   0.12658594     11511.23     1000 
  220000   0.48309615    -1.981766   0.72391959   -1.2578465   0.13224099    11357.828     1000 
  222000   0.47777746    -1.935426   0.71594952   -1.2194765   0.13371081    11282.131     1000 
  224000   0.50633037   -1.9434506   0.75873607   -1.1847146   0.12969097    11291.917     1000 
  226000   0.47626311   -1.9399931   0.71368027   -1.2263128   0.12632027    11358.176     1000 
  228000   0.49272158   -1.9766248   0.73834328   -1.2382815   0.14375641    11222.169     1000 
  230000   0.47508996   -1.9508034   0.71192231   -1.2388811   0.14169968     11242.99     1000 
  232000    0.4920624   -1.9822064   0.73735551   -1.2448509   0.12725703     11369.49     1000 
  234000   0.49838462   -2.0035099   0.74682936   -1.2566806   0.13265506    11355.899     1000 
  236000   0.47791418    -2.018063    0.7161544   -1.3019086   0.11391359    11568.597     1000 
  238000   0.49961058   -2.0176078   0.74866646   -1.2689413   0.12542087    11442.805     1000 
  240000   0.47961295   -1.9530517   0.71870001   -1.2343517   0.14009316    11390.908     1000 
  242000   0.50223232   -1.9240674   0.75259514   -1.1714723   0.12698829    11435.874     1000 
  244000   0.48884344   -1.9430553    0.7325319   -1.2105234   0.12995498    11324.459     1000 
  246000   0.47931605   -1.9582795    0.7182551   -1.2400244   0.13074527    11301.298     1000 
  248000   0.48273699   -1.9550914   0.72338138     -1.23171   0.12115443    11432.313     1000 
  250000   0.46007221   -1.9442003   0.68941821   -1.2547821   0.12444251    11326.128     1000 
  252000   0.47615671   -1.9198191   0.71352083   -1.2062983   0.12230616    11446.487     1000 
  254000   0.49526044    -1.903746   0.74214776   -1.1615982   0.13328343    11395.907     1000 
  256000   0.48757555   -1.9389019   0.73063196     -1.20827   0.13446794    11293.504     1000 
  258000   0.47493593   -1.9564203   0.71169149   -1.2447288   0.13327431    11441.405     1000 
  260000   0.46243902   -1.9489791   0.69296487   -1.2560142   0.13564147    11161.152     1000 
  262000   0.48079973   -1.9781286   0.72047839   -1.2576502   0.13517555    11391.952     1000 
  264000   0.49264346   -1.9591988   0.73822622   -1.2209725    0.1424724    11260.812     1000 
  266000   0.49600005   -1.9606924   0.74325607   -1.2174363   0.11931664    11493.819     1000 
  268000   0.47650677   -1.9042049   0.71404539   -1.1901595   0.13259846    11357.483     1000 
  270000   0.49530121   -1.9147023   0.74220886   -1.1724935   0.14014594    11250.335     1000 
  272000   0.49870845   -1.9759752   0.74731461   -1.2286605   0.12988453    11385.865     1000 
  274000   0.48645152   -1.9066893    0.7289476   -1.1777417   0.14319813    11250.231     1000 
  276000   0.50784494   -1.9609123   0.76100564   -1.1999066   0.13081289    11421.279     1000 
  278000   0.46928684    -1.947176   0.70322633   -1.2439497   0.12485235    11473.514     1000 
  280000   0.48072515   -1.9338845   0.72036663   -1.2135178    0.1272067    11383.145     1000 
  282000   0.49191588   -1.9469734   0.73713595   -1.2098375    0.1284456    11430.656     1000 
  284000   0.47885887   -1.9736647   0.71757002   -1.2560947   0.13506628    11281.137     1000 
  286000    0.4931868   -1.9197292   0.73904042   -1.1806888   0.12694748    11357.666     1000 
  288000   0.50490287   -1.9645961   0.75659695   -1.2079992   0.12779861    11484.384     1000 
  290000    0.4854167    -1.900375   0.72739693   -1.1729781   0.12971788    11228.201     1000 
  292000   0.47002865   -1.9466767   0.70433793   -1.2423388   0.12441098    11398.664     1000 
  294000   0.49446688   -1.9824826   0.74095862    -1.241524   0.11544191    11648.666     1000 
  296000   0.50978617    -1.974431   0.76391458   -1.2105164   0.13679115    11427.876     1000 
  298000   0.49771104   -1.9629417   0.74581999   -1.2171217   0.13086452    11319.475     1000 
  300000   0.48262713   -1.9883541   0.72321675   -1.2651373   0.11975765    11551.442     1000 
  302000   0.46988113   -1.9727041   0.70411688   -1.2685872   0.12901865    11430.664     1000 
  304000   0.46576579   -1.9241264   0.69795003   -1.2261764   0.12876969     11368.26     1000 
  306000   0.49095431   -1.9539019   0.73569503   -1.2182069   0.12683044    11459.165     1000 
  308000   0.49891191    -1.974278    0.7476195   -1.2266585    0.1308688    11307.417     1000 
  310000   0.50181768    -1.937298   0.75197379   -1.1853242   0.13525239    11346.201     1000 
  312000   0.47427254   -1.9265875    0.7106974   -1.2158901   0.13365434    11281.284     1000 
  314000   0.49796071   -1.9671938   0.74619413   -1.2209996   0.13108756    11396.232     1000 
  316000   0.47930523    -1.933807   0.71823889   -1.2155681   0.12569862    11274.383     1000 
  318000   0.48880377   -2.0381389   0.73247245   -1.3056664   0.13392507    11458.751     1000 
  320000   0.48500614   -1.9221028    0.7267817   -1.1953211   0.13313014    11248.901     1000 
  322000   0.47764581   -1.9620581   0.71575225   -1.2463059   0.12770252    11342.336     1000 
  324000   0.47795583   -1.9552595   0.71621681   -1.2390427   0.12749901    11291.034     1000 
  326000   0.50060206   -2.0034919   0.75015218   -1.2533397   0.12307529     11404.12     1000 
  328000   0.49343404   -2.0088063   0.73941091   -1.2693954   0.11447824    11596.578     1000 
  330000   0.48696553   -1.9467445   0.72971784   -1.2170266    0.1313315    11382.812     1000 
  332000    0.4770222    -1.974702   0.71481776   -1.2598842   0.13760907    11360.554     1000 
  334000   0.48653986   -1.9521592   0.72907998   -1.2230792   0.11434211    11527.594     1000 
  336000   0.49685278   -1.9668015    0.7445339   -1.2222676    0.1300749    11448.907     1000 
  338000   0.47192298   -2.0042812   0.70717659   -1.2971046   0.13124133    11459.326     1000 
  340000     0.494023   -1.9129944   0.74029346    -1.172701   0.13010981    11403.192     1000 
  342000   0.48672423   -1.9555062   0.72935625     -1.22615   0.13230981    11303.672     1000 
  344000   0.47328986   -1.9797942   0.70922486   -1.2705693   0.13087045    11364.616     1000 
  346000   0.48723049   -1.9160786   0.73011489   -1.1859637   0.14501383    11168.574     1000 
  348000    0.5063354   -1.9661033    0.7587436   -1.2073597   0.13227243     11383.02     1000 
  350000   0.50282183   -1.9186159   0.75347852   -1.1651374   0.12550946    11367.716     1000 
  352000   0.49152145    -1.933153   0.73654489   -1.1966081    0.1385669    11260.096     1000 
  354000   0.48379604   -1.9760827   0.72496837   -1.2511144   0.11813504    11488.332     1000 
  356000    0.4865323   -1.9594182   0.72906866   -1.2303495    0.1289441    11453.414     1000 
  358000   0.48125593   -1.9589593     0.721162   -1.2377973   0.13925902    11317.023     1000 
  360000   0.47631457   -1.9381139   0.71375738   -1.2243565   0.13030187     11406.39     1000 
  362000   0.51886072   -1.9164392   0.77751279   -1.1389264   0.13126918    11412.374     1000 
  364000   0.48437631   -1.8830634    0.7258379   -1.1572255   0.12666184    11227.962     1000 
  366000   0.49884613   -1.9308944   0.74752092   -1.1833735   0.13950719     11280.76     1000 
  368000   0.50149597   -1.9352554   0.75149172   -1.1837637   0.13599413    11243.344     1000 
  370000   0.48324966   -1.9630667   0.72414961   -1.2389171   0.12909136    11381.319     1000 
  372000    0.4696655   -1.9635731   0.70379375   -1.2597793    0.1329228    11405.761     1000 
  374000   0.51037704   -1.8963067       0.7648   -1.1315067   0.13295961     11357.51     1000 
  376000   0.47350267   -1.9663095   0.70954375   -1.2567657   0.13093058    11450.204     1000 
  378000   0.49030546   -1.9662458   0.73472273   -1.2315231   0.12930919    11488.764     1000 
  380000   0.47717814   -1.9747943   0.71505145   -1.2597429   0.12654014    11422.447     1000 
  382000   0.49674654   -1.9448556   0.74437469   -1.2004809   0.14157188    11268.463     1000 
  384000   0.48881128   -2.0013034    0.7324837   -1.2688197    0.1381908    11392.585     1000 
  386000   0.48851674   -1.8743294   0.73204233   -1.1422871   0.12693018    11267.021     1000 
  388000   0.48079538   -1.9873802   0.72047188   -1.2669083   0.11941628    11517.808     1000 
  390000   0.50055845   -1.9551667   0.75008684   -1.2050799   0.13710827    11356.327     1000 
  392000    0.4587796   -1.9338284   0.68748124   -1.2463472   0.13304875    11277.822     1000 
  394000    0.4604419   -1.9536284   0.68997219   -1.2636562   0.13778089    11250.226     1000 
  396000   0.49478325   -1.9326754    0.7414327   -1.1912427   0.13426399    11303.237     1000 
  398000     0.497829    -1.946953   0.74599676   -1.2009563   0.13594288     11379.08     1000 
  400000   0.49544895   -1.8615311   0.74243025   -1.1191009   0.13663426    11275.961     1000 
  402000   0.48648269   -1.9468141   0.72899431   -1.2178198   0.13620922    11415.264     1000 
  404000   0.49219163   -1.9388813   0.73754916   -1.2013321   0.12210822     11504.03     1000 
  406000   0.49412773   -1.9461559    0.7404504   -1.2057055   0.11979763    11450.625     1000 
  408000   0.49576969   -1.9640643   0.74291088   -1.2211534   0.12087695    11545.519     1000 
  410000   0.48855392   -1.9786371   0.73209805   -1.2465391   0.13057671    11328.139     1000 
  412000   0.49425675   -1.9281862   0.74064374   -1.1875425   0.11249265    11605.976     1000 
  414000   0.48482943   -1.9408344   0.72651691   -1.2143175   0.14069537    11266.258     1000 
  416000   0.50046299   -1.9352929   0.74994379   -1.1853491    0.1209062    11505.162     1000 
  418000   0.52218774   -1.9072374   0.78249833   -1.1247391   0.13128996    11419.544     1000 
  420000   0.48878045   -1.9657293    0.7324375   -1.2332918    0.1337563    11396.513     1000 
  422000   0.46734976   -1.9517833   0.70032361   -1.2514597   0.12639955    11405.739     1000 
  424000   0.50064725   -1.9709727    0.7502199   -1.2207528   0.13345593    11409.987     1000 
  426000   0.49100615   -1.9722714   0.73577271   -1.2364987   0.11388708    11491.823     1000 
  428000   0.46743663   -1.9367685    0.7004538   -1.2363147   0.12789004    11341.586     1000 
  430000   0.47733625   -1.9409338   0.71528837   -1.2256455   0.12038535    11301.458     1000 
  432000   0.46605542   -1.9296707   0.69838404   -1.2312866   0.12104784    11407.193     1000 
  434000   0.49102057   -1.9525564   0.73579432   -1.2167621   0.12185225    11454.952     1000 
  436000   0.46706518    -1.918916   0.69989717   -1.2190188   0.13312364    11238.783     1000 
  438000   0.48309826   -1.9455424   0.72392274   -1.2216196   0.12620645     11350.29     1000 
  440000   0.48036636   -1.9662175   0.71982899   -1.2463885   0.11996706    11473.759     1000 
  442000   0.49737544   -2.0075455   0.74531709   -1.2622284   0.13524799     11441.32     1000 
  444000   0.47743871   -1.9690468   0.71544191   -1.2536048   0.13106555    11491.444     1000 
  446000   0.49987724   -1.9714115   0.74906604   -1.2223454   0.12729834    11420.174     1000 
  448000    0.5044951   -1.9563941   0.75598591   -1.2004082   0.14750067    11383.256     1000 
  450000   0.49739243   -1.9680058   0.74534255   -1.2226632   0.12339687    11502.583     1000 
  452000   0.48174535   -1.9440495   0.72189541    -1.222154   0.12549198    11453.462     1000 
  454000   0.48246572   -1.9552012   0.72297488   -1.2322263   0.12494444    11433.167     1000 
  456000    0.4845528   -1.9384908   0.72610237   -1.2123884   0.11544043    11509.848     1000 
  458000   0.49628402   -1.9625134   0.74368161   -1.2188318   0.13124031    11440.753     1000 
  460000   0.49229853   -1.9510501   0.73770935   -1.2133407   0.13012071    11330.433     1000 
  462000   0.49035501   -1.9368468   0.73479698   -1.2020498   0.14304191    11268.072     1000 
  464000   0.47033191   -1.9948256   0.70479236   -1.2900333   0.12736171    11493.123     1000 
  466000   0.49911684   -2.0195729   0.74792658   -1.2716464   0.13575302    11313.526     1000 
  468000    0.5032708   -1.9504501   0.75415129   -1.1962989   0.14258191    11290.297     1000 
  470000   0.49423959   -1.9428838   0.74061803   -1.2022657   0.12159702    11465.318     1000 
  472000   0.48292315   -1.9506342   0.72366034   -1.2269739    0.1284413    11507.559     1000 
  474000   0.49568633   -1.9418962   0.74278597   -1.1991102   0.13759297    11366.897     1000 
  476000   0.50912015   -1.9107567   0.76291654   -1.1478402   0.12419096    11385.836     1000 
  478000   0.48700665   -1.9365789   0.72977946   -1.2067995    0.1397971    11327.256     1000 
  480000   0.46386588   -1.9620166   0.69510302   -1.2669136   0.13168873    11309.474     1000 
  482000   0.50488488   -1.9629697      0.75657   -1.2063997   0.13227092    11356.315     1000 
  484000   0.47440016   -1.9469548   0.71088864   -1.2360661   0.13392456    11354.683     1000 
  486000   0.51003952   -1.9930665   0.76429422   -1.2287723   0.13520515    11393.707     1000 
  488000   0.47822207    -1.975922   0.71661578   -1.2593062     0.122257     11496.63     1000 
  490000   0.48629156   -1.9113294    0.7287079   -1.1826215    0.1379989     11217.27     1000 
  492000    0.4583677   -1.9653645     0.686864   -1.2785005    0.1418813    11235.125     1000 
  494000   0.49192825   -1.9374328   0.73715448   -1.2002783   0.13601083    11260.506     1000 
  496000   0.46913351   -1.9077746   0.70299657    -1.204778   0.13109576    11375.353     1000 
  498000   0.47756329   -1.9606012   0.71562859   -1.2449726   0.12857297    11344.973     1000 
  500000   0.47311739   -2.0024637   0.70896641   -1.2934972   0.14369379     11266.18     1000 
  502000   0.47808869    -1.948211    0.7164159   -1.2317951   0.13767813      11393.1     1000 
  504000   0.49600708   -1.9664098   0.74326661   -1.2231432   0.12374273    11520.705     1000 
  506000   0.49007671   -1.9056187   0.73437995   -1.1712388   0.12721397    11372.018     1000 
  508000   0.48953916   -1.9596664   0.73357443    -1.226092   0.11734847     11443.44     1000 
  510000   0.50656148   -1.9229945   0.75908238   -1.1639121   0.13750521    11323.362     1000 
  512000    0.4954574   -1.9441212   0.74244292   -1.2016783   0.12802323    11513.502     1000 
  514000   0.48979462   -1.9310049   0.73395724   -1.1970476    0.1251251    11475.387     1000 
  516000   0.48263266   -1.9317768   0.72322504   -1.2085518   0.12933258    11385.226     1000 
  518000   0.50396101   -1.9463621   0.75518557   -1.1911765   0.13210473    11463.142     1000 
  520000   0.49304014    -1.996871   0.73882064   -1.2580504   0.13334091    11395.205     1000 
  522000   0.48550117   -1.9389407   0.72752351   -1.2114172   0.12626669    11530.033     1000 
  524000   0.48527543   -1.9360167   0.72718523   -1.2088315   0.13022327    11349.495     1000 
  526000   0.50370559    -1.932499   0.75480283   -1.1776962   0.13477918    11238.009     1000 
  528000   0.50429288   -1.9704859   0.75568288   -1.2148031   0.12407896    11447.377     1000 
  530000   0.46981749   -1.9174881   0.70402151   -1.2134666   0.13315914    11359.815     1000 
  532000   0.47377781   -1.9318469   0.70995605   -1.2218909   0.14004847    11305.812     1000 
  534000   0.50940741   -1.9247441     0.763347   -1.1613971   0.14116203    11267.381     1000 
  536000   0.46348018   -1.9196655   0.69452505   -1.2251405    0.1296142    11244.864     1000 
  538000    0.4748161   -1.9143071   0.71151193   -1.2027952   0.13199298    11266.053     1000 
  540000   0.49605386   -1.9967681   0.74333672   -1.2534313   0.12225537    11376.277     1000 
  542000   0.49320975   -1.9483452    0.7390748   -1.2092704   0.13040073    11417.484     1000 
  544000   0.48914983    -1.930016   0.73299102    -1.197025   0.13273467    11332.721     1000 
  546000   0.49085484   -2.0153094   0.73554598   -1.2797635    0.1256643    11408.304     1000 
  548000   0.47180067   -1.9871733   0.70699331     -1.28018   0.12595189    11433.746     1000 
  550000   0.49367566   -1.9588334   0.73977298   -1.2190604     0.131113    11458.803     1000 
  552000   0.48950474   -1.9660156   0.73352286   -1.2324927   0.12543204    11515.391     1000 
  554000   0.49384381    -1.951791   0.74002496    -1.211766   0.13299767    11361.781     1000 
  556000   0.48889256   -1.9373319   0.73260549   -1.2047264   0.12282071     11411.54     1000 
  558000   0.48354349   -1.9544165   0.72458992   -1.2298266   0.14230457    11327.496     1000 
  560000   0.47904476   -1.9389047   0.71784857   -1.2210561   0.13039446     11407.08     1000 
  562000   0.50641087   -1.9289225   0.75885669   -1.1700658   0.14876116     11185.91     1000 
  564000    0.5099168   -1.9690844   0.76411032   -1.2049741   0.11409092    11592.137     1000 
  566000   0.49905956   -1.9813972   0.74784075   -1.2335565   0.12329904    11449.207     1000 
  568000   0.48899696   -1.9239936   0.73276195   -1.1912317   0.13937398    11310.005     1000 
  570000   0.47250329   -1.9400277   0.70804617   -1.2319816   0.12564068    11230.864     1000 
  572000   0.49406579   -1.9437404   0.74035759   -1.2033828   0.12241387    11354.881     1000 
  574000   0.48964562   -1.9588671   0.73373396   -1.2251331   0.13755655    11352.567     1000 
  576000   0.50150942   -1.9678405   0.75151187   -1.2163286   0.13117209    11377.697     1000 
  578000   0.49742558   -1.9724354   0.74539223   -1.2270432   0.14556384     11204.97     1000 
  580000   0.49371802   -1.9712367   0.73983645   -1.2314003   0.11651462     11446.16     1000 
  582000   0.51622876   -1.9715687   0.77356879   -1.1979999    0.1298728    11451.126     1000 
  584000   0.50170221   -1.9963104   0.75180076   -1.2445096   0.12641976    11379.656     1000 
  586000   0.49944386   -1.9584521   0.74841663   -1.2100355   0.13134873    11305.469     1000 
  588000     0.479775   -2.0004015   0.71894284   -1.2814586   0.13067523    11468.294     1000 
  590000   0.52624771   -1.9425988   0.78858219   -1.1540166   0.14028364    11277.955     1000 
  592000   0.48854713   -1.9288727   0.73208788   -1.1967848   0.12457244    11455.217     1000 
  594000   0.49199707   -1.9481356   0.73725761    -1.210878   0.12734742    11290.845     1000 
  596000   0.48539045   -1.9811503   0.72735759   -1.2537927   0.13150021    11362.204     1000 
  598000   0.48341113   -1.9514322   0.72439158   -1.2270406   0.13597242    11330.956     1000 
  600000   0.50735376   -1.9577949   0.76026961   -1.1975252   0.12865982    11482.538     1000 
  602000   0.50520596   -1.9575228   0.75705113   -1.2004717   0.12646698    11353.794     1000 
  604000   0.49466555   -1.9552217   0.74125633   -1.2139653   0.12415942    11548.857     1000 
  606000   0.50281699   -1.9059326   0.75347126   -1.1524613   0.15073373    11243.456     1000 
  608000    0.4872707    -1.914744   0.73017514   -1.1845689   0.12852241    11360.135     1000 
  610000   0.48971872   -1.8923354    0.7338435   -1.1584919   0.13877349    11331.319     1000 
  612000   0.48931769   -1.9359198   0.73324256   -1.2026772   0.12865943    11340.293     1000 
  614000   0.49065003   -1.9249062   0.73523907   -1.1896671   0.13608443    11363.797     1000 
  616000   0.48055459    -1.981865   0.72011105   -1.2617539   0.12211722     11531.11     1000 
  618000   0.48085325   -1.9489666   0.72055859   -1.2284081   0.12521955    11334.252     1000 
  620000   0.49729105   -1.9900952   0.74519063   -1.2449045   0.12980189    11371.905     1000 
  622000   0.48325637   -1.9589268   0.72415967   -1.2347671   0.13293906    11372.044     1000 
  624000    0.4855003   -1.9537793    0.7275222   -1.2262571   0.13692413    11410.833     1000 
  626000   0.47998419   -2.0344983    0.7192563    -1.315242   0.13118883    11442.244     1000 
  628000   0.49457829   -1.9537251   0.74112557   -1.2125995   0.12650354    11405.888     1000 
  630000   0.48174679   -1.9410159   0.72189757   -1.2191183   0.13621566    11302.975     1000 
  632000   0.50072778   -2.0171766   0.75034058   -1.2668361   0.13684199    11392.966     1000 
  634000   0.50669121   -1.8860331   0.75927678   -1.1267563   0.14262921    11170.154     1000 
  636000   0.48930915   -1.9061934   0.73322976   -1.1729637    0.1257906     11251.73     1000 
  638000   0.50518385   -1.9614083     0.757018   -1.2043903   0.12920305    11407.994     1000 
  640000   0.46941816   -1.9103764   0.70342311   -1.2069533   0.13547232    11267.675     1000 
  642000   0.49815315   -1.9602794    0.7464825   -1.2137969   0.12785015    11512.894     1000 
  644000   0.48056113   -1.9282305   0.72012085   -1.2081097   0.13073658     11179.79     1000 
  646000   0.47986885   -1.9790362   0.71908348   -1.2599527    0.1310117    11404.257     1000 
  648000   0.48416323   -1.9423847   0.72551861   -1.2168661   0.12225219    11437.024     1000 
  650000   0.50755572   -1.9544898   0.76057225   -1.1939176   0.13812937    11296.361     1000 
  652000   0.49056154   -1.9453281   0.73510646   -1.2102217   0.12364391     11439.81     1000 
  654000   0.49885114   -1.9209397   0.74752844   -1.1734112   0.13899133    11318.333     1000 
  656000   0.49478432   -1.9732861    0.7414343   -1.2318518   0.12818848    11451.127     1000 
  658000   0.48591959   -1.9173827    0.7281505   -1.1892322   0.14475009    11282.567     1000 
  660000   0.48538478   -1.9165921    0.7273491    -1.189243   0.13272173     11356.46     1000 
  662000   0.49139824   -1.9711363   0.73636027    -1.234776   0.13449752    11389.269     1000 
  664000   0.49725039    -1.924008   0.74512971   -1.1788783   0.13123532    11292.475     1000 
  666000   0.50934393   -1.9629986   0.76325189   -1.1997467   0.12721473    11456.258     1000 
  668000   0.49298672   -1.9417188   0.73874059   -1.2029782   0.13130681    11268.883     1000 
  670000   0.49901657   -1.9512822   0.74777632   -1.2035059   0.13584056    11419.809     1000 
  672000   0.49977649   -1.9415369   0.74891506   -1.1926218   0.13148312     11341.49     1000 
  674000   0.47279934   -1.9558961   0.70848981   -1.2474063   0.12621525    11380.762     1000 
  676000   0.47606942   -1.9516283   0.71339003   -1.2382383   0.11954389    11471.819     1000 
  678000    0.4685201   -1.9992802   0.70207736   -1.2972029   0.12497957    11378.804     1000 
  680000    0.4823888     -1.96682   0.72285962   -1.2439603   0.14191535     11320.92     1000 
  682000   0.49318872   -1.9128053   0.73904329    -1.173762   0.14298461    11230.882     1000 
  684000   0.49523411   -1.9411171   0.74210831   -1.1990088   0.12122252    11526.903     1000 
  686000   0.48659442   -1.9313856   0.72916175   -1.2022238   0.12368155    11400.456     1000 
  688000   0.48818291   -1.9490103   0.73154208   -1.2174683   0.13197582    11431.756     1000 
  690000   0.48954771   -1.9972954   0.73358725   -1.2637082   0.14001041     11262.38     1000 
  692000    0.4992482   -1.9549607   0.74812343   -1.2068373   0.12399476     11444.99     1000 
  694000   0.48857955   -1.9605828   0.73213645   -1.2284464   0.13242745    11418.733     1000 
  696000    0.4856522   -1.9873555   0.72774982   -1.2596057   0.11870665    11450.663     1000 
  698000   0.46733436   -1.9729061   0.70030053   -1.2726056   0.13582876    11388.986     1000 
  700000   0.52913053   -1.9649308    0.7929021   -1.1720287   0.14759314    11328.698     1000 
  702000   0.48335204   -1.9791106   0.72430303   -1.2548076   0.11163011    11575.409     1000 
  704000   0.48725567   -1.9727648   0.73015263   -1.2426122   0.14637912    11322.377     1000 
  706000   0.48368054   -1.9761692   0.72479529   -1.2513739   0.12465698    11444.607     1000 
  708000   0.48182503   -1.9772988   0.72201481   -1.2552839   0.13206908    11281.396     1000 
  710000    0.4883477   -1.9256584   0.73178902   -1.1938694   0.13320768    11340.276     1000 
  712000   0.47953775   -1.8795224   0.71858732   -1.1609351   0.14803871     11166.69     1000 
  714000   0.47580865   -1.8973206   0.71299926   -1.1843214   0.12566502    11353.949     1000 
  716000    0.5022222    -1.966706   0.75257997    -1.214126   0.12768256    11417.823     1000 
  718000   0.49927263   -1.8799613   0.74816004   -1.1318012   0.12697178     11400.54     1000 
  720000   0.48901404   -1.9327388   0.73278754   -1.1999513   0.12379789    11450.854     1000 
  722000   0.50219618   -1.9442272   0.75254098   -1.1916863   0.13658531    11377.785     1000 
  724000   0.51021213   -1.9605072   0.76455287   -1.1959544   0.14177078      11356.1     1000 
  726000     0.460576   -1.9057768   0.69017314   -1.2156037   0.11588984    11324.274     1000 
  728000    0.5051373   -1.9595865   0.75694825   -1.2026382   0.13145599    11462.291     1000 
  730000   0.47383077   -1.9077637   0.71003541   -1.1977283   0.12682073    11342.414     1000 
  732000   0.49824307   -1.9029413   0.74661724    -1.156324   0.12980016    11271.641     1000 
  734000   0.49410748   -1.9311205   0.74042006   -1.1907004   0.14573506    11232.115     1000 
  736000   0.49248014   -1.9200706   0.73798149   -1.1820891   0.12728381    11549.155     1000 
  738000   0.50141419   -1.9172892   0.75136917     -1.16592   0.14558702    11193.536     1000 
  740000   0.46994672   -1.8767733   0.70421516   -1.1725582   0.13725689     11146.18     1000 
  742000   0.47342605   -1.9222113   0.70942894   -1.2127824   0.13736847     11289.12     1000 
  744000   0.49979013   -1.9440117   0.74893551   -1.1950762   0.13843647    11354.249     1000 
  746000   0.49751992   -1.9582609   0.74553361   -1.2127273   0.13463181    11299.932     1000 
  748000   0.49268836   -1.9650546   0.73829351   -1.2267611   0.12401526    11420.543     1000 
  750000   0.50101064   -1.9573073   0.75076444   -1.2065429   0.14514142    11317.857     1000 
  752000   0.51119037   -1.9315703   0.76601877   -1.1655515   0.13325443    11421.095     1000 
  754000   0.48050091   -1.9215069   0.72003061   -1.2014763   0.12631316    11311.687     1000 
  756000   0.49573167   -1.9538703   0.74285391   -1.2110164   0.13122709    11392.254     1000 
  758000   0.50872781   -1.9636688   0.76232863   -1.2013401   0.15081884    11291.836     1000 
  760000   0.49246424   -1.9639368   0.73795767   -1.2259792   0.11819795    11585.669     1000 
  762000    0.5010352   -1.9032536   0.75080124   -1.1524524   0.13771485    11247.847     1000 
  764000   0.48582167   -1.9741183   0.72800377   -1.2461145   0.12229364    11465.497     1000 
  766000    0.4718818   -1.9948721   0.70711488   -1.2877572   0.13285868     11405.74     1000 
  768000   0.51266374   -1.9673053   0.76822661   -1.1990787   0.12744069    11443.591     1000 
  770000    0.4919286   -1.9368067     0.737155   -1.1996517   0.13897206    11233.484     1000 
  772000   0.49349169   -1.9712018    0.7394973   -1.2317045    0.1276662     11393.45     1000 
  774000   0.46236456   -1.9189777   0.69285329   -1.2261244   0.13791615    11231.669     1000 
  776000   0.47937487   -1.9832851   0.71834324   -1.2649418   0.12131604    11465.777     1000 
  778000    0.4966626   -2.0125662    0.7442489   -1.2683173   0.13451166     11363.08     1000 
  780000   0.50642753   -1.9521614   0.75888165   -1.1932798   0.13791565    11210.206     1000 
  782000   0.52048772   -1.9678365   0.77995085   -1.1878856   0.12549093    11387.166     1000 
  784000   0.46686962   -1.9318489   0.69960412   -1.2322448   0.12503301    11405.203     1000 
  786000   0.52445636   -2.0068641   0.78589786   -1.2209663   0.12737067    11452.709     1000 
  788000   0.48933707    -1.925645    0.7332716   -1.1923734   0.14002006    11346.621     1000 
  790000   0.48164721   -1.8976291   0.72174835   -1.1758807   0.12971316    11261.534     1000 
  792000   0.47444355   -1.8918044   0.71095366   -1.1808507   0.13162458    11357.916     1000 
  794000   0.49695566   -1.9502432   0.74468805   -1.2055552   0.13637977    11306.254     1000 
  796000   0.50797744   -1.9200666   0.76120419   -1.1588624   0.12766145    11412.181     1000 
  798000   0.45594977   -1.9204668   0.68324074   -1.2372261   0.13582403    11309.667     1000 
  800000   0.50018009   -1.9711592   0.74951987   -1.2216393   0.13340145     11349.09     1000 
  802000   0.49456473    -1.945284   0.74110525   -1.2041788    0.1271374    11360.599     1000 
  804000   0.50600851   -1.9808352   0.75825375   -1.2225815   0.12557756    11421.863     1000 
  806000   0.49435776   -1.9447942    0.7407951   -1.2039991    0.1274444    11432.644     1000 
  808000    0.4922193   -1.9429526   0.73759063   -1.2053619   0.12350993    11511.722     1000 
  810000    0.4993629    -1.985963   0.74829531   -1.2376677   0.12875474    11387.275     1000 
  812000   0.47830356   -1.9315446   0.71673788   -1.2148067   0.13077787    11368.924     1000 
  814000   0.49139443   -1.9581161   0.73635456   -1.2217615   0.14589321    11186.631     1000 
  816000   0.47071465   -1.9255915    0.7053659   -1.2202256   0.12837096    11313.888     1000 
  818000   0.50771606   -1.9191773   0.76081252   -1.1583648   0.13773032    11147.609     1000 
  820000   0.47817576   -1.9608345   0.71654638   -1.2442881   0.12916847    11290.588     1000 
  822000   0.49411385   -1.9808805    0.7404296   -1.2404509   0.13956505    11114.169     1000 
  824000   0.48553588   -1.9555699   0.72757552   -1.2279944   0.12787139    11331.877     1000 
  826000   0.48321966   -1.9824325   0.72410466   -1.2583279   0.12557829    11516.812     1000 
  828000   0.45146467   -1.9604275   0.67651981   -1.2839077   0.12578709    11471.252     1000 
  830000   0.49401314   -1.8975403   0.74027868   -1.1572617   0.13628099    11311.762     1000 
  832000   0.49347355   -1.9405015   0.73947011   -1.2010314   0.14360426    11220.592     1000 
  834000   0.49264537   -1.9199436   0.73822908   -1.1817145   0.13984258    11219.457     1000 
  836000    0.4889771   -1.9509098   0.73273218   -1.2181776   0.12836552    11497.101     1000 
  838000   0.49355007   -1.9675998   0.73958477    -1.228015   0.13909368    11487.388     1000 
  840000   0.49198518   -1.9984099    0.7372398   -1.2611701   0.14192451    11243.438     1000 
  842000   0.46737347    -1.956043   0.70035915   -1.2556838   0.11908982    11481.226     1000 
  844000   0.48684071   -1.9788387    0.7295308   -1.2493079    0.1191478     11524.08     1000 
  846000   0.48326846   -1.8910033   0.72417778   -1.1668256   0.12208969    11509.774     1000 
  848000   0.48869781   -1.9758188   0.73231366   -1.2435051   0.13145466    11426.316     1000 
  850000   0.47796527   -1.9718421   0.71623095   -1.2556111   0.11950158    11478.852     1000 
  852000   0.47191827   -1.9972491   0.70716952   -1.2900795   0.12559487    11332.824     1000 
  854000   0.49459688   -1.9703487   0.74115342   -1.2291953   0.11302672    11457.657     1000 
  856000   0.47144643   -1.9386056   0.70646247   -1.2321431   0.13893413    11226.299     1000 
  858000    0.4835224   -1.9454869   0.72455832   -1.2209285   0.13742282    11323.779     1000 
  860000   0.49896258     -2.01706   0.74769543   -1.2693645   0.12664463    11460.205     1000 
  862000   0.49073304    -2.013092   0.73536346   -1.2777286   0.12714457     11384.82     1000 
  864000   0.49500869   -1.9443991   0.74177052   -1.2026286   0.14187043    11250.744     1000 
  866000   0.46053889   -1.9615589   0.69011753   -1.2714414   0.12965384    11314.331     1000 
  868000   0.50118469   -1.9309572   0.75102526    -1.179932   0.13735274    11257.108     1000 
  870000   0.48030552   -1.9587681   0.71973782   -1.2390303   0.12238168    11405.674     1000 
  872000   0.50871028   -1.9053398   0.76230235   -1.1430374    0.1248612    11408.812     1000 
  874000   0.49699976   -1.9412294   0.74475414   -1.1964752   0.12528749    11391.981     1000 
  876000   0.49230851   -1.9554168   0.73772431   -1.2176925   0.13914774    11252.438     1000 
  878000   0.50620837   -2.0018447   0.75855324   -1.2432915   0.12869635    11517.774     1000 
  880000   0.48994402   -1.9567496   0.73418111   -1.2225685   0.12765937        11410     1000 
  882000    0.4763166   -1.9163412   0.71376043   -1.2025808   0.14915707    11181.698     1000 
  884000   0.50120476   -2.0015744   0.75105534   -1.2505191   0.13108064    11425.949     1000 
  886000   0.48405483   -1.9574677   0.72535616   -1.2321116   0.12353089     11393.38     1000 
  888000   0.47960979   -1.9362633   0.71869526    -1.217568   0.13016653    11414.939     1000 
  890000   0.46925873   -1.9392419   0.70318421   -1.2360577   0.12846757    11382.755     1000 
  892000   0.49992989   -1.9634701   0.74914494   -1.2143251   0.13298357    11379.236     1000 
  894000   0.49617805     -1.96548   0.74352281   -1.2219572   0.12339093    11522.426     1000 
  896000   0.49565199   -1.9622172    0.7427345   -1.2194827   0.13282551    11442.872     1000 
  898000   0.48844606   -1.9721632   0.73193642   -1.2402268   0.14710715    11244.559     1000 
  900000   0.48722594   -1.9402515   0.73010807   -1.2101434   0.13026829    11349.201     1000 
  902000   0.49892986    -1.948107    0.7476464   -1.2004606   0.12916836    11259.855     1000 
  904000   0.48447299   -1.9292091   0.72598278   -1.2032263   0.12714796    11296.981     1000 
  906000   0.46435258   -1.9465394   0.69583234   -1.2507071   0.12446373    11419.557     1000 
  908000   0.47422641   -1.9469509   0.71062828   -1.2363226   0.13225412    11374.883     1000 
  910000   0.49024348   -1.9487768   0.73462985    -1.214147   0.11612072    11570.635     1000 
  912000   0.52403362   -1.9213328   0.78526438   -1.1360684   0.12379234    11512.072     1000 
  914000   0.48531859   -1.9179919   0.72724991    -1.190742    0.1509099    11157.259     1000 
  916000   0.51764467   -1.9090994   0.77569054   -1.1334088   0.13519532     11401.23     1000 
  918000   0.48192924   -2.0007718   0.72217097   -1.2786008   0.13049481    11398.627     1000 
  920000   0.49529646   -1.9714377   0.74220174   -1.2292359   0.11778091     11487.02     1000 
  922000   0.49059924   -1.9229857   0.73516297   -1.1878227    0.1367964    11347.494     1000 
  924000   0.46409866   -1.9253923   0.69545184   -1.2299404   0.13377743    11294.859     1000 
  926000   0.49407279   -1.9759234   0.74036808   -1.2355553   0.13507326    11429.586     1000 
  928000   0.49854118   -2.0022878   0.74706396   -1.2552239   0.12724503    11344.142     1000 
  930000   0.47789888   -1.9606041   0.71613147   -1.2444727    0.1253511    11472.828     1000 
  932000   0.48197831   -1.9656328    0.7222445   -1.2433883   0.12351102    11522.391     1000 
  934000   0.50009186   -1.9402067   0.74938765   -1.1908191   0.13464929    11394.431     1000 
  936000   0.47988546   -1.9689155   0.71910837   -1.2498072    0.1348251    11329.294     1000 
  938000   0.48979298   -1.9903958   0.73395478    -1.256441   0.12872121    11365.833     1000 
  940000   0.50057255   -1.9541349   0.75010797   -1.2040269   0.13914101    11252.887     1000 
  942000   0.48186082   -1.9616452   0.72206844   -1.2395768   0.12102678    11522.837     1000 
  944000   0.49727882   -1.9395877    0.7451723   -1.1944154   0.12696619    11345.245     1000 
  946000   0.48688898   -1.9559555   0.72960313   -1.2263524   0.12481723    11406.691     1000 
  948000   0.49391916   -1.9279051   0.74013786   -1.1877672    0.1367091    11266.169     1000 
  950000    0.4839889   -1.9242725   0.72525736   -1.1990151   0.13777029     11267.54     1000 
  952000   0.48004122   -1.9887864   0.71934177   -1.2694446   0.12251959    11548.276     1000 
  954000   0.47684655    -1.882797   0.71455455   -1.1682425   0.12821699    11381.454     1000 
  956000   0.48952639   -1.9458726    0.7335553   -1.2123173   0.13408875    11247.423     1000 
  958000   0.48911058   -1.9633335    0.7329322   -1.2304013    0.1294235    11529.875     1000 
  960000   0.51290735   -1.9588602   0.76859166   -1.1902685   0.13532014    11333.453     1000 
  962000   0.48699593   -1.9739335   0.72976341   -1.2441701   0.12046776    11555.656     1000 
  964000   0.47233628   -1.8818131   0.70779591   -1.1740172   0.11931355    11383.577     1000 
  966000     0.479548   -1.9557579   0.71860268   -1.2371552   0.13554147    11284.237     1000 
  968000   0.49473616   -1.9873327   0.74136213   -1.2459706   0.11618065    11327.246     1000 
  970000   0.49528717   -1.8367349   0.74218782   -1.0945471    0.1415106    11115.281     1000 
  972000   0.49773089   -1.9512447   0.74584973    -1.205395   0.12469879    11531.534     1000 
  974000   0.49556907   -1.9296003   0.74261026     -1.18699   0.12452991    11340.035     1000 
  976000   0.48046771   -1.8785175   0.71998086   -1.1585367   0.13001658    11275.701     1000 
  978000   0.49891156   -1.9908206   0.74761897   -1.2432017   0.12789834    11380.113     1000 
  980000   0.48009433   -1.9270605   0.71942135   -1.2076392   0.12636107    11329.039     1000 
  982000   0.48040659   -1.8836939   0.71988927   -1.1638046   0.13025562    11301.714     1000 
  984000   0.49067175   -1.9226051   0.73527162   -1.1873335   0.13845162    11293.908     1000 
  986000   0.48861386   -1.9515594   0.73218787   -1.2193716   0.13175298     11479.59     1000 
  988000    0.4976172   -1.9644058   0.74567937   -1.2187264   0.12233543    11438.276     1000 
  990000   0.49411465   -1.9957445    0.7404308   -1.2553137    0.1309424    11401.436     1000 
  992000   0.48258789    -1.973453   0.72315795    -1.250295   0.13315735    11299.958     1000 
  994000   0.47668893   -1.9755194   0.71431836    -1.261201   0.12842019    11359.298     1000 
  996000   0.49376506    -1.938773   0.73990694   -1.1988661   0.12757692    11296.532     1000 
  998000   0.47636262    -1.951715   0.71382939   -1.2378856   0.11891394    11576.494     1000 
 1000000   0.48049346   -1.9453596   0.72001945   -1.2253401   0.13224242    11349.371     1000 
 1002000   0.50670341   -1.9647388   0.75929506   -1.2054437   0.12487993     11473.11     1000 
 1004000   0.49192164   -1.9589974   0.73714458   -1.2218529   0.13488052    11448.231     1000 
 1006000   0.50438607   -1.9688323   0.75582253   -1.2130097   0.12840313    11561.486     1000 
 1008000   0.48621717   -1.9392437   0.72859642   -1.2106473   0.13305803    11293.192     1000 
 1010000   0.48901739   -1.9188112   0.73279256   -1.1860187   0.14665624    11189.737     1000 
 1012000   0.47330306   -1.9217219   0.70924464   -1.2124773   0.12110977    11316.359     1000 
 1014000   0.48391128   -1.9208851   0.72514105   -1.1957441    0.1233302    11413.951     1000 
 1016000   0.47695762   -1.9388265   0.71472099   -1.2241055   0.14180344    11305.039     1000 
 1018000   0.50288223   -1.9101286   0.75356903   -1.1565596   0.13571662    11373.588     1000 
 1020000   0.48916015   -1.9540613   0.73300649   -1.2210548   0.12920302    11309.528     1000 
 1022000   0.48207765    -1.934346   0.72239336   -1.2119527   0.12787747    11511.355     1000 
 1024000   0.48667556   -1.9593003   0.72928333    -1.230017   0.12826964    11426.541     1000 
 1026000   0.49748835   -1.9724237   0.74548629   -1.2269374   0.11704959    11496.762     1000 
 1028000   0.48366961    -1.966758   0.72477891   -1.2419791   0.12405174    11437.626     1000 
 1030000    0.4758217   -1.8975879   0.71301882   -1.1845691   0.13565892    11279.558     1000 
 1032000   0.47567357    -1.941284   0.71279685   -1.2284872   0.12271024     11375.98     1000 
 1034000   0.49792959   -1.9444993   0.74614749   -1.1983518   0.12150783     11457.38     1000 
 1036000   0.48281624   -1.9402319   0.72350014   -1.2167317   0.12756982    11481.832     1000 
 1038000   0.48349698    -1.957784   0.72452023   -1.2332638   0.12787319    11458.869     1000 
 1040000   0.46803717   -1.9401159   0.70135369   -1.2387622   0.12755577    11329.716     1000 
 1042000   0.48084251   -1.9423573   0.72054249   -1.2218148   0.13649282    11267.444     1000 
 1044000   0.50867553   -1.8900654   0.76225028   -1.1278151    0.1310839    11259.807     1000 
 1046000   0.47902178   -1.9554833   0.71781414   -1.2376691   0.12267289    11501.445     1000 
 1048000   0.51236648   -1.9851587   0.76778117   -1.2173775   0.14411798    11306.966     1000 
 1050000   0.49502346   -1.9018534   0.74179266   -1.1600607    0.1364612    11095.661     1000 
 1052000   0.47988769   -1.9550248   0.71911171   -1.2359131   0.13485442    11238.408     1000 
 1054000   0.46784321   -1.9573194   0.70106304   -1.2562564    0.1155383    11381.179     1000 
 1056000   0.47697625   -1.9252111   0.71474891   -1.2104622   0.13725037    11285.023     1000 
 1058000   0.49096985   -2.0250032   0.73571833   -1.2892849   0.12535649     11501.98     1000 
 1060000   0.48835043   -1.9022302   0.73179311    -1.170437   0.12587726     11330.87     1000 
 1062000   0.48953925   -1.9475783   0.73357457   -1.2140038   0.11267557     11315.46     1000 
 1064000    0.4719446   -1.8940806   0.70720899   -1.1868716     0.118221    11537.194     1000 
 1066000   0.48153473   -1.9408975    0.7215798   -1.2193177    0.1307239    11391.147     1000 
 1068000   0.50688117   -1.9743404   0.75956144   -1.2147789   0.13247193    11393.675     1000 
 1070000   0.52951176   -1.9230224   0.79347337    -1.129549   0.13135485    11344.931     1000 
 1072000   0.51744969   -1.9117143   0.77539836   -1.1363159   0.12588009    11441.521     1000 
 1074000   0.46092326   -1.9279839    0.6906935   -1.2372904   0.11643382    11440.762     1000 
 1076000   0.49865185   -1.9292662    0.7472298   -1.1820364   0.13221028     11253.28     1000 
 1078000   0.50341192   -1.9571345   0.75436276   -1.2027717   0.13845417    11260.913     1000 
 1080000   0.48420983   -1.9799931   0.72558843   -1.2544047   0.12015219    11474.785     1000 
 1082000   0.48630775   -1.9663855   0.72873216   -1.2376533   0.13002919    11367.008     1000 
 1084000    0.4844623    -1.931972   0.72596675   -1.2060052   0.12919383    11326.817     1000 
 1086000   0.48492249    -1.952985   0.72665636   -1.2263287   0.13853053    11228.742     1000 
 1088000   0.47603923   -1.9151523   0.71334479   -1.2018075   0.12907807    11308.761     1000 
 1090000   0.48303418   -1.9492606   0.72382672   -1.2254339   0.12174622    11485.787     1000 
 1092000   0.49908881   -1.9395473   0.74788459   -1.1916627   0.12503623      11387.1     1000 
 1094000   0.47069027    -1.960464   0.70532937   -1.2551346    0.1329205    11345.454     1000 
 1096000   0.50015308   -1.9227915   0.74947939   -1.1733121   0.13606963    11401.751     1000 
 1098000   0.47887288   -1.9539451   0.71759101   -1.2363541   0.13083101    11274.692     1000 
 1100000   0.47329102   -1.9319356   0.70922659    -1.222709   0.13030023    11347.568     1000 
 1102000   0.47899201   -1.9824276   0.71776953   -1.2646581   0.12367735     11637.23     1000 
 1104000   0.49142328    -1.946294   0.73639779   -1.2098963   0.13149788    11323.694     1000 
 1106000   0.48400976   -1.9290344   0.72528863   -1.2037458   0.13969153    11273.796     1000 
 1108000   0.46166466    -1.979902    0.6918045   -1.2880975   0.13372451    11434.325     1000 
 1110000   0.48920825    -1.907863   0.73307856   -1.1747844   0.13607465     11257.63     1000 
 1112000     0.471633   -1.8941333   0.70674205   -1.1873913    0.1280973    11286.485     1000 
 1114000   0.46697257   -1.9082727   0.69975839   -1.2085143   0.13582351     11347.38     1000 
 1116000   0.45620657   -1.8827851   0.68362554   -1.1991595   0.12244087    11254.251     1000 
 1118000   0.49498138   -1.9828229    0.7417296   -1.2410933   0.12498389    11517.248     1000 
 1120000   0.48616113   -1.9596967   0.72851246   -1.2311842   0.13360894    11374.685     1000 
 1122000    0.4698434   -1.8941759   0.70406033   -1.1901155   0.12968594    11288.755     1000 
 1124000   0.47511731   -1.9556388   0.71196328   -1.2436755   0.14181887     11329.36     1000 
 1126000   0.48316245   -1.9601915   0.72401893   -1.2361726   0.13130086    11387.032     1000 
 1128000    0.4953695   -1.9078012   0.74231119     -1.16549   0.13064581    11376.761     1000 
 1130000   0.48080118   -1.9477363   0.72048056   -1.2272557   0.13301835    11238.021     1000 
 1132000   0.48713016   -1.9657628   0.72996454   -1.2357982   0.12353981    11495.444     1000 
 1134000   0.46131902   -1.9801903   0.69128655   -1.2889037   0.12845924    11436.259     1000 
 1136000   0.46945947   -1.9092232   0.70348502   -1.2057382   0.13819743    11179.136     1000 
 1138000   0.50300917   -1.9480009   0.75375924   -1.1942417   0.13197363    11403.844     1000 
 1140000   0.49641206   -1.8812051   0.74387347   -1.1373316   0.13030159    11242.137     1000 
 1142000    0.4943922   -1.9319134   0.74084671   -1.1910666   0.11852971    11428.498     1000 
 1144000   0.46919907   -1.9552827    0.7030948   -1.2521879   0.12134325    11343.312     1000 
 1146000   0.50000078   -1.9633844   0.74925117   -1.2141333   0.12604148    11422.564     1000 
 1148000   0.51289188   -1.9432429   0.76856848   -1.1746744   0.13225806     11189.03     1000 
 1150000   0.48092925   -2.0076676   0.72067248   -1.2869951   0.12397087    11488.526     1000 
 1152000   0.51657169   -1.9335834   0.77408268   -1.1595008    0.1245395    11429.728     1000 
 1154000   0.49257575   -1.9463048   0.73812477     -1.20818    0.1281013    11486.972     1000 
 1156000   0.48289805    -1.974258   0.72362274   -1.2506352   0.11029528    11595.794     1000 
 1158000   0.48452538   -1.9697337   0.72606128   -1.2436724   0.12878748    11423.799     1000 
 1160000   0.48756604   -1.9725807   0.73061772    -1.241963   0.13080263    11296.617     1000 
 1162000   0.47222013   -1.9248204   0.70762187   -1.2171985   0.12547946    11474.609     1000 
 1164000   0.50960933   -1.9138089   0.76364958   -1.1501593   0.13720137    11326.185     1000 
 1166000   0.46326276   -1.9683692   0.69419924     -1.27417   0.12038882    11421.124     1000 
 1168000   0.48684721   -1.9407927   0.72954054   -1.2112522   0.12807573    11354.788     1000 
 1170000   0.50381466   -1.9416724   0.75496627   -1.1867061   0.12409616    11538.364     1000 
 1172000   0.49261077   -1.9092572   0.73817723     -1.17108   0.12673903    11385.264     1000 
 1174000   0.48695989   -1.9814254   0.72970939    -1.251716   0.12836404    11451.967     1000 
 1176000    0.4814182    -1.934299   0.72140518   -1.2128938   0.12910417    11275.635     1000 
 1178000   0.50020718   -1.9817313   0.74956045   -1.2321708   0.12672382    11393.484     1000 
 1180000   0.47219109   -1.9710054   0.70757835    -1.263427   0.13167528    11475.848     1000 
 1182000   0.47932203   -1.9459168   0.71826405   -1.2276527   0.13849015    11417.138     1000 
 1184000   0.50670351   -1.9901878   0.75929521   -1.2308926   0.12413559    11599.221     1000 
 1186000   0.49153734   -2.0038646    0.7365687   -1.2672959   0.12808062    11466.207     1000 
 1188000   0.48292903   -1.9582924   0.72366915   -1.2346233   0.12718806     11419.31     1000 
 1190000   0.46888702     -1.89713   0.70262719   -1.1945028    0.1306508     11278.18     1000 
 1192000    0.5052881   -1.9544872   0.75717422    -1.197313   0.13777616     11333.21     1000 
 1194000   0.48248812   -1.9460354   0.72300844    -1.223027     0.129028    11399.875     1000 
 1196000    0.5122037    -1.942627   0.76753725   -1.1750898   0.12615898    11431.307     1000 
 1198000   0.49202413   -1.9015214   0.73729816   -1.1642233   0.12134909    11522.793     1000 
 1200000   0.48354846   -1.9528071   0.72459736   -1.2282097   0.12313165    11545.771     1000 
 1202000   0.48557711   -1.9010007   0.72763731   -1.1733634   0.14021721    11240.417     1000 
 1204000   0.48483235     -1.96687   0.72652128   -1.2403487   0.13158659    11237.372     1000 
 1206000   0.48916191   -1.9403724   0.73300912   -1.2073632   0.12857793    11408.452     1000 
 1208000   0.49395904    -1.920592   0.74019762   -1.1803944   0.13444292    11356.207     1000 
 1210000   0.49069803   -1.9375063     0.735311   -1.2021953   0.13206567    11294.975     1000 
 1212000    0.4885051   -1.9488361    0.7320249   -1.2168112   0.11921357    11466.779     1000 
 1214000   0.47264319   -1.9097449   0.70825582    -1.201489   0.13302151    11274.422     1000 
 1216000   0.49874584   -1.9916257   0.74737064   -1.2442551   0.14023583    11359.566     1000 
 1218000   0.51194258   -2.0105256   0.76714596   -1.2433796   0.12602796    11478.018     1000 
 1220000   0.48909754   -1.9774981   0.73291266   -1.2445854   0.12855001    11436.315     1000 
 1222000    0.4874329   -1.9799487    0.7304182   -1.2495305   0.12155911     11520.19     1000 
 1224000   0.47040109     -1.93444   0.70489604    -1.229544   0.14337214    11261.089     1000 
 1226000   0.49651889   -1.8827389   0.74403356   -1.1387053   0.12699552    11435.953     1000 
 1228000   0.49688191   -1.9385933   0.74457754   -1.1940158   0.12256218    11409.975     1000 
 1230000   0.48821082   -1.9316666   0.73158392   -1.2000827   0.12253863    11421.828     1000 
 1232000   0.47728873   -1.9852665   0.71521717   -1.2700493   0.12107076    11577.683     1000 
 1234000   0.49071157   -1.9580577   0.73533128   -1.2227264   0.13849367    11318.195     1000 
 1236000   0.49584184   -1.9409722     0.743019   -1.1979532   0.13158416    11164.102     1000 
 1238000   0.52673422   -1.9525182   0.78931123    -1.163207   0.14404966    11325.847     1000 
 1240000   0.51859328   -1.9645997   0.77711203   -1.1874877   0.13247554    11427.947     1000 
 1242000   0.48234538   -1.9429944   0.72279455   -1.2201999   0.11220834    11479.838     1000 
 1244000    0.5089203    -1.912417   0.76261706   -1.1497999   0.13571487    11210.384     1000 
 1246000   0.49978153   -1.9399392   0.74892262   -1.1910166   0.14361165    11383.282     1000 
 1248000   0.49267199    -1.967122   0.73826898    -1.228853   0.14169942    11199.366     1000 
 1250000   0.50686934   -1.9388679   0.75954371   -1.1793242   0.12756365    11371.663     1000 
 1252000   0.49036814   -1.9613852   0.73481666   -1.2265685   0.12513208    11395.844     1000 
 1254000   0.48730274   -1.9714415   0.73022315   -1.2412184   0.11874553    11463.966     1000 
 1256000   0.49393639   -1.9301479   0.74016368   -1.1899842   0.13733984    11371.661     1000 
 1258000   0.49759204   -1.9982188   0.74564167   -1.2525771   0.12586114    11358.345     1000 
 1260000   0.52319085   -1.9414447   0.78400149   -1.1574433   0.14626365    11280.306     1000 
 1262000   0.48917101   -1.9363493   0.73302276   -1.2033265   0.13182689    11409.306     1000 
 1264000   0.49566086   -1.9621007   0.74274779   -1.2193529   0.13538881    11333.718     1000 
 1266000   0.51209917   -1.9651162    0.7673806   -1.1977356    0.1291406    11450.154     1000 
 1268000   0.47482852   -1.9536367   0.71153054   -1.2421061   0.13377405    11358.344     1000 
 1270000    0.5271704    -1.994096   0.78996484   -1.2041312   0.12893697    11409.355     1000 
 1272000   0.46249763   -1.9025235   0.69305269   -1.2094708   0.12449169    11271.537     1000 
 1274000   0.48368142   -1.9327727   0.72479661   -1.2079761   0.11630321     11555.41     1000 
 1276000   0.49068207    -1.936679   0.73528709    -1.201392   0.12973908    11378.895     1000 
 1278000   0.48304022   -1.9543217   0.72383577    -1.230486   0.13074665    11477.422     1000 
 1280000   0.48883509   -1.9176941   0.73251938   -1.1851747   0.14637822    11213.097     1000 
 1282000   0.48960568   -1.9618531   0.73367412    -1.228179   0.12516675    11508.198     1000 
 1284000   0.49632878   -1.9576674   0.74374867   -1.2139187   0.12747112     11431.05     1000 
 1286000   0.47797973   -1.8789747   0.71625263   -1.1627221   0.13372612    11341.293     1000 
 1288000   0.46968875   -1.9533519   0.70382859   -1.2495233   0.13424721    11346.347     1000 
 1290000    0.4824064   -1.9362799   0.72288599   -1.2133939   0.10966219    11462.609     1000 
 1292000   0.48626892   -1.9625164   0.72867397   -1.2338424   0.13410463    11293.554     1000 
 1294000   0.51133338   -1.9661746   0.76623307   -1.1999415   0.13411968    11262.918     1000 
 1296000   0.52385783    -1.971373   0.78500096    -1.186372   0.13223092    11439.907     1000 
 1298000   0.50063751    -1.959948   0.75020531   -1.2097427   0.12259356    11572.444     1000 
 1300000    0.5080405   -1.9342074   0.76129869   -1.1729087   0.12955729    11535.687     1000 
 1302000   0.50342394    -1.951551   0.75438078   -1.1971703    0.1405193    11351.553     1000 
 1304000   0.48209114   -1.9579669   0.72241357   -1.2355533   0.13480648    11356.597     1000 
 1306000   0.48299835   -1.9571367   0.72377303   -1.2333637   0.13409323    11327.399     1000 
 1308000   0.47839353    -1.902081   0.71687271   -1.1852083   0.13503953    11464.939     1000 
 1310000   0.47719189   -1.9793747   0.71507205   -1.2643027   0.12590314    11392.026     1000 
 1312000   0.48220374   -1.9480592   0.72258231   -1.2254769   0.13372696    11354.011     1000 
 1314000   0.47521244   -1.9965325   0.71210584   -1.2844266   0.13607767    11352.843     1000 
 1316000   0.47811702   -1.9256621   0.71645835   -1.2092038   0.12631796    11389.583     1000 
 1318000   0.47063389   -1.9116621   0.70524488   -1.2064172   0.12604722    11352.838     1000 
 1320000   0.47401776   -1.9295333   0.71031561   -1.2192177   0.12353341    11435.119     1000 
 1322000   0.46966811   -1.9354594   0.70379766   -1.2316618   0.12684718    11364.251     1000 
 1324000   0.46834414   -1.9469395    0.7018137   -1.2451258   0.13826062    11264.623     1000 
 1326000   0.47038672   -1.9503497    0.7048745   -1.2454752   0.12810926    11378.121     1000 
 1328000   0.50900261    -1.951149   0.76274042   -1.1884086   0.13237062    11357.537     1000 
 1330000   0.48645815   -1.9480676   0.72895754     -1.21911    0.1313316    11319.219     1000 
 1332000   0.49077089   -1.9871975   0.73542018   -1.2517773   0.12350959    11526.771     1000 
 1334000   0.47408195   -1.9496627    0.7104118   -1.2392509   0.12803184    11308.362     1000 
 1336000   0.50451059   -2.0057301   0.75600912    -1.249721    0.1253053    11459.455     1000 
 1338000   0.48051141       -1.927   0.72004635   -1.2069536   0.12705497    11387.479     1000 
 1340000   0.49927409   -1.9383106   0.74816222   -1.1901484   0.14683588    11050.797     1000 
 1342000   0.50040759   -1.9372617   0.74986078   -1.1874009   0.13083393    11368.958     1000 
 1344000   0.49106615   -1.9971715   0.73586263   -1.2613089   0.13804013    11292.801     1000 
 1346000    0.4706168   -1.9632781   0.70521928   -1.2580588   0.13983103    11249.999     1000 
 1348000   0.48584002   -1.9600795   0.72803127   -1.2320482   0.12919011    11436.774     1000 
 1350000   0.47907219   -1.9273462   0.71788968   -1.2094565   0.11878628    11297.299     1000 
 1352000   0.51227161   -1.9531076   0.76763901   -1.1854686   0.14192747    11367.092     1000 
 1354000   0.48929738   -1.9286779   0.73321212   -1.1954658   0.12869558     11419.69     1000 
 1356000   0.49777455    -1.929306   0.74591516   -1.1833908   0.13113069    11398.477     1000 
 1358000   0.48120805   -1.9448737   0.72109027   -1.2237834   0.12897628    11294.331     1000 
 1360000   0.51473259   -1.9505478   0.77132678    -1.179221   0.12476168    11530.089     1000 
 1362000   0.50945688   -2.0004165   0.76342114   -1.2369954   0.12249436    11465.842     1000 
 1364000   0.48428298     -1.97892   0.72569805   -1.2532219   0.13177414    11434.069     1000 
 1366000   0.50069226   -1.9528009   0.75028736   -1.2025135    0.1344916    11303.047     1000 
 1368000   0.49124472   -1.9384756   0.73613021   -1.2023454   0.12712357    11329.581     1000 
 1370000   0.50983091   -1.9626703   0.76398162   -1.1986887   0.13884964    11423.247     1000 
 1372000   0.51366473   -1.8997195    0.7697266   -1.1299929   0.13644862     11189.75     1000 
 1374000   0.49009937   -1.9438532   0.73441391   -1.2094392   0.12766122    11342.416     1000 
 1376000   0.49768606    -1.891863   0.74578256   -1.1460804   0.14267869    11221.523     1000 
 1378000   0.50069151   -1.9579582   0.75028623   -1.2076719   0.11960855    11450.716     1000 
 1380000   0.48581786    -1.967721   0.72799806    -1.239723   0.12858359    11475.784     1000 
 1382000   0.47713002   -1.9550359   0.71497933   -1.2400565   0.14098342    11282.243     1000 
 1384000   0.47660448   -1.9069944   0.71419181   -1.1928026   0.13769211    11295.975     1000 
 1386000   0.49989532   -1.9632201   0.74909314    -1.214127   0.12858292    11414.126     1000 
 1388000   0.49517957   -1.9428545   0.74202658   -1.2008279   0.13615684    11295.986     1000 
 1390000   0.46990995   -1.9714395   0.70416006   -1.2672794   0.12559301    11399.132     1000 
 1392000    0.5234706   -1.9778546   0.78442069   -1.1934339   0.13729226    11294.797     1000 
 1394000   0.49264279   -1.9632424   0.73822522   -1.2250171   0.12510158    11376.389     1000 
 1396000   0.48720603   -1.9336428   0.73007823   -1.2035646   0.14076642    11173.044     1000 
 1398000   0.48162355    -1.926481   0.72171289   -1.2047681   0.12998962    11296.441     1000 
 1400000   0.46765404   -1.9111306   0.70077958    -1.210351   0.13353483    11348.687     1000 
 1402000   0.47853089   -1.9702768   0.71707854   -1.2531983   0.13351896    11311.422     1000 
 1404000    0.4907128   -1.9691911   0.73533313    -1.233858   0.14360477    11297.935     1000 
 1406000   0.47371489   -1.9699774   0.70986176   -1.2601157   0.12735348    11460.224     1000 
 1408000   0.49021677    -1.924329   0.73458983   -1.1897392   0.13313864    11322.566     1000 
 1410000   0.47484091   -1.9969442   0.71154911   -1.2853951   0.12823865    11543.261     1000 
 1412000   0.50269387   -1.9581074   0.75328677   -1.2048207   0.11297861    11447.236     1000 
 1414000   0.50282045    -1.936806   0.75347645   -1.1833296   0.13050731    11310.973     1000 
 1416000   0.49330673   -1.9207255   0.73922013   -1.1815053   0.13390505    11326.316     1000 
 1418000   0.48414477   -1.9708931   0.72549093   -1.2454021   0.13067473      11222.7     1000 
 1420000   0.49387001   -1.9371475   0.74006421   -1.1970833   0.13071328    11423.301     1000 
 1422000   0.48758356   -1.9823609   0.73064396    -1.251717   0.10973424    11580.668     1000 
 1424000   0.49280552   -1.9622498   0.73846907   -1.2237808   0.12618974    11450.205     1000 
 1426000    0.5089097   -1.9275195   0.76260119   -1.1649183   0.13625749    11259.037     1000 
 1428000   0.49162789   -1.9253563    0.7367044   -1.1886519   0.13729341     11339.89     1000 
 1430000   0.49585692   -1.9691174    0.7430416   -1.2260758   0.13128705    11465.328     1000 
 1432000   0.49523258   -1.9224508   0.74210601   -1.1803448   0.11751198    11411.644     1000 
 1434000   0.49519898   -1.9208157   0.74205567     -1.17876   0.13215536    11389.925     1000 
 1436000    0.5000113   -1.9409607   0.74926694   -1.1916938    0.1436856    11225.204     1000 
 1438000   0.49581503   -1.9299248   0.74297882    -1.186946   0.12066216    11346.817     1000 
 1440000   0.50805823   -1.9726566   0.76132526   -1.2113313   0.13275536    11396.272     1000 
 1442000   0.49013989   -1.9010219   0.73447462   -1.1665472   0.11891014    11482.603     1000 
 1444000   0.48891361   -1.9471615   0.73263704   -1.2145244   0.13200802    11376.567     1000 
 1446000   0.46589828   -1.8705191   0.69814857   -1.1723705   0.13401816    11209.722     1000 
 1448000   0.48254157   -1.9339818   0.72308854   -1.2108933   0.12682719    11410.717     1000 
 1450000   0.47361596   -1.9767517   0.70971352   -1.2670382    0.1304986    11423.174     1000 
 1452000   0.47528651   -1.9457241   0.71221684   -1.2335073   0.12892667     11352.79     1000 
 1454000   0.50948856   -1.9967929   0.76346861   -1.2333243   0.12113401    11495.811     1000 
 1456000   0.49701322   -1.9432621   0.74477431   -1.1984878   0.13466994    11199.912     1000 
 1458000   0.49685797   -1.9254785   0.74454166   -1.1809368   0.11750013    11390.535     1000 
 1460000   0.45711636   -1.9012102   0.68498886   -1.2162214    0.1303143    11381.227     1000 
 1462000   0.48590399   -1.9867281   0.72812713    -1.258601   0.13207655    11479.106     1000 
 1464000   0.49237802   -1.9772674   0.73782846    -1.239439   0.13640258    11347.209     1000 
 1466000   0.46948928   -1.9572065   0.70352969   -1.2536768   0.11400702    11561.218     1000 
 1468000   0.48398219   -1.9368231   0.72524731   -1.2115758   0.12545793    11497.604     1000 
 1470000   0.49389451   -1.9834498   0.74010092   -1.2433489   0.12425612    11574.621     1000 
 1472000   0.47100456   -1.9406854   0.70580033    -1.234885   0.11669172     11414.34     1000 
 1474000   0.48804693   -2.0143621   0.73133832   -1.2830238   0.11294258     11606.55     1000 
 1476000   0.48751329    -1.925831   0.73053867   -1.1952923   0.12827889    11336.472     1000 
 1478000   0.50247034   -1.9837702   0.75295181   -1.2308184   0.12492167    11306.572     1000 
 1480000   0.49308889   -1.9881984    0.7388937   -1.2493047   0.13456949    11383.976     1000 
 1482000    0.4923166   -1.9289733   0.73773643   -1.1912369   0.12993177    11485.415     1000 
 1484000   0.50366341   -1.9405004   0.75473962   -1.1857607   0.12435829    11482.821     1000 
 1486000   0.49844613   -1.9756664   0.74692153   -1.2287449    0.1437762    11349.272     1000 
 1488000   0.47171806   -1.9365831   0.70686952   -1.2297136   0.13574035    11269.215     1000 
 1490000   0.50068063   -1.9360793   0.75026992   -1.1858094   0.13171873    11337.117     1000 
 1492000   0.47936744   -1.9431833    0.7183321   -1.2248512    0.1155787    11525.175     1000 
 1494000     0.502211   -1.9653585   0.75256318   -1.2127953   0.13857224    11373.339     1000 
 1496000   0.48194051   -1.9311535   0.72218786   -1.2089656   0.13208832    11277.378     1000 
 1498000   0.48827799      -1.9311   0.73168457   -1.1994155     0.128708    11370.294     1000 
 1500000   0.47392831   -1.9367016   0.71018157     -1.22652    0.1167741    11522.452     1000 
 1502000   0.48573154   -1.9174907   0.72786871    -1.189622   0.13645028    11306.985     1000 
 1504000   0.50001367   -1.8983785   0.74927048   -1.1491081   0.14248698    11203.958     1000 
 1506000    0.4899103   -1.9432915   0.73413058    -1.209161   0.13297106    11354.534     1000 
 1508000   0.46604738   -1.9055487   0.69837199   -1.2071767   0.13061674    11312.246     1000 
 1510000   0.49931113   -1.9545458   0.74821773   -1.2063281    0.1336394    11360.591     1000 
 1512000   0.49169986    -1.969311   0.73681224   -1.2324988   0.12369551    11464.233     1000 
 1514000   0.49341294   -1.9585497   0.73937929   -1.2191705   0.13439149    11209.783     1000 
 1516000   0.50452436   -1.9579134   0.75602976   -1.2018837   0.14242212    11274.214     1000 
 1518000   0.49460397   -1.9512621   0.74116405   -1.2100981   0.11567736    11465.968     1000 
 1520000   0.49152619   -1.9663946     0.736552   -1.2298426   0.12466502    11385.978     1000 
 1522000   0.50876517   -1.9608347   0.76238461   -1.1984501    0.1311483    11291.268     1000 
 1524000    0.4903436   -1.9623544   0.73477988   -1.2275745    0.1391441    11276.406     1000 
 1526000   0.48708023   -1.9160361   0.72988972   -1.1861464   0.14954287    11186.677     1000 
 1528000   0.47544876   -1.9555145   0.71245997   -1.2430545    0.1271012    11397.403     1000 
 1530000   0.50467383    -1.889528   0.75625374   -1.1332743   0.12319473    11433.974     1000 
 1532000   0.48249091   -1.9778578   0.72301262   -1.2548451   0.13559639    11437.084     1000 
 1534000   0.49482553   -1.9774755   0.74149606   -1.2359794   0.12792915    11401.998     1000 
 1536000   0.48613364   -1.9731251   0.72847126   -1.2446538   0.12298436    11477.762     1000 
 1538000    0.4877201   -1.9808734   0.73084857   -1.2500249   0.12914805    11361.988     1000 
 1540000   0.50253069   -1.9986482   0.75304224    -1.245606   0.14269184    11238.903     1000 
 1542000   0.49248473   -1.9120161   0.73798837   -1.1740278   0.13546959    11254.046     1000 
 1544000   0.45273381   -1.9187654   0.67842161   -1.2403438   0.11454952    11398.104     1000 
 1546000   0.49437205   -1.9628637   0.74081652   -1.2220472   0.12603261    11397.489     1000 
 1548000   0.45520269   -1.9438695   0.68212123   -1.2617482   0.12509788    11407.137     1000 
 1550000   0.49541952   -1.9581435   0.74238615   -1.2157574   0.11529271    11589.054     1000 
 1552000     0.467018   -1.9232169   0.69982647   -1.2233905   0.13722688    11222.986     1000 
 1554000   0.48855298   -1.9983769   0.73209664   -1.2662802   0.12600965    11412.255     1000 
 1556000   0.51038371    -1.935491   0.76480999   -1.1706811   0.12796473    11370.307     1000 
 1558000   0.47016983   -1.9114249   0.70454949   -1.2068754   0.11270742    11634.026     1000 
 1560000   0.49574169   -1.9590634   0.74286892   -1.2161945   0.13102004    11442.414     1000 
 1562000   0.47361427   -1.9344554   0.70971099   -1.2247444   0.13856674    11237.381     1000 
 1564000   0.49328686   -1.9407385   0.73919037   -1.2015482    0.1411494    11292.095     1000 
 1566000   0.49384875   -1.9107828   0.74003235   -1.1707504   0.12426133    11410.031     1000 
 1568000   0.49036854   -1.9393242   0.73481725   -1.2045069   0.12682395    11349.563     1000 
 1570000    0.4889573   -1.9079217   0.73270251   -1.1752192   0.13773248    11243.567     1000 
 1572000   0.51219349   -1.9875087   0.76752195   -1.2199868   0.12585691     11421.69     1000 
 1574000   0.48707887   -1.9382706   0.72988768    -1.208383   0.13126416    11381.963     1000 
 1576000   0.50492782   -1.9205518   0.75663434   -1.1639174   0.13719579    11224.353     1000 
 1578000   0.48709671   -1.9451097   0.72991442   -1.2151953   0.14178416    11393.465     1000 
 1580000    0.4784136   -1.9385726   0.71690278   -1.2216698   0.13085417    11230.011     1000 
 1582000   0.47268086   -1.9722525   0.70831226   -1.2639402   0.13041397    11321.551     1000 
 1584000   0.48191904   -1.9614436   0.72215568   -1.2392879   0.12773844    11392.649     1000 
 1586000   0.46824303   -1.9390932   0.70166218    -1.237431     0.129101    11362.059     1000 
 1588000   0.48771055    -1.981637   0.73083426   -1.2508027   0.12514548    11320.851     1000 
[...]
 2614000   0.48744287   -1.9660799   0.73043314   -1.2356468   0.13757387     11422.52     1000 
 2616000   0.48006717   -1.9524794   0.71938065   -1.2330987    0.1307794    11206.105     1000 
 2618000   0.51181908   -1.9406194   0.76696089   -1.1736585   0.13176968     11360.97     1000 
 2620000   0.49150426   -1.9669953   0.73651913   -1.2304762   0.12852225    11442.545     1000 
 2622000   0.51435257   -1.9408593   0.77075732   -1.1701019   0.13677309    11250.369     1000 
 2624000   0.51095528   -1.9226387   0.76566649   -1.1569722   0.12810979    11419.254     1000 
 2626000   0.47556369   -1.9223328   0.71263219   -1.2097006   0.13932621    11338.911     1000 
 2628000   0.50295332   -1.9550036   0.75367555   -1.2013281   0.12790693     11461.16     1000 
 2630000   0.48592563    -1.959408   0.72815955   -1.2312484   0.13404126    11338.651     1000 
 2632000   0.46980694   -1.9132633    0.7040057   -1.2092576   0.13153369    11333.843     1000 
 2634000   0.46722962   -1.9781338   0.70014358   -1.2779902   0.13304124    11356.216     1000 
 2636000   0.49796708   -1.8989908   0.74620367   -1.1527871   0.13315853     11391.62     1000 
 2638000   0.48644635   -1.8896932   0.72893985   -1.1607534   0.13142515     11305.69     1000 
 2640000   0.48280772   -1.8707926   0.72348737   -1.1473053   0.13890226    11149.752     1000 
 2642000   0.49058522   -1.9104947   0.73514196   -1.1753528   0.12452527    11502.778     1000 
 2644000    0.4882734   -1.9501569   0.73167768   -1.2184792    0.1262731     11458.22     1000 
 2646000   0.48155651   -1.9371395   0.72161244   -1.2155271   0.12058815    11536.577     1000 
 2648000   0.50396462   -1.9675933   0.75519098   -1.2124023   0.14039198    11311.666     1000 
 2650000   0.49788957   -1.8964478   0.74608752   -1.1503603   0.13595598    11289.289     1000 
 2652000   0.49091946   -1.9351791   0.73564281   -1.1995363   0.13412049     11370.36     1000 
 2654000   0.48842084   -1.9655164   0.73189863   -1.2336177   0.13073049    11357.866     1000 
 2656000   0.49094041   -1.9213143   0.73567421   -1.1856401   0.12813027     11330.93     1000 
 2658000   0.48579401    -1.992482   0.72796232   -1.2645196   0.11414072    11514.894     1000 
 2660000   0.48938207   -1.9379423   0.73333903   -1.2046033   0.13863612    11215.228     1000 
 2662000   0.50489166   -1.9668212   0.75658015   -1.2102411   0.13572794    11353.597     1000 
 2664000   0.48568896   -1.9239914   0.72780491   -1.1961865   0.12954884    11460.227     1000 
 2666000   0.48497394   -1.9555264   0.72673344   -1.2287929   0.13398369    11439.798     1000 
 2668000   0.45979682   -1.8964369   0.68900553   -1.2074314    0.1293731    11436.264     1000 
 2670000   0.48472322   -1.9891114   0.72635774   -1.2627537   0.12367299     11456.73     1000 
 2672000   0.49450086   -1.9430119   0.74100954   -1.2020024   0.14196091    11241.148     1000 
 2674000   0.48411872   -1.9785879   0.72545191    -1.253136   0.12185443    11482.058     1000 
 2676000   0.48544851   -1.9153367   0.72744459   -1.1878921   0.13319123    11279.205     1000 
 2678000   0.48377949   -1.9198283   0.72494356   -1.1948847   0.13360683    11275.519     1000 
 2680000   0.48910278   -1.9301886   0.73292051   -1.1972681   0.13266239    11352.081     1000 
 2682000   0.49499124   -1.8971389   0.74174437   -1.1553945   0.13420406    11291.861     1000 
 2684000   0.49018854   -1.9420204   0.73454753   -1.2074729   0.13394076    11326.784     1000 
 2686000   0.48200914   -1.9752018   0.72229069   -1.2529111   0.13527317    11384.182     1000 
 2688000   0.49822599   -1.9354525   0.74659165   -1.1888608   0.13037549    11393.879     1000 
 2690000   0.50013943   -1.9407243   0.74945894   -1.1912654   0.12966713    11300.563     1000 
 2692000   0.49585579   -1.9252386    0.7430399   -1.1821987   0.12057936     11385.55     1000 
 2694000   0.49938372   -1.9441935   0.74832651    -1.195867   0.13871699    11359.248     1000 
 2696000    0.4846341   -1.9343694    0.7262242   -1.2081452    0.1325549    11441.495     1000 
 2698000   0.47470313   -1.9525046   0.71134264    -1.241162   0.11949931    11488.631     1000 
 2700000   0.49944805   -1.9212739    0.7484229    -1.172851   0.13378732    11327.234     1000 
 2702000   0.49625202   -1.9382074   0.74363365   -1.1945737   0.14264511     11265.67     1000 
 2704000   0.48919858   -1.9947827   0.73306407   -1.2617186   0.12545063    11432.004     1000 
 2706000   0.48552372   -1.9806967   0.72755729   -1.2531394   0.13074287    11491.398     1000 
 2708000   0.49254156   -1.8894895   0.73807352   -1.1514159   0.13792988     11273.39     1000 
 2710000   0.49378473   -1.9557595   0.73993641   -1.2158231   0.13664345    11450.938     1000 
 2712000   0.49480529   -1.9618631   0.74146572   -1.2203973   0.12948272    11489.825     1000 
 2714000   0.50805665   -1.9377614   0.76132289   -1.1764385   0.13193158    11395.719     1000 
 2716000    0.4875862    -1.951712   0.73064792   -1.2210641   0.12674505    11429.801     1000 
 2718000   0.47652844   -1.9564845   0.71407787   -1.2424067   0.12763372    11377.354     1000 
 2720000   0.49130177   -1.9389315   0.73621571   -1.2027158   0.13437154    11339.772     1000 
 2722000   0.49685328   -1.9299372   0.74453464   -1.1854025   0.13416405    11342.592     1000 
 2724000   0.47556347      -1.9306   0.71263186   -1.2179682   0.12608748    11364.938     1000 
 2726000   0.47474185   -1.9471922   0.71140066   -1.2357916   0.13174426    11246.983     1000 
 2728000   0.47905615    -1.992366   0.71786563   -1.2745003    0.1240642    11316.378     1000 
 2730000   0.49229158   -1.9146943   0.73769893   -1.1769953   0.13584067    11458.003     1000 
 2732000   0.49216103   -1.9718208    0.7375033   -1.2343175   0.13523582    11350.575     1000 
 2734000   0.48053843   -1.9591578   0.72008684   -1.2390709   0.12861677    11357.072     1000 
 2736000    0.4996367   -1.9442253    0.7487056   -1.1955197   0.14136427    11183.459     1000 
 2738000   0.51545494   -1.8959473   0.77240923   -1.1235381   0.13924715      11245.7     1000 
 2740000   0.49857029   -1.9654313   0.74710759   -1.2183237   0.12146838    11483.561     1000 
 2742000    0.4833983   -1.9410004   0.72437235    -1.216628   0.12130384    11496.384     1000 
 2744000   0.48487519   -1.9770794   0.72658547    -1.250494   0.13125201    11362.819     1000 
 2746000   0.50874937   -1.9722524   0.76236094   -1.2098915   0.13697331    11261.312     1000 
 2748000   0.47849399   -1.9126435   0.71702325   -1.1956203   0.15294469    11246.531     1000 
 2750000   0.47649708   -1.9477151   0.71403087   -1.2336842   0.14422354    11190.784     1000 
 2752000   0.48699671   -1.9763175   0.72976457   -1.2465529   0.14634765    11192.595     1000 
 2754000   0.47403911    -1.965621   0.71034761   -1.2552734   0.12402077    11429.631     1000 
 2756000   0.49069425   -2.0073846   0.73530533   -1.2720792   0.10826893    11588.998     1000 
 2758000   0.50508469   -1.9627889   0.75686941   -1.2059195   0.12382153    11550.614     1000 
 2760000   0.49444247   -1.9359222   0.74092204   -1.1950002   0.13610997    11383.122     1000 
 2762000   0.47011087   -1.9286622   0.70446113   -1.2242011   0.12846681    11434.431     1000 
 2764000   0.49734927   -1.9536101   0.74527788   -1.2083322   0.12488399    11406.031     1000 
 2766000   0.49423001   -1.9612333   0.74060367   -1.2206296   0.13377815    11333.813     1000 
 2768000   0.49402976   -1.9350378    0.7403036   -1.1947342    0.1246354    11428.319     1000 
 2770000   0.48297158   -1.9755907   0.72373292   -1.2518578   0.12982623    11438.135     1000 
 2772000   0.48296176   -1.9715759   0.72371819   -1.2478577   0.13006295    11321.368     1000 
 2774000   0.46767649   -1.9585366   0.70081321   -1.2577234   0.12347468    11472.274     1000 
 2776000    0.5039791   -1.9374404   0.75521268   -1.1822277   0.12776602    11464.356     1000 
 2778000   0.48480728   -1.9386353   0.72648371   -1.2121516   0.12440246    11378.562     1000 
 2780000    0.5040676   -1.9477483    0.7553453    -1.192403   0.13360665    11488.093     1000 
 2782000   0.50111788   -1.9708194   0.75092515   -1.2198942   0.12750953    11365.624     1000 
 2784000   0.48852736   -1.9430422   0.73205825   -1.2109839   0.12584444    11480.225     1000 
 2786000   0.48931509   -1.9352013   0.73323866   -1.2019627   0.13776131     11467.28     1000 
 2788000   0.47884585   -1.9904785   0.71755051    -1.272928   0.12477912    11465.936     1000 
 2790000   0.50644599   -1.9444895   0.75890931   -1.1855802   0.11659611     11339.66     1000 
 2792000    0.4873469     -1.88639   0.73028933   -1.1561006   0.14186309     11228.72     1000 
 2794000   0.48007537   -1.9841916   0.71939295   -1.2647987   0.12462318    11363.374     1000 
 2796000   0.48435636   -1.9487425   0.72580801   -1.2229345    0.1430493    11279.337     1000 
 2798000   0.48954948   -1.9293344    0.7335899   -1.1957445   0.12771691    11359.319     1000 
 2800000   0.50075993   -1.9640714   0.75038875   -1.2136827    0.1284836    11467.497     1000 
 2802000   0.47548986   -1.9414165   0.71252156    -1.228895   0.12580981    11480.599     1000 
 2804000    0.5139346   -1.9696312   0.77013099   -1.1995002   0.13703197    11328.064     1000 
 2806000   0.48794619   -1.9313707   0.73118737   -1.2001833    0.1381639    11420.545     1000 
 2808000   0.48008719   -1.9686476   0.71941065   -1.2492369   0.12473242    11466.024     1000 
 2810000   0.47542742   -1.9643879   0.71242798   -1.2519599    0.1222647    11592.212     1000 
 2812000   0.48762281   -1.9635164   0.73070278   -1.2328136   0.13430478    11329.237     1000 
 2814000   0.48695704   -2.0231476   0.72970512   -1.2934425   0.13267729    11471.859     1000 
 2816000   0.47321028   -1.9248676   0.70910561    -1.215762   0.12496075      11385.2     1000 
 2818000    0.4884278   -1.9421624   0.73190905   -1.2102533   0.12473369     11553.68     1000 
 2820000   0.48031807   -1.9401206   0.71975663    -1.220364   0.13071503    11404.226     1000 
 2822000   0.47681195   -1.9560253   0.71450271   -1.2415226   0.12036536     11349.97     1000 
 2824000   0.46841966   -1.9884293   0.70192686   -1.2865024   0.12884488    11490.389     1000 
 2826000   0.48940915   -1.9131432   0.73337961   -1.1797636   0.12280186    11322.526     1000 
 2828000   0.51311576   -1.9317359   0.76890397   -1.1628319   0.13283236    11343.432     1000 
 2830000   0.48681573   -1.9543818   0.72949337   -1.2248885   0.12632741     11248.54     1000 
 2832000   0.47307379   -1.9357371   0.70890107    -1.226836   0.14143926    11236.246     1000 
 2834000   0.48171921   -1.9594908   0.72185624   -1.2376346   0.12524842    11565.875     1000 
 2836000   0.48562493   -1.9453517   0.72770896   -1.2176427   0.12803895    11396.688     1000 
 2838000   0.49470195   -1.9476644   0.74131088   -1.2063535   0.13816429    11192.473     1000 
 2840000   0.49141152   -1.9054816   0.73638016   -1.1691014   0.13658643    11375.807     1000 
 2842000   0.48775039   -1.9018157   0.73089396   -1.1709217   0.12500212     11292.81     1000 
 2844000   0.50746943    -1.923291   0.76044294   -1.1628481   0.12042456    11349.136     1000 
 2846000   0.49280254   -1.9378114   0.73846461   -1.1993468   0.12712995    11350.866     1000 
 2848000   0.51587049   -1.9438851   0.77303193   -1.1708532   0.13232697    11308.708     1000 
 2850000   0.47344881   -1.9827346   0.70946304   -1.2732715    0.1285808    11454.607     1000 
 2852000   0.50189669   -1.9259979    0.7520922   -1.1739057    0.1228895    11420.535     1000 
 2854000   0.50579101   -1.9680219   0.75792783    -1.210094   0.12434585    11442.437     1000 
 2856000   0.50766385   -1.9772786   0.76073427   -1.2165444   0.14823609    11299.257     1000 
 2858000   0.49872096   -1.9352993   0.74733336   -1.1879659   0.13533876    11380.404     1000 
 2860000   0.49535682   -1.9635086   0.74229219   -1.2212164   0.12860031    11404.231     1000 
 2862000   0.48633145   -1.9132267   0.72876768    -1.184459   0.12941603     11337.39     1000 
 2864000   0.49948453   -1.9303641   0.74847757   -1.1818865   0.13027548    11466.931     1000 
 2866000   0.50163183    -1.932641    0.7516953   -1.1809457   0.13875568     11310.41     1000 
 2868000   0.49422638   -1.9898813   0.74059822   -1.2492831    0.1206753    11473.629     1000 
 2870000   0.48158097   -1.9769222   0.72164909   -1.2552732   0.13723497    11298.313     1000 
 2872000   0.47759101   -1.9468961   0.71567013   -1.2312259   0.14066181    11322.264     1000 
 2874000   0.47135497   -1.9880142   0.70632542   -1.2816888     0.133036    11456.946     1000 
 2876000   0.48035356   -1.9163619   0.71980981   -1.1965521   0.13634648    11176.222     1000 
 2878000     0.501024    -1.958771   0.75078446   -1.2079866   0.13174139    11415.596     1000 
 2880000   0.50435399   -1.9095879   0.75577445   -1.1538134   0.12214283    11494.662     1000 
 2882000   0.50626795   -1.9984117   0.75864252   -1.2397692   0.14015854    11340.269     1000 
 2884000   0.51965317   -1.9628142   0.77870028   -1.1841139   0.13182934      11442.7     1000 
 2886000   0.50522571   -1.9421743   0.75708072   -1.1850936   0.13208667    11246.069     1000 
 2888000   0.49316338    -1.896825   0.73900532   -1.1578197    0.1423747    11099.745     1000 
 2890000    0.4976967    -1.920982   0.74579851   -1.1751835   0.13505371    11276.331     1000 
 2892000   0.48033349   -1.9639905   0.71977974   -1.2442108   0.12833452    11415.682     1000 
 2894000   0.48844907   -1.9323893   0.73194093   -1.2004483   0.12832017     11290.75     1000 
 2896000   0.47146149   -1.9409359   0.70648504   -1.2344509   0.12181653      11465.9     1000 
 2898000   0.48499685   -1.9509906   0.72676779   -1.2242229   0.13019443    11312.929     1000 
 2900000   0.47106755   -1.9280511   0.70589472   -1.2221564   0.13118378    11428.946     1000 
 2902000   0.48247156   -1.9057903   0.72298364   -1.1828066   0.12115349    11450.475     1000 
 2904000   0.49097896   -1.9537146   0.73573197   -1.2179827   0.13023084    11354.037     1000 
 2906000   0.47050477   -1.9415757   0.70505139   -1.2365243   0.13069981    11391.677     1000 
 2908000   0.48731491   -1.9297875   0.73024139   -1.1995461   0.12823245    11421.474     1000 
 2910000    0.4768114   -1.9253886   0.71450189   -1.2108867   0.11889593    11350.561     1000 
 2912000    0.5013017   -1.9690483    0.7512006   -1.2178477   0.12076384    11458.059     1000 
 2914000    0.4761513   -1.9445726   0.71351273   -1.2310598   0.12385228    11354.616     1000 
 2916000   0.46667925   -1.9593277   0.69931886   -1.2600089   0.13196572    11453.954     1000 
 2918000   0.48206289   -1.9200885   0.72237124   -1.1977172   0.10696882    11583.815     1000 
 2920000   0.48414369   -1.9762455   0.72548932   -1.2507562   0.12439871    11434.814     1000 
 2922000   0.49530162   -1.9592248   0.74220948   -1.2170153   0.13579072    11383.069     1000 
 2924000   0.49194282   -1.9178931   0.73717632   -1.1807167   0.15164054    11170.696     1000 
 2926000   0.49203749    -1.945463   0.73731818   -1.2081449   0.13676151    11225.251     1000 
 2928000   0.49572935   -1.9080452   0.74285043   -1.1651948   0.11820607    11377.286     1000 
 2930000   0.47466164   -1.9315066   0.71128046   -1.2202261   0.12827798    11548.011     1000 
 2932000   0.48658881   -1.9624575   0.72915333   -1.2333041   0.13052081    11423.288     1000 
 2934000   0.48839439   -1.9164883   0.73185899   -1.1846293   0.12836554    11268.252     1000 
 2936000   0.48857897   -1.9750896   0.73213558   -1.2429541   0.13764492    11303.104     1000 
 2938000   0.49608033   -1.9595979   0.74337637   -1.2162215   0.12545407    11511.776     1000 
 2940000   0.51058689   -1.9908295   0.76511446    -1.225715   0.13141745    11304.612     1000 
 2942000   0.51411458   -1.9513017   0.77040069    -1.180901   0.13146909    11304.291     1000 
 2944000   0.48677722   -1.8903198   0.72943566   -1.1608841   0.13381676    11374.865     1000 
 2946000   0.48571393   -1.9353031   0.72784233   -1.2074607   0.13171063    11313.893     1000 
 2948000   0.48419118   -1.9596084   0.72556048   -1.2340479   0.12706952    11479.413     1000 
 2950000   0.49817144   -1.9460034    0.7465099   -1.1994935   0.11960421    11482.297     1000 
 2952000   0.50867028   -1.9508567   0.76224242   -1.1886143   0.12607082    11462.551     1000 
 2954000   0.48846139   -1.9480485    0.7319594   -1.2160891   0.12048363    11583.259     1000 
 2956000   0.50002072   -1.9517128   0.74928104   -1.2024317   0.12952498    11468.362     1000 
 2958000   0.47855119   -1.8914829   0.71710895   -1.1743739   0.14106374    11259.878     1000 
 2960000   0.48624564   -1.9124963   0.72863908   -1.1838572   0.13023026    11393.666     1000 
 2962000   0.49313251    -1.969055   0.73895907   -1.2300959   0.13921055    11420.017     1000 
 2964000   0.46253497   -1.9447042   0.69310865   -1.2515955   0.13104011    11395.298     1000 
 2966000   0.47694794   -1.9453201   0.71470649   -1.2306136   0.12938179    11421.543     1000 
 2968000   0.48511496   -1.9320276   0.72694477   -1.2050828   0.12499248    11483.353     1000 
 2970000   0.48635776   -1.9586374   0.72880711   -1.2298303   0.13385345     11426.35     1000 
 2972000   0.49503174    -1.946002   0.74180506   -1.2041969   0.13859022    11312.023     1000 
 2974000   0.49529725   -1.9585506   0.74220293   -1.2163477   0.11418714    11524.543     1000 
 2976000   0.50097974   -1.9624361   0.75071814    -1.211718   0.13361811    11313.389     1000 
 2978000   0.49713549   -1.9822295   0.74495753    -1.237272   0.13349473    11482.519     1000 
 2980000   0.51461174   -1.9885015    0.7711457   -1.2173558   0.13306428    11403.234     1000 
 2982000   0.47933476   -1.9027878   0.71828314   -1.1845047   0.12418573    11366.744     1000 
 2984000   0.50514549   -1.9613576   0.75696051   -1.2043971   0.12786846    11322.243     1000 
 2986000   0.49404868   -1.9385513   0.74033194   -1.1982193   0.13578351    11337.392     1000 
 2988000   0.47432886   -1.9260815    0.7107818   -1.2152997   0.12716468    11483.086     1000 
 2990000    0.4618582   -1.9316953   0.69209451   -1.2396007   0.13598697    11384.005     1000 
 2992000   0.49937455   -1.9733025   0.74831276   -1.2249897   0.12706794    11372.107     1000 
 2994000   0.50178926   -1.9921027    0.7519312   -1.2401715   0.11972642    11416.695     1000 
 2996000   0.49202128   -1.9785752   0.73729389   -1.2412813   0.12594171    11383.896     1000 
 2998000   0.48518334   -1.9491279   0.72704723   -1.2220807   0.14138761     11304.25     1000 
 3000000   0.51388834   -1.9508464   0.77006167   -1.1807848   0.12588694    11395.968     1000 
Loop time of 7250.17 on 1 procs for 3000000 steps with 1000 atoms

Performance: 178754.489 tau/day, 413.784 timesteps/s
100.0% CPU use with 1 MPI tasks x 1 OpenMP threads

MPI task timing breakdown:
Section |  min time  |  avg time  |  max time  |%varavg| %total
---------------------------------------------------------------
Pair    | 6537.3     | 6537.3     | 6537.3     |   0.0 | 90.17
Neigh   | 563.4      | 563.4      | 563.4      |   0.0 |  7.77
Comm    | 62.174     | 62.174     | 62.174     |   0.0 |  0.86
Output  | 0.026855   | 0.026855   | 0.026855   |   0.0 |  0.00
Modify  | 76.384     | 76.384     | 76.384     |   0.0 |  1.05
Other   |            | 10.9       |            |       |  0.15

Nlocal:        1000.00 ave        1000 max        1000 min
Histogram: 1 0 0 0 0 0 0 0 0 0
Nghost:        6040.00 ave        6040 max        6040 min
Histogram: 1 0 0 0 0 0 0 0 0 0
Neighs:        200143.0 ave      200143 max      200143 min
Histogram: 1 0 0 0 0 0 0 0 0 0

Total # of neighbors = 200143
Ave neighs/atom = 200.14300
Neighbor list builds = 150000
Dangerous builds not checked

Total wall time: 2:00:50
