LAMMPS (29 Sep 2021 - Update 2)
OMP_NUM_THREADS environment is not set. Defaulting to 1 thread. (src/comm.cpp:98)
  using 1 OpenMP thread(s) per MPI task
# ----------------------- Inicialização -----------------------

units			lj
atom_style 		atomic
dimension 		3
boundary 		p p p

# -------------------- Criação dos Átomos ---------------------

read_data 		topologia.txt
Reading data file ...
  orthogonal box = (0.0000000 0.0000000 0.0000000) to (21.540000 21.540000 21.540000)
  1 by 1 by 1 MPI processor grid
  reading atoms ...
  1000 atoms
  read_data CPU = 0.005 seconds

velocity 		all create ${temp} 87287 rot yes dist gaussian
velocity 		all create 0.32 87287 rot yes dist gaussian

# ------------------ Interação Interatômica -------------------

pair_style		table linear 2000
pair_coeff		1 1 force.table AA 10.0
WARNING: 3 of 2000 force values in table AA are inconsistent with -dE/dr.
WARNING:  Should only be flagged at inflection points (src/pair_table.cpp:465)
pair_coeff		1 2 force.table AB 10.0
WARNING: 1 of 2000 force values in table AB are inconsistent with -dE/dr.
WARNING:  Should only be flagged at inflection points (src/pair_table.cpp:465)
pair_coeff		2 2 force.table BB 10.0
pair_write		1 1 2000 r 0.008 10.0 table.check AA
Appending to table file table.check with DATE: 2023-06-17
Neighbor list info ...
  update every 1 steps, delay 10 steps, check yes
  max neighbors/atom: 2000, page size: 100000
  master list distance cutoff = 10.3
  ghost atom cutoff = 10.3
  binsize = 5.15, bins = 5 5 5
  1 neighbor lists, perpetual/occasional/extra = 1 0 0
  (1) pair table, perpetual
      attributes: half, newton on
      pair build: half/bin/atomonly/newton
      stencil: half/bin/3d
      bin: standard
pair_write		1 2 2000 r 0.008 10.0 table.check AB
Appending to table file table.check with DATE: 2023-06-17
pair_write		2 2 2000 r 0.008 10.0 table.check BB
Appending to table file table.check with DATE: 2023-06-17

neighbor 		0.3 bin
neigh_modify		every 20 delay 0 check no

# ------------------------- Ensemble --------------------------------------

fix 1			all npt temp ${temp} ${temp} 0.5 iso ${press} ${press} 5
fix 1			all npt temp 0.32 ${temp} 0.5 iso ${press} ${press} 5
fix 1			all npt temp 0.32 0.32 0.5 iso ${press} ${press} 5
fix 1			all npt temp 0.32 0.32 0.5 iso 0.13 ${press} 5
fix 1			all npt temp 0.32 0.32 0.5 iso 0.13 0.13 5

# ---------------------- Função de Distribuição Radial -----------------------

#compute RDF 		all rdf 2000 1 1 1 2 2 2
#fix 2 			all ave/time 1 2000 2000 c_RDF[*] file rdf.data mode vector

# ------------------------- Execução ---------------------------

timestep 		0.005
thermo_style		custom step temp pe ke etotal press vol atoms
thermo			2000
run			3000000
Per MPI rank memory allocation (min/avg/max) = 3.614 | 3.614 | 3.614 Mbytes
Step Temp PotEng KinEng TotEng Press Volume Atoms 
       0         0.32  -0.99611563      0.47952  -0.51659563   0.09996351    9993.9483     1000 
    2000   0.32744849   -2.4645995   0.49068156   -1.9739179   0.12930375    11342.026     1000 
    4000    0.3107848   -2.5225273   0.46571102   -2.0568162   0.13385487    11318.621     1000 
    6000   0.32974082   -2.5075312   0.49411662   -2.0134146   0.12865297    11390.104     1000 
    8000   0.32016067   -2.5459672   0.47976077   -2.0662064   0.12669201    11398.739     1000 
   10000   0.31628316    -2.548464   0.47395031   -2.0745136   0.11411536    11508.824     1000 
   12000    0.3311285   -2.5014928   0.49619606   -2.0052967   0.13150742    11355.493     1000 
   14000    0.3168336   -2.5209641   0.47477514    -2.046189   0.13170224    11372.984     1000 
   16000   0.32224693     -2.51737   0.48288702    -2.034483   0.14804804    11233.791     1000 
   18000   0.31564722   -2.5439659   0.47299736   -2.0709685   0.12083801    11483.362     1000 
   20000   0.32017624   -2.5397554    0.4797841   -2.0599713   0.13426049    11300.888     1000 
   22000   0.32266862   -2.5455874   0.48351892   -2.0620684   0.12364477    11411.108     1000 
   24000   0.32301882   -2.5287669    0.4840437   -2.0447232   0.12467627    11399.335     1000 
   26000   0.32247594   -2.5162451   0.48323019   -2.0330149   0.12819131    11406.723     1000 
   28000   0.31960677   -2.4966299   0.47893075   -2.0176991   0.12904923     11367.37     1000 
   30000   0.32140283   -2.5197062   0.48162214    -2.038084   0.14704666     11238.32     1000 
   32000   0.31931925   -2.5004562    0.4784999   -2.0219563   0.13476245    11299.325     1000 
   34000   0.31841786   -2.5333476   0.47714917   -2.0561984   0.13502216    11391.468     1000 
   36000   0.32213557   -2.5427348   0.48272015   -2.0600147   0.12638954    11473.327     1000 
   38000   0.32615184   -2.5367816   0.48873853    -2.048043   0.12243677    11446.069     1000 
   40000    0.3104947   -2.5490515    0.4652763   -2.0837752   0.12485716    11341.089     1000 
   42000   0.31388545   -2.5403107   0.47035734   -2.0699533   0.13141658     11374.28     1000 
   44000   0.31654158    -2.515786   0.47433756   -2.0414484   0.12182111    11491.661     1000 
   46000   0.32462623   -2.5294039   0.48645241   -2.0429515   0.13454215    11334.206     1000 
   48000   0.31641414   -2.5096651   0.47414658   -2.0355186   0.13717658    11359.884     1000 
   50000   0.31773919   -2.5250772   0.47613217    -2.048945   0.12322422    11393.084     1000 
   52000   0.32071887   -2.5156929   0.48059723   -2.0350956   0.14065499    11271.698     1000 
   54000   0.31389257   -2.4897968   0.47036802   -2.0194288   0.12401642    11456.532     1000 
   56000   0.31647615   -2.5135874   0.47423951   -2.0393479   0.12538394    11441.766     1000 
   58000   0.32400986   -2.5490904   0.48552878   -2.0635616   0.12598473    11415.901     1000 
   60000   0.32130706   -2.5235536   0.48147863    -2.042075    0.1338501    11391.316     1000 
   62000   0.32340745   -2.5407052   0.48462607   -2.0560792   0.12097469    11473.408     1000 
   64000     0.333417    -2.549691   0.49962537   -2.0500656   0.13859525    11278.818     1000 
   66000    0.3217773   -2.5556336   0.48218329   -2.0734503   0.12283981    11417.444     1000 
   68000   0.32373872   -2.5016364   0.48512247    -2.016514   0.13215403    11383.283     1000 
   70000   0.32174059   -2.5373865   0.48212828   -2.0552582    0.1251105    11428.538     1000 
   72000   0.31309483   -2.5340445    0.4691726   -2.0648719   0.13269098    11348.663     1000 
   74000   0.32294795    -2.547753   0.48393751   -2.0638155   0.12210391    11428.226     1000 
   76000   0.32991727   -2.5139392   0.49438103   -2.0195582   0.13428319    11299.828     1000 
   78000   0.31128385   -2.5008856   0.46645886   -2.0344267   0.13165106    11368.358     1000 
   80000   0.30799824   -2.5434466   0.46153537   -2.0819112   0.12857358    11342.856     1000 
   82000   0.32355011   -2.5188079   0.48483984    -2.033968    0.1337735    11354.988     1000 
   84000   0.29689623   -2.5006132   0.44489901   -2.0557142   0.11621873    11418.151     1000 
   86000   0.33076209   -2.4814088   0.49564699   -1.9857618   0.13633662    11371.821     1000 
   88000   0.32050893   -2.5178576   0.48028264    -2.037575   0.13898736    11275.041     1000 
   90000   0.30977584   -2.4859356    0.4641991   -2.0217365   0.13333811     11353.58     1000 
   92000   0.30221491   -2.5219642   0.45286905   -2.0690951   0.12349424    11421.198     1000 
   94000   0.32252941   -2.5030073   0.48331032    -2.019697   0.12797264    11457.038     1000 
   96000   0.31096057    -2.552957   0.46597442   -2.0869826   0.13887248    11273.017     1000 
   98000   0.32555498   -2.4834588   0.48784414   -1.9956146    0.1354543    11281.418     1000 
  100000    0.3150411   -2.5368646   0.47208908   -2.0647755   0.12333431    11389.987     1000 
  102000   0.31556365    -2.528326   0.47287213   -2.0554539   0.12593619    11430.212     1000 
  104000   0.31764639    -2.544362   0.47599311   -2.0683689    0.1134154    11487.635     1000 
  106000   0.32942295   -2.5129198   0.49364029   -2.0192795   0.12930785    11398.902     1000 
  108000   0.31138823   -2.5194331   0.46661526   -2.0528178    0.1170886    11433.791     1000 
  110000   0.32275565   -2.4949887   0.48364934   -2.0113394   0.12326761    11425.999     1000 
  112000   0.31086349   -2.5365501   0.46582894   -2.0707211   0.12491632    11426.654     1000 
  114000   0.31505294   -2.5115502   0.47210682   -2.0394434    0.1419043    11206.508     1000 
  116000   0.31400784   -2.4921927   0.47054074   -2.0216519   0.12768007    11401.747     1000 
  118000   0.33879506   -2.5120221    0.5076844   -2.0043377   0.12685956    11351.747     1000 
  120000   0.32485518   -2.5439542   0.48679549   -2.0571587   0.12701184    11353.791     1000 
  122000   0.31958281   -2.5478499   0.47889484   -2.0689551   0.13373124    11314.567     1000 
  124000   0.32688301    -2.490577    0.4898342   -2.0007428   0.12386893    11402.653     1000 
  126000   0.33900675   -2.5572562   0.50800162   -2.0492546    0.1226736    11421.168     1000 
  128000    0.3226569    -2.521044   0.48350137   -2.0375426   0.12366695    11394.455     1000 
  130000   0.32743664   -2.5189324    0.4906638   -2.0282686   0.12417476    11459.658     1000 
  132000   0.32294847   -2.5537823   0.48393828    -2.069844   0.13802298    11357.588     1000 
  134000   0.31564911   -2.5390741    0.4730002   -2.0660739   0.11902212    11438.965     1000 
  136000   0.30938276   -2.5187992   0.46361007   -2.0551891   0.12213588    11410.095     1000 
  138000   0.31938226   -2.5249505   0.47859431   -2.0463562   0.12612884    11410.715     1000 
  140000   0.30927756   -2.5249204   0.46345243   -2.0614679    0.1315985    11371.263     1000 
  142000   0.31007635   -2.4911702    0.4646494   -2.0265208   0.14087679    11267.417     1000 
  144000   0.31171316   -2.5487417   0.46710217   -2.0816395   0.14166394    11283.253     1000 
  146000   0.31526583   -2.5562939   0.47242584   -2.0838681   0.11747524    11452.896     1000 
  148000   0.31958593   -2.5209592   0.47889952   -2.0420597   0.12361934    11441.049     1000 
  150000   0.31929275   -2.5265961   0.47846019   -2.0481359    0.1221751    11452.185     1000 
  152000   0.33166345    -2.512793   0.49699768   -2.0157953   0.12487533    11447.401     1000 
  154000   0.33242446   -2.4857329   0.49813805   -1.9875948   0.13458645    11327.783     1000 
  156000    0.3229315   -2.4890162   0.48391285   -2.0051033   0.13493054    11291.912     1000 
  158000   0.31675794   -2.5218173   0.47466177   -2.0471555   0.12356174     11403.37     1000 
  160000   0.31443574   -2.5441849   0.47118196   -2.0730029   0.12371749    11427.846     1000 
  162000   0.32810777   -2.5497795   0.49166949     -2.05811   0.13147734    11352.319     1000 
  164000   0.33183466    -2.528137   0.49725423   -2.0308827   0.13721371    11363.683     1000 
  166000   0.30841155   -2.5365871   0.46215471   -2.0744324   0.11885889    11466.359     1000 
  168000   0.33040561   -2.5074806   0.49511281   -2.0123678   0.12331433    11442.823     1000 
  170000   0.30725794    -2.521302   0.46042602    -2.060876   0.11993651    11386.661     1000 
  172000   0.32165243   -2.4966486   0.48199616   -2.0146524   0.14155143    11286.962     1000 
  174000   0.32451736   -2.5640958   0.48628927   -2.0778066   0.12703833    11408.128     1000 
  176000   0.31886817    -2.497259   0.47782395   -2.0194351   0.13559287    11300.604     1000 
  178000   0.32969887    -2.498127   0.49405375   -2.0040733   0.13080403    11318.709     1000 
  180000   0.31512856   -2.5395068   0.47222015   -2.0672866    0.1268391    11433.297     1000 
  182000   0.32434578   -2.5704251   0.48603216   -2.0843929    0.1263301    11416.578     1000 
  184000   0.32078591   -2.5673001   0.48069769   -2.0866024   0.12309539    11440.052     1000 
  186000   0.31614942   -2.5229351    0.4737499   -2.0491852   0.12526622    11420.416     1000 
  188000    0.3233169   -2.5296293   0.48449037   -2.0451389   0.14127287    11335.451     1000 
  190000   0.33293232   -2.5435366   0.49889909   -2.0446375   0.12926893    11337.662     1000 
  192000   0.31325382   -2.5239243   0.46941085   -2.0545135   0.13475855    11409.232     1000 
  194000   0.32300055   -2.5188085   0.48401632   -2.0347921   0.12811813     11410.58     1000 
  196000    0.3161964    -2.534287    0.4738203   -2.0604667   0.13125778    11422.159     1000 
  198000   0.30830226   -2.5377508   0.46199093   -2.0757599   0.12569489    11432.865     1000 
  200000   0.33043904   -2.5035081   0.49516289   -2.0083452   0.13530262    11306.653     1000 
  202000   0.32470852   -2.5231325   0.48657571   -2.0365568   0.13207024    11356.582     1000 
  204000   0.31136121   -2.5351227   0.46657478   -2.0685479   0.11484394    11435.328     1000 
  206000   0.32656114   -2.5338016   0.48935187   -2.0444498   0.12516643    11389.047     1000 
  208000   0.31923145   -2.5142548   0.47836832   -2.0358865    0.1319602    11313.358     1000 
  210000   0.31069744   -2.5519667   0.46558011   -2.0863866   0.11846045    11449.838     1000 
  212000   0.33084344   -2.5363538   0.49576889    -2.040585   0.13648157     11361.02     1000 
  214000   0.32083001    -2.523098   0.48076378   -2.0423342   0.12667987    11363.227     1000 
  216000   0.31914371   -2.5383943   0.47823685   -2.0601574    0.1327323    11287.144     1000 
  218000   0.30871215   -2.4854993   0.46260516   -2.0228942   0.12333585    11421.953     1000 
  220000   0.32160482    -2.552228   0.48192482   -2.0703032   0.14141811     11344.77     1000 
  222000   0.32821612   -2.5412738   0.49183185   -2.0494419   0.13649984    11359.919     1000 
  224000   0.31396081   -2.5170498   0.47047028   -2.0465796   0.12901407    11326.026     1000 
  226000   0.31953122   -2.4747081   0.47881753   -1.9958906   0.13282457    11330.286     1000 
  228000   0.32738862   -2.4909846   0.49059185   -2.0003928   0.13009395    11380.061     1000 
  230000   0.31908083   -2.5472597   0.47814262   -2.0691171   0.13535893    11348.745     1000 
  232000   0.32116091   -2.5070498   0.48125962   -2.0257902   0.13486016     11309.45     1000 
  234000   0.31857997    -2.520959   0.47739208   -2.0435669   0.13892972    11345.939     1000 
  236000     0.327972   -2.5306964   0.49146604   -2.0392304   0.11454989    11496.977     1000 
  238000   0.31808843   -2.5189386   0.47665551   -2.0422831   0.13730572    11303.311     1000 
  240000   0.31955653   -2.4717974   0.47885546   -1.9929419   0.12583227    11332.366     1000 
  242000   0.31416906   -2.5320404   0.47078233   -2.0612581   0.11967328     11417.49     1000 
  244000   0.30983303   -2.5283033   0.46428479   -2.0640185   0.12868346     11374.41     1000 
  246000   0.30690647   -2.5147913   0.45989935   -2.0548919   0.12282952    11356.446     1000 
  248000   0.32268284   -2.5381301   0.48354024   -2.0545898   0.13607693    11354.351     1000 
  250000    0.3180608   -2.5209753   0.47661412   -2.0443612   0.12339659     11379.35     1000 
  252000   0.32997782   -2.5295183   0.49447176   -2.0350466   0.12139583     11443.13     1000 
  254000   0.33829495   -2.5293386   0.50693498   -2.0224036   0.12835497    11435.717     1000 
  256000   0.31047282   -2.5093912   0.46524353   -2.0441476   0.13487754    11376.141     1000 
  258000     0.312515    -2.541046   0.46830373   -2.0727423   0.13431238    11328.438     1000 
  260000   0.32003475   -2.5364154   0.47957207   -2.0568434   0.12973474    11337.954     1000 
  262000   0.33186844   -2.4921429   0.49730485    -1.994838   0.13678215    11325.517     1000 
  264000   0.33057523   -2.4791548   0.49536698   -1.9837878   0.12874622    11324.899     1000 
  266000    0.3308432   -2.5697873   0.49576853   -2.0740188   0.11692917    11435.544     1000 
  268000   0.33195632   -2.5194523   0.49743655   -2.0220157   0.12081418    11404.866     1000 
  270000   0.31831572    -2.553863   0.47699611   -2.0768669   0.12301773    11383.419     1000 
  272000   0.31741479   -2.5131183   0.47564607   -2.0374722   0.12565867    11420.262     1000 
  274000   0.31776669   -2.5229891   0.47617339   -2.0468158   0.12681116    11412.897     1000 
  276000   0.33714705   -2.5340602   0.50521486   -2.0288453   0.13770406    11347.943     1000 
  278000   0.32917237   -2.5653349    0.4932648   -2.0720701   0.12698324    11476.592     1000 
  280000   0.31920958   -2.5420085   0.47833556   -2.0636729   0.12652247    11363.395     1000 
  282000   0.32119344    -2.513836   0.48130837   -2.0325276   0.12290471    11393.767     1000 
  284000   0.31315046   -2.5518858   0.46925596   -2.0826299   0.13236148    11354.837     1000 
  286000   0.31887107   -2.5162398   0.47782831   -2.0384115   0.13767256    11355.863     1000 
  288000   0.31984082   -2.4821056   0.47928146   -2.0028241    0.1248373    11367.557     1000 
  290000   0.31191105    -2.520835    0.4673987   -2.0534363   0.13391788    11319.225     1000 
  292000   0.31413017   -2.4864031   0.47072406   -2.0156791   0.12243193    11397.679     1000 
  294000   0.32590545    -2.510525   0.48836931   -2.0221557   0.12563718    11402.595     1000 
  296000    0.3152875     -2.51989   0.47245832   -2.0474317   0.13139825    11340.035     1000 
  298000   0.31673371   -2.5402786   0.47462547   -2.0656532   0.12604122    11418.032     1000 
  300000   0.31691033    -2.522125   0.47489013   -2.0472349   0.13250559    11401.087     1000 
  302000   0.31337606   -2.5113676   0.46959402   -2.0417736   0.12485052    11393.682     1000 
  304000    0.3071343   -2.5260602   0.46024075   -2.0658195   0.12587346    11372.125     1000 
  306000    0.3186895   -2.5338983   0.47755622   -2.0563421   0.12815205     11412.59     1000 
  308000   0.31378263   -2.5145407   0.47020328   -2.0443374   0.12813001    11357.303     1000 
  310000    0.3203458   -2.4861805   0.48003819   -2.0061424   0.13140226    11370.867     1000 
  312000   0.29742559   -2.5108264   0.44569224   -2.0651341   0.12873311    11355.223     1000 
  314000   0.32483631    -2.517583   0.48676722   -2.0308158   0.11767225    11455.387     1000 
  316000      0.31337   -2.5493253   0.46958494   -2.0797404   0.12623227    11454.047     1000 
  318000   0.31811354   -2.4898474   0.47669314   -2.0131542   0.13470458    11256.399     1000 
  320000   0.32776419   -2.5191022   0.49115464   -2.0279475   0.13195601    11336.435     1000 
  322000   0.31861032   -2.5199855   0.47743756   -2.0425479   0.13345734    11307.659     1000 
  324000   0.31656942   -2.4933858   0.47437928   -2.0190065   0.13710933    11336.452     1000 
  326000   0.31961917   -2.5007442   0.47894932   -2.0217949   0.13467544    11302.136     1000 
  328000   0.32357311   -2.5525365   0.48487431   -2.0676621   0.13114413     11379.61     1000 
  330000   0.32532988   -2.5229264   0.48750683   -2.0354195   0.13529969     11352.32     1000 
  332000   0.31526728   -2.5272382   0.47242802   -2.0548102   0.12943677     11445.05     1000 
  334000   0.30944133   -2.5364865   0.46369784   -2.0727887   0.11982873    11420.241     1000 
  336000    0.3136339   -2.5558187    0.4699804   -2.0858383   0.13214268     11391.85     1000 
  338000   0.29780519   -2.5113809   0.44626108   -2.0651198   0.13157373    11324.542     1000 
  340000   0.31041015   -2.5447054   0.46514961   -2.0795557   0.12389572    11423.659     1000 
  342000   0.31167882   -2.4885978   0.46705071   -2.0215471     0.140767    11241.526     1000 
  344000    0.3244509   -2.4907912   0.48618967   -2.0046015   0.13295988    11318.529     1000 
  346000   0.30792899   -2.5294351   0.46143159   -2.0680036   0.12964203    11428.443     1000 
  348000   0.31282821   -2.5118278   0.46877307   -2.0430547   0.13084912    11404.996     1000 
  350000   0.32040691   -2.5357305   0.48012976   -2.0556007   0.13151614    11337.574     1000 
  352000   0.31348891   -2.5290206   0.46976313   -2.0592575   0.12793783    11354.596     1000 
  354000   0.30468711   -2.5285979   0.45657363   -2.0720243   0.13245467    11441.622     1000 
  356000   0.31923894   -2.5122208   0.47837955   -2.0338413   0.12755603    11414.474     1000 
  358000   0.32255037   -2.5695199   0.48334173   -2.0861782   0.12918171    11344.492     1000 
  360000   0.32571247   -2.5149841   0.48808013    -2.026904   0.13467409    11372.799     1000 
  362000   0.33446053   -2.5044569   0.50118911   -2.0032678   0.13929321    11279.575     1000 
  364000   0.33227957   -2.4923883   0.49792093   -1.9944674    0.1336209    11339.048     1000 
  366000   0.31819229   -2.5294947   0.47681115   -2.0526835   0.13075815    11376.509     1000 
  368000    0.3137222   -2.4970129   0.47011272   -2.0269002   0.11795188    11467.592     1000 
  370000   0.31725733   -2.5294709    0.4754101   -2.0540608   0.13447757     11362.78     1000 
  372000   0.30336722   -2.5420755   0.45459578   -2.0874798   0.13812587    11307.561     1000 
  374000   0.31521133   -2.5441287   0.47234418   -2.0717845   0.12292891    11381.107     1000 
  376000   0.31756178   -2.5147547   0.47586633   -2.0388883   0.12844176    11345.953     1000 
  378000   0.30739033   -2.5322534   0.46062442    -2.071629    0.1284574    11417.512     1000 
  380000   0.32405797   -2.5206984   0.48560086   -2.0350975   0.12210018    11400.346     1000 
  382000   0.31857732   -2.5320273   0.47738811   -2.0546392   0.12241562    11463.634     1000 
  384000   0.32259334   -2.5226833   0.48340612   -2.0392771   0.12953204    11384.603     1000 
  386000   0.32654568   -2.5128602    0.4893287   -2.0235315   0.13120183    11320.772     1000 
  388000   0.30099428   -2.5277529   0.45103992    -2.076713   0.12076055    11495.481     1000 
  390000   0.31251081   -2.5203043   0.46829745   -2.0520069   0.12776342     11344.95     1000 
  392000   0.31878835   -2.5364936   0.47770434   -2.0587893   0.12488585    11458.574     1000 
  394000   0.32674072   -2.5248367   0.48962097   -2.0352158   0.12708856    11382.801     1000 
  396000   0.31172115   -2.4831444   0.46711414   -2.0160303   0.13005122    11410.507     1000 
  398000   0.31135445   -2.5304915   0.46656465   -2.0639269   0.12326368    11416.605     1000 
  400000   0.33354186   -2.5489709   0.49981247   -2.0491584   0.12485703    11461.966     1000 
  402000   0.32234368   -2.5035419   0.48303201   -2.0205099   0.13897682    11320.152     1000 
  404000   0.31761792   -2.4866638   0.47595045   -2.0107134    0.1390612    11267.184     1000 
  406000   0.31256254   -2.4994298   0.46837496   -2.0310548   0.13184045    11342.768     1000 
  408000   0.31799925   -2.4763539   0.47652187    -1.999832   0.13496248    11235.996     1000 
  410000   0.32740339   -2.5082986   0.49061398   -2.0176846   0.12924325    11345.433     1000 
  412000   0.32871479   -2.5162586   0.49257911   -2.0236795   0.13340321    11314.403     1000 
  414000   0.31245054   -2.4881923   0.46820713   -2.0199852    0.1325982    11245.911     1000 
  416000    0.3153431   -2.5205212   0.47254164   -2.0479796   0.14127792    11321.958     1000 
  418000   0.31611516   -2.5208774   0.47369857   -2.0471789   0.12509165    11359.029     1000 
  420000   0.32026412   -2.5244289   0.47991579   -2.0445131    0.1329707    11376.738     1000 
  422000   0.31918685   -2.5032191    0.4783015   -2.0249176   0.13340511    11311.854     1000 
  424000   0.33100642   -2.5026247   0.49601313   -2.0066116     0.130642    11343.709     1000 
  426000   0.32593832   -2.4996873   0.48841857   -2.0112687   0.13264337    11323.921     1000 
  428000   0.32727274   -2.4884907    0.4904182   -1.9980725   0.12004432    11366.861     1000 
  430000   0.31672099   -2.4959054    0.4746064    -2.021299    0.1298971    11415.413     1000 
  432000   0.32438002   -2.5327392   0.48608346   -2.0466558   0.12822576    11389.789     1000 
  434000   0.33472324    -2.519661   0.50158277   -2.0180783   0.13077919    11338.258     1000 
  436000   0.32365971   -2.5289008   0.48500408   -2.0438968   0.12464779    11373.991     1000 
  438000   0.32336823   -2.5319157   0.48456729   -2.0473484   0.12580687    11402.642     1000 
  440000   0.32950894   -2.5434821   0.49376914   -2.0497129   0.11821398    11437.564     1000 
  442000   0.31024669   -2.5346304   0.46490467   -2.0697257   0.13438583    11308.636     1000 
  444000   0.31949843   -2.5387334    0.4787684    -2.059965   0.12466279    11372.958     1000 
  446000   0.31550885   -2.5232961   0.47279001   -2.0505061   0.12821958    11368.975     1000 
  448000   0.31739925    -2.522835   0.47562277   -2.0472122   0.13396576     11330.31     1000 
  450000   0.30170542   -2.5265143   0.45210557   -2.0744087   0.11501978    11477.342     1000 
  452000   0.31374537   -2.5188864   0.47014743    -2.048739   0.11459027    11432.629     1000 
  454000    0.3176473   -2.5007084   0.47599448   -2.0247139   0.13293575    11327.249     1000 
  456000    0.3129744   -2.5242911   0.46899213    -2.055299   0.12050674    11425.044     1000 
  458000   0.32242139   -2.5194368   0.48314845   -2.0362884   0.13928823    11322.084     1000 
  460000   0.32901526   -2.5163843   0.49302937   -2.0233549   0.13828883     11320.72     1000 
  462000   0.33087993   -2.5319616   0.49582357    -2.036138   0.13351738    11369.067     1000 
  464000   0.32853091   -2.5519814   0.49230356   -2.0596778   0.13351544     11335.82     1000 
  466000   0.32811697   -2.5255067   0.49168327   -2.0338235   0.12484808    11394.708     1000 
  468000   0.33500288   -2.5165908   0.50200182    -2.014589   0.13726206    11316.595     1000 
  470000   0.32934207   -2.4569786    0.4935191   -1.9634595   0.14716003     11237.46     1000 
  472000   0.32315276   -2.5287066   0.48424441   -2.0444622   0.12087311     11458.65     1000 
  474000   0.30805948   -2.5087716   0.46162713   -2.0471445   0.13024062    11370.545     1000 
  476000     0.325634   -2.4824341   0.48796255   -1.9944716   0.14528108    11258.349     1000 
  478000   0.31579154   -2.5092656   0.47321362   -2.0360519    0.1316626    11313.158     1000 
  480000   0.30878883   -2.4981043   0.46272007   -2.0353842   0.13986912    11314.732     1000 
  482000   0.32332929   -2.5209001   0.48450894   -2.0363912   0.12904475    11348.741     1000 
  484000   0.32408708   -2.5156237   0.48564449   -2.0299792   0.13771659    11344.305     1000 
  486000   0.31717146   -2.5271121   0.47528143   -2.0518306   0.12711526    11416.202     1000 
  488000   0.31826052   -2.5355632   0.47691339   -2.0586498   0.12774737    11376.956     1000 
  490000   0.31898845   -2.5047901   0.47800419   -2.0267859   0.12557921    11388.489     1000 
  492000   0.31299958   -2.5142863   0.46902987   -2.0452564   0.13121087    11396.734     1000 
  494000   0.31198122   -2.5085792   0.46750385   -2.0410753   0.13118838    11322.574     1000 
  496000   0.29810436   -2.5150242   0.44670938   -2.0683148   0.13653565    11322.692     1000 
  498000   0.31692899   -2.5401116    0.4749181   -2.0651935   0.13386558    11344.905     1000 
  500000   0.31971112   -2.5289084   0.47908711   -2.0498212   0.12696365    11399.389     1000 
  502000   0.31115265   -2.5147423   0.46626225     -2.04848   0.13380161    11344.506     1000 
  504000   0.34257999   -2.5070362   0.51335612   -1.9936801   0.12758587    11435.179     1000 
  506000   0.33291685   -2.5000783    0.4988759   -2.0012024   0.12767104    11426.287     1000 
  508000   0.32175017   -2.5622788   0.48214263   -2.0801361   0.11733916    11500.032     1000 
  510000    0.3135811   -2.5054498   0.46990127   -2.0355485   0.13123279      11401.9     1000 
  512000   0.31820283   -2.5336593   0.47682694   -2.0568324   0.12465201    11439.814     1000 
  514000   0.30038356   -2.5173854   0.45012476   -2.0672606   0.12276122    11417.984     1000 
  516000   0.33149405   -2.4764719   0.49674383   -1.9797281   0.14161058    11218.612     1000 
  518000   0.31542849   -2.5188425   0.47266959    -2.046173   0.13117905    11318.034     1000 
  520000   0.31192808    -2.510566   0.46742423   -2.0431418   0.13206553    11254.411     1000 
  522000   0.32328487   -2.5210056   0.48444238   -2.0365633    0.1247089    11384.765     1000 
  524000   0.33759198    -2.543061   0.50588158   -2.0371794   0.12735502    11390.324     1000 
  526000     0.338811   -2.5460355   0.50770828   -2.0383272   0.13320462    11385.243     1000 
  528000   0.32238121   -2.5361111   0.48308825   -2.0530229   0.13629112    11331.629     1000 
  530000    0.3078418   -2.5442861   0.46130094   -2.0829851   0.14294554    11286.337     1000 
  532000   0.30654389   -2.5194355   0.45935602   -2.0600795   0.11413749    11466.446     1000 
  534000   0.32015463   -2.5043254   0.47975172   -2.0245737   0.13124063     11333.16     1000 
  536000   0.32277146   -2.5320837   0.48367304   -2.0484107   0.13521099    11313.524     1000 
  538000   0.32295489   -2.5333394    0.4839479   -2.0493915   0.12921933    11398.218     1000 
  540000   0.30960283   -2.5051015   0.46393984   -2.0411616    0.1313818    11362.449     1000 
  542000   0.32284145   -2.5372876   0.48377792   -2.0535097   0.12611477    11386.966     1000 
  544000   0.32775963   -2.5257578    0.4911478     -2.03461   0.13678792    11344.085     1000 
  546000   0.34031791   -2.5115193   0.50996638   -2.0015529   0.12893706    11383.309     1000 
  548000   0.32148565   -2.5064735   0.48174625   -2.0247273    0.1417147    11247.445     1000 
  550000   0.29980922   -2.5192421   0.44926411    -2.069978   0.12464728    11366.837     1000 
  552000   0.32374511   -2.4894337   0.48513205   -2.0043017   0.14203207    11252.175     1000 
  554000   0.31472739   -2.5194419   0.47161899   -2.0478229   0.12778342    11385.591     1000 
  556000     0.310295    -2.511023   0.46497706   -2.0460459   0.13313707      11336.4     1000 
  558000   0.31267672   -2.5384481   0.46854607    -2.069902   0.12272312    11429.465     1000 
  560000   0.32719457   -2.5051092   0.49030106   -2.0148081   0.13497845    11288.346     1000 
  562000   0.31935501   -2.5208627   0.47855348   -2.0423092   0.13390553    11390.081     1000 
  564000    0.3233809   -2.4977162   0.48458628   -2.0131299   0.12935679    11378.508     1000 
  566000   0.33450436   -2.5205227   0.50125479   -2.0192679   0.13474938    11363.017     1000 
  568000   0.32105232   -2.4946979    0.4810969    -2.013601   0.12725687    11385.963     1000 
  570000   0.32152657   -2.5066568   0.48180756   -2.0248493   0.12835395    11364.062     1000 
  572000   0.31401437   -2.5037216   0.47055054    -2.033171   0.12707573    11391.711     1000 
  574000   0.31446279   -2.5075438   0.47122249   -2.0363213   0.13964777    11285.793     1000 
  576000   0.32249983   -2.5402592   0.48326599   -2.0569933   0.12262248     11385.17     1000 
  578000   0.31156657   -2.5148435   0.46688251    -2.047961   0.13727522    11327.014     1000 
  580000   0.32424081    -2.486822   0.48587486   -2.0009471   0.12692864     11387.66     1000 
  582000    0.3253386   -2.5149167    0.4875199   -2.0273968   0.13841228    11325.423     1000 
  584000   0.32658449   -2.5246454   0.48938686   -2.0352586   0.13100541    11377.913     1000 
  586000   0.31782385   -2.5308693   0.47625905   -2.0546102   0.12506788    11441.578     1000 
  588000   0.32588172   -2.5326684   0.48833375   -2.0443347   0.13734522    11348.468     1000 
  590000   0.30187291   -2.4916334   0.45235656   -2.0392769   0.14064329    11303.618     1000 
  592000   0.30482887    -2.516005   0.45678606   -2.0592189   0.12442082    11347.219     1000 
  594000   0.33273104   -2.5410781   0.49859746   -2.0424807   0.13059525    11325.788     1000 
  596000   0.32453377   -2.5100444   0.48631386   -2.0237305   0.12871493    11368.001     1000 
  598000   0.31826913   -2.5107622   0.47692629   -2.0338359   0.13152317    11333.537     1000 
  600000   0.33724594    -2.533881   0.50536304    -2.028518   0.13593594     11307.02     1000 
  602000   0.31902762   -2.5373247   0.47806289   -2.0592618   0.14296921    11271.631     1000 
  604000   0.31332622   -2.5299203   0.46951934    -2.060401   0.12329477    11415.737     1000 
  606000   0.32713943   -2.5518129   0.49021843   -2.0615944   0.13430501    11336.601     1000 
  608000    0.3155432   -2.5067029   0.47284149   -2.0338614   0.12923993     11338.84     1000 
  610000   0.31039193   -2.5129307   0.46512231   -2.0478084   0.12686393    11376.622     1000 
  612000   0.32359689   -2.5044081   0.48490994   -2.0194982   0.11950957    11438.185     1000 
  614000   0.31640555   -2.5377416   0.47413371   -2.0636079   0.12385264    11422.659     1000 
  616000   0.30891467   -2.5256013   0.46290864   -2.0626927   0.13475792    11355.578     1000 
  618000   0.32290416   -2.5075485   0.48387188   -2.0236767   0.13316956    11353.163     1000 
  620000   0.31804519   -2.4979029   0.47659071   -2.0213122   0.12676528    11410.313     1000 
  622000   0.31352813   -2.5007154   0.46982191   -2.0308935   0.14352831    11234.695     1000 
  624000   0.30527979   -2.5270202   0.45746176   -2.0695584   0.13200247    11344.905     1000 
  626000   0.31203207    -2.510387   0.46758006   -2.0428069   0.14125602     11380.24     1000 
  628000   0.32270806   -2.5177947   0.48357803   -2.0342166   0.12982861    11348.141     1000 
  630000   0.30689318   -2.5155823   0.45987943   -2.0557028   0.13556435    11337.222     1000 
  632000   0.32872969   -2.5188877   0.49260144   -2.0262863   0.12200935    11420.522     1000 
  634000   0.32496897   -2.4990221   0.48696601   -2.0120561    0.1258253    11429.388     1000 
  636000   0.30921772   -2.5011631   0.46336276   -2.0378003   0.12206755    11445.154     1000 
  638000   0.32903662   -2.5213656   0.49306138   -2.0283042   0.13483239    11298.137     1000 
  640000   0.30239892    -2.540891   0.45314478   -2.0877462   0.12918487    11431.718     1000 
  642000    0.3356167   -2.5152884   0.50292162   -2.0123668   0.12904497    11356.419     1000 
  644000   0.31797225   -2.5680586   0.47648142   -2.0915771   0.12092818     11535.92     1000 
  646000   0.31506654   -2.5369692   0.47212722    -2.064842   0.12847085    11449.184     1000 
  648000   0.31170328   -2.5518982   0.46708737   -2.0848108   0.12575518    11397.015     1000 
  650000    0.3120606   -2.5418361   0.46762282   -2.0742133   0.13350535     11344.61     1000 
  652000   0.33055772   -2.5124027   0.49534074    -2.017062   0.13159209    11349.863     1000 
  654000   0.33582471   -2.4955228   0.50323333   -1.9922894    0.1394886    11325.442     1000 
  656000   0.32013141   -2.5205504   0.47971691   -2.0408334   0.13246794    11320.796     1000 
  658000   0.32656244   -2.5023135   0.48935382   -2.0129597   0.12382998    11447.192     1000 
  660000   0.31980307   -2.5134485   0.47922491   -2.0342236     0.133076    11363.969     1000 
  662000   0.32305002   -2.5294234   0.48409046   -2.0453329    0.1202341    11424.418     1000 
  664000   0.32025269   -2.5244469   0.47989865   -2.0445483   0.13290696     11345.77     1000 
  666000   0.29993713   -2.5200779   0.44945579   -2.0706221   0.13150713    11335.792     1000 
  668000    0.3187322   -2.5160173    0.4776202   -2.0383971   0.12709673    11386.726     1000 
  670000   0.32420677   -2.5528095   0.48582385   -2.0669856   0.12530922    11423.955     1000 
  672000   0.32637127   -2.5067386   0.48906736   -2.0176713   0.13862108    11314.669     1000 
  674000   0.31794238   -2.5238109   0.47643665   -2.0473742   0.13703598    11291.988     1000 
  676000   0.32760453   -2.5387001   0.49091539   -2.0477847    0.1276747    11406.703     1000 
  678000   0.33060274   -2.5170554    0.4954082   -2.0216472     0.132182      11355.9     1000 
  680000   0.33099492   -2.5458313   0.49599589   -2.0498354   0.13339578    11378.899     1000 
  682000   0.31960324   -2.5308611   0.47892545   -2.0519357   0.12263225     11454.56     1000 
  684000   0.31733073   -2.5208123   0.47552009   -2.0452922   0.13687267    11302.045     1000 
  686000   0.32316049   -2.4914728     0.484256   -2.0072168   0.13805632    11195.402     1000 
  688000   0.32682222   -2.5314467    0.4897431   -2.0417036   0.13907274    11338.253     1000 
  690000   0.30558815   -2.5432099   0.45792384    -2.085286   0.12511743    11447.871     1000 
  692000   0.33057376   -2.5033488   0.49536478   -2.0079841   0.13379018    11348.301     1000 
  694000     0.342841   -2.5430541   0.51374724   -2.0293069    0.1325858    11384.758     1000 
  696000   0.31438472   -2.5218602    0.4711055   -2.0507547   0.12294317    11447.685     1000 
  698000   0.32708473   -2.5136983   0.49013646   -2.0235618   0.12690717    11416.917     1000 
  700000   0.32859438   -2.5382366   0.49239869   -2.0458379   0.13854159    11379.195     1000 
  702000   0.32481666   -2.4929683   0.48673776   -2.0062305    0.1443886    11269.522     1000 
  704000   0.32352621   -2.4979114   0.48480403   -2.0131074   0.14594849    11208.458     1000 
  706000   0.32770392   -2.5283091   0.49106433   -2.0372448    0.1366819    11376.102     1000 
  708000   0.30978043   -2.5044786   0.46420598   -2.0402726   0.13383238    11352.702     1000 
  710000   0.31758669    -2.575576   0.47590365   -2.0996724   0.12806698    11396.167     1000 
  712000   0.32071179   -2.5343086   0.48058661    -2.053722   0.12762057    11329.268     1000 
  714000   0.31443294   -2.4975617   0.47117776    -2.026384   0.11682273    11440.621     1000 
  716000    0.3097444   -2.5204264   0.46415199   -2.0562744   0.13062867    11322.513     1000 
  718000   0.33096941   -2.5239156   0.49595765    -2.027958   0.12297493    11440.134     1000 
  720000   0.31336065   -2.5242278   0.46957093   -2.0546568    0.1264742    11371.098     1000 
  722000   0.32531988    -2.539571   0.48749184   -2.0520791   0.12305593     11420.81     1000 
  724000   0.32099686   -2.5405679    0.4810138   -2.0595541   0.12822273    11388.886     1000 
  726000   0.33056935   -2.4669751   0.49535818    -1.971617   0.13260988    11363.077     1000 
  728000   0.31947898   -2.4897907   0.47873926   -2.0110514   0.13304859    11336.152     1000 
  730000   0.30341439   -2.5141717   0.45466647   -2.0595052   0.12127528    11424.624     1000 
  732000   0.32633175   -2.5123828   0.48900812   -2.0233747    0.1306139    11359.118     1000 
  734000   0.33107156   -2.5015298   0.49611073   -2.0054191   0.13755759    11310.321     1000 
  736000   0.30661169   -2.5082416   0.45945761    -2.048784   0.13341097     11345.59     1000 
  738000   0.31312612   -2.5455342   0.46921949   -2.0763147   0.13418983    11379.652     1000 
  740000    0.3201906   -2.5414451   0.47980561   -2.0616395   0.11552954    11539.942     1000 
  742000   0.32133139   -2.5487821   0.48151509    -2.067267   0.12702354    11408.991     1000 
  744000    0.3268869   -2.5080009   0.48984002   -2.0181609   0.12764693    11383.649     1000 
  746000   0.31077421   -2.5354661   0.46569516    -2.069771   0.13077664    11379.473     1000 
  748000   0.32338453   -2.5284148   0.48459172   -2.0438231   0.12014277    11393.489     1000 
  750000   0.31241172   -2.5373076   0.46814896   -2.0691586   0.13004182    11361.059     1000 
  752000   0.31943752   -2.5122441   0.47867713   -2.0335669   0.15134727    11206.752     1000 
  754000    0.3189378   -2.5224674    0.4779283   -2.0445391   0.13427402    11344.383     1000 
  756000   0.30555649   -2.4871874    0.4578764    -2.029311   0.13141166    11328.058     1000 
  758000   0.33581312   -2.5023833   0.50321596   -1.9991674   0.12622154    11391.917     1000 
  760000   0.31038429   -2.5482887   0.46511086   -2.0831779   0.13530623    11321.572     1000 
  762000   0.32777773   -2.5317898   0.49117492   -2.0406149   0.13186518    11423.626     1000 
  764000   0.32437668   -2.4961601   0.48607845   -2.0100817   0.12900953    11363.089     1000 
  766000    0.3377505   -2.5544401   0.50611912    -2.048321   0.13125126    11410.421     1000 
  768000   0.33334763     -2.51879   0.49952143   -2.0192686   0.14170598    11307.291     1000 
  770000   0.31192994   -2.4908849   0.46742702   -2.0234579   0.14530252    11264.539     1000 
  772000   0.31350058   -2.4708598   0.46978061   -2.0010792   0.12788212    11361.027     1000 
  774000   0.31641239   -2.5129521   0.47414397   -2.0388081   0.13300815    11340.898     1000 
  776000   0.32133852   -2.5024856   0.48152577   -2.0209598   0.12503354     11340.47     1000 
  778000   0.31379505   -2.5334785   0.47022189   -2.0632567   0.14026367    11283.568     1000 
  780000   0.32472012   -2.5476293    0.4865931   -2.0610362   0.13100244    11411.678     1000 
  782000   0.31946579   -2.5146959   0.47871948   -2.0359764   0.13130257    11377.486     1000 
  784000   0.32856727   -2.5015691   0.49235805   -2.0092111   0.13110406    11338.014     1000 
  786000     0.313446   -2.5434885   0.46969884   -2.0737897   0.12912083    11356.665     1000 
  788000   0.31921715    -2.530322   0.47834691   -2.0519751    0.1299803    11346.705     1000 
  790000   0.31718725   -2.5003213   0.47530509   -2.0250162    0.1359931    11390.581     1000 
  792000   0.31304206   -2.5333301   0.46909353   -2.0642366   0.13622683    11317.339     1000 
  794000   0.31567151   -2.5559121   0.47303376   -2.0828784   0.13166535    11314.841     1000 
  796000   0.32063787   -2.5344611   0.48047585   -2.0539853    0.1336146    11306.912     1000 
  798000   0.33526086   -2.5419848    0.5023884   -2.0395964   0.12117906    11431.851     1000 
  800000   0.32282552    -2.512807   0.48375404    -2.029053   0.13332199    11303.621     1000 
  802000   0.32295012   -2.5285519   0.48394076   -2.0446112   0.13522432    11313.619     1000 
  804000   0.32463149   -2.4961483   0.48646028    -2.009688   0.12295062    11396.775     1000 
  806000   0.32268427    -2.540379   0.48354239   -2.0568366   0.12496703    11446.761     1000 
  808000   0.32379944   -2.5299193   0.48521346   -2.0447059    0.1213578    11419.996     1000 
  810000   0.31151162   -2.5095591   0.46680017   -2.0427589   0.12987753    11332.902     1000 
  812000   0.33103821   -2.5410492   0.49606076   -2.0449884   0.13161559    11385.007     1000 
  814000   0.32716711   -2.5120376   0.49025991   -2.0217777   0.12494955    11442.675     1000 
  816000    0.3270993   -2.5179325   0.49015829   -2.0277742   0.13428345    11328.116     1000 
  818000    0.3212494   -2.5214288   0.48139223   -2.0400366    0.1302511    11379.704     1000 
  820000    0.3392339   -2.5143226   0.50834199   -2.0059806   0.12201674    11477.095     1000 
  822000   0.31637986   -2.5409991   0.47409522   -2.0669038   0.12533795    11388.922     1000 
  824000   0.33715017   -2.5039476   0.50521953   -1.9987281   0.13281627    11361.481     1000 
  826000   0.32702363    -2.516601   0.49004491   -2.0265561   0.13255276    11299.524     1000 
  828000   0.31418105   -2.5430083    0.4708003    -2.072208   0.12827476    11363.411     1000 
  830000   0.33865474   -2.5059308   0.50747413   -1.9984567   0.13500173    11366.175     1000 
  832000    0.3268758   -2.4912648   0.48982339   -2.0014414   0.13392734    11307.666     1000 
  834000   0.31636942   -2.5609797   0.47407958   -2.0869002   0.12051269    11437.767     1000 
  836000   0.31959376   -2.5016504   0.47891124   -2.0227392   0.13134848    11320.297     1000 
  838000    0.3165131   -2.5235007   0.47429487   -2.0492059   0.12808119    11350.457     1000 
  840000   0.31022994   -2.5264517   0.46487957   -2.0615721   0.13018909    11375.309     1000 
  842000   0.30940816   -2.5283041   0.46364812    -2.064656   0.12640008    11352.023     1000 
  844000   0.32142046   -2.4974797   0.48164855   -2.0158311   0.12206178    11392.398     1000 
  846000   0.32323943   -2.5245794   0.48437429   -2.0402051   0.12654631    11397.437     1000 
  848000   0.32784845     -2.49758   0.49128091   -2.0062991      0.13085    11372.563     1000 
  850000   0.33186508   -2.5138849   0.49729982   -2.0165851   0.14463123    11271.447     1000 
  852000   0.31225797   -2.5577413   0.46791857   -2.0898227     0.120301    11395.201     1000 
  854000   0.31648102   -2.5299385   0.47424681   -2.0556917   0.12803534    11379.207     1000 
  856000   0.31975849   -2.5214954    0.4791581   -2.0423373   0.12436785    11419.454     1000 
  858000   0.33506412   -2.5213119   0.50209358   -2.0192183   0.12881597    11368.482     1000 
  860000   0.31861933   -2.5273449   0.47745106   -2.0498938   0.12928206    11301.358     1000 
  862000   0.30946345   -2.5358861   0.46373098   -2.0721552   0.12629549    11428.224     1000 
  864000   0.32608101   -2.5136752    0.4886324   -2.0250428   0.12882831    11379.581     1000 
  866000   0.31677741   -2.5449894   0.47469095   -2.0702985   0.12409993    11396.664     1000 
  868000   0.32469748   -2.5508025   0.48655918   -2.0642434   0.12254084    11455.847     1000 
  870000   0.33282693   -2.4985709   0.49874115   -1.9998297   0.13003709    11377.523     1000 
  872000   0.31957636   -2.5348794   0.47888517   -2.0559943   0.13467654    11365.549     1000 
  874000   0.31922601   -2.5040459   0.47836018   -2.0256857   0.13263671    11337.303     1000 
  876000   0.32021926   -2.5215722   0.47984856   -2.0417237   0.12486646    11374.796     1000 
  878000   0.29814664    -2.496008   0.44677274   -2.0492353   0.14295968    11294.164     1000 
  880000   0.31767592   -2.4834517   0.47603737   -2.0074144   0.12312564    11412.313     1000 
  882000   0.31709005   -2.5279958   0.47515944   -2.0528363   0.12937788    11332.648     1000 
  884000   0.32558239   -2.4939929   0.48788521   -2.0061077   0.13952683    11307.679     1000 
  886000   0.32140987    -2.522956   0.48163268   -2.0413233   0.13362815     11297.22     1000 
  888000   0.31424024   -2.5150545     0.470889   -2.0441655   0.14285718    11229.681     1000 
  890000   0.29890045   -2.5210343   0.44790232   -2.0731319   0.11797422    11393.423     1000 
  892000   0.32750505   -2.4972003   0.49076632    -2.006434   0.12876602    11416.907     1000 
  894000   0.32208556   -2.4605218   0.48264521   -1.9778765   0.13104965    11402.689     1000 
  896000   0.31360885   -2.5298434   0.46994286   -2.0599005   0.12635051     11406.96     1000 
  898000   0.32856652   -2.5082932   0.49235692   -2.0159363   0.12295757    11385.261     1000 
  900000   0.31791279   -2.5296095   0.47639232   -2.0532172   0.13402066    11407.915     1000 
  902000   0.32770977   -2.5456162   0.49107309   -2.0545431   0.13127006     11352.31     1000 
  904000   0.31781434   -2.5274691   0.47624479   -2.0512243   0.12817955    11397.308     1000 
  906000    0.3162079   -2.5115248   0.47383754   -2.0376872   0.12885525    11414.432     1000 
  908000   0.30349524   -2.5137311   0.45478761   -2.0589435   0.12584157     11386.84     1000 
  910000   0.31841676   -2.5039198   0.47714751   -2.0267722   0.12590159    11389.785     1000 
  912000    0.3061892   -2.5333322   0.45882451   -2.0745077   0.13133265    11308.111     1000 
  914000   0.31944222    -2.523335   0.47868416   -2.0446508   0.12941004    11409.187     1000 
  916000   0.31410346   -2.5179862   0.47068404   -2.0473021   0.13508129    11324.136     1000 
  918000   0.32280283   -2.5229106   0.48372004   -2.0391906   0.13439919    11335.366     1000 
  920000   0.32074017   -2.5254835   0.48062915   -2.0448543   0.13019171    11347.241     1000 
  922000   0.30997689    -2.515087   0.46450036   -2.0505867   0.13448836    11351.766     1000 
  924000   0.32037366   -2.5486801   0.48007993   -2.0686002   0.13161577    11402.044     1000 
  926000   0.31729109   -2.5387684   0.47546071   -2.0633077   0.14162669    11268.983     1000 
  928000   0.32760083   -2.4868847   0.49090985   -1.9959749   0.14216723    11304.532     1000 
  930000   0.32419481   -2.4924365   0.48580592   -2.0066306    0.1352162    11369.778     1000 
  932000   0.32675835   -2.5073808   0.48964739   -2.0177334   0.11871108    11413.198     1000 
  934000   0.33241759   -2.5338417   0.49812775    -2.035714   0.11868892    11432.918     1000 
  936000   0.32735071   -2.5085892   0.49053504   -2.0180541    0.1350081     11366.48     1000 
  938000   0.32516913   -2.5205762   0.48726594   -2.0333102   0.12347567    11443.861     1000 
  940000   0.31688188   -2.5322765   0.47484749    -2.057429   0.13696251    11306.544     1000 
  942000    0.3317201   -2.5028926   0.49708257     -2.00581    0.1218109    11448.278     1000 
  944000   0.32069258   -2.5504658   0.48055783    -2.069908   0.13625437    11310.855     1000 
  946000   0.33552906   -2.5071001    0.5027903   -2.0043098   0.12965809    11396.817     1000 
  948000   0.33746113   -2.5295616   0.50568551   -2.0238761   0.13204269    11397.569     1000 
  950000   0.32813168   -2.5198628   0.49170533   -2.0281575   0.11816257    11472.262     1000 
  952000   0.31937734   -2.5265058   0.47858694   -2.0479188   0.12640333    11363.152     1000 
  954000   0.32870685   -2.5432796   0.49256721   -2.0507124    0.1248919    11413.152     1000 
  956000   0.31137263   -2.5277928   0.46659188   -2.0612009   0.11956587    11442.191     1000 
  958000   0.30796548   -2.5320189   0.46148628   -2.0705326   0.12952955     11424.95     1000 
  960000    0.3188818   -2.5030435   0.47784438   -2.0251992   0.13602572    11311.441     1000 
  962000   0.30884168   -2.4505775   0.46279925   -1.9877782   0.14189957    11282.818     1000 
  964000    0.3157043   -2.5220562    0.4730829   -2.0489733    0.1320632     11411.48     1000 
  966000   0.32310627   -2.5418276   0.48417475   -2.0576528   0.12493517    11396.277     1000 
  968000   0.31894478   -2.5085616   0.47793876   -2.0306229   0.13368989    11319.036     1000 
  970000   0.31568399   -2.5173218   0.47305246   -2.0442693   0.14319233    11252.244     1000 
  972000   0.32404763   -2.5043234   0.48558537    -2.018738   0.12804342    11392.832     1000 
  974000   0.32553722   -2.5256081   0.48781752   -2.0377905   0.12947732    11380.181     1000 
  976000   0.31557111   -2.5203549   0.47288331   -2.0474715   0.12501148        11440     1000 
  978000   0.31197715   -2.5250451   0.46749776   -2.0575474   0.13028062    11360.301     1000 
  980000   0.34869808   -2.5008312   0.52252408   -1.9783071   0.14346804    11290.912     1000 
  982000   0.31628017    -2.526049   0.47394584   -2.0521032   0.12668299    11396.745     1000 
  984000   0.32874553    -2.532649   0.49262518   -2.0400238   0.11089362    11559.112     1000 
  986000   0.32403822   -2.5606652   0.48557128   -2.0750939   0.13177932    11422.761     1000 
  988000   0.31567171   -2.5113051   0.47303405    -2.038271    0.1392244    11325.928     1000 
  990000   0.32997416   -2.5013511   0.49446628   -2.0068848   0.12885222    11407.925     1000 
  992000   0.31806377   -2.5129448   0.47661856   -2.0363263   0.12319106    11368.948     1000 
  994000   0.32010974   -2.4873479   0.47968444   -2.0076635   0.12402834    11401.836     1000 
  996000   0.31164366   -2.4932372   0.46699803   -2.0262392   0.12519436     11360.36     1000 
  998000    0.3187655   -2.5098077    0.4776701   -2.0321376   0.13222938    11348.221     1000 
 1000000   0.32191238   -2.4958636    0.4823857   -2.0134779   0.13412549    11321.051     1000 
 1002000   0.30996123   -2.5373453    0.4644769   -2.0728684   0.13696179    11328.281     1000 
 1004000   0.31792228   -2.5324399   0.47640654   -2.0560334    0.1257226    11351.366     1000 
 1006000   0.31905828   -2.5028022   0.47810884   -2.0246933   0.12875442    11360.958     1000 
 1008000   0.32705907   -2.4717983   0.49009801   -1.9817002   0.12403513     11374.43     1000 
 1010000    0.3358049   -2.4897651   0.50320364   -1.9865615   0.13844542    11298.467     1000 
 1012000   0.33379039   -2.5351405    0.5001849   -2.0349556   0.13527075    11408.501     1000 
 1014000   0.32567072    -2.512637   0.48801757   -2.0246194   0.13440694    11327.063     1000 
 1016000   0.32484943   -2.5370198   0.48678687    -2.050233    0.1367958    11298.035     1000 
 1018000   0.32857368   -2.5191145   0.49236767   -2.0267468   0.11894264    11447.403     1000 
 1020000   0.31771805   -2.5554085   0.47610049    -2.079308   0.12776529    11366.728     1000 
 1022000   0.31832582   -2.5004108   0.47701124   -2.0233995   0.12221472    11365.721     1000 
 1024000   0.33930606   -2.5473727   0.50845013   -2.0389226    0.1261582    11391.221     1000 
 1026000   0.31496955   -2.5432243   0.47198187   -2.0712424   0.13175382    11396.976     1000 
 1028000    0.3115298   -2.5070321    0.4668274   -2.0402047   0.12112478    11400.989     1000 
 1030000   0.32614256   -2.5148242   0.48872463   -2.0260996   0.12214145    11434.611     1000 
 1032000   0.31186452   -2.5370753   0.46732898   -2.0697463   0.13140774    11311.713     1000 
 1034000   0.33241652   -2.5019526   0.49812615   -2.0038265   0.12926011    11350.279     1000 
 1036000   0.31523012   -2.5313937   0.47237234   -2.0590214   0.12366046    11450.423     1000 
 1038000   0.32441096   -2.5285111   0.48612982   -2.0423813   0.12545804    11386.009     1000 
 1040000   0.31901794   -2.5076954   0.47804838   -2.0296471   0.14057359    11287.507     1000 
 1042000   0.33285973   -2.5175687   0.49879031   -2.0187784   0.13430156    11383.774     1000 
 1044000   0.32770771   -2.5443643   0.49107001   -2.0532943   0.12148851    11387.333     1000 
 1046000   0.31428466   -2.5572319   0.47095557   -2.0862763   0.13264941    11380.207     1000 
 1048000   0.31311756   -2.4992321   0.46920667   -2.0300254   0.12660771    11359.767     1000 
 1050000    0.3298409   -2.5054881   0.49426659   -2.0112215   0.11526452    11433.706     1000 
 1052000   0.33401115   -2.5172476    0.5005157   -2.0167319   0.13069343    11364.039     1000 
 1054000   0.32262352   -2.4975092   0.48345135   -2.0140578   0.13046248    11358.691     1000 
 1056000   0.31946903   -2.5135568   0.47872434   -2.0348325   0.13391665    11326.159     1000 
 1058000   0.32177503   -2.5295937   0.48217988   -2.0474138   0.13025124    11380.999     1000 
 1060000   0.31779164   -2.5236306   0.47621077   -2.0474199   0.12906573    11357.179     1000 
 1062000   0.32413914   -2.5528085   0.48572251    -2.067086    0.1252902    11426.745     1000 
 1064000   0.33366644   -2.5034921   0.49999917   -2.0034929   0.13769563    11294.505     1000 
 1066000   0.31791684   -2.5052089   0.47639839   -2.0288105   0.12641341    11385.754     1000 
 1068000   0.32297316   -2.5206851   0.48397528   -2.0367098   0.12332397    11335.455     1000 
 1070000   0.33221899   -2.5510626   0.49783016   -2.0532324    0.1118203    11536.647     1000 
 1072000   0.32268731     -2.54072   0.48354694   -2.0571731   0.13807982    11341.344     1000 
 1074000   0.32100931   -2.5271468   0.48103246   -2.0461143   0.13546624    11329.044     1000 
 1076000   0.30292933   -2.5157634   0.45393961   -2.0618238   0.12184627    11454.027     1000 
 1078000   0.32907865    -2.483149   0.49312436   -1.9900247   0.13551295    11317.962     1000 
 1080000   0.32369166   -2.5433034   0.48505196   -2.0582515   0.12723598     11438.92     1000 
 1082000    0.3367041   -2.4921841    0.5045511    -1.987633   0.12977619    11333.717     1000 
 1084000   0.30989933   -2.5336777   0.46438414   -2.0692936   0.11598582     11479.42     1000 
 1086000   0.31721763   -2.5111968   0.47535061   -2.0358462   0.13934571    11309.871     1000 
 1088000   0.33037258   -2.5038018   0.49506332   -2.0087385   0.12944012    11393.464     1000 
 1090000   0.33408496   -2.5335394   0.50062631    -2.032913   0.12433724    11378.459     1000 
 1092000   0.32994473   -2.5164195   0.49442217   -2.0219973   0.13183719    11311.072     1000 
 1094000   0.31185873   -2.5458658   0.46732031   -2.0785455   0.11564046    11471.716     1000 
 1096000   0.30746598   -2.5346284   0.46073777   -2.0738906   0.14082672    11338.362     1000 
 1098000   0.31965412    -2.547143    0.4790017   -2.0681413   0.12207558    11370.665     1000 
 1100000   0.30667649   -2.5119299   0.45955472   -2.0523752   0.12647941    11392.905     1000 
 1102000   0.30755074    -2.483688   0.46086478   -2.0228233   0.11992797    11350.077     1000 
 1104000   0.31893766    -2.525069   0.47792808   -2.0471409   0.12902324    11406.522     1000 
 1106000   0.32569897   -2.5204401    0.4880599   -2.0323802   0.12993684    11342.842     1000 
 1108000   0.30396024   -2.5286823   0.45548442   -2.0731979   0.12731391    11387.717     1000 
 1110000   0.31254828   -2.5400203    0.4683536   -2.0716667    0.1383208    11347.636     1000 
 1112000    0.3352604   -2.5099796   0.50238771   -2.0075919   0.12635353    11347.639     1000 
 1114000   0.31147961   -2.5142018   0.46675219   -2.0474496   0.13278255    11358.609     1000 
 1116000   0.31063208   -2.5463587   0.46548217   -2.0808765   0.11951262    11441.657     1000 
 1118000    0.3189915   -2.4901108   0.47800876   -2.0121021   0.13871596    11285.335     1000 
 1120000   0.31433753   -2.4998656   0.47103479   -2.0288308   0.12381157    11421.607     1000 
 1122000   0.32263048   -2.5286409   0.48346178   -2.0451791   0.12867132    11413.266     1000 
 1124000    0.3162457   -2.5122173   0.47389418   -2.0383232   0.12950118    11299.376     1000 
 1126000    0.3092064   -2.5146304   0.46334579   -2.0512846    0.1232205     11404.02     1000 
 1128000   0.32818337    -2.539519   0.49178278   -2.0477362   0.14030727    11310.066     1000 
 1130000   0.31178962   -2.5348737   0.46721675    -2.067657    0.1280358    11398.868     1000 
 1132000   0.33416471   -2.5310932   0.50074582   -2.0303473   0.12421116    11453.441     1000 
 1134000    0.3280598   -2.5321892   0.49159761   -2.0405916   0.12823598    11413.145     1000 
 1136000   0.31206972   -2.5083817   0.46763648   -2.0407452   0.13521494    11340.724     1000 
 1138000   0.31294869   -2.5312835   0.46895361   -2.0623299   0.12883842    11379.313     1000 
 1140000   0.30958478    -2.530484   0.46391279   -2.0665712   0.12451299    11443.376     1000 
 1142000   0.32505001   -2.4957692   0.48708745   -2.0086817   0.14364619    11290.909     1000 
 1144000   0.32915667   -2.5136807   0.49324127   -2.0204394   0.11907474    11424.995     1000 
 1146000   0.31769349   -2.5460094    0.4760637   -2.0699457   0.12288033    11431.946     1000 
 1148000   0.33110154   -2.5207452   0.49615565   -2.0245896    0.1302931    11398.976     1000 
 1150000   0.32322157   -2.5167787   0.48434753   -2.0324311   0.13210929    11362.015     1000 
 1152000   0.31832121   -2.5063247   0.47700434   -2.0293204   0.13342988    11321.134     1000 
 1154000   0.32125786   -2.5169594    0.4814049   -2.0355545   0.13030119    11412.153     1000 
 1156000   0.33813914   -2.5328744    0.5067015   -2.0261729   0.12673463     11404.74     1000 
 1158000   0.31713733   -2.5147502   0.47523029   -2.0395199   0.12715236    11364.231     1000 
 1160000   0.32708473   -2.4927372   0.49013646   -2.0026007   0.13234364    11346.062     1000 
 1162000   0.31423255   -2.5422499   0.47087747   -2.0713724   0.11870642    11491.504     1000 
 1164000   0.32920865   -2.5448216   0.49331916   -2.0515024   0.12770674    11440.038     1000 
 1166000   0.32017854   -2.5260656   0.47978754   -2.0462781   0.13377925    11385.176     1000 
 1168000   0.32478174   -2.5366138   0.48668544   -2.0499283   0.12282735    11469.446     1000 
 1170000   0.30760486   -2.5170478   0.46094589    -2.056102   0.12125012    11373.855     1000 
 1172000   0.32570864   -2.5221913    0.4880744   -2.0341169   0.11548766    11494.923     1000 
 1174000    0.3310328   -2.5471063   0.49605265   -2.0510537    0.1341798    11299.974     1000 
 1176000    0.3232862   -2.5190275   0.48444437   -2.0345831   0.12939614    11405.216     1000 
 1178000   0.32305526   -2.5183471    0.4840983   -2.0342488   0.13364365    11404.031     1000 
 1180000   0.32252104   -2.5097607   0.48329778   -2.0264629   0.13999792    11283.661     1000 
 1182000   0.32007377   -2.5059237   0.47963055   -2.0262931   0.13286943    11286.599     1000 
 1184000    0.3271634   -2.5162442   0.49025436   -2.0259898     0.134423    11336.593     1000 
 1186000   0.31407825   -2.5220888   0.47064625   -2.0514426   0.13474533    11363.265     1000 
 1188000    0.3127466   -2.5232016   0.46865077   -2.0545508   0.13195731    11366.377     1000 
 1190000   0.30819312   -2.5283431    0.4618274   -2.0665157   0.11884402    11402.529     1000 
 1192000   0.33622784   -2.5453997   0.50383741   -2.0415623   0.12324361    11449.278     1000 
 1194000   0.32289726   -2.4858033   0.48386154   -2.0019417   0.13053611    11327.502     1000 
 1196000   0.32256307   -2.5543993   0.48336076   -2.0710386   0.11882775    11461.707     1000 
 1198000   0.31431258   -2.5533623    0.4709974   -2.0823649   0.12623784    11403.201     1000 
 1200000   0.31607759   -2.5365626   0.47364227   -2.0629203   0.12214351    11448.369     1000 
 1202000    0.3248147   -2.5279519   0.48673483   -2.0412171   0.12714193    11385.548     1000 
 1204000   0.34495269   -2.5177868    0.5169116   -2.0008752   0.12584651     11384.09     1000 
 1206000   0.31667132   -2.5191436   0.47453198   -2.0446116   0.13514951    11367.133     1000 
 1208000   0.33512173   -2.5199823   0.50217992   -2.0178024   0.14172513     11343.48     1000 
 1210000   0.31939365   -2.5020453   0.47861138   -2.0234339   0.13971083    11364.342     1000 
 1212000   0.31981986   -2.5052751   0.47925007    -2.026025   0.13884652    11370.795     1000 
 1214000   0.31250931   -2.5398626    0.4682952   -2.0715674   0.12563107    11365.981     1000 
 1216000   0.32651092   -2.4944458   0.48927662   -2.0051692   0.13894325    11258.652     1000 
 1218000   0.30838032   -2.5407257   0.46210791   -2.0786178     0.130082    11377.198     1000 
 1220000   0.33434602   -2.5660607   0.50101751   -2.0650432   0.13107738    11339.929     1000 
 1222000   0.31718065   -2.5155921    0.4752952   -2.0402969   0.12998072     11373.08     1000 
 1224000   0.32447216   -2.5079501   0.48622153   -2.0217286   0.14170772     11281.32     1000 
 1226000    0.3113658   -2.4966887   0.46658166    -2.030107   0.12880415    11356.789     1000 
 1228000   0.31684413   -2.5074628   0.47479093   -2.0326719   0.11999098    11424.082     1000 
 1230000   0.31012994   -2.5174358   0.46472972   -2.0527061   0.13581325     11316.41     1000 
 1232000   0.31302033   -2.5364687   0.46906096   -2.0674078   0.12440633    11398.428     1000 
 1234000   0.32721047   -2.5051141   0.49032488   -2.0147892   0.13172739    11342.244     1000 
 1236000   0.32838549   -2.5517914   0.49208566   -2.0597057    0.1284036    11439.566     1000 
 1238000   0.33946236     -2.51137   0.50868434   -2.0026857   0.12672863    11365.265     1000 
 1240000    0.3013689    -2.543507   0.45160129   -2.0919057   0.12820975    11440.078     1000 
 1242000   0.30842184    -2.516929   0.46217012   -2.0547589   0.13001174    11351.569     1000 
 1244000   0.33135532   -2.4969771   0.49653594   -2.0004412   0.14238114    11269.001     1000 
 1246000   0.31681538   -2.5061613   0.47474784   -2.0314135   0.12685077    11335.565     1000 
 1248000    0.3109451   -2.5427729   0.46595123   -2.0768216   0.13058054    11363.111     1000 
 1250000   0.32980614   -2.5105733    0.4942145   -2.0163588   0.13090337      11345.5     1000 
 1252000   0.32125963   -2.5132836   0.48140755   -2.0318761   0.13098065    11388.435     1000 
 1254000   0.31356673   -2.5086746   0.46987975   -2.0387948   0.13275504    11347.425     1000 
 1256000   0.32803714   -2.5406832   0.49156365   -2.0491196   0.12223543    11403.729     1000 
 1258000   0.31654445   -2.4989696   0.47434186   -2.0246277   0.13617925    11330.598     1000 
 1260000   0.31939142   -2.5268201   0.47860804   -2.0482121   0.13879124    11352.556     1000 
 1262000   0.32643148   -2.5340882   0.48915758   -2.0449306   0.12240869    11427.143     1000 
 1264000   0.31262808   -2.5064205   0.46847318   -2.0379474    0.1459438    11213.888     1000 
 1266000   0.32162505   -2.5234804   0.48195513   -2.0415252   0.13032538      11323.5     1000 
 1268000   0.31952264   -2.5723185   0.47880468   -2.0935138   0.13007788    11382.712     1000 
 1270000   0.32241464   -2.5402384   0.48313833   -2.0571001   0.12762473    11386.488     1000 
 1272000   0.33201366   -2.5301914   0.49752247   -2.0326689   0.13230326    11425.835     1000 
 1274000   0.30597087   -2.5324213   0.45849736   -2.0739239   0.12112865    11456.113     1000 
 1276000   0.31398516        -2.54   0.47050676   -2.0694932   0.13276216    11322.969     1000 
 1278000   0.31704997   -2.5257352   0.47509939   -2.0506358   0.11705032     11346.26     1000 
 1280000   0.32326539   -2.5322113   0.48441319   -2.0477981   0.12413328    11451.889     1000 
 1282000   0.33111939   -2.5317639    0.4961824   -2.0355815   0.13363473    11387.513     1000 
 1284000   0.31192434   -2.5163921   0.46741862   -2.0489734   0.11337981    11529.747     1000 
 1286000   0.32199553   -2.4993704    0.4825103   -2.0168601   0.12550409    11372.791     1000 
 1288000   0.31715821   -2.5241155   0.47526158   -2.0488539   0.12418979    11382.025     1000 
 1290000   0.32390422   -2.5448549   0.48537047   -2.0594844   0.10990722    11509.514     1000 
 1292000   0.31259014    -2.485435   0.46841633   -2.0170187   0.13430229    11313.309     1000 
 1294000   0.32234098   -2.5123817   0.48302796   -2.0293537   0.12915744    11361.057     1000 
 1296000   0.31734482   -2.4844683   0.47554121   -2.0089271   0.13245473    11337.786     1000 
 1298000   0.34022926   -2.5221189   0.50983354   -2.0122854   0.13256837    11397.515     1000 
 1300000   0.31660307   -2.5090381    0.4744297   -2.0346084   0.13335445    11388.192     1000 
 1302000   0.32974432   -2.5297875   0.49412187   -2.0356656   0.12887648    11388.482     1000 
 1304000   0.31962829   -2.5127354   0.47896299   -2.0337724   0.13251774    11379.732     1000 
 1306000   0.32364547   -2.4845678   0.48498274    -1.999585   0.13337074     11371.32     1000 
 1308000   0.32181665   -2.5214034   0.48224225   -2.0391611   0.12803785    11362.532     1000 
 1310000   0.32007729   -2.5121058   0.47963581     -2.03247   0.12530582     11374.97     1000 
 1312000   0.32384811   -2.5065725    0.4852864   -2.0212861   0.13371134    11406.067     1000 
 1314000   0.32411943   -2.5149085   0.48569296   -2.0292156   0.12739203     11369.65     1000 
 1316000   0.32798691   -2.4834883   0.49148839   -1.9919999   0.13326333    11275.933     1000 
 1318000   0.32816321   -2.5191475   0.49175257   -2.0273949   0.13387865    11327.508     1000 
 1320000    0.3163966   -2.5005501   0.47412031   -2.0264298    0.1294833    11429.341     1000 
 1322000   0.31715467   -2.5003951   0.47525627   -2.0251388   0.12949869    11314.514     1000 
 1324000   0.31657748   -2.5123964   0.47439135    -2.038005   0.12753703    11332.875     1000 
 1326000   0.30680364   -2.5767135   0.45974525   -2.1169683   0.12346069    11426.038     1000 
 1328000   0.31462142   -2.5180241   0.47146019   -2.0465639   0.12875537    11368.807     1000 
 1330000    0.3186645   -2.5046542   0.47751876   -2.0271354   0.12509148    11401.042     1000 
 1332000   0.31509928   -2.5025672   0.47217627   -2.0303909   0.12525624    11422.024     1000 
 1334000   0.30793115   -2.5340043   0.46143483   -2.0725695   0.13197186    11378.171     1000 
 1336000   0.32521917   -2.5439016   0.48734093   -2.0565606    0.1326502     11386.75     1000 
 1338000   0.32518589   -2.4672725   0.48729106   -1.9799815   0.13538677    11307.009     1000 
 1340000   0.31647538   -2.5509784   0.47423836     -2.07674   0.13005701    11350.721     1000 
 1342000   0.31849725   -2.4851239   0.47726814   -2.0078558   0.13097866    11278.501     1000 
 1344000   0.33498427    -2.544043   0.50197392   -2.0420691   0.11922374    11445.948     1000 
 1346000   0.31654756   -2.4967162   0.47434653   -2.0223696   0.13461429     11343.05     1000 
 1348000    0.3062976   -2.5489266   0.45898695   -2.0899396     0.134297    11265.337     1000 
 1350000   0.32550124    -2.553783    0.4877636   -2.0660194   0.12120281    11503.087     1000 
 1352000   0.32450722   -2.5200617   0.48627407   -2.0337876   0.12701719    11408.827     1000 
 1354000   0.32658732   -2.5495672   0.48939109   -2.0601761   0.13244873    11385.642     1000 
 1356000   0.31601845   -2.4996854   0.47355364   -2.0261318    0.1399439    11315.625     1000 
 1358000   0.32991208   -2.5538367   0.49437326   -2.0594635    0.1320548    11378.729     1000 
 1360000    0.3095051   -2.5465697   0.46379339   -2.0827763   0.11830198    11493.204     1000 
 1362000   0.31068238   -2.5075781   0.46555755   -2.0420205   0.12912835    11394.303     1000 
 1364000    0.3207398   -2.5481478   0.48062858   -2.0675193   0.12106227    11487.662     1000 
 1366000   0.32995889   -2.5486771    0.4944434   -2.0542337   0.13963057    11344.429     1000 
 1368000   0.32102119    -2.518281   0.48105025   -2.0372307   0.12202729    11398.557     1000 
 1370000   0.32750612   -2.5436942   0.49076791   -2.0529263   0.12062734     11444.21     1000 
 1372000   0.30798326   -2.5212017   0.46151292   -2.0596888    0.1324647    11328.923     1000 
 1374000   0.32147264   -2.5378653   0.48172675   -2.0561386   0.12318383    11437.067     1000 
 1376000   0.32185277   -2.5169678   0.48229638   -2.0346714    0.1284536    11426.424     1000 
 1378000   0.31973572    -2.522052   0.47912398    -2.042928   0.11984299    11442.741     1000 
 1380000   0.30937617   -2.5040285   0.46360019   -2.0404283   0.12726491    11374.468     1000 
 1382000   0.32786031   -2.5178428   0.49129867   -2.0265441   0.13822703    11330.277     1000 
 1384000   0.31555912   -2.5191273   0.47286534    -2.046262   0.13507312    11319.957     1000 
 1386000   0.32481356   -2.5243788   0.48673312   -2.0376457   0.13162779    11341.882     1000 
 1388000   0.32723653   -2.5155385   0.49036393   -2.0251745   0.13355788    11324.978     1000 
 1390000   0.31693841   -2.5232791    0.4749322   -2.0483469   0.13409275    11341.473     1000 
 1392000   0.31597435   -2.4949143   0.47348756   -2.0214267   0.11704874     11405.58     1000 
 1394000   0.31881745   -2.5450346   0.47774796   -2.0672866   0.13846012    11302.284     1000 
 1396000   0.30152191   -2.5143845   0.45183058   -2.0625539   0.12459515    11426.579     1000 
 1398000   0.34075572   -2.5816781   0.51062245   -2.0710557   0.13002177    11442.693     1000 
 1400000    0.3154946   -2.4908534   0.47276866   -2.0180848    0.1326745    11362.297     1000 
 1402000   0.30477064   -2.5167277   0.45669881   -2.0600289   0.12287892    11332.983     1000 
 1404000   0.31866202   -2.5141546   0.47751504   -2.0366395   0.13135972    11365.514     1000 
 1406000   0.30164888   -2.4992308   0.45202085   -2.0472099   0.12613273    11478.253     1000 
 1408000   0.33104956   -2.5388876   0.49607777   -2.0428099   0.11646975    11510.017     1000 
 1410000   0.33278867   -2.5005069   0.49868382   -2.0018231   0.13139596    11329.989     1000 
 1412000   0.32185406   -2.5376734    0.4822983   -2.0553751   0.13241344    11340.759     1000 
 1414000   0.33048105    -2.557311   0.49522585   -2.0620851   0.12032236    11421.141     1000 
 1416000   0.33458538   -2.5472799   0.50137619   -2.0459037   0.13143933    11392.377     1000 
 1418000   0.31080254   -2.5303917    0.4657376   -2.0646541   0.12843024    11390.502     1000 
 1420000   0.31961006   -2.5222895   0.47893567   -2.0433538   0.12522276    11386.003     1000 
 1422000   0.33386736   -2.5284217   0.50030023   -2.0281215   0.13217534    11348.998     1000 
 1424000    0.3193254   -2.5465032   0.47850911    -2.067994   0.13426086    11387.275     1000 
 1426000   0.33387934    -2.522589   0.50031818   -2.0222708   0.12926047    11393.635     1000 
 1428000   0.30093509   -2.5097591   0.45095123   -2.0588079   0.11538847    11441.636     1000 
 1430000    0.3233576   -2.5502838   0.48455136   -2.0657324   0.12174932    11499.234     1000 
 1432000   0.31005718   -2.5281216   0.46462069   -2.0635009   0.13084442    11407.323     1000 
 1434000   0.30587934    -2.511905   0.45836018   -2.0535448   0.13157536    11261.425     1000 
 1436000   0.31095196   -2.4866909   0.46596151   -2.0207294   0.12936225    11322.052     1000 
 1438000   0.32617667   -2.4969691   0.48877574   -2.0081934   0.12484872    11366.032     1000 
 1440000   0.32313621   -2.5056648   0.48421961   -2.0214451   0.13106761    11403.631     1000 
 1442000   0.32499609   -2.5230306   0.48700664   -2.0360239   0.12489732    11409.695     1000 
 1444000   0.30821251   -2.5349527   0.46185644   -2.0730963   0.13457925    11293.795     1000 
 1446000   0.32251711   -2.5451337   0.48329189   -2.0618418   0.12770949    11373.528     1000 
 1448000   0.31093535   -2.5130643   0.46593662   -2.0471277   0.12464678    11453.323     1000 
 1450000   0.32464595   -2.5215402   0.48648195   -2.0350582   0.11543286    11437.612     1000 
 1452000   0.31360586   -2.5344933   0.46993838   -2.0645549   0.13170526    11306.691     1000 
 1454000   0.32346173    -2.514357    0.4847074   -2.0296496   0.14768139    11284.202     1000 
 1456000   0.33066032   -2.5188573   0.49549448   -2.0233628   0.12108119    11471.603     1000 
 1458000   0.32101176   -2.5123869   0.48103612   -2.0313508   0.12383048    11415.214     1000 
 1460000   0.31787591   -2.5237309   0.47633705   -2.0473939   0.13948094    11335.081     1000 
 1462000   0.31366681   -2.5432572   0.47002971   -2.0732275   0.12377116    11386.418     1000 
 1464000   0.31774106   -2.5017543   0.47613498   -2.0256193   0.11677792    11469.588     1000 
 1466000   0.32175903   -2.5011644   0.48215591   -2.0190085   0.14516178    11233.208     1000 
 1468000    0.3210618   -2.5415336   0.48111111   -2.0604225   0.12852429     11464.88     1000 
 1470000   0.32947334   -2.5491587   0.49371579   -2.0554429   0.14426644    11221.191     1000 
 1472000   0.31552968   -2.5707777   0.47282123   -2.0979565   0.12167841    11466.375     1000 
 1474000   0.31725031    -2.489854   0.47539959   -2.0144544   0.13981288    11241.141     1000 
 1476000   0.31881462   -2.5324667   0.47774371    -2.054723   0.13179817    11392.981     1000 
 1478000   0.31884116   -2.5437638   0.47778347   -2.0659804   0.11733773    11455.349     1000 
 1480000   0.32242637   -2.5029366   0.48315592   -2.0197807   0.13007317     11374.82     1000 
 1482000   0.32628569   -2.4759412   0.48893911   -1.9870021    0.1306336    11294.461     1000 
 1484000    0.3159575   -2.5159553   0.47346232    -2.042493   0.13153592    11404.632     1000 
 1486000    0.3265101   -2.5146836   0.48927538   -2.0254083   0.12130074    11412.347     1000 
 1488000   0.32526528   -2.5414481   0.48741003   -2.0540381   0.13428519    11339.858     1000 
 1490000   0.31720998   -2.5554986   0.47533915   -2.0801594    0.1224372    11467.419     1000 
 1492000   0.34065058   -2.5349743   0.51046489   -2.0245094   0.13738348    11324.081     1000 
 1494000   0.32582367   -2.5138582   0.48824677   -2.0256114    0.1306183    11317.968     1000 
 1496000   0.31387226   -2.5424008   0.47033758   -2.0720632   0.11461046    11498.573     1000 
 1498000   0.32244629   -2.5121953   0.48318577   -2.0290096   0.13174794    11364.731     1000 
 1500000   0.33041701   -2.5105863   0.49512988   -2.0154564   0.12781768    11350.605     1000 
 1502000   0.31052318   -2.5556293   0.46531899   -2.0903104   0.11652828    11452.158     1000 
 1504000   0.31500155   -2.5325938   0.47202982    -2.060564   0.11859251    11456.984     1000 
 1506000    0.3210995   -2.4949771   0.48116761   -2.0138095   0.13649519    11277.818     1000 
 1508000   0.31974519   -2.5234155   0.47913816   -2.0442774   0.13221448    11387.609     1000 
 1510000   0.30347147   -2.5497192   0.45475199   -2.0949672   0.12032027    11468.359     1000 
 1512000   0.31431558   -2.5190765   0.47100189   -2.0480746   0.13359601    11315.232     1000 
 1514000   0.31371607    -2.520076   0.47010353   -2.0499724   0.12470093    11378.477     1000 
 1516000   0.31023365   -2.5391816   0.46488512   -2.0742965   0.13722355    11332.889     1000 
 1518000   0.32994808   -2.5324562   0.49442719    -2.038029   0.14099335    11397.478     1000 
 1520000   0.32167811   -2.5023176   0.48203465    -2.020283     0.132281    11387.893     1000 
 1522000   0.31103315   -2.5470311   0.46608318    -2.080948   0.13507432    11360.352     1000 
 1524000   0.30274694   -2.5660341   0.45366628   -2.1123678   0.14246753    11311.466     1000 
 1526000   0.32010269    -2.544589   0.47967387   -2.0649151   0.11866166    11435.416     1000 
 1528000   0.32583232   -2.5186288   0.48825974   -2.0303691    0.1377855    11346.785     1000 
 1530000   0.31446354   -2.4831691   0.47122362   -2.0119455   0.13606543    11277.645     1000 
 1532000   0.31874893   -2.5380576   0.47764528   -2.0604123   0.12786068    11404.103     1000 
 1534000   0.31239348   -2.5196698   0.46812164   -2.0515482   0.13410674    11341.401     1000 
 1536000   0.31292394   -2.5288273   0.46891652   -2.0599108   0.12985636    11363.937     1000 
 1538000   0.32622885   -2.5010632   0.48885394   -2.0122093   0.13326124     11329.33     1000 
 1540000   0.31893979   -2.4829352   0.47793128   -2.0050039   0.13120732    11268.975     1000 
 1542000   0.32056763   -2.5025875   0.48037059   -2.0222169   0.13959342    11313.484     1000 
 1544000   0.31307828   -2.5287996    0.4691478   -2.0596518    0.1152572    11516.852     1000 
 1546000   0.31047248    -2.537321   0.46524301    -2.072078   0.13100803    11383.894     1000 
 1548000    0.3153102   -2.4831221   0.47249234   -2.0106297   0.13600287    11323.758     1000 
 1550000   0.33011264   -2.5179482   0.49467378   -2.0232744   0.13699904    11331.603     1000 
 1552000   0.33461043   -2.5585047   0.50141373    -2.057091   0.12775785    11402.751     1000 
 1554000   0.33459742   -2.5204188   0.50139424   -2.0190246    0.1386244    11326.282     1000 
 1556000   0.32427972   -2.5209942   0.48593316    -2.035061   0.14019254    11257.563     1000 
 1558000   0.31844237   -2.4956767   0.47718589   -2.0184908   0.12966852      11356.1     1000 
 1560000   0.32078449   -2.5044643   0.48069555   -2.0237688   0.13837777    11264.012     1000 
 1562000   0.31340236    -2.527383   0.46963343   -2.0577496   0.14573176    11256.557     1000 
 1564000   0.31395375   -2.5201965   0.47045969   -2.0497368   0.12516964    11382.355     1000 
 1566000   0.32456441   -2.5025237   0.48635977   -2.0161639   0.13417228    11299.404     1000 
 1568000   0.31389728   -2.4977585   0.47037508   -2.0273834   0.12868262    11304.738     1000 
 1570000   0.31971422   -2.4953131   0.47909176   -2.0162214   0.13568276    11373.876     1000 
 1572000   0.31589322   -2.5041716   0.47336599   -2.0308056   0.12919885    11405.639     1000 
 1574000   0.32441636   -2.5391735   0.48613792   -2.0530355   0.13691116    11343.999     1000 
 1576000   0.32678097   -2.5510993   0.48968129    -2.061418   0.13076694    11380.003     1000 
 1578000   0.31411203   -2.4962437   0.47069688   -2.0255469    0.1237193    11402.013     1000 
 1580000   0.31852209   -2.5114203   0.47730535   -2.0341149   0.13001498    11346.249     1000 
 1582000   0.31190045    -2.514898   0.46738283   -2.0475152   0.12704214     11345.24     1000 
 1584000   0.33251252   -2.5409637   0.49827001   -2.0426936   0.12867907     11352.66     1000 
 1586000   0.32606534   -2.5143107   0.48860891   -2.0257017   0.11898341    11476.862     1000 
 1588000    0.3225498   -2.5312551   0.48334087   -2.0479142   0.12918388     11377.32     1000 
[...]
 2614000   0.32800679   -2.4920773   0.49151818   -2.0005591   0.13616852    11296.543     1000 
 2616000   0.32185621   -2.5317034   0.48230153   -2.0494019   0.13239716    11372.195     1000 
 2618000   0.31644538   -2.5364933   0.47419341   -2.0622999   0.12344307    11415.337     1000 
 2620000   0.31973315   -2.5309667   0.47912012   -2.0518466    0.1231693    11366.415     1000 
 2622000    0.3213068   -2.5020021   0.48147824   -2.0205239   0.13310412    11349.901     1000 
 2624000   0.33105003   -2.5250194   0.49607847   -2.0289409   0.13662622    11403.331     1000 
 2626000   0.32429693   -2.5032556   0.48595895   -2.0172967   0.12557597     11305.41     1000 
 2628000   0.31336587   -2.5395311   0.46957875   -2.0699524   0.13375066    11351.883     1000 
 2630000   0.32451859   -2.5287527   0.48629111   -2.0424616   0.13343035    11345.103     1000 
 2632000   0.31398673   -2.5101683   0.47050911   -2.0396592   0.12695124    11394.497     1000 
 2634000   0.31050579    -2.507052   0.46529293    -2.041759    0.1250584    11364.483     1000 
 2636000   0.32579019   -2.5269894   0.48819659   -2.0387928   0.10366221    11542.319     1000 
 2638000   0.31283227   -2.4973611   0.46877915    -2.028582   0.14178662    11347.211     1000 
 2640000   0.32814024   -2.5061523   0.49171816   -2.0144342   0.12464225    11414.741     1000 
 2642000   0.33914072   -2.5080729   0.50820237   -1.9998706   0.13503066    11381.962     1000 
 2644000   0.31581529   -2.5057082   0.47324921    -2.032459   0.12985736    11376.171     1000 
 2646000   0.30656371   -2.5351557   0.45938571     -2.07577   0.12173141    11408.162     1000 
 2648000   0.31861912   -2.5225142   0.47745076   -2.0450634   0.12702974    11399.251     1000 
 2650000   0.33025814   -2.5383926   0.49489182   -2.0435008   0.12905423    11381.603     1000 
 2652000   0.30829549   -2.5165369   0.46198079   -2.0545561   0.13591393    11344.796     1000 
 2654000   0.31603371   -2.5326087   0.47357651   -2.0590322    0.1290821    11381.044     1000 
 2656000   0.31951278   -2.5467203    0.4787899   -2.0679304   0.12894944    11371.836     1000 
 2658000   0.31702828   -2.5039238   0.47506688   -2.0288569   0.13503996    11318.499     1000 
 2660000   0.32112292   -2.5093142   0.48120269   -2.0281115   0.13664231    11319.804     1000 
 2662000   0.32305331   -2.5466441   0.48409539   -2.0625487   0.12761852    11364.061     1000 
 2664000   0.30856472   -2.5219301   0.46238424   -2.0595459   0.13129965    11260.658     1000 
 2666000   0.34569363   -2.5336751   0.51802191   -2.0156532   0.13348119    11356.497     1000 
 2668000   0.32229129   -2.5229796    0.4829535   -2.0400261    0.1419015    11286.198     1000 
 2670000   0.30675823   -2.5238671    0.4596772   -2.0641899   0.11785209     11403.03     1000 
 2672000   0.31190623   -2.5148017   0.46739148   -2.0474102   0.12916892    11418.928     1000 
 2674000   0.32024725   -2.5060416    0.4798905   -2.0261511   0.13065954     11340.62     1000 
 2676000   0.32629186   -2.5426817   0.48894835   -2.0537333   0.12605117    11449.005     1000 
 2678000   0.31758357   -2.5159922   0.47589898   -2.0400932   0.12954677    11419.155     1000 
 2680000   0.32137745    -2.526366   0.48158411   -2.0447819   0.11834583    11466.681     1000 
 2682000   0.32899268   -2.5178956   0.49299553   -2.0249001   0.13124015    11435.995     1000 
 2684000   0.32358274   -2.5162741   0.48488873   -2.0313854   0.12848955    11332.927     1000 
 2686000   0.31299201    -2.532414   0.46901853   -2.0633955   0.12093934    11372.913     1000 
 2688000   0.30957767   -2.4991916   0.46390214   -2.0352895   0.12824963    11388.657     1000 
 2690000   0.31492121   -2.5447024   0.47190944    -2.072793   0.13012947    11403.436     1000 
 2692000   0.32760524   -2.4938997   0.49091645   -2.0029833   0.14063468    11307.212     1000 
 2694000   0.33368097   -2.5189564   0.50002093   -2.0189354   0.12796129    11439.399     1000 
 2696000    0.3135919   -2.5039574   0.46991746   -2.0340399   0.14183592    11344.573     1000 
 2698000   0.31054754   -2.4788725    0.4653555    -2.013517   0.12590209    11388.741     1000 
 2700000   0.32687495   -2.5476299   0.48982211   -2.0578078   0.12173312    11507.299     1000 
 2702000   0.31861534    -2.499876   0.47744509   -2.0224309   0.14186039    11342.007     1000 
 2704000   0.31794251   -2.4960876   0.47643685   -2.0196507   0.13356704    11315.874     1000 
 2706000   0.32052646   -2.5164632    0.4803089   -2.0361543   0.12466422    11390.359     1000 
 2708000   0.30740589    -2.537358   0.46064772   -2.0767103   0.12516112    11385.718     1000 
 2710000   0.31907594    -2.519286    0.4781353   -2.0411507   0.14657693    11291.542     1000 
 2712000    0.3165046   -2.5209118   0.47428214   -2.0466296   0.12431904    11365.465     1000 
 2714000   0.30887512   -2.5387828   0.46284937   -2.0759334   0.11438932    11455.833     1000 
 2716000   0.30946529   -2.5193261   0.46373373   -2.0555924   0.13461966    11320.512     1000 
 2718000   0.32241947   -2.5088875   0.48314557   -2.0257419   0.13828019    11279.875     1000 
 2720000   0.31635553    -2.542901   0.47405877   -2.0688422    0.1247885    11402.068     1000 
 2722000   0.33009261   -2.5005553   0.49464378   -2.0059115   0.12287837    11366.593     1000 
 2724000   0.31163497   -2.5032082     0.466985   -2.0362232    0.1349847    11357.688     1000 
 2726000   0.32175286   -2.5159977   0.48214666   -2.0338511   0.12813742    11333.661     1000 
 2728000   0.33329216   -2.5201079    0.4994383   -2.0206696   0.14388703    11368.016     1000 
 2730000   0.32155029   -2.5222046    0.4818431   -2.0403615   0.14371442    11279.765     1000 
 2732000   0.32986454   -2.5147764   0.49430201   -2.0204744    0.1285674    11360.461     1000 
 2734000   0.31899371   -2.5177074   0.47801208   -2.0396953   0.12889382    11408.481     1000 
 2736000   0.32625436   -2.5425309   0.48889216   -2.0536387   0.12674159    11407.687     1000 
 2738000   0.32188357   -2.5034587   0.48234253   -2.0211162   0.12227699    11489.479     1000 
 2740000   0.32695934   -2.5204331   0.48994857   -2.0304845   0.11868164    11436.739     1000 
 2742000   0.33223185   -2.4957101   0.49784943   -1.9978606    0.1319723    11337.926     1000 
 2744000   0.31536019   -2.5168363   0.47256724   -2.0442691   0.13270223    11354.609     1000 
 2746000   0.32073775   -2.5181818   0.48062551   -2.0375563   0.14341896    11335.552     1000 
 2748000   0.31495167   -2.5026172   0.47195507   -2.0306621   0.12850656        11351     1000 
 2750000   0.31198577   -2.5383436   0.46751067    -2.070833   0.13066769    11385.357     1000 
 2752000   0.31576185   -2.4803136   0.47316914   -2.0071444   0.12730414    11355.211     1000 
 2754000   0.33606953   -2.5248516   0.50360019   -2.0212514   0.13794892    11395.171     1000 
 2756000   0.32182195   -2.5216369   0.48225019   -2.0393867   0.13258671    11363.121     1000 
 2758000   0.33431079   -2.4904758   0.50096472   -1.9895111   0.14814243    11299.738     1000 
 2760000   0.31347092   -2.5098301   0.46973617   -2.0400939   0.13001717    11316.031     1000 
 2762000   0.31293437   -2.4991709   0.46893215   -2.0302388    0.1198681    11409.803     1000 
 2764000    0.3114624   -2.5113218    0.4667264   -2.0445954   0.13446476    11324.684     1000 
 2766000   0.30432411   -2.5358246   0.45602969   -2.0797949   0.12351632    11412.288     1000 
 2768000   0.32413278   -2.5237983   0.48571297   -2.0380853    0.1292917    11340.483     1000 
 2770000   0.31820119   -2.4915557   0.47682448   -2.0147312    0.1320227    11332.869     1000 
 2772000   0.32261725   -2.5325448   0.48344195   -2.0491028   0.13300074    11414.771     1000 
 2774000   0.31121238   -2.4975247   0.46635175   -2.0311729   0.12135102    11435.244     1000 
 2776000   0.31960476   -2.5207414   0.47892773   -2.0418136   0.13095936     11350.63     1000 
 2778000   0.31534908   -2.5070113    0.4725506   -2.0344607   0.12299476    11441.106     1000 
 2780000   0.32607356   -2.5348034   0.48862122   -2.0461822   0.12478458    11434.047     1000 
 2782000   0.32574162   -2.4958884   0.48812382   -2.0077646   0.13166837    11367.796     1000 
 2784000   0.31567044   -2.5233833   0.47303215   -2.0503511   0.13269936    11344.506     1000 
 2786000   0.30933457   -2.5308408   0.46353785   -2.0673029   0.14163954    11317.325     1000 
 2788000   0.31842374   -2.5013254   0.47715797   -2.0241675    0.1313917    11299.461     1000 
 2790000   0.31966421   -2.5229565   0.47901682   -2.0439396   0.13759062    11310.092     1000 
 2792000   0.32626727   -2.5163295   0.48891151    -2.027418   0.13924121    11315.753     1000 
 2794000   0.32253283   -2.5195044   0.48331545    -2.036189   0.12774959    11380.829     1000 
 2796000   0.29484667   -2.5082198   0.44182773   -2.0663921   0.11455866    11457.164     1000 
 2798000   0.32319453   -2.5008237     0.484307   -2.0165167   0.12438485    11349.416     1000 
 2800000   0.31400828   -2.5461571    0.4705414   -2.0756157   0.12200969    11433.451     1000 
 2802000   0.32239146   -2.4929357    0.4831036   -2.0098321   0.12036099    11399.228     1000 
 2804000   0.32507757   -2.5407021   0.48712874   -2.0535734   0.12038878    11503.524     1000 
 2806000   0.31871061   -2.5117824   0.47758785   -2.0341945    0.1283095    11393.782     1000 
 2808000   0.32350644   -2.5261682    0.4847744   -2.0413938    0.1251341    11386.283     1000 
 2810000    0.3209883   -2.5301642   0.48100097   -2.0491632   0.12823291    11325.342     1000 
 2812000   0.32636465   -2.5105817   0.48905742   -2.0215242    0.1255309    11335.567     1000 
 2814000   0.32100315   -2.5001509   0.48102321   -2.0191277   0.12686352    11399.132     1000 
 2816000   0.30789629    -2.501974    0.4613826   -2.0405914    0.1322718    11344.466     1000 
 2818000   0.31750021   -2.5371438   0.47577406   -2.0613698   0.14005812     11327.81     1000 
 2820000   0.33566547   -2.5202269    0.5029947   -2.0172322   0.12645819    11345.517     1000 
 2822000    0.3207501   -2.4851129   0.48064402   -2.0044689   0.12671524    11401.272     1000 
 2824000   0.30978132   -2.5218724   0.46420731   -2.0576651   0.12456614    11454.068     1000 
 2826000    0.3163274   -2.5335461   0.47401661   -2.0595295   0.13684643    11311.121     1000 
 2828000   0.33184872   -2.5124164    0.4972753   -2.0151411   0.12410069    11376.165     1000 
 2830000   0.31920185   -2.5294098   0.47832397   -2.0510858    0.1209358     11377.47     1000 
 2832000   0.31731431   -2.4873396   0.47549549   -2.0118441   0.14166595    11278.914     1000 
 2834000   0.32886146   -2.5219767    0.4927989   -2.0291778   0.12513217    11377.287     1000 
 2836000   0.32101672   -2.4742805   0.48104355   -1.9932369   0.13131723    11378.866     1000 
 2838000   0.32659637   -2.4803556   0.48940467   -1.9909509   0.13462416    11297.964     1000 
 2840000    0.3253352   -2.5354496    0.4875148   -2.0479348   0.13370397    11406.118     1000 
 2842000    0.3249417   -2.5303693   0.48692514   -2.0434442   0.13296077    11371.095     1000 
 2844000   0.33469695   -2.4807929   0.50154338   -1.9792495   0.14015822    11330.351     1000 
 2846000   0.29948235   -2.5220255    0.4487743   -2.0732512   0.12705077    11412.165     1000 
 2848000   0.31720317   -2.5177369   0.47532895   -2.0424079   0.13157634    11388.916     1000 
 2850000   0.31732021   -2.4512846   0.47550433   -1.9757803   0.13432617    11245.911     1000 
 2852000   0.30818822   -2.5083403   0.46182005   -2.0465202    0.1298803    11362.054     1000 
 2854000    0.3110562   -2.5237633   0.46611772   -2.0576456   0.12934063    11374.304     1000 
 2856000   0.31772549   -2.5403701   0.47611164   -2.0642585   0.13373987    11326.027     1000 
 2858000   0.33477871   -2.5376455   0.50166589   -2.0359796   0.13389305    11382.499     1000 
 2860000   0.35553567    -2.555303   0.53277021   -2.0225328   0.12452643    11501.553     1000 
 2862000   0.31903488    -2.495208   0.47807377   -2.0171342   0.13496091    11295.868     1000 
 2864000   0.32133085   -2.5432443   0.48151428     -2.06173   0.13097178     11427.32     1000 
 2866000   0.34472809   -2.4918692   0.51657504   -1.9752942   0.13451936    11372.986     1000 
 2868000   0.31842524   -2.5026957   0.47716023   -2.0255355   0.12339797     11409.96     1000 
 2870000   0.30776659   -2.5092112   0.46118823    -2.048023    0.1270133     11380.23     1000 
 2872000   0.32212201   -2.5384911   0.48269983   -2.0557913   0.12750485    11337.893     1000 
 2874000   0.32578443   -2.5327878   0.48818797   -2.0445998   0.14322705    11287.071     1000 
 2876000    0.3301806   -2.5552109   0.49477563   -2.0604353   0.13093978    11438.042     1000 
 2878000   0.31897213   -2.5297695   0.47797974   -2.0517897   0.14033746    11287.929     1000 
 2880000   0.31180693     -2.52429   0.46724268   -2.0570473   0.12429309    11398.374     1000 
 2882000   0.29872839   -2.5062883   0.44764449   -2.0586438   0.11796252    11433.295     1000 
 2884000   0.32061512   -2.4953581   0.48044175   -2.0149163   0.13677313     11304.21     1000 
 2886000     0.326181   -2.5181742   0.48878224   -2.0293919   0.13093242    11382.448     1000 
 2888000   0.32448407   -2.5321224   0.48623939    -2.045883   0.12711953    11444.441     1000 
 2890000   0.31953553   -2.5385494   0.47882399   -2.0597254   0.12445285    11410.877     1000 
 2892000   0.31730864   -2.5277586     0.475487   -2.0522716   0.12422799    11401.659     1000 
 2894000   0.32348061   -2.5022065   0.48473569   -2.0174708   0.13258488    11325.326     1000 
 2896000   0.32892104   -2.5426113   0.49288817   -2.0497231   0.13203765     11311.48     1000 
 2898000   0.32138585   -2.5277141    0.4815967   -2.0461174   0.13658257    11280.406     1000 
 2900000   0.32472708   -2.5124385   0.48660352    -2.025835   0.12614158    11370.798     1000 
 2902000   0.32566031   -2.5566415   0.48800197   -2.0686395   0.12238241    11466.289     1000 
 2904000   0.30790403   -2.5188036   0.46139419   -2.0574094    0.1219326    11356.546     1000 
 2906000   0.32263222   -2.5171688   0.48346437   -2.0337044   0.12455005    11411.425     1000 
 2908000   0.32279973   -2.5213502   0.48371539   -2.0376348    0.1302291    11416.458     1000 
 2910000   0.31930865   -2.5550983   0.47848401   -2.0766143   0.12156652     11453.15     1000 
 2912000   0.32123978   -2.5287344   0.48137781   -2.0473566   0.11677099    11462.137     1000 
 2914000   0.31718043   -2.5273275   0.47529487   -2.0520327   0.13292706      11360.5     1000 
 2916000   0.31573243   -2.5570121   0.47312505    -2.083887    0.1223067    11442.694     1000 
 2918000   0.32215361    -2.534512   0.48274719   -2.0517648   0.14082988    11295.028     1000 
 2920000   0.31379365   -2.5139063   0.47021979   -2.0436865   0.13048337    11339.629     1000 
 2922000   0.32352163   -2.5044288   0.48479716   -2.0196316   0.13587313    11354.689     1000 
 2924000    0.3147173   -2.5261791   0.47160388   -2.0545752   0.13487852    11373.918     1000 
 2926000   0.31793755   -2.5226567   0.47642941   -2.0462273   0.13586183    11395.167     1000 
 2928000   0.33442846   -2.5144106   0.50114105   -2.0132695   0.12312377    11429.971     1000 
 2930000   0.32048892   -2.5084536   0.48025265    -2.028201   0.14381477    11290.353     1000 
 2932000   0.31952948   -2.5225192   0.47881492   -2.0437043   0.12342547    11401.391     1000 
 2934000   0.31572328   -2.5080004   0.47311134   -2.0348891   0.11690059    11397.701     1000 
 2936000    0.3184663   -2.4832803   0.47722175   -2.0060585   0.13283156    11309.135     1000 
 2938000   0.30987847   -2.5763794   0.46435289   -2.1120265   0.11441927    11516.028     1000 
 2940000    0.3110453   -2.5666565   0.46610138   -2.1005551   0.12315957    11438.004     1000 
 2942000   0.32248385   -2.5591083   0.48324205   -2.0758663   0.11759042    11440.664     1000 
 2944000   0.32200532   -2.5151958   0.48252497   -2.0326708   0.13881951    11314.649     1000 
 2946000   0.31270601   -2.4877789   0.46858996   -2.0191889   0.14026484    11337.182     1000 
 2948000   0.31610393   -2.5146698   0.47368174    -2.040988   0.12461346    11485.961     1000 
 2950000    0.3159527    -2.537236   0.47345512   -2.0637809   0.11845555    11431.902     1000 
 2952000   0.30773195   -2.4942744   0.46113633    -2.033138   0.12472909    11395.721     1000 
 2954000   0.32770485   -2.5112779   0.49106572   -2.0202122   0.14566998    11272.892     1000 
 2956000   0.33018862   -2.5335353   0.49478765   -2.0387476   0.13188707    11380.967     1000 
 2958000   0.31205876   -2.5382314   0.46762006   -2.0706114   0.13298183    11341.889     1000 
 2960000   0.31230154   -2.5168929   0.46798386    -2.048909   0.12018751    11434.079     1000 
 2962000   0.31924739   -2.5186451   0.47839222   -2.0402528   0.13118043    11407.471     1000 
 2964000   0.33495908   -2.5252642   0.50193618    -2.023328   0.12230597    11539.659     1000 
 2966000   0.31776665   -2.5232069   0.47617332   -2.0470336   0.12126808    11360.045     1000 
 2968000   0.32209797   -2.5278216   0.48266381   -2.0451578   0.13942161    11296.105     1000 
 2970000   0.30949326   -2.5429978   0.46377565   -2.0792221   0.12014229    11464.717     1000 
 2972000   0.31973027    -2.522778    0.4791158   -2.0436622   0.13590435    11317.515     1000 
 2974000   0.32041686   -2.5094246   0.48014467     -2.02928    0.1362791    11344.282     1000 
 2976000   0.31893308   -2.5189214   0.47792122   -2.0410002   0.14614454    11261.186     1000 
 2978000   0.31578323   -2.4907838   0.47320117   -2.0175826   0.13623918     11379.92     1000 
 2980000   0.32557676   -2.5284761   0.48787678   -2.0405993   0.12858284     11354.78     1000 
 2982000   0.34059654   -2.5241877   0.51038392   -2.0138038   0.12269252    11407.503     1000 
 2984000   0.31174893   -2.5232222   0.46715576   -2.0560664   0.13355434     11338.02     1000 
 2986000   0.32158806   -2.5366432    0.4818997   -2.0547435   0.12544136    11416.152     1000 
 2988000   0.31156364   -2.5440297   0.46687812   -2.0771516   0.12963273     11377.89     1000 
 2990000   0.31129935   -2.5523255   0.46648208   -2.0858434   0.11043354     11466.17     1000 
 2992000   0.32113272   -2.5453107   0.48121738   -2.0640933   0.12877998    11388.376     1000 
 2994000   0.32750839   -2.5574996   0.49077133   -2.0667283   0.11872023    11494.207     1000 
 2996000   0.31734888   -2.5136872    0.4755473   -2.0381399   0.12616117    11398.699     1000 
 2998000   0.31974866     -2.50437   0.47914336   -2.0252266   0.12443226    11477.164     1000 
 3000000   0.32573173   -2.5010382     0.488109   -2.0129292   0.13054992    11385.398     1000 
Loop time of 7181.64 on 1 procs for 3000000 steps with 1000 atoms

Performance: 180460.194 tau/day, 417.732 timesteps/s
100.0% CPU use with 1 MPI tasks x 1 OpenMP threads

MPI task timing breakdown:
Section |  min time  |  avg time  |  max time  |%varavg| %total
---------------------------------------------------------------
Pair    | 6481.3     | 6481.3     | 6481.3     |   0.0 | 90.25
Neigh   | 552.63     | 552.63     | 552.63     |   0.0 |  7.70
Comm    | 60.816     | 60.816     | 60.816     |   0.0 |  0.85
Output  | 0.027258   | 0.027258   | 0.027258   |   0.0 |  0.00
Modify  | 75.859     | 75.859     | 75.859     |   0.0 |  1.06
Other   |            | 11.03      |            |       |  0.15

Nlocal:        1000.00 ave        1000 max        1000 min
Histogram: 1 0 0 0 0 0 0 0 0 0
Nghost:        6038.00 ave        6038 max        6038 min
Histogram: 1 0 0 0 0 0 0 0 0 0
Neighs:        200057.0 ave      200057 max      200057 min
Histogram: 1 0 0 0 0 0 0 0 0 0

Total # of neighbors = 200057
Ave neighs/atom = 200.05700
Neighbor list builds = 150000
Dangerous builds not checked

Total wall time: 1:59:41
