LAMMPS (29 Sep 2021 - Update 2)
OMP_NUM_THREADS environment is not set. Defaulting to 1 thread. (src/comm.cpp:98)
  using 1 OpenMP thread(s) per MPI task
# ----------------------- Inicialização -----------------------

units			lj
atom_style 		atomic
dimension 		3
boundary 		p p p

# -------------------- Criação dos Átomos ---------------------

read_data 		topologia.txt
Reading data file ...
  orthogonal box = (0.0000000 0.0000000 0.0000000) to (21.540000 21.540000 21.540000)
  1 by 1 by 1 MPI processor grid
  reading atoms ...
  1000 atoms
  read_data CPU = 0.005 seconds

velocity 		all create ${temp} 87287 rot yes dist gaussian
velocity 		all create 0.48 87287 rot yes dist gaussian

# ------------------ Interação Interatômica -------------------

pair_style		table linear 2000
pair_coeff		1 1 force.table AA 10.0
WARNING: 3 of 2000 force values in table AA are inconsistent with -dE/dr.
WARNING:  Should only be flagged at inflection points (src/pair_table.cpp:465)
pair_coeff		1 2 force.table AB 10.0
WARNING: 1 of 2000 force values in table AB are inconsistent with -dE/dr.
WARNING:  Should only be flagged at inflection points (src/pair_table.cpp:465)
pair_coeff		2 2 force.table BB 10.0
pair_write		1 1 2000 r 0.008 10.0 table.check AA
Appending to table file table.check with DATE: 2023-06-17
Neighbor list info ...
  update every 1 steps, delay 10 steps, check yes
  max neighbors/atom: 2000, page size: 100000
  master list distance cutoff = 10.3
  ghost atom cutoff = 10.3
  binsize = 5.15, bins = 5 5 5
  1 neighbor lists, perpetual/occasional/extra = 1 0 0
  (1) pair table, perpetual
      attributes: half, newton on
      pair build: half/bin/atomonly/newton
      stencil: half/bin/3d
      bin: standard
pair_write		1 2 2000 r 0.008 10.0 table.check AB
Appending to table file table.check with DATE: 2023-06-17
pair_write		2 2 2000 r 0.008 10.0 table.check BB
Appending to table file table.check with DATE: 2023-06-17

neighbor 		0.3 bin
neigh_modify		every 20 delay 0 check no

# ------------------------- Ensemble --------------------------------------

fix 1			all npt temp ${temp} ${temp} 0.5 iso ${press} ${press} 5
fix 1			all npt temp 0.48 ${temp} 0.5 iso ${press} ${press} 5
fix 1			all npt temp 0.48 0.48 0.5 iso ${press} ${press} 5
fix 1			all npt temp 0.48 0.48 0.5 iso 0.13 ${press} 5
fix 1			all npt temp 0.48 0.48 0.5 iso 0.13 0.13 5

# ---------------------- Função de Distribuição Radial -----------------------

#compute RDF 		all rdf 2000 1 1 1 2 2 2
#fix 2 			all ave/time 1 2000 2000 c_RDF[*] file rdf.data mode vector

# ------------------------- Execução ---------------------------

timestep 		0.005
thermo_style		custom step temp pe ke etotal press vol atoms
thermo			2000
run			3000000
Per MPI rank memory allocation (min/avg/max) = 3.614 | 3.614 | 3.614 Mbytes
Step Temp PotEng KinEng TotEng Press Volume Atoms 
       0         0.48  -0.99611563      0.71928  -0.27683563   0.11595719    9993.9483     1000 
    2000   0.47893449   -1.9814013   0.71768334    -1.263718   0.13144882    11361.453     1000 
    4000   0.47657036   -1.9832494   0.71414068   -1.2691087   0.11308595    11508.787     1000 
    6000   0.49299535   -1.9493164   0.73875353   -1.2105629   0.13841374    11326.445     1000 
    8000   0.46357048   -1.9429199   0.69466036   -1.2482596   0.11703263    11526.177     1000 
   10000   0.49393621   -1.9626024   0.74016341    -1.222439   0.12506157    11471.393     1000 
   12000    0.4608463   -1.9664768   0.69057818   -1.2758987   0.12417276    11468.033     1000 
   14000   0.47230086   -1.9907153   0.70774284   -1.2829725   0.11881856    11501.449     1000 
   16000   0.48233207   -1.9739076   0.72277461    -1.251133   0.13154993    11359.171     1000 
   18000   0.50233718   -2.0058494   0.75275226   -1.2530971    0.1389257    11306.527     1000 
   20000   0.46771259   -1.9965981   0.70086731   -1.2957307   0.12903343    11384.382     1000 
   22000   0.45294442   -1.9888412   0.67873721    -1.310104   0.11553643    11469.992     1000 
   24000   0.45769778     -1.96091   0.68586012   -1.2750499   0.11900704    11510.994     1000 
   26000   0.49482405    -1.957086   0.74149383   -1.2155922   0.13315662    11403.254     1000 
   28000   0.47391512   -1.9548113    0.7101618   -1.2446495   0.13754831    11213.149     1000 
   30000   0.48260456   -2.0109532   0.72318294   -1.2877703   0.13366864    11227.792     1000 
   32000   0.48607054    -2.001287    0.7283767   -1.2729103   0.12138406     11543.38     1000 
   34000   0.48258079   -2.0047727   0.72314731   -1.2816254   0.12690478     11404.28     1000 
   36000   0.47128614   -1.9875708   0.70622229   -1.2813486    0.1331343    11400.594     1000 
   38000   0.47783103   -1.9432796    0.7160298   -1.2272498   0.13786453    11272.835     1000 
   40000   0.48467473   -1.9769717   0.72628508   -1.2506866   0.12765885    11394.334     1000 
   42000   0.47919555   -2.0658915   0.71807453    -1.347817   0.13115947    11430.936     1000 
   44000   0.45671865   -1.9847585    0.6843929   -1.3003656    0.1265481    11366.774     1000 
   46000   0.48751344   -1.9672638   0.73053889   -1.2367249    0.1317295    11262.403     1000 
   48000   0.48037439   -2.0098268   0.71984103   -1.2899858   0.12308422    11498.221     1000 
   50000   0.48886327   -1.9496546   0.73256161    -1.217093   0.13571397     11235.11     1000 
   52000   0.49205284   -1.9617754   0.73734119   -1.2244342    0.1448814    11226.984     1000 
   54000   0.48198388   -1.9762649   0.72225284   -1.2540121   0.13145261    11294.661     1000 
   56000   0.47071609   -1.9713667   0.70536807   -1.2659987   0.13102309    11456.091     1000 
   58000   0.49696154   -1.9344463   0.74469686   -1.1897494   0.12807015    11218.344     1000 
   60000   0.48558029   -1.9298964   0.72764206   -1.2022543   0.14059945    11240.687     1000 
   62000    0.4743772   -1.9308372   0.71085423    -1.219983   0.12856552    11336.181     1000 
   64000   0.48874019   -1.9656526   0.73237718   -1.2332754   0.12921743     11369.66     1000 
   66000   0.49312915   -2.0070609   0.73895404   -1.2681069   0.14345592     11344.36     1000 
   68000   0.48571586   -1.9999022   0.72784522    -1.272057   0.13219339    11317.052     1000 
   70000   0.45158323   -2.0220808   0.67669748   -1.3453833   0.12748304    11410.065     1000 
   72000   0.47320197   -1.8958458   0.70909315   -1.1867526   0.14180874    11125.711     1000 
   74000   0.47887578   -1.9660148   0.71759536   -1.2484194   0.12528358     11394.44     1000 
   76000   0.48701398   -2.0155852   0.72979045   -1.2857948   0.13039962    11436.749     1000 
   78000    0.4516899   -1.9693374   0.67685731   -1.2924801   0.12980829    11398.859     1000 
   80000   0.49316245   -1.9613854   0.73900394   -1.2223814   0.14020483    11320.157     1000 
   82000   0.46656161   -1.9734974   0.69914257   -1.2743548   0.13518499    11217.682     1000 
   84000   0.46210756   -2.0037309   0.69246817   -1.3112627    0.1190158    11438.046     1000 
   86000   0.46245672   -1.9583599   0.69299139   -1.2653685   0.12480815    11427.401     1000 
   88000   0.49717955   -1.9906987   0.74502356   -1.2456751   0.12513768    11536.903     1000 
   90000   0.47201492   -1.9718665   0.70731435   -1.2645521   0.12819652    11479.063     1000 
   92000   0.47085575   -1.9680782   0.70557735   -1.2625009   0.11695695    11357.402     1000 
   94000   0.48184676   -1.9970477   0.72204736   -1.2750003     0.118098    11590.604     1000 
   96000   0.48823263   -1.9967239    0.7316166   -1.2651073   0.12808406     11383.61     1000 
   98000    0.4886642   -2.0337721    0.7322633   -1.3015088   0.13867734    11280.251     1000 
  100000    0.4802523   -2.0214999   0.71965807   -1.3018418   0.12064199    11523.161     1000 
  102000   0.47834622   -2.0017332   0.71680181   -1.2849313   0.12668995    11393.616     1000 
  104000    0.4673155   -1.9030872   0.70027228   -1.2028149   0.12565447    11369.565     1000 
  106000   0.46611266   -1.9877982   0.69846982   -1.2893284   0.12843991    11426.817     1000 
  108000   0.49837841    -1.954294   0.74682005   -1.2074739    0.1441491    11358.406     1000 
  110000   0.50268691   -1.9811183   0.75327633   -1.2278419   0.12998232    11442.909     1000 
  112000   0.47591108   -1.9707377   0.71315276    -1.257585   0.12369224    11392.134     1000 
  114000   0.47944359   -1.9758665   0.71844622   -1.2574202   0.12293654    11441.025     1000 
  116000   0.48307697   -1.9893433   0.72389084   -1.2654524   0.11974787    11475.153     1000 
  118000   0.48718329   -1.9711568   0.73004415   -1.2411127   0.12897385    11362.098     1000 
  120000   0.48922629   -1.9956794    0.7331056   -1.2625738   0.13524812    11274.043     1000 
  122000   0.49237608   -1.9872074   0.73782555   -1.2493819   0.13035639    11337.719     1000 
  124000   0.49870774   -1.9685083   0.74731355   -1.2211947   0.12067868    11430.255     1000 
  126000   0.49665734   -2.0079861   0.74424102   -1.2637451   0.13185794    11474.062     1000 
  128000   0.48542477   -1.9679216   0.72740901   -1.2405126   0.14378035    11182.123     1000 
  130000   0.50647926   -1.9502457   0.75895917   -1.1912865   0.13180043    11238.699     1000 
  132000   0.48220654   -1.9824439    0.7225865   -1.2598574   0.12999798    11587.087     1000 
  134000   0.48139815   -1.9549397   0.72137513   -1.2335645    0.1347798    11314.471     1000 
  136000   0.46579524   -1.9967563   0.69799417   -1.2987621    0.1114288    11550.099     1000 
  138000   0.48653664   -1.9154272   0.72907516    -1.186352   0.13678908    11324.968     1000 
  140000   0.48432645   -1.9460082   0.72576318    -1.220245   0.13371357    11361.899     1000 
  142000   0.47287498   -1.9839403   0.70860316   -1.2753372   0.11558938    11597.616     1000 
  144000    0.4769654   -1.9631337   0.71473266   -1.2484011   0.14322954    11199.749     1000 
  146000   0.47194061   -1.9338795   0.70720301   -1.2266765   0.14522247      11163.5     1000 
  148000   0.46163478   -1.9707389   0.69175972   -1.2789791   0.13240168    11171.592     1000 
  150000   0.47955591   -1.9275092   0.71861454   -1.2088946   0.12549952    11373.869     1000 
  152000    0.4711052    -1.963079   0.70595114   -1.2571278    0.1315598    11363.625     1000 
  154000   0.47343811   -1.9575904     0.709447   -1.2481434   0.13483611    11294.211     1000 
  156000   0.48564788   -1.9708209   0.72774335   -1.2430775   0.13881529    11319.905     1000 
  158000   0.44909287   -1.9871603   0.67296567   -1.3141946   0.12506968    11441.202     1000 
  160000    0.4776489   -1.9388373   0.71575688   -1.2230804   0.12642059    11312.031     1000 
  162000   0.48483941   -1.9232172   0.72653185   -1.1966853   0.13674202    11214.468     1000 
  164000    0.4634723   -1.9653785   0.69451324   -1.2708652   0.11586545    11455.248     1000 
  166000   0.48557504   -1.9771879    0.7276342   -1.2495537   0.12663586    11344.052     1000 
  168000   0.49613784   -2.0230139   0.74346256   -1.2795514   0.12394722    11368.316     1000 
  170000   0.47735307   -1.9910474   0.71531358   -1.2757339   0.12700779    11441.106     1000 
  172000   0.46569203   -1.9385231    0.6978395   -1.2406836    0.1272689    11422.022     1000 
  174000   0.47071382   -1.9451265   0.70536466   -1.2397618   0.12390749    11502.701     1000 
  176000   0.46768191   -2.0142814   0.70082134   -1.3134601    0.1379267    11365.998     1000 
  178000   0.48710997   -1.8952485   0.72993429   -1.1653142   0.13778266    11272.737     1000 
  180000    0.4718881   -1.9672301   0.70712431   -1.2601058    0.1311372    11350.787     1000 
  182000   0.47376544   -2.0114251   0.70993752   -1.3014876   0.12625605    11389.301     1000 
  184000    0.4766832   -1.9321074   0.71430977   -1.2177977    0.1328823    11262.336     1000 
  186000   0.47340631   -1.9643803   0.70939936    -1.254981   0.13447736    11297.476     1000 
  188000   0.47050812   -1.9868038   0.70505642   -1.2817474   0.12801808    11408.288     1000 
  190000   0.48997218   -1.9466217   0.73422331   -1.2123983   0.12869204    11328.611     1000 
  192000   0.46020962   -1.9484365   0.68962411   -1.2588124   0.13419503    11289.372     1000 
  194000   0.47877561    -1.954413   0.71744526   -1.2369677    0.1297792    11405.941     1000 
  196000   0.51612448   -1.9781849   0.77341254   -1.2047724   0.12886403    11309.872     1000 
  198000   0.50032531   -1.9596891   0.74973748   -1.2099516   0.12543814    11274.541     1000 
  200000    0.4918588   -1.9831311   0.73705041   -1.2460806   0.13438021    11328.728     1000 
  202000   0.48647381   -1.9578458     0.728981   -1.2288648   0.14272353    11257.568     1000 
  204000   0.48543219   -1.9611061   0.72742013    -1.233686   0.12141002    11429.396     1000 
  206000   0.46291736   -2.0042595   0.69368166   -1.3105779   0.12919571    11446.258     1000 
  208000   0.46580471   -2.0130361   0.69800836   -1.3150278   0.12547104    11454.985     1000 
  210000   0.47081381   -1.9965863   0.70551449   -1.2910718   0.13177781    11390.558     1000 
  212000   0.46327068   -1.9996217   0.69421111   -1.3054106   0.13517679    11350.346     1000 
  214000   0.49617357   -1.9473682    0.7435161   -1.2038521   0.14012265    11275.179     1000 
  216000   0.45063521   -1.9387755   0.67527687   -1.2634987     0.121423    11456.884     1000 
  218000   0.46827532    -1.987518   0.70171056   -1.2858074   0.11707175    11444.139     1000 
  220000   0.48509742    -1.986456   0.72691849   -1.2595375   0.12450038    11417.494     1000 
  222000   0.49014609   -1.9995298   0.73448392   -1.2650458   0.12217671    11461.614     1000 
  224000   0.47833281   -1.9880528   0.71678172   -1.2712711   0.12655252    11431.931     1000 
  226000   0.48995184   -1.9640544   0.73419283   -1.2298616   0.12989482    11308.996     1000 
  228000   0.46996435   -1.9825624   0.70424157   -1.2783208   0.13754387    11363.413     1000 
  230000   0.47444312   -1.9733355   0.71095301   -1.2623825   0.12993024    11425.854     1000 
  232000   0.51003774   -1.9720017   0.76429155   -1.2077101   0.12904565    11400.328     1000 
  234000   0.48032738   -1.9815761   0.71977058   -1.2618055   0.12191641     11461.36     1000 
  236000   0.50264018   -1.9618995   0.75320631   -1.2086932   0.13596675    11326.052     1000 
  238000   0.49275549   -1.9939044    0.7383941   -1.2555102   0.13925627    11292.403     1000 
  240000   0.49885561    -1.946371   0.74753513   -1.1988359   0.12942995    11468.033     1000 
  242000   0.47832439   -1.9585479    0.7167691   -1.2417788   0.12562066     11307.07     1000 
  244000   0.46983882   -1.9779785   0.70405348    -1.273925   0.13719165    11364.601     1000 
  246000   0.49415087   -2.0020705   0.74048507   -1.2615855   0.13746638    11289.591     1000 
  248000   0.45733581   -1.9590887   0.68531771    -1.273771   0.12730003    11365.142     1000 
  250000   0.47495257   -1.9684624   0.71171642    -1.256746   0.13922095    11274.452     1000 
  252000   0.47392741   -1.9152028   0.71018022   -1.2050226   0.13369891    11223.069     1000 
  254000     0.477003   -2.0076434     0.714789   -1.2928544   0.13095714    11312.672     1000 
  256000   0.46340552   -1.9684244   0.69441318   -1.2740112   0.14586229    11199.689     1000 
  258000   0.47582635   -1.9686897   0.71302579   -1.2556639   0.12936292    11348.992     1000 
  260000   0.46258992    -1.980021   0.69319099     -1.28683   0.13673362    11389.924     1000 
  262000   0.47563472   -1.9581696   0.71273863    -1.245431   0.13592181    11307.249     1000 
  264000   0.46744469   -1.9923718   0.70046587   -1.2919059   0.12246628    11446.017     1000 
  266000   0.48689033   -2.0035734   0.72960517   -1.2739682   0.12667044    11332.715     1000 
  268000   0.47661494   -1.9518685   0.71420749    -1.237661   0.12969618    11348.792     1000 
  270000    0.4573651   -1.9971769    0.6853616   -1.3118153    0.1120512    11463.467     1000 
  272000   0.47675285   -1.9670902   0.71441415    -1.252676   0.13443017    11302.383     1000 
  274000   0.46836479   -1.9958566   0.70184464   -1.2940119   0.14524798    11214.809     1000 
  276000   0.49432913   -2.0259711   0.74075219   -1.2852189   0.13037946    11500.598     1000 
  278000   0.46844746   -1.9992105   0.70196851    -1.297242   0.12907143    11449.313     1000 
  280000   0.47893563   -1.9812269   0.71768504   -1.2635418   0.12509986    11482.175     1000 
  282000    0.4911955   -1.9133463   0.73605646   -1.1772898   0.13465405     11295.18     1000 
  284000   0.48606317   -2.0043041   0.72836567   -1.2759384   0.13994468    11326.614     1000 
  286000   0.48515514   -1.9352554   0.72700497   -1.2082504   0.12618845    11382.892     1000 
  288000   0.45874775   -1.9349455   0.68743351    -1.247512   0.12178151    11341.225     1000 
  290000    0.4746834   -1.9798626   0.71131307   -1.2685495   0.13708295    11348.547     1000 
  292000    0.4644036   -1.9233965    0.6959088   -1.2274877   0.13766265    11225.376     1000 
  294000   0.48124557   -1.9415697   0.72114649   -1.2204232   0.13432041     11288.82     1000 
  296000   0.46518796   -1.9813556   0.69708415   -1.2842714   0.12393716    11442.962     1000 
  298000   0.49237129   -1.9743407   0.73781838   -1.2365223   0.13163663    11417.005     1000 
  300000   0.45188396   -1.9776813   0.67714811   -1.3005332   0.12341668    11404.955     1000 
  302000   0.49791702   -1.9992905   0.74612865   -1.2531619   0.13517004    11329.115     1000 
  304000   0.49537563   -1.9763412   0.74232039   -1.2340208   0.13236238    11295.379     1000 
  306000   0.46991408   -1.9939854   0.70416625   -1.2898191   0.11636136    11464.145     1000 
  308000   0.47182502   -1.9837665    0.7070298   -1.2767367   0.14072401    11220.967     1000 
  310000   0.46832369   -1.9892263   0.70178305   -1.2874433   0.13212332    11177.652     1000 
  312000   0.49917438   -1.9672878   0.74801281    -1.219275   0.13684637    11375.859     1000 
  314000   0.48567371   -1.9772353   0.72778205   -1.2494533   0.12392817    11428.683     1000 
  316000   0.50153143    -1.962054   0.75154486   -1.2105091   0.12630833    11416.429     1000 
  318000   0.48756159    -1.941307   0.73061104   -1.2106959   0.13286836    11352.446     1000 
  320000   0.46062081   -1.9942365   0.69024028   -1.3039962   0.13222278    11425.609     1000 
  322000   0.48954572   -2.0255852   0.73358427   -1.2920009   0.11495781    11560.114     1000 
  324000   0.48917095   -2.0058097   0.73302267   -1.2727871    0.1317628    11251.745     1000 
  326000   0.48048298   -1.9890563   0.72000374   -1.2690525    0.1400592    11324.163     1000 
  328000   0.46187732   -1.9639129   0.69212317   -1.2717897   0.13580593    11227.704     1000 
  330000   0.47542519   -1.9800793   0.71242465   -1.2676547   0.13282339    11333.102     1000 
  332000   0.49520323    -1.997913   0.74206204   -1.2558509   0.12791356    11471.855     1000 
  334000   0.47742457    -1.996636   0.71542073   -1.2812152   0.13506897    11322.722     1000 
  336000   0.49101488   -1.9729713    0.7357858   -1.2371855    0.1272525    11513.601     1000 
  338000   0.47517981   -1.9649039   0.71205695    -1.252847   0.13488622    11270.809     1000 
  340000   0.46279297   -1.9577466   0.69349527   -1.2642513   0.12685251    11320.771     1000 
  342000   0.47205311   -1.9722296   0.70737159    -1.264858   0.12781302    11401.646     1000 
  344000   0.47364447   -1.9883421   0.70975623   -1.2785859   0.12743405    11499.431     1000 
  346000   0.46304876   -1.9599783   0.69387856   -1.2660998   0.12050721     11526.59     1000 
  348000   0.48851501   -1.9670445   0.73203975   -1.2350048   0.14202469    11254.606     1000 
  350000   0.46512295   -1.9503902   0.69698675   -1.2534035    0.1231718    11388.574     1000 
  352000   0.46894366   -1.9930409   0.70271208   -1.2903289   0.13000376    11421.931     1000 
  354000   0.49553885   -2.0038641   0.74256497   -1.2612992   0.12202798    11554.211     1000 
  356000   0.49175031   -1.9512434   0.73688785   -1.2143556   0.13431367    11234.962     1000 
  358000   0.46663226   -1.9380905   0.69924844   -1.2388421   0.13815749    11230.911     1000 
  360000    0.4871776   -1.9698359   0.73003564   -1.2398002   0.13640119    11361.949     1000 
  362000   0.47626637   -1.9841936   0.71368515   -1.2705085   0.13149674    11327.974     1000 
  364000   0.47584919   -1.9433567   0.71306001   -1.2302967   0.13945379    11290.068     1000 
  366000   0.46544806   -1.9875257   0.69747391   -1.2900518   0.12924273    11246.147     1000 
  368000    0.4944056   -1.9349573   0.74086679   -1.1940905   0.14102921    11286.493     1000 
  370000   0.49544216   -2.0168174   0.74242008   -1.2743973   0.13271497     11449.22     1000 
  372000   0.49006281    -2.020295   0.73435912   -1.2859359   0.13805772    11318.965     1000 
  374000   0.45717589   -1.9928509   0.68507808   -1.3077728   0.13111462    11395.016     1000 
  376000   0.45036823   -1.9774526    0.6748768   -1.3025758   0.11892795    11317.316     1000 
  378000   0.48042731   -1.9481711   0.71992032   -1.2282507   0.14172269    11214.956     1000 
  380000   0.47598218   -1.9981874    0.7132593   -1.2849281   0.11221963    11504.528     1000 
  382000   0.47751187   -1.9391202   0.71555154   -1.2235686   0.13447801    11278.046     1000 
  384000    0.4900268   -1.9439638   0.73430515   -1.2096586   0.12973697    11391.703     1000 
  386000   0.47211985   -1.9737156   0.70747159    -1.266244   0.12109727    11450.795     1000 
  388000   0.47464145   -1.9713582   0.71125022    -1.260108    0.1318889    11228.894     1000 
  390000   0.48652629   -2.0285163   0.72905965   -1.2994567   0.12320021    11424.439     1000 
  392000   0.49784519   -2.0131549   0.74602102   -1.2671339   0.13047609    11431.652     1000 
  394000   0.48427057   -1.9832432   0.72567946   -1.2575638   0.13281763     11361.14     1000 
  396000   0.48310409   -1.9695456   0.72393148   -1.2456141   0.12052501    11501.387     1000 
  398000   0.47350431   -1.9553914   0.70954621   -1.2458451    0.1383205    11276.024     1000 
  400000   0.49456587     -2.02105   0.74110695   -1.2799431   0.13028242    11503.905     1000 
  402000   0.48151872   -1.9479812    0.7215558   -1.2264254   0.13203579    11304.808     1000 
  404000   0.49380984   -1.9897734   0.73997405   -1.2497993   0.13589363    11417.494     1000 
  406000    0.5012132   -1.9915426   0.75106798   -1.2404746   0.12361005    11378.932     1000 
  408000   0.49949309   -1.9968367   0.74849039   -1.2483463   0.11694121    11505.281     1000 
  410000   0.47057334   -1.9501224   0.70515415   -1.2449682     0.126459    11352.888     1000 
  412000   0.48968636   -1.9573877   0.73379501   -1.2235927   0.13628061    11323.206     1000 
  414000    0.4827456   -1.9308117   0.72339428   -1.2074174   0.13532178    11259.956     1000 
  416000    0.4844421   -1.9883511   0.72593649   -1.2624146   0.13521902    11415.786     1000 
  418000   0.48696969   -1.9340448   0.72972408   -1.2043207   0.13231994    11300.426     1000 
  420000   0.47906529   -1.9769517   0.71787934   -1.2590724   0.12528005    11427.757     1000 
  422000   0.46912944   -1.9928164   0.70299046   -1.2898259   0.12719071    11359.709     1000 
  424000   0.47127414   -1.9479652    0.7062043   -1.2417609   0.13894741    11361.767     1000 
  426000   0.47362951   -2.0090697   0.70973382   -1.2993359   0.13031278     11298.89     1000 
  428000   0.48533364   -2.0028603   0.72727245   -1.2755879   0.13380988    11351.847     1000 
  430000   0.49729147   -1.9706595   0.74519127   -1.2254683   0.12249775    11455.927     1000 
  432000   0.47628144    -1.984338   0.71370774   -1.2706302   0.11261548    11585.531     1000 
  434000   0.49790924   -1.9734771     0.746117   -1.2273601   0.14185463    11246.646     1000 
  436000   0.48933405   -2.0204571   0.73326708     -1.28719    0.1382928    11520.328     1000 
  438000   0.48393087    -1.950081   0.72517041   -1.2249106   0.13578469    11340.333     1000 
  440000   0.50616851   -1.9804407   0.75849351   -1.2219472   0.13507864    11261.119     1000 
  442000   0.49990085   -2.0025889   0.74910143   -1.2534874   0.12106529    11512.632     1000 
  444000   0.47327768   -1.9508503    0.7092066   -1.2416437   0.13066525    11272.902     1000 
  446000    0.4777025   -1.9660307   0.71583719   -1.2501935   0.11766968    11369.775     1000 
  448000   0.46543053   -2.0141446   0.69744766   -1.3166969    0.1188327    11526.059     1000 
  450000   0.47562121   -2.0054728   0.71271839   -1.2927544   0.13323444    11463.522     1000 
  452000   0.46996621   -1.9727734   0.70424437    -1.268529   0.12874622    11375.294     1000 
  454000   0.46113377   -1.9733509   0.69100895   -1.2823419   0.11041672    11710.957     1000 
  456000   0.46542332    -1.978868   0.69743684   -1.2814312   0.13644826    11296.986     1000 
  458000   0.45307029   -1.9610489   0.67892583   -1.2821231   0.13232419     11273.59     1000 
  460000   0.47833365    -1.966512   0.71678298    -1.249729   0.12305522    11530.338     1000 
  462000   0.47174369    -1.991565   0.70690792    -1.284657   0.12680426    11419.959     1000 
  464000   0.46635899   -1.9294056   0.69883895   -1.2305666   0.15218371    11145.355     1000 
  466000   0.46021178   -2.0026813   0.68962735    -1.313054   0.10883647    11494.581     1000 
  468000   0.49958312   -1.9809214   0.74862531   -1.2322961   0.14148398    11265.274     1000 
  470000    0.4687591   -2.0004803   0.70243551   -1.2980448   0.11636988    11430.324     1000 
  472000    0.4801882   -1.9008288   0.71956202   -1.1812668   0.13320687    11274.603     1000 
  474000   0.47882905   -1.9843239   0.71752533   -1.2667986   0.12378246    11363.826     1000 
  476000   0.48062868   -1.9827531   0.72022208    -1.262531   0.12434276    11490.829     1000 
  478000   0.49161231   -1.9755144   0.73668104   -1.2388334   0.13347701    11363.067     1000 
  480000   0.46226584   -1.9833914   0.69270537   -1.2906861   0.12358619    11490.216     1000 
  482000   0.49292847   -1.9221462   0.73865332   -1.1834929   0.12551207    11336.003     1000 
  484000    0.4783538   -2.0109253   0.71681316   -1.2941122   0.13328916     11361.97     1000 
  486000   0.47402383   -2.0002872   0.71032471   -1.2899624   0.12306479    11315.899     1000 
  488000   0.49975407   -2.0335457   0.74888147   -1.2846643   0.13428352    11304.001     1000 
  490000   0.47656752   -2.0006679   0.71413643   -1.2865315    0.1249422    11430.339     1000 
  492000    0.5041751   -1.9855769   0.75550639   -1.2300705    0.1410862    11241.219     1000 
  494000   0.45793007   -2.0030243   0.68620821   -1.3168161   0.12969034    11330.849     1000 
  496000   0.48224912   -1.9597347    0.7226503   -1.2370844   0.12210393     11482.18     1000 
  498000    0.4564967    -1.983579    0.6840603   -1.2995187   0.13389957     11314.58     1000 
  500000   0.46850217   -1.9852768    0.7020505   -1.2832263   0.12310474    11418.085     1000 
  502000   0.47469055   -1.9983053   0.71132378   -1.2869815   0.13698229    11355.514     1000 
  504000   0.49682289   -1.9831805   0.74448909   -1.2386914   0.13236728    11328.533     1000 
  506000   0.48850462   -1.9916354   0.73202417   -1.2596113   0.13244799    11317.461     1000 
  508000   0.47295169   -1.9513102    0.7087181   -1.2425921   0.12388284        11379     1000 
  510000   0.48121507   -1.9445156   0.72110079   -1.2234148   0.11284203    11628.155     1000 
  512000   0.46372174   -1.9981285   0.69488703   -1.3032414   0.12785449     11259.11     1000 
  514000   0.47438945   -1.9925479   0.71087259   -1.2816753   0.12050102    11444.956     1000 
  516000   0.46483061   -1.9482642   0.69654867   -1.2517155   0.13585367    11250.341     1000 
  518000    0.4721565   -1.9984653   0.70752652   -1.2909388   0.13823315    11287.773     1000 
  520000   0.47997695   -1.9936335   0.71924546    -1.274388    0.1303256    11250.174     1000 
  522000     0.488837   -1.9839188   0.73252225   -1.2513965   0.13393676    11352.122     1000 
  524000   0.49439887   -1.9708797   0.74085671    -1.230023   0.13135197     11338.99     1000 
  526000   0.46093531   -1.9791816   0.69071156   -1.2884701   0.12572132    11323.765     1000 
  528000   0.49584582   -1.9812258   0.74302496   -1.2382008   0.13941286    11376.905     1000 
  530000   0.48751995   -2.0047007   0.73054864    -1.274152   0.12123095    11449.435     1000 
  532000   0.47738574   -1.9472638   0.71536253   -1.2319013   0.13670511    11335.871     1000 
  534000   0.47954395   -1.9952022    0.7185966   -1.2766056   0.11506351    11519.949     1000 
  536000   0.47516929   -2.0190833   0.71204119   -1.3070421   0.13036158    11525.743     1000 
  538000   0.48739466   -2.0285266    0.7303609   -1.2981657   0.12317618    11541.531     1000 
  540000   0.47097715   -1.9975155   0.70575925   -1.2917562   0.12010095    11454.562     1000 
  542000   0.48216296   -1.9618013    0.7225212   -1.2392801    0.1348508    11315.287     1000 
  544000   0.46493723   -1.9606599   0.69670844   -1.2639514   0.13240389    11253.112     1000 
  546000   0.49530528    -1.967403   0.74221496    -1.225188   0.12618032     11339.97     1000 
  548000   0.47829856   -1.9760167    0.7167304   -1.2592863   0.12689691    11398.267     1000 
  550000   0.48450601   -1.9350787   0.72603226   -1.2090464   0.12452192    11362.535     1000 
  552000   0.45643116   -1.9166207   0.68396209   -1.2326586    0.1208813    11435.332     1000 
  554000   0.44988341   -1.9474939   0.67415029   -1.2733436    0.1219655    11370.274     1000 
  556000   0.46623132   -1.9718748   0.69864764   -1.2732272   0.12262101    11542.874     1000 
  558000   0.46939246   -2.0169165    0.7033846   -1.3135319   0.13747061    11308.616     1000 
  560000   0.47044596   -1.9655803   0.70496328    -1.260617   0.12546134    11366.886     1000 
  562000   0.48352957   -1.9924673   0.72456905   -1.2678982   0.12933517    11454.657     1000 
  564000   0.45757417   -1.9688847    0.6856749   -1.2832098   0.12047163    11466.506     1000 
  566000   0.48104808   -1.9886068   0.72085055   -1.2677562   0.12096317    11487.792     1000 
  568000   0.48000298     -1.98529   0.71928446   -1.2660056   0.12206389    11475.151     1000 
  570000   0.47536399   -1.9949451   0.71233295   -1.2826122   0.13860146    11354.471     1000 
  572000   0.46762779   -1.9730803   0.70074024   -1.2723401   0.13604218    11282.185     1000 
  574000   0.45629989   -2.0066457   0.68376538   -1.3228804   0.12095515    11408.643     1000 
  576000   0.46640984   -1.9545125   0.69891514   -1.2555974   0.13397883    11343.758     1000 
  578000   0.49415926   -1.9635739   0.74049765   -1.2230763   0.13629754    11335.638     1000 
  580000   0.50272741   -1.9625675   0.75333702   -1.2092305   0.13696158    11401.898     1000 
  582000   0.46387273   -1.9688334   0.69511328   -1.2737201   0.12783866    11404.581     1000 
  584000   0.46559402   -1.9451424   0.69769264   -1.2474498   0.13990051    11374.868     1000 
  586000   0.46534369   -1.9611689   0.69731752   -1.2638513   0.13137754    11414.658     1000 
  588000   0.47314661   -1.9800102    0.7090102       -1.271    0.1196948    11473.201     1000 
  590000   0.47233071   -1.9563006   0.70778757    -1.248513   0.13095734    11293.525     1000 
  592000   0.46414332   -1.9751331   0.69551877   -1.2796143   0.13395842     11371.85     1000 
  594000   0.47664072   -1.9403513   0.71424611   -1.2261052   0.13989489    11356.872     1000 
  596000   0.47257705   -2.0070168   0.70815671   -1.2988601   0.11864404    11458.221     1000 
  598000   0.48749527   -1.9144622   0.73051167   -1.1839505   0.13854192     11245.73     1000 
  600000   0.47564475   -2.0054746   0.71275365   -1.2927209    0.1189201     11587.11     1000 
  602000   0.48111814   -1.9799789   0.72095553   -1.2590233   0.14423091    11242.547     1000 
  604000   0.46448317    -2.003949   0.69602802    -1.307921   0.12289557    11437.753     1000 
  606000   0.47815844   -1.9500608   0.71652043   -1.2335403   0.13821471    11282.161     1000 
  608000   0.48655783   -1.9505604   0.72910691   -1.2214535   0.13162487    11412.557     1000 
  610000   0.47204886   -1.9698227   0.70736522   -1.2624575   0.13289611     11346.68     1000 
  612000   0.48375153   -1.9684672   0.72490167   -1.2435656   0.13476829    11381.041     1000 
  614000   0.47149817   -1.9903518   0.70654001   -1.2838118   0.13428505    11291.898     1000 
  616000    0.4900823   -1.9770765   0.73438833   -1.2426881    0.1211808    11496.931     1000 
  618000    0.4745179     -1.98511   0.71106508   -1.2740449   0.13805595    11402.376     1000 
  620000   0.48285188   -2.0248473   0.72355355   -1.3012938   0.13028652    11495.363     1000 
  622000   0.48117538   -1.9966489    0.7210413   -1.2756076    0.1349878    11294.218     1000 
  624000   0.46598691   -1.9424727   0.69828138   -1.2441913   0.13246958    11435.274     1000 
  626000    0.4755452   -1.9551374   0.71260448    -1.242533   0.11894432    11336.166     1000 
  628000   0.48421247   -1.9881368   0.72559239   -1.2625444   0.12636282    11366.812     1000 
  630000   0.48630931   -2.0075605   0.72873451    -1.278826   0.13847035    11309.444     1000 
  632000    0.4610048    -1.950041   0.69081569   -1.2592254   0.12377354    11480.664     1000 
  634000   0.50243484   -1.9942737    0.7528986   -1.2413751   0.14140115    11273.854     1000 
  636000   0.48034535   -1.9671165   0.71979751    -1.247319   0.14205707    11371.549     1000 
  638000   0.46831125   -1.9815955   0.70176441   -1.2798311   0.12513845    11493.264     1000 
  640000    0.4829207   -1.9560149   0.72365667   -1.2323582   0.12813158    11427.659     1000 
  642000   0.51176229   -2.0054352   0.76687579   -1.2385594   0.13835326    11381.866     1000 
  644000   0.48171894   -1.9643211   0.72185583   -1.2424652   0.13190687    11347.116     1000 
  646000   0.50042075    -1.958277   0.74988049   -1.2083965   0.13188034    11343.707     1000 
  648000   0.48055323   -1.9461883   0.72010901   -1.2260793   0.13444946    11287.426     1000 
  650000   0.47838567   -1.9448411   0.71686093   -1.2279802   0.12990589    11312.471     1000 
  652000   0.46881559   -2.0136484   0.70252017   -1.3111282   0.12862532    11415.324     1000 
  654000   0.49011205   -1.9861515   0.73443291   -1.2517186   0.13169861    11323.308     1000 
  656000   0.50479332   -2.0093403   0.75643278   -1.2529075   0.11473556    11524.905     1000 
  658000   0.47457513   -1.9858182   0.71115083   -1.2746674   0.11867719    11400.971     1000 
  660000   0.47622179   -1.9659616   0.71361835   -1.2523432   0.13024985    11307.514     1000 
  662000   0.48851996    -1.969846   0.73204717   -1.2377988   0.13165206    11306.247     1000 
  664000   0.46759758   -1.9702532   0.70069497   -1.2695583   0.13969879    11389.703     1000 
  666000   0.48191653   -1.9644121   0.72215191   -1.2422602   0.13066841    11363.672     1000 
  668000   0.47446098   -1.9473984   0.71097977   -1.2364186   0.13426622    11344.126     1000 
  670000   0.47021585   -1.9919388   0.70461846   -1.2873204   0.13934291    11280.382     1000 
  672000   0.47117002   -2.0009183   0.70604828   -1.2948701   0.12540027    11403.037     1000 
  674000   0.48435704    -1.933991   0.72580902    -1.208182   0.12841483    11321.967     1000 
  676000    0.4759637   -1.9116962   0.71323161   -1.1984646   0.12945938    11313.722     1000 
  678000   0.48288304   -2.0058217   0.72360023   -1.2822215   0.13086114    11293.543     1000 
  680000   0.47294537   -2.0052601   0.70870863   -1.2965515   0.13236051    11367.219     1000 
  682000   0.46469685   -2.0002685   0.69634823   -1.3039203   0.12797744    11419.362     1000 
  684000   0.48931313   -1.9863748   0.73323572   -1.2531391   0.13566727    11410.305     1000 
  686000   0.48640829   -1.9690922   0.72888283   -1.2402094   0.13416429    11448.858     1000 
  688000   0.51234223   -1.9853425   0.76774483   -1.2175976   0.14691937    11285.401     1000 
  690000   0.48522819   -1.9477911   0.72711444   -1.2206767   0.12857601    11465.441     1000 
  692000   0.47236262   -1.9928278   0.70783538   -1.2849924   0.12997918    11385.143     1000 
  694000   0.48715047   -1.9900039   0.72999498   -1.2600089   0.12829827    11513.781     1000 
  696000   0.49607442   -1.9504058   0.74336751   -1.2070383   0.12881104    11472.996     1000 
  698000   0.49651241   -1.9594658   0.74402384   -1.2154419   0.12556125    11422.336     1000 
  700000   0.48040058   -1.9538433   0.71988027    -1.233963   0.13816516     11231.39     1000 
  702000   0.45333835   -1.9536206   0.67932752   -1.2742931    0.1167654    11416.741     1000 
  704000    0.4894737   -2.0204959   0.73347634   -1.2870195   0.12172954    11470.819     1000 
  706000   0.49541077   -1.9816234   0.74237304   -1.2392504   0.14261147    11329.383     1000 
  708000   0.48267714   -1.9767282    0.7232917   -1.2534365   0.14116842    11313.194     1000 
  710000   0.47802507   -1.9787555   0.71632056   -1.2624349   0.12956911    11431.489     1000 
  712000   0.46395478   -1.9398413   0.69523624    -1.244605   0.13040928     11353.61     1000 
  714000    0.4534855   -1.9635126   0.67954801   -1.2839646   0.11689735     11506.57     1000 
  716000   0.47707917    -1.956534   0.71490314   -1.2416309   0.13068654    11407.347     1000 
  718000   0.47677173   -1.9839113   0.71444244   -1.2694689   0.12289134     11451.73     1000 
  720000   0.49535328   -1.9274068    0.7422869   -1.1851199   0.13693398    11287.844     1000 
  722000   0.47921231   -1.9943957   0.71809964    -1.276296   0.12327837     11370.48     1000 
  724000   0.47674215   -1.9583438   0.71439811   -1.2439457   0.12627693    11445.933     1000 
  726000   0.46360519   -1.8835734   0.69471237    -1.188861   0.13091245    11242.907     1000 
  728000   0.47480737   -1.9644612   0.71149884   -1.2529623   0.11932986    11532.057     1000 
  730000   0.48095686   -1.9588909   0.72071385    -1.238177   0.12433122     11363.34     1000 
  732000   0.47340574   -1.9764478    0.7093985   -1.2670493   0.12324068    11404.837     1000 
  734000   0.47818339   -1.9510405   0.71655782   -1.2344826    0.1370968    11233.661     1000 
  736000   0.47963717   -2.0256877    0.7187363   -1.3069514   0.12156472     11573.63     1000 
  738000    0.4864589   -2.0157573   0.72895867   -1.2867986   0.12180231    11489.521     1000 
  740000   0.47558838   -1.9941439   0.71266919   -1.2814747   0.14972842    11254.584     1000 
  742000   0.47904361   -1.9357384   0.71784684   -1.2178915    0.1282449    11336.894     1000 
  744000   0.47428433   -1.9743428   0.71071506   -1.2636277   0.12868474    11423.031     1000 
  746000   0.46822514   -2.0278019   0.70163537   -1.3261666   0.12329454    11397.707     1000 
  748000   0.48544741   -1.9933432   0.72744295   -1.2659003   0.13269936    11384.132     1000 
  750000   0.47866288   -1.9771447   0.71727632   -1.2598684   0.10871329    11588.749     1000 
  752000   0.49368559   -1.9932733   0.73978786   -1.2534854   0.12601145    11423.756     1000 
  754000   0.48299978   -1.9544781   0.72377518   -1.2307029   0.14029331    11257.442     1000 
  756000   0.48258482   -1.9832133   0.72315335   -1.2600599   0.13140404    11431.757     1000 
  758000   0.49492083   -1.9789792   0.74163887   -1.2373403   0.13430902    11350.901     1000 
  760000   0.47969805   -1.9933887   0.71882753   -1.2745612    0.1286303    11525.641     1000 
  762000    0.4818435    -1.907061   0.72204249   -1.1850185   0.13860341    11203.175     1000 
  764000   0.45701529   -2.0199212   0.68483741   -1.3350838   0.12062018    11509.533     1000 
  766000   0.49450299   -1.9670762   0.74101273   -1.2260635   0.13995053    11282.784     1000 
  768000   0.46738318   -2.0062924   0.70037369   -1.3059187   0.13908376    11271.649     1000 
  770000   0.46631788   -1.9899495   0.69877734   -1.2911722   0.12721008    11415.237     1000 
  772000   0.49589496   -2.0188025    0.7430986   -1.2757039   0.12681745    11348.654     1000 
  774000   0.46746027   -1.9393088   0.70048921   -1.2388196   0.13557138    11314.957     1000 
  776000    0.4571989   -2.0193153   0.68511255   -1.3342028   0.12891001    11398.062     1000 
  778000    0.4652732   -1.9773244   0.69721189   -1.2801125   0.13128542    11249.315     1000 
  780000   0.47093286   -1.9780324   0.70569289   -1.2723395   0.12388582    11393.203     1000 
  782000    0.4718882    -1.999597   0.70712446   -1.2924725   0.13015235      11362.4     1000 
  784000   0.47065939   -1.9936129    0.7052831   -1.2883298   0.12999871    11428.963     1000 
  786000   0.46777642   -2.0033682   0.70096296   -1.3024052   0.12563845    11404.573     1000 
  788000   0.48225839   -1.9258648   0.72266419   -1.2032006   0.13740259    11281.189     1000 
  790000   0.48365474   -1.9490649   0.72475663   -1.2243083   0.12437034    11491.104     1000 
  792000   0.47638819   -1.9569465    0.7138677   -1.2430788   0.13932259    11286.876     1000 
  794000   0.47663761   -1.9845721   0.71424146   -1.2703306   0.12947155    11413.488     1000 
  796000   0.46005344   -1.9838694   0.68939009   -1.2944794    0.1272517    11427.942     1000 
  798000   0.48275956   -1.9645345    0.7234152   -1.2411193   0.12826218     11330.47     1000 
  800000   0.47535133   -1.9417661   0.71231396   -1.2294522   0.13298047    11270.541     1000 
  802000   0.48055353   -2.0387815   0.72010947   -1.3186721   0.13215001    11436.363     1000 
  804000   0.49174598   -1.9546775   0.73688135   -1.2177961   0.13061935    11433.171     1000 
  806000   0.48508156   -1.9683142   0.72689471   -1.2414195   0.12664959    11391.196     1000 
  808000   0.47979989   -1.9672548   0.71898014   -1.2482747   0.12747712    11414.388     1000 
  810000    0.4815318   -1.9649568    0.7215754   -1.2433814   0.14449057    11349.568     1000 
  812000   0.49011143   -1.9737284   0.73443198   -1.2392964    0.1382482    11332.349     1000 
  814000   0.47127891   -2.0351799   0.70621145   -1.3289684    0.1170424    11405.609     1000 
  816000   0.47321862   -1.9881337   0.70911811   -1.2790156   0.14543255    11206.473     1000 
  818000   0.46875101   -1.9538803   0.70242338   -1.2514569   0.13827065    11392.073     1000 
  820000   0.49163019   -2.0221236   0.73670783   -1.2854158   0.13061279    11403.465     1000 
  822000   0.47910927   -1.9325152   0.71794525     -1.21457    0.1359733     11388.88     1000 
  824000   0.47122021   -1.9955165   0.70612349    -1.289393    0.1266933     11414.36     1000 
  826000   0.48745615   -1.9735928   0.73045304   -1.2431397   0.13349141    11386.702     1000 
  828000   0.47980091    -1.975744   0.71898166   -1.2567624   0.14105103    11296.481     1000 
  830000   0.46107078   -2.0066282   0.69091456   -1.3157136   0.12200929    11458.535     1000 
  832000   0.45621191   -1.9783389   0.68363355   -1.2947054   0.13299554    11339.432     1000 
  834000   0.45729428   -1.9510744   0.68525548    -1.265819    0.1255109    11344.764     1000 
  836000   0.46435466   -1.9919615   0.69583545    -1.296126   0.13103999    11448.054     1000 
  838000    0.4922456   -2.0363597   0.73763003   -1.2987296   0.13900375    11341.862     1000 
  840000   0.46562797   -1.9917784   0.69774352   -1.2940349    0.1278481    11483.782     1000 
  842000   0.50828388    -1.966959    0.7616634   -1.2052956   0.13191629    11447.354     1000 
  844000   0.46630052   -1.9691219   0.69875133   -1.2703706   0.13105534    11295.715     1000 
  846000   0.46558452   -1.9621677    0.6976784   -1.2644893   0.11822581    11442.296     1000 
  848000   0.48516899   -2.0062654   0.72702574   -1.2792396   0.13178842    11303.635     1000 
  850000    0.4686758   -1.9820711   0.70231068   -1.2797604   0.11886463    11599.204     1000 
  852000   0.46377991   -1.9789251   0.69497419   -1.2839509   0.12120983    11432.414     1000 
  854000   0.48047725   -1.9806742   0.71999516   -1.2606791   0.12657541    11433.712     1000 
  856000   0.49493081   -1.9376408   0.74165382    -1.195987   0.13981504    11290.631     1000 
  858000   0.46112989   -2.0075722   0.69100314   -1.3165691   0.12244839    11562.249     1000 
  860000    0.4742725   -1.9666893   0.71069734    -1.255992   0.12067725    11424.392     1000 
  862000   0.46737323   -2.0001369   0.70035878   -1.2997781   0.11596801    11472.766     1000 
  864000   0.45877191   -1.9655416   0.68746971   -1.2780719   0.12801956    11394.143     1000 
  866000    0.4735027   -1.9553904   0.70954379   -1.2458466   0.13080086    11398.417     1000 
  868000   0.47873534   -1.9728961   0.71738491   -1.2555112   0.13188529    11387.498     1000 
  870000   0.47031336   -1.9054711   0.70476457   -1.2007066   0.12801665    11231.774     1000 
  872000   0.46597272   -1.9870344   0.69826012   -1.2887743   0.12805551    11337.637     1000 
  874000   0.47384122   -1.9937254   0.71005107   -1.2836743    0.1193242    11418.195     1000 
  876000    0.4688881   -1.9640511   0.70262882   -1.2614222   0.12561368    11440.312     1000 
  878000   0.47771227   -1.9525871   0.71585184   -1.2367353   0.12446341    11425.111     1000 
  880000   0.47202003   -1.9994552   0.70732202   -1.2921332   0.11218076    11473.151     1000 
  882000   0.47599757     -1.97304   0.71328236   -1.2597577   0.12877842    11335.479     1000 
  884000   0.49156438   -1.9688918   0.73660923   -1.2322826   0.12216646    11456.064     1000 
  886000   0.47808388   -2.0037168   0.71640869   -1.2873081   0.13096951    11337.698     1000 
  888000   0.49222524   -2.0339396   0.73759952   -1.2963401   0.12801939    11550.694     1000 
  890000   0.47322549   -1.9528438   0.70912839   -1.2437154   0.11622933    11485.032     1000 
  892000   0.47420495   -1.9403388   0.71059612   -1.2297427   0.14731971    11164.234     1000 
  894000   0.47733023   -1.9709071   0.71527934   -1.2556277   0.12752903    11401.604     1000 
  896000   0.47183876   -2.0036106   0.70705038   -1.2965602   0.12500542    11486.634     1000 
  898000   0.47728659   -2.0151856   0.71521395   -1.2999717   0.12990217    11314.756     1000 
  900000   0.48926967   -1.9641526   0.73317061    -1.230982    0.1366721    11400.629     1000 
  902000   0.47035743   -1.9791326   0.70483062    -1.274302   0.12844687     11323.69     1000 
  904000   0.47219671   -1.9850115   0.70758676   -1.2774247   0.13067842    11421.895     1000 
  906000   0.46498524   -1.9913687   0.69678038   -1.2945884   0.12391913    11513.412     1000 
  908000    0.4725916    -1.969233   0.70817851   -1.2610545   0.12994117    11359.882     1000 
  910000   0.48546759   -1.9517831   0.72747318   -1.2243099   0.13360923    11335.199     1000 
  912000   0.46939962   -1.9773886   0.70339534   -1.2739933   0.14235732    11295.908     1000 
  914000   0.46646704   -2.0011643   0.69900086   -1.3021634   0.13017857    11316.354     1000 
  916000   0.48025315   -2.0172202   0.71965934   -1.2975609    0.1178835    11468.066     1000 
  918000   0.48926492   -1.9401437   0.73316348   -1.2069802   0.13993931    11233.451     1000 
  920000   0.49299933   -1.9906374    0.7387595   -1.2518779   0.13393686    11383.529     1000 
  922000   0.49067828   -1.9910395    0.7352814   -1.2557581   0.13596555    11451.962     1000 
  924000   0.48595574    -1.900611   0.72820468   -1.1724064   0.14822497    11238.959     1000 
  926000   0.46315869   -1.9556172    0.6940433   -1.2615739   0.14305501    11257.102     1000 
  928000   0.48340155   -1.9571909   0.72437723   -1.2328137   0.13705316     11362.37     1000 
  930000   0.48091705   -1.9622831    0.7206542   -1.2416289   0.12700415    11304.259     1000 
  932000   0.46756852   -1.9755039   0.70065143   -1.2748525   0.12592259    11398.104     1000 
  934000   0.46514847   -1.9902707   0.69702498   -1.2932457   0.14086466    11309.496     1000 
  936000     0.479502   -1.9792786   0.71853375   -1.2607449   0.11852599    11477.513     1000 
  938000   0.48488719   -1.9763276   0.72660345   -1.2497241   0.12651455     11389.34     1000 
  940000   0.44645119   -1.9734995   0.66900711   -1.3044924   0.13321422    11258.003     1000 
  942000   0.49141018   -1.9516872   0.73637815   -1.2153091   0.13638276    11410.842     1000 
  944000   0.51581996   -1.9871981   0.77295621   -1.2142419   0.13004502    11534.281     1000 
  946000   0.47853023   -2.0142554   0.71707755   -1.2971779    0.1130966    11538.991     1000 
  948000   0.49362201   -1.9665667   0.73969259   -1.2268742   0.13677266    11233.949     1000 
  950000   0.47259859   -2.0430807   0.70818899   -1.3348917   0.13310927    11476.781     1000 
  952000   0.47621946   -1.9586109   0.71361487    -1.244996   0.13164592    11416.692     1000 
  954000    0.4779682    -1.928513   0.71623535   -1.2122777   0.13051481    11342.799     1000 
  956000   0.47078209   -1.9750224   0.70546696   -1.2695555     0.134637    11426.555     1000 
  958000   0.49096629   -1.9927234   0.73571298   -1.2570104   0.12370688     11443.84     1000 
  960000    0.4758745   -1.9268297   0.71309794   -1.2137318   0.12188373    11392.178     1000 
  962000   0.48090899   -1.9618361   0.72064213   -1.2411939   0.13984301    11292.858     1000 
  964000   0.46407431   -2.0110258   0.69541536   -1.3156104    0.1287323    11309.858     1000 
  966000    0.4982924   -1.9993461   0.74669117    -1.252655   0.12987755    11336.776     1000 
  968000   0.46249076   -1.9502018    0.6930424   -1.2571594   0.14122828    11222.768     1000 
  970000   0.51085044   -2.0043844   0.76550938   -1.2388751   0.13115478     11530.76     1000 
  972000   0.49450791   -2.0019685   0.74102011   -1.2609484   0.12155037    11433.966     1000 
  974000   0.47220927   -2.0139214   0.70760558   -1.3063158    0.1347508    11325.025     1000 
  976000    0.5001209   -1.9300001   0.74943117   -1.1805689   0.12468234    11428.446     1000 
  978000   0.50343115   -1.9345257   0.75439159   -1.1801341   0.13632861    11410.885     1000 
  980000   0.48595613    -2.009413   0.72820526   -1.2812077   0.12215011    11483.877     1000 
  982000   0.49796183   -1.9851001    0.7461958   -1.2389043   0.12321072    11282.421     1000 
  984000   0.48774911   -1.9579288   0.73089204   -1.2270367   0.13380898    11331.235     1000 
  986000   0.47439656   -2.0394544   0.71088324   -1.3285711   0.13216579    11353.836     1000 
  988000   0.49238985   -1.9304994   0.73784619   -1.1926532   0.13418012    11198.677     1000 
  990000   0.49038938   -1.9629306   0.73484848   -1.2280821   0.12586391     11335.39     1000 
  992000   0.45349299   -2.0374805   0.67955924   -1.3579213   0.12272254    11352.977     1000 
  994000    0.4667417   -1.9404641   0.69941244   -1.2410516   0.12751508    11289.448     1000 
  996000    0.4594596   -1.9628518   0.68850021   -1.2743516   0.11487636    11596.584     1000 
  998000   0.48999972   -2.0143165   0.73426459   -1.2800519   0.13138555     11457.79     1000 
 1000000   0.49439921   -1.9733024   0.74085722   -1.2324452    0.1385784    11341.379     1000 
 1002000   0.48000244   -1.9466986   0.71928365    -1.227415   0.12897396    11389.658     1000 
 1004000   0.47983682   -1.9509443   0.71903547   -1.2319088   0.12506777    11384.634     1000 
 1006000    0.4985264   -1.9571869    0.7470418   -1.2101451    0.1356267    11426.775     1000 
 1008000   0.47420817   -1.9537447   0.71060094   -1.2431438    0.1378036    11252.171     1000 
 1010000   0.49807914   -1.9562388   0.74637158   -1.2098672   0.13985532     11306.19     1000 
 1012000   0.48149536   -1.9616412   0.72152079   -1.2401204    0.1270479    11440.102     1000 
 1014000   0.47750192   -1.9890023   0.71553663   -1.2734657   0.12278392     11370.98     1000 
 1016000   0.46868487   -1.9247258   0.70232428   -1.2224015   0.12614764    11274.859     1000 
 1018000   0.50299069   -1.9756798   0.75373155   -1.2219482   0.12387132    11566.396     1000 
 1020000   0.47328137    -1.936035   0.70921213   -1.2268229   0.13530773    11216.919     1000 
 1022000    0.4942123   -1.9968107   0.74057713   -1.2562336    0.1298354    11524.333     1000 
 1024000   0.47243058   -1.9949193   0.70793723   -1.2869821   0.11235525    11600.781     1000 
 1026000   0.48731081   -1.9752481   0.73023524   -1.2450129   0.13298711    11333.909     1000 
 1028000    0.4914815   -2.0262476   0.73648503   -1.2897626   0.12962463    11376.099     1000 
 1030000   0.45990219   -1.9560277   0.68916343   -1.2668643   0.12543746    11433.073     1000 
 1032000    0.4810985   -1.9545713    0.7209261   -1.2336452    0.1309711    11390.472     1000 
 1034000    0.4700164   -1.9496234   0.70431957   -1.2453038   0.13657833    11270.329     1000 
 1036000   0.49041177   -2.0409178   0.73488204   -1.3060357    0.1334672    11435.456     1000 
 1038000   0.47728358    -1.994349   0.71520945   -1.2791395   0.14129018    11267.505     1000 
 1040000   0.48653038   -1.9640029   0.72906577   -1.2349371   0.11306371    11528.396     1000 
 1042000   0.47666629   -1.9649062   0.71428444   -1.2506218   0.13545453    11351.982     1000 
 1044000   0.47950756   -1.9992153   0.71854207   -1.2806732   0.13076244    11381.475     1000 
 1046000   0.47945086   -1.9791734   0.71845711   -1.2607162   0.12468978    11505.489     1000 
 1048000   0.48401761   -2.0138359   0.72530038   -1.2885355   0.13119695    11464.334     1000 
 1050000   0.47805279   -1.9746363   0.71636211   -1.2582742   0.13029816    11287.449     1000 
 1052000   0.47771217   -1.9631432   0.71585169   -1.2472916   0.12800149    11362.391     1000 
 1054000   0.49927199   -1.9647718   0.74815908   -1.2166127   0.14313633    11315.297     1000 
 1056000   0.48246827   -1.9630827   0.72297871    -1.240104   0.12953994    11371.832     1000 
 1058000   0.49530298   -1.9712798   0.74221151   -1.2290683   0.11910808    11580.812     1000 
 1060000   0.47853105   -1.9823517   0.71707878   -1.2652729    0.1403434     11272.47     1000 
 1062000   0.47579593   -2.0069021    0.7129802   -1.2939219   0.14687433    11255.562     1000 
 1064000   0.47338532   -1.9772533   0.70936791   -1.2678854   0.13574293    11260.329     1000 
 1066000   0.49323974   -1.9801417   0.73911975    -1.241022   0.12511713    11474.991     1000 
 1068000   0.48894239   -2.0301287   0.73268016   -1.2974486   0.13002779     11418.01     1000 
 1070000   0.49104005     -1.94287   0.73582351   -1.2070465   0.14022836    11307.251     1000 
 1072000   0.48460886   -2.0165224   0.72618638    -1.290336   0.13791565    11422.459     1000 
 1074000   0.46709018   -1.9546024   0.69993463   -1.2546678   0.12784019    11445.504     1000 
 1076000   0.49938987     -1.99223   0.74833572   -1.2438943    0.1337959    11342.401     1000 
 1078000   0.44765508   -1.9785767   0.67081114   -1.3077656   0.12040793    11374.252     1000 
 1080000   0.46404082   -1.9842041   0.69536516   -1.2888389   0.12208706    11446.389     1000 
 1082000   0.47608986   -2.0121281   0.71342066   -1.2987074    0.1280658    11468.577     1000 
 1084000   0.47582032   -1.9694289   0.71301675   -1.2564122   0.14174384    11318.907     1000 
 1086000   0.48593264   -2.0220767   0.72817006   -1.2939066   0.13353683    11350.697     1000 
 1088000   0.49547449   -1.9461425   0.74246853    -1.203674   0.13825087    11273.344     1000 
 1090000   0.48877323   -1.9253119   0.73242669   -1.1928852   0.12777057    11345.015     1000 
 1092000   0.48422642   -1.9891579   0.72561329   -1.2635446   0.13035835    11332.884     1000 
 1094000   0.48388307   -1.9897929   0.72509878   -1.2646941   0.12553791    11391.679     1000 
 1096000   0.49232896   -1.9524806   0.73775494   -1.2147257     0.141863    11370.343     1000 
 1098000   0.49010197   -2.0249028   0.73441779    -1.290485   0.14118324    11329.511     1000 
 1100000   0.47545541   -2.0121265   0.71246993   -1.2996565   0.12170367     11473.57     1000 
 1102000   0.46077689   -1.9332149   0.69047417   -1.2427408   0.13481499    11333.215     1000 
 1104000   0.48600291   -1.9542027   0.72827536   -1.2259273   0.14645406    11331.541     1000 
 1106000   0.46567782   -1.9573771   0.69781822   -1.2595589   0.13099895    11283.292     1000 
 1108000   0.46129847   -1.8936844   0.69125575   -1.2024287   0.13289997    11263.008     1000 
 1110000   0.47856402    -1.949824   0.71712818   -1.2326958   0.12952411    11334.038     1000 
 1112000   0.47777326    -1.942083   0.71594324   -1.2261398   0.12017618    11474.242     1000 
 1114000   0.50861087   -1.9736084    0.7621534    -1.211455   0.13187781    11347.954     1000 
 1116000   0.45914026   -1.9585268   0.68802169   -1.2705052   0.13226562     11259.28     1000 
 1118000   0.44702588   -1.9725599   0.66986827   -1.3026916   0.12960394    11298.087     1000 
 1120000   0.50860569   -1.9880322   0.76214563   -1.2258866   0.13190792    11293.023     1000 
 1122000   0.46426267   -1.9303365   0.69569761   -1.2346389   0.13809516    11209.737     1000 
 1124000   0.47055072   -1.9412596   0.70512026   -1.2361393   0.14094212    11284.654     1000 
 1126000   0.47751773    -1.988245   0.71556033   -1.2726847   0.12909564     11416.55     1000 
 1128000   0.47841687   -1.9579724   0.71690767   -1.2410647   0.13263564    11241.128     1000 
 1130000   0.48649312   -1.9713256   0.72900994   -1.2423157   0.12831859    11397.044     1000 
 1132000   0.48388481   -1.9240282   0.72510139   -1.1989268   0.12605877    11342.868     1000 
 1134000   0.49924081   -1.9878881   0.74811235   -1.2397758   0.13427187    11311.785     1000 
 1136000   0.47771813   -1.9990948   0.71586061   -1.2832342    0.1352425     11378.05     1000 
 1138000   0.49821945    -1.960437   0.74658184   -1.2138551   0.14294788    11219.452     1000 
 1140000   0.48701463    -1.936665   0.72979142   -1.2068735   0.13913509     11302.72     1000 
 1142000   0.46546997   -1.9528681   0.69750675   -1.2553613   0.13101496    11442.337     1000 
 1144000   0.47596205   -1.9843634   0.71322912   -1.2711343   0.12752406    11401.713     1000 
 1146000    0.4813134   -1.9851702   0.72124812    -1.263922   0.12251679    11472.538     1000 
 1148000   0.48296316   -1.9767134   0.72372029   -1.2529931   0.12958929    11452.107     1000 
 1150000   0.47514755   -1.9857839    0.7120086   -1.2737753   0.13400777    11258.404     1000 
 1152000   0.48740223   -1.9811705   0.73037225   -1.2507982   0.12874241    11343.743     1000 
 1154000   0.47342657    -1.959251   0.70942972   -1.2498213   0.13386261    11153.566     1000 
 1156000   0.45922872   -1.9160821   0.68815424   -1.2279278    0.1404185    11177.286     1000 
 1158000   0.48993011   -1.9405501   0.73416026   -1.2063898   0.11912499    11415.572     1000 
 1160000   0.45523432   -1.9973071   0.68216863   -1.3151385   0.11735594    11500.272     1000 
 1162000    0.4858235   -2.0063139   0.72800652   -1.2783074   0.14289507    11268.803     1000 
 1164000   0.47395324   -2.0367406   0.71021893   -1.3265217   0.13856713    11402.513     1000 
 1166000   0.45864099   -1.9998472   0.68727352   -1.3125736   0.13375714    11302.042     1000 
 1168000   0.47268961   -1.9845721   0.70832538   -1.2762467   0.12557066    11479.528     1000 
 1170000   0.48289204      -1.9265   0.72361372   -1.2028863    0.1258922    11323.336     1000 
 1172000   0.47555904   -1.9829827   0.71262522   -1.2703575     0.132758    11446.722     1000 
 1174000   0.47565002   -1.9284789   0.71276155   -1.2157173    0.1163584    11548.952     1000 
 1176000   0.46836905   -2.0142452   0.70185103   -1.3123941   0.12298545    11449.317     1000 
 1178000   0.44496927   -2.0350771   0.66678645   -1.3682907   0.12951821    11399.526     1000 
 1180000   0.47375066   -1.9554044   0.70991537   -1.2454891   0.12987719    11466.912     1000 
 1182000   0.49373131   -1.9977583   0.73985637   -1.2579019   0.12052782    11601.582     1000 
 1184000    0.4767633   -1.9656284    0.7144298   -1.2511986   0.12745885    11417.285     1000 
 1186000   0.46556822   -1.9533809   0.69765397   -1.2557269   0.14010521    11312.516     1000 
 1188000   0.46036615   -1.9518182   0.68985868   -1.2619595   0.12495527    11310.964     1000 
 1190000   0.45420732     -1.94433   0.68062966   -1.2637003   0.13726884    11214.615     1000 
 1192000   0.47236368   -1.9955142   0.70783697   -1.2876772   0.11963834    11464.058     1000 
 1194000   0.48925017   -1.9741779   0.73314138   -1.2410365   0.14676188    11330.092     1000 
 1196000   0.48049629   -1.9177683   0.72002369   -1.1977446   0.13886506    11284.824     1000 
 1198000   0.49105307    -1.970887   0.73584302    -1.235044   0.13082397    11396.017     1000 
 1200000   0.49458347   -1.9976085   0.74113333   -1.2564752   0.13425929    11435.212     1000 
 1202000   0.47592444   -1.9980256   0.71317277   -1.2848528   0.12540521    11452.975     1000 
 1204000   0.48418287   -2.0168801   0.72554803    -1.291332   0.12256207     11493.57     1000 
 1206000   0.46298273   -1.9749722   0.69377962   -1.2811925   0.12767626    11311.956     1000 
 1208000   0.48104838   -1.9521626   0.72085099   -1.2313116   0.12662913    11583.169     1000 
 1210000   0.49103561   -1.9966903   0.73581687   -1.2608735   0.14009256     11329.18     1000 
 1212000   0.49670391   -1.9995368   0.74431081    -1.255226   0.13170641     11380.11     1000 
 1214000   0.49174137   -1.9944536   0.73687445   -1.2575792   0.14137544    11257.021     1000 
 1216000   0.49419714   -1.9569701   0.74055442   -1.2164157     0.124589    11398.509     1000 
 1218000   0.47489176   -1.9673688    0.7116253   -1.2557435    0.1381663    11301.411     1000 
 1220000   0.46854014   -1.9847538    0.7021074   -1.2826464    0.1297128    11326.477     1000 
 1222000   0.48477019   -1.9544815   0.72642813   -1.2280533   0.12439198    11521.891     1000 
 1224000   0.50157726    -1.974358   0.75161353   -1.2227444   0.13393978    11258.154     1000 
 1226000   0.46993746   -1.9956277   0.70420128   -1.2914264   0.12238638    11361.785     1000 
 1228000   0.49288887   -2.0081099   0.73859398   -1.2695159   0.11778525    11540.423     1000 
 1230000   0.47629185   -1.9821635   0.71372333   -1.2684402   0.12292693    11363.298     1000 
 1232000   0.47737323    -1.915093   0.71534379   -1.1997492    0.1285007    11299.014     1000 
 1234000   0.49562046   -2.0295079   0.74268726   -1.2868206   0.12821274    11481.921     1000 
 1236000   0.50518212   -1.9917177   0.75701541   -1.2347023    0.1249177    11458.483     1000 
 1238000   0.49469065   -2.0256034   0.74129393   -1.2843094   0.13629518     11382.66     1000 
 1240000   0.48685515   -1.9326965   0.72955245   -1.2031441   0.14919965    11206.723     1000 
 1242000   0.49556689   -1.9858885   0.74260698   -1.2432815   0.14144707    11317.812     1000 
 1244000   0.47482689    -1.967332   0.71152809   -1.2558039   0.13180991    11373.711     1000 
 1246000   0.47636996   -1.9734661   0.71384039   -1.2596257   0.13253259    11391.328     1000 
 1248000   0.49979651   -1.9653559   0.74894507   -1.2164108   0.13006293    11451.054     1000 
 1250000   0.46523846   -1.9874817   0.69715984   -1.2903219   0.13062389    11297.015     1000 
 1252000   0.48277576   -1.9738421   0.72343947   -1.2504026   0.13169752    11363.305     1000 
 1254000   0.49512932   -1.9980763   0.74195129    -1.256125   0.13069318    11384.067     1000 
 1256000   0.48009773   -1.9659324   0.71942645   -1.2465059   0.13185392     11379.79     1000 
 1258000   0.47755816   -1.9867713    0.7156209   -1.2711505   0.12946636    11445.409     1000 
 1260000    0.4847752   -1.9671983   0.72643564   -1.2407627   0.12707566    11419.747     1000 
 1262000   0.48648798   -1.9569752   0.72900224    -1.227973   0.13254938    11473.638     1000 
 1264000   0.46959699   -1.9873852   0.70369109   -1.2836941   0.12563215    11504.968     1000 
 1266000   0.48521813   -1.9980302   0.72709937   -1.2709308   0.12728715    11540.485     1000 
 1268000     0.473422    -1.971492   0.70942287   -1.2620691    0.1515394    11228.454     1000 
 1270000   0.45356136     -2.01837    0.6796617   -1.3387083   0.12549497    11429.397     1000 
 1272000   0.47512771   -1.9794431   0.71197888   -1.2674642   0.12366777    11292.736     1000 
 1274000   0.49367456     -1.94344   0.73977132   -1.2036686   0.14139672    11237.266     1000 
 1276000   0.47367402   -1.9926925   0.70980051   -1.2828919   0.12351073    11553.232     1000 
 1278000   0.48187214   -1.9944944   0.72208541    -1.272409   0.12956533    11306.419     1000 
 1280000   0.49389039   -2.0176164   0.74009475   -1.2775216   0.13349015    11380.544     1000 
 1282000   0.48282822   -2.0137078   0.72351809   -1.2901897   0.13177292    11383.037     1000 
 1284000   0.51051547   -1.9969381   0.76500743   -1.2319307   0.13903355    11356.505     1000 
 1286000   0.47493105   -2.0215379   0.71168418   -1.3098538   0.12362214    11517.058     1000 
 1288000   0.47183478   -1.9728543   0.70704441   -1.2658099   0.12490784      11455.1     1000 
 1290000    0.4700881    -1.969358   0.70442702    -1.264931   0.12656104    11485.727     1000 
 1292000    0.4715622   -1.9678619   0.70663595    -1.261226   0.12657316    11447.892     1000 
 1294000   0.48051553    -1.966784   0.72005252   -1.2467315   0.14254266    11282.675     1000 
 1296000    0.4676667   -1.9306766   0.70079855    -1.229878   0.12896644     11297.48     1000 
 1298000    0.4721678    -1.966441   0.70754345   -1.2588975   0.13756638     11165.06     1000 
 1300000   0.47136698   -1.9469725   0.70634342   -1.2406291   0.12793001    11346.449     1000 
 1302000    0.4804433   -1.9584631   0.71994429   -1.2385188     0.125476    11667.442     1000 
 1304000   0.46140811   -1.9510486   0.69142005   -1.2596285   0.12368453    11374.285     1000 
 1306000   0.47966629   -1.9610053   0.71877994   -1.2422253   0.12819489    11334.886     1000 
 1308000   0.47318126   -2.0069609   0.70906212   -1.2978988   0.11690996    11464.942     1000 
 1310000   0.48637642      -2.0135   0.72883507    -1.284665   0.11620982    11503.805     1000 
 1312000   0.47224487   -1.9625569   0.70765894    -1.254898   0.12803244    11395.043     1000 
 1314000   0.48837672   -2.0002484   0.73183251   -1.2684159    0.1174067    11526.396     1000 
 1316000   0.48834612   -1.9409934   0.73178667   -1.2092067   0.12437566     11369.75     1000 
 1318000   0.48848721   -1.9994506   0.73199808   -1.2674525   0.13224025     11453.53     1000 
 1320000   0.47485308   -1.9707098   0.71156734   -1.2591425   0.13627994    11371.764     1000 
 1322000   0.46831096   -1.9758715   0.70176398   -1.2741075   0.12633707    11424.233     1000 
 1324000    0.4897442   -1.9720595   0.73388168   -1.2381778   0.12808673    11417.009     1000 
 1326000   0.45693937   -1.9754085   0.68472364   -1.2906849   0.12645667    11342.659     1000 
 1328000   0.48148691   -1.9837361   0.72150814    -1.262228   0.11786794    11521.033     1000 
 1330000   0.48499004   -1.9007123   0.72675758   -1.1739548   0.12306342    11393.134     1000 
 1332000   0.48625034   -1.9940132   0.72864613   -1.2653671    0.1357962    11304.801     1000 
 1334000   0.46417075   -2.0078045   0.69555987   -1.3122446   0.13719271    11411.299     1000 
 1336000   0.48785078   -2.0675448   0.73104439   -1.3365004   0.13654986    11436.553     1000 
 1338000   0.47044958   -1.9974623   0.70496869   -1.2924936   0.12628046    11260.394     1000 
 1340000    0.4715332   -1.9738911    0.7065925   -1.2672986   0.13841871     11262.78     1000 
 1342000   0.47222694   -1.9870654   0.70763207   -1.2794333    0.1290785    11438.222     1000 
 1344000   0.47240587   -2.0070709   0.70790019   -1.2991707   0.13493682    11384.437     1000 
 1346000   0.46314531    -1.979624   0.69402325   -1.2856008   0.12229871     11427.69     1000 
 1348000     0.492331   -1.9420022   0.73775801   -1.2042442   0.13686239    11339.565     1000 
 1350000   0.48330067   -2.0672832   0.72422606   -1.3430572    0.1329529    11370.144     1000 
 1352000   0.47598918   -1.9853194   0.71326979   -1.2720496   0.12933695    11377.947     1000 
 1354000   0.45584845   -1.9422649   0.68308891    -1.259176   0.13251208    11326.448     1000 
 1356000   0.45422601   -1.9313775   0.68065767   -1.2507199   0.12829747    11337.508     1000 
 1358000   0.46685563   -1.9679289   0.69958317   -1.2683458   0.12041405    11521.571     1000 
 1360000   0.48534591   -1.9805518   0.72729084   -1.2532609   0.13494068    11337.047     1000 
 1362000   0.48707569   -1.9485021   0.72988292   -1.2186192   0.12695396    11453.392     1000 
 1364000   0.49439972   -1.9728244   0.74085798   -1.2319664   0.13847064    11214.369     1000 
 1366000   0.47877508    -1.979778   0.71744445   -1.2623335   0.13441568    11387.695     1000 
 1368000   0.48113466   -1.9624186   0.72098029   -1.2414383   0.13311265    11306.508     1000 
 1370000   0.46360912   -1.9845999   0.69471826   -1.2898817   0.13585426    11264.755     1000 
 1372000   0.46012074    -1.957996   0.68949093    -1.268505   0.12407783    11424.789     1000 
 1374000   0.48228774   -1.9644765   0.72270818   -1.2417684   0.12877147     11368.27     1000 
 1376000   0.47804101   -1.9547139   0.71634446   -1.2383695   0.12446979     11403.91     1000 
 1378000   0.45268264   -1.9297357   0.67834494   -1.2513907   0.11753288    11216.877     1000 
 1380000   0.47906301   -2.0008372   0.71787592   -1.2829613   0.12926028    11396.077     1000 
 1382000   0.47943139   -1.9745961   0.71842793   -1.2561682   0.12289442    11468.236     1000 
 1384000   0.48909337   -2.0090551   0.73290642   -1.2761487   0.12889854    11440.285     1000 
 1386000   0.49411861    -2.051226   0.74043673   -1.3107893   0.11732776    11535.384     1000 
 1388000   0.48436512   -1.9854828   0.72582113   -1.2596617   0.12646715    11462.704     1000 
 1390000   0.47728048   -2.0031172    0.7152048   -1.2879124    0.1239392    11433.189     1000 
 1392000   0.48802514   -1.9630096   0.73130567   -1.2317039   0.12160703    11492.221     1000 
 1394000   0.47820005   -1.9374866   0.71658277   -1.2209038    0.1370279    11325.798     1000 
 1396000   0.48335197   -1.9692668   0.72430293   -1.2449639   0.12654425    11448.746     1000 
 1398000   0.48253067   -1.9520353    0.7230722   -1.2289631   0.13320993    11430.393     1000 
 1400000   0.48200067   -1.9271387     0.722278   -1.2048607   0.13852837    11259.958     1000 
 1402000   0.48035348   -1.9770846   0.71980969   -1.2572749   0.12276415    11441.271     1000 
 1404000   0.46741125    -1.962645   0.70041576   -1.2622292   0.13174251    11340.081     1000 
 1406000   0.48303337   -1.9623023   0.72382551   -1.2384768   0.12130203    11474.482     1000 
 1408000   0.46772505   -1.9360888   0.70088598   -1.2352029   0.14164652    11219.781     1000 
 1410000   0.47096325   -1.9693652   0.70573844   -1.2636268   0.11961059    11423.832     1000 
 1412000   0.48014472    -1.977678   0.71949686   -1.2581811   0.12886774    11460.005     1000 
 1414000   0.47894827   -1.9788778   0.71770398   -1.2611738   0.11903891     11472.77     1000 
 1416000   0.48032901   -1.9732325   0.71977303   -1.2534595   0.12770636    11348.377     1000 
 1418000    0.4745614   -1.9668832   0.71113026   -1.2557529    0.1355323     11351.31     1000 
 1420000   0.49214958   -1.9894705   0.73748615   -1.2519843   0.12539964    11450.273     1000 
 1422000   0.45582584   -1.9538346   0.68305503   -1.2707795   0.12408223    11367.478     1000 
 1424000   0.47532158   -1.9448847   0.71226939   -1.2326153   0.12988226    11344.648     1000 
 1426000   0.47640335   -1.9752504   0.71389042     -1.26136   0.13405024    11223.595     1000 
 1428000   0.48863974   -1.9557435   0.73222666   -1.2235169    0.1209699    11491.245     1000 
 1430000   0.47485212   -2.0421074    0.7115659   -1.3305415   0.13924927    11367.342     1000 
 1432000   0.49830528   -1.9977457   0.74671046   -1.2510352   0.12923401      11449.1     1000 
 1434000   0.47673673   -1.9712384   0.71438999   -1.2568484   0.12210842    11443.466     1000 
 1436000   0.47199318   -1.9656685   0.70728178   -1.2583867    0.1338591    11324.474     1000 
 1438000   0.49578323    -1.952911   0.74293117   -1.2099798   0.13188642    11472.165     1000 
 1440000   0.49476796   -1.9754267   0.74140979   -1.2340169   0.12471248    11432.156     1000 
 1442000   0.50591965   -1.9629843   0.75812059   -1.2048637   0.12814979    11466.534     1000 
 1444000   0.49207212   -1.9862015   0.73737007   -1.2488315   0.13016181    11477.357     1000 
 1446000   0.50394788   -2.0174022    0.7551659   -1.2622363   0.11910882    11601.982     1000 
 1448000   0.48644237   -2.0032189   0.72893389    -1.274285   0.13645876    11315.639     1000 
 1450000   0.48217032   -1.9738255   0.72253222   -1.2512933    0.1384144    11282.726     1000 
 1452000   0.48963271   -1.9442997   0.73371462    -1.210585   0.13199113    11409.252     1000 
 1454000   0.49543216   -1.9715212   0.74240509   -1.2291161     0.137056    11245.411     1000 
 1456000   0.46655516   -1.9639778   0.69913291   -1.2648449   0.11722178    11456.526     1000 
 1458000   0.46538638   -1.9760218   0.69738149   -1.2786403   0.14279362    11314.785     1000 
 1460000   0.47518836   -1.9519682   0.71206976   -1.2398985   0.12946516    11365.971     1000 
 1462000   0.48772434   -1.9576696   0.73085493   -1.2268147   0.12434712    11438.062     1000 
 1464000   0.49145798   -1.9585159   0.73644978   -1.2220661   0.13769321    11304.217     1000 
 1466000   0.45505667   -1.9762535   0.68190242   -1.2943511   0.12488014     11257.58     1000 
 1468000   0.49937322   -2.0115817   0.74831077   -1.2632709    0.1288534    11418.874     1000 
 1470000   0.48490924   -2.0073104   0.72663649   -1.2806739   0.12328408     11536.87     1000 
 1472000   0.47113671   -1.9347368   0.70599836   -1.2287384   0.12332744    11355.801     1000 
 1474000    0.4934764   -1.9744062   0.73947438   -1.2349318   0.12888119    11485.086     1000 
 1476000   0.47038711   -1.9220359   0.70487509   -1.2171608   0.13006415    11257.456     1000 
 1478000   0.45754365   -1.9509214   0.68562915   -1.2652923   0.13204769    11308.194     1000 
 1480000   0.46811597    -1.941586   0.70147178   -1.2401143   0.13247288    11463.005     1000 
 1482000   0.47262803   -1.9667773    0.7082331   -1.2585442   0.12583283    11410.122     1000 
 1484000   0.46979101   -1.9394948   0.70398184    -1.235513   0.12761326    11319.509     1000 
 1486000   0.49403264   -2.0028807   0.74030791   -1.2625728    0.1428315    11312.168     1000 
 1488000   0.46911614    -1.968209   0.70297054   -1.2652385   0.12367956    11415.132     1000 
 1490000   0.49593745   -2.0019174   0.74316227   -1.2587552   0.12198804    11427.775     1000 
 1492000   0.47980057   -1.9889726   0.71898115   -1.2699914   0.12688702    11521.858     1000 
 1494000   0.46361343   -1.9868819   0.69472473   -1.2921572   0.11934617    11380.888     1000 
 1496000   0.46216022   -1.9871646   0.69254709   -1.2946175   0.12641862    11484.182     1000 
 1498000   0.48019304   -1.9369112   0.71956927    -1.217342   0.13760707    11304.118     1000 
 1500000   0.48157624    -1.980256     0.721642    -1.258614   0.13714405    11384.297     1000 
 1502000   0.47841238   -1.9484137   0.71690096   -1.2315127   0.13006004    11403.944     1000 
 1504000   0.48546841   -2.0036596   0.72747441   -1.2761852   0.13240094    11258.477     1000 
 1506000   0.46995265   -2.0240371   0.70422405   -1.3198131   0.13863549      11194.7     1000 
 1508000   0.46552406   -1.9822033   0.69758781   -1.2846155   0.11645442    11509.498     1000 
 1510000   0.47115538   -1.9306602   0.70602633   -1.2246339   0.12030324    11477.437     1000 
 1512000    0.4881905   -1.9515337   0.73155347   -1.2199802   0.13692735    11408.173     1000 
 1514000   0.47284558   -1.9704311    0.7085591    -1.261872   0.12757107    11412.928     1000 
 1516000   0.48201024   -1.9672242   0.72229235   -1.2449319   0.13247808    11376.411     1000 
 1518000   0.47762724   -1.9392751   0.71572442   -1.2235507    0.1317193    11301.863     1000 
 1520000   0.47052699   -2.0164449    0.7050847   -1.3113602   0.12891801    11384.952     1000 
 1522000   0.48627551   -1.9711019   0.72868385    -1.242418   0.12428133    11475.434     1000 
 1524000   0.47139303    -1.961735   0.70638246   -1.2553526   0.12602136    11347.252     1000 
 1526000    0.4985215   -1.9717649   0.74703446   -1.2247304   0.12517071      11390.6     1000 
 1528000   0.48923749    -1.995957   0.73312239   -1.2628346   0.12551561      11406.9     1000 
 1530000    0.4790219   -1.9807502   0.71781432   -1.2629358   0.13008384    11395.782     1000 
 1532000   0.48290492   -2.0154036   0.72363302   -1.2917706   0.12834753     11422.71     1000 
 1534000   0.49603374   -1.9940562   0.74330656   -1.2507497   0.12416274    11488.763     1000 
 1536000   0.46461511   -1.9519277   0.69622574   -1.2557019    0.1314006    11226.417     1000 
 1538000   0.46914759   -1.9448844   0.70301766   -1.2418668   0.13078467    11400.495     1000 
 1540000   0.48496827   -1.9304892   0.72672495   -1.2037643   0.13531082    11243.899     1000 
 1542000   0.48946444   -1.9533119   0.73346247   -1.2198495   0.13967152    11245.268     1000 
 1544000    0.4683865   -1.9864435   0.70187717   -1.2845663   0.11379285     11531.11     1000 
 1546000   0.46923697   -1.9434684   0.70315161   -1.2403168    0.1425045    11302.626     1000 
 1548000   0.48017756   -2.0304364   0.71954608   -1.3108903   0.11446411    11578.325     1000 
 1550000   0.50223537   -1.9227123    0.7525997   -1.1701126   0.11736384     11447.88     1000 
 1552000   0.47946805   -2.0190323   0.71848288   -1.3005494   0.12988356    11408.073     1000 
 1554000   0.47810044   -1.9889463   0.71643351   -1.2725128   0.12802483    11327.384     1000 
 1556000    0.4836597   -1.9858088   0.72476405   -1.2610447   0.14289305    11242.093     1000 
 1558000   0.50049661   -1.9619878   0.74999417   -1.2119937   0.13690844    11387.587     1000 
 1560000   0.48657303   -1.9501298   0.72912969   -1.2210001   0.13078651    11340.855     1000 
 1562000   0.47371984   -1.9796286   0.70986918   -1.2697594   0.11924912    11294.493     1000 
 1564000   0.49465426   -1.9516027   0.74123942   -1.2103633   0.13222044    11301.162     1000 
 1566000   0.46082843   -2.0224474    0.6905514    -1.331896   0.12476867    11519.832     1000 
 1568000   0.46774599   -1.9608574   0.70091737   -1.2599401   0.12682154    11497.006     1000 
 1570000   0.50712898   -1.9898807   0.75993277    -1.229948   0.13031157    11336.747     1000 
 1572000   0.46905276   -1.9645599   0.70287557   -1.2616843   0.12474042    11419.874     1000 
 1574000    0.4770237   -1.9230305   0.71482001   -1.2082105   0.12011168    11301.009     1000 
 1576000   0.49794891   -1.9607147   0.74617644   -1.2145383   0.13364061     11215.46     1000 
 1578000   0.47081793   -1.9942529   0.70552066   -1.2887322   0.13016022    11295.162     1000 
 1580000    0.4892887   -1.9719839   0.73319912   -1.2387847   0.12202869    11546.365     1000 
 1582000   0.46838688   -1.9807116   0.70187774   -1.2788339    0.1292237     11427.75     1000 
 1584000   0.49421992   -2.0020128   0.74058856   -1.2614242   0.12516008    11476.723     1000 
 1586000   0.47200234   -1.9768364   0.70729551   -1.2695409   0.13757904    11136.457     1000 
 1588000   0.50868416   -1.9708865   0.76226321   -1.2086233   0.13003759    11386.372     1000 
[...]
 2614000   0.47485665   -1.9635359    0.7115727   -1.2519632   0.12698278    11392.056     1000 
 2616000   0.48233989   -1.9182729   0.72278632   -1.1954866   0.14741257    11128.392     1000 
 2618000   0.46332262   -1.9704304   0.69428895   -1.2761414   0.11599166    11422.416     1000 
 2620000   0.49652628   -2.0266064   0.74404463   -1.2825617   0.13104391    11524.046     1000 
 2622000   0.47222768   -2.0406066   0.70763318   -1.3329734   0.10819529    11679.526     1000 
 2624000   0.48576294   -1.9457124   0.72791577   -1.2177966   0.13764622    11320.604     1000 
 2626000   0.47871975   -1.9979788   0.71736155   -1.2806172   0.12307997    11432.599     1000 
 2628000   0.47619667   -1.9640278   0.71358071   -1.2504471   0.11382173    11479.469     1000 
 2630000   0.47108571   -1.9801429   0.70592194    -1.274221   0.12728736    11440.733     1000 
 2632000   0.48732585   -1.9220591   0.73025779   -1.1918013   0.13528945    11361.232     1000 
 2634000   0.49028198   -1.9586112   0.73468755   -1.2239236   0.13888565    11354.513     1000 
 2636000   0.47433356      -1.9565   0.71078884   -1.2457112   0.12301732    11382.325     1000 
 2638000   0.46870726   -1.9777439   0.70235783   -1.2753861   0.13123925     11235.31     1000 
 2640000    0.4661763   -1.9931609   0.69856518   -1.2945957   0.13149947    11321.498     1000 
 2642000   0.47670422   -1.9242858   0.71434127   -1.2099445   0.13633551    11246.275     1000 
 2644000   0.48109747    -1.959014   0.72092455   -1.2380895    0.1454615    11322.444     1000 
 2646000   0.46796219   -1.9756542   0.70124134   -1.2744128   0.12159575    11416.903     1000 
 2648000   0.47310078   -1.9850905   0.70894153   -1.2761489   0.12526474    11378.341     1000 
 2650000    0.4876295    -1.990173    0.7307128   -1.2594602    0.1405905    11223.579     1000 
 2652000    0.4924927   -2.0112355   0.73800032   -1.2732352   0.13115871      11370.1     1000 
 2654000   0.49034306   -1.9669579   0.73477908   -1.2321788   0.13174815    11394.028     1000 
 2656000   0.48120915   -2.0040073   0.72109192   -1.2829154   0.13076056    11439.209     1000 
 2658000   0.46891197    -2.018928   0.70266458   -1.3162634   0.12766192    11449.148     1000 
 2660000   0.49065262   -1.9934766   0.73524295   -1.2582336   0.13218681    11509.016     1000 
 2662000   0.47119249   -1.9366681   0.70608194   -1.2305861   0.14411106    11273.696     1000 
 2664000    0.4863415   -1.9683796   0.72878273   -1.2395968   0.11918939    11516.426     1000 
 2666000   0.45719757   -2.0060078   0.68511056   -1.3208972   0.13229407    11399.936     1000 
 2668000   0.47965741    -2.003879   0.71876663   -1.2851124   0.12390663    11436.589     1000 
 2670000   0.48630641   -1.9775787   0.72873015   -1.2488486   0.13229844    11328.399     1000 
 2672000   0.48178513   -1.9601465   0.72195502   -1.2381915   0.13366451    11271.052     1000 
 2674000   0.48050767   -1.9714115   0.72004074   -1.2513707   0.12524824    11374.711     1000 
 2676000    0.4573925   -1.9188751   0.68540267   -1.2334724   0.12405833    11321.744     1000 
 2678000   0.50868065   -1.9559034   0.76225796   -1.1936454   0.13044613    11335.915     1000 
 2680000   0.48414647   -1.9602506   0.72549348   -1.2347571   0.13349174    11193.902     1000 
 2682000   0.48579106   -1.9434676    0.7279579   -1.2155097   0.13641351    11314.525     1000 
 2684000   0.46974763    -1.991329   0.70391682   -1.2874122   0.12077784    11573.251     1000 
 2686000   0.47397602   -1.9695176   0.71025307   -1.2592645   0.12606208    11373.755     1000 
 2688000    0.4970089   -2.0096625   0.74476783   -1.2648946    0.1194249    11421.927     1000 
 2690000   0.48050499   -1.9494931   0.72003673   -1.2294564   0.13060562    11315.746     1000 
 2692000    0.4658705   -1.9716607   0.69810695   -1.2735537   0.13425562    11337.564     1000 
 2694000   0.48609446     -2.02215   0.72841255   -1.2937374   0.12245626    11511.441     1000 
 2696000   0.47880011   -2.0063091   0.71748196   -1.2888272   0.13365714    11552.685     1000 
 2698000   0.49039741   -1.9866358   0.73486052   -1.2517753   0.14017104    11295.108     1000 
 2700000   0.48908691    -1.950262   0.73289674   -1.2173652   0.12047939    11298.737     1000 
 2702000   0.48430567   -2.0287939   0.72573204   -1.3030618   0.12401241    11591.254     1000 
 2704000   0.47129314   -1.9593272   0.70623277   -1.2530944   0.13339716    11260.638     1000 
 2706000    0.4756707   -1.9800179   0.71279255   -1.2672253     0.141044    11316.972     1000 
 2708000   0.49486806    -1.956377   0.74155979   -1.2148172   0.12948987    11435.541     1000 
 2710000   0.46920475   -1.9414975   0.70310332   -1.2383942   0.13783222    11162.614     1000 
 2712000   0.46033516   -2.0112034   0.68981223   -1.3213912   0.12496363    11515.261     1000 
 2714000   0.48404978   -1.9206298   0.72534859   -1.1952813   0.12830795    11397.224     1000 
 2716000   0.46682517   -2.0101859   0.69953752   -1.3106484    0.1305451    11472.346     1000 
 2718000   0.46937946   -2.0028852   0.70336512   -1.2995201   0.12561661    11402.788     1000 
 2720000   0.47743793   -1.9735232   0.71544074   -1.2580825    0.1442529    11256.033     1000 
 2722000   0.47368958   -2.0225341   0.70982383   -1.3127103   0.11302517    11485.854     1000 
 2724000   0.49284121   -1.9391847   0.73852255   -1.2006621   0.14049508    11411.843     1000 
 2726000   0.49668398   -1.9804341   0.74428094   -1.2361531   0.11458694    11454.452     1000 
 2728000   0.48633358   -1.9583724   0.72877087   -1.2296015   0.13590618    11315.746     1000 
 2730000   0.46013388   -2.0017396   0.68951063    -1.312229   0.12738138    11406.213     1000 
 2732000   0.49379043   -1.9833613   0.73994496   -1.2434164   0.13920468    11253.165     1000 
 2734000   0.44972515   -1.9708843   0.67391314   -1.2969712   0.11656376    11509.612     1000 
 2736000   0.48525828   -1.9578973   0.72715953   -1.2307378   0.14234104    11406.724     1000 
 2738000   0.45999433   -2.0026731    0.6893015   -1.3133716    0.1264101    11329.726     1000 
 2740000   0.46089518   -1.9551962   0.69065143   -1.2645448    0.1404181    11149.455     1000 
 2742000   0.49356671   -1.9929378   0.73960972    -1.253328   0.11733985    11517.433     1000 
 2744000   0.48500578   -1.9608809   0.72678116   -1.2340998   0.14181445    11253.509     1000 
 2746000   0.47877002   -1.9809286   0.71743688   -1.2634918   0.12972577      11292.9     1000 
 2748000   0.48081326   -2.0066544   0.72049868   -1.2861557   0.11524347     11596.89     1000 
 2750000   0.44910843   -1.9943028   0.67298898   -1.3213138   0.12896279    11349.545     1000 
 2752000   0.45466126   -1.9374922    0.6813099   -1.2561823   0.12501241     11327.22     1000 
 2754000   0.47443784   -1.9647835    0.7109451   -1.2538384   0.12125646    11525.247     1000 
 2756000   0.47056677   -2.0167598   0.70514431   -1.3116155   0.11987178    11511.998     1000 
 2758000   0.49056686   -1.9569636   0.73511444   -1.2218492   0.12822245    11382.917     1000 
 2760000   0.48439588   -2.0401702   0.72586723   -1.3143029    0.1208337    11482.222     1000 
 2762000   0.48728033   -1.9703792   0.73018958   -1.2401896   0.14150549    11387.551     1000 
 2764000   0.49025265   -1.9739238   0.73464359   -1.2392802    0.1286938    11358.603     1000 
 2766000    0.4798609   -1.9850637   0.71907156   -1.2659922    0.1079642    11450.643     1000 
 2768000   0.47813568   -1.9426369   0.71648632   -1.2261505   0.13149241    11468.173     1000 
 2770000   0.48760522   -1.9686546   0.73067642   -1.2379782   0.13803926      11254.6     1000 
 2772000   0.49382795   -1.9581609   0.74000119   -1.2181597   0.11678722    11402.704     1000 
 2774000   0.49123731   -1.9726425   0.73611911   -1.2365234   0.12829979    11471.553     1000 
 2776000    0.4799984   -1.9768481    0.7192776   -1.2575705   0.12995383    11278.853     1000 
 2778000   0.45740229    -1.980786   0.68541733   -1.2953687   0.12633995    11424.306     1000 
 2780000   0.47854679   -1.9358749   0.71710236   -1.2187725   0.13235287    11327.367     1000 
 2782000   0.47474953   -1.9367809   0.71141217   -1.2253687   0.13525145    11156.861     1000 
 2784000   0.48337425   -1.9894376   0.72433631   -1.2651013   0.13023632     11254.63     1000 
 2786000   0.47613717   -1.9736538   0.71349154   -1.2601623   0.11499182    11433.788     1000 
 2788000   0.48231548   -1.9767591   0.72274975   -1.2540093   0.11826589     11622.58     1000 
 2790000   0.47959037   -1.9815033   0.71866618   -1.2628371   0.12594442    11450.688     1000 
 2792000   0.46729381   -2.0027486   0.70023978   -1.3025089   0.13360132    11355.468     1000 
 2794000   0.48486064   -1.9744863   0.72656366   -1.2479226   0.12637909    11334.439     1000 
 2796000   0.48051504   -1.9388053   0.72005178   -1.2187535   0.11551926    11453.667     1000 
 2798000   0.46156345   -1.9818215   0.69165283   -1.2901687    0.1223446    11420.947     1000 
 2800000   0.49584574   -2.0036706   0.74302483   -1.2606457   0.12902544    11399.491     1000 
 2802000    0.4896904    -1.950349   0.73380107   -1.2165479   0.11636576    11466.332     1000 
 2804000    0.4751054   -1.9783751   0.71194544   -1.2664297   0.12973089    11447.839     1000 
 2806000   0.47649813   -1.9812105   0.71403244    -1.267178   0.12281213     11581.16     1000 
 2808000   0.49412276   -1.9882077   0.74044295   -1.2477648   0.13817219    11185.468     1000 
 2810000   0.48528233   -1.9811184   0.72719557   -1.2539229   0.13958837    11316.116     1000 
 2812000    0.4729214   -1.9958296   0.70867272   -1.2871569    0.1306436    11281.119     1000 
 2814000   0.48147887   -1.9658513   0.72149609   -1.2443552   0.12091835    11494.835     1000 
 2816000   0.49216507   -1.9804446   0.73750936   -1.2429352   0.12918297    11493.519     1000 
 2818000   0.48177766   -1.9819046   0.72194383   -1.2599607   0.12246643    11512.397     1000 
 2820000   0.48660115   -1.9182402   0.72917183   -1.1890683   0.12906565    11548.742     1000 
 2822000   0.48292078   -2.0307365   0.72365679   -1.3070797   0.12436741    11380.541     1000 
 2824000    0.4918384   -1.9692624   0.73701984   -1.2322425    0.1275434    11340.525     1000 
 2826000   0.48377687   -1.9784411   0.72493964   -1.2535015   0.12327423    11565.932     1000 
 2828000   0.48786755   -2.0303198   0.73106953   -1.2992503   0.12803378    11477.599     1000 
 2830000   0.47763773   -1.9993177   0.71574013   -1.2835776   0.12899012    11334.514     1000 
 2832000   0.50649359   -1.9663713   0.75898064   -1.2073907   0.12871985    11400.554     1000 
 2834000   0.47939039   -1.9699156    0.7183665   -1.2515491   0.13909327     11207.66     1000 
 2836000    0.4875872   -1.9763769   0.73064942   -1.2457275   0.12917202    11489.345     1000 
 2838000   0.49334542   -1.9595347   0.73927812   -1.2202566    0.1330538    11388.216     1000 
 2840000   0.47296977   -1.9943918   0.70874521   -1.2856466   0.12024198    11460.208     1000 
 2842000   0.47664051   -2.0125292   0.71424581   -1.2982834   0.13706593    11306.342     1000 
 2844000   0.48653987   -1.9870441   0.72907999   -1.2579641   0.13380097    11302.889     1000 
 2846000   0.49228449   -1.9670123    0.7376883    -1.229324   0.12853565     11492.26     1000 
 2848000   0.47952224   -1.9843476   0.71856407   -1.2657835   0.11852605    11529.111     1000 
 2850000   0.48676348   -2.0077443   0.72941507   -1.2783292   0.12191929    11419.181     1000 
 2852000   0.47869074   -1.9849781   0.71731807     -1.26766   0.14144892    11285.806     1000 
 2854000   0.46467837   -1.9654707   0.69632054   -1.2691502   0.13049637    11267.935     1000 
 2856000   0.47628528   -1.9679464    0.7137135   -1.2542329   0.13619254    11292.099     1000 
 2858000   0.46055305   -1.9890282   0.69013875   -1.2988895   0.11992776    11482.313     1000 
 2860000   0.47320136   -1.9456477   0.70909224   -1.2365555   0.13009746    11313.736     1000 
 2862000    0.4721163   -2.0253286   0.70746628   -1.3178623   0.11636403    11507.697     1000 
 2864000   0.48234119   -1.9921476   0.72278828   -1.2693593   0.12359987    11400.986     1000 
 2866000   0.49993943   -1.9690647   0.74915923   -1.2199054   0.12959235    11355.979     1000 
 2868000   0.48658441   -1.9934321   0.72914674   -1.2642854   0.12116815    11430.502     1000 
 2870000   0.46412693   -1.9621382   0.69549421    -1.266644   0.14436238     11171.05     1000 
 2872000   0.47189505   -2.0141927   0.70713474    -1.307058   0.12638777    11454.654     1000 
 2874000   0.48085379   -1.9761034    0.7205594    -1.255544    0.1403522     11382.17     1000 
 2876000   0.46909997   -1.9908481    0.7029463   -1.2879018   0.12585578    11492.516     1000 
 2878000   0.48636158   -1.9195831   0.72881282   -1.1907703   0.13210739    11285.358     1000 
 2880000   0.46190078   -1.9866188   0.69215831   -1.2944605   0.13003534    11286.859     1000 
 2882000   0.49864532   -1.9786802   0.74722001   -1.2314602   0.12481374    11522.986     1000 
 2884000   0.47326457   -1.9710979   0.70918697    -1.261911   0.12984609    11418.643     1000 
 2886000   0.47253895   -1.9660254   0.70809962   -1.2579257   0.13472379    11392.877     1000 
 2888000   0.48241716   -1.9256913   0.72290212   -1.2027892   0.12142266    11408.955     1000 
 2890000   0.47061458   -2.0065357   0.70521595   -1.3013197   0.13125357    11397.568     1000 
 2892000   0.48472259   -1.8994887    0.7263568   -1.1731319   0.12569798    11442.421     1000 
 2894000   0.50392493   -1.9821644    0.7551315   -1.2270329   0.14097581    11327.785     1000 
 2896000   0.47501628   -1.9596417    0.7118119   -1.2478298   0.11665129    11447.277     1000 
 2898000   0.46939083   -2.0406349   0.70338215   -1.3372528   0.13073259     11400.34     1000 
 2900000   0.48531049   -2.0116119   0.72723777   -1.2843742   0.12444493    11412.258     1000 
 2902000   0.47809905   -1.9664616   0.71643143   -1.2500302    0.1303214    11241.367     1000 
 2904000   0.48949971   -1.9422593   0.73351532    -1.208744   0.12527392    11355.628     1000 
 2906000   0.46202228    -1.976388   0.69234039   -1.2840476   0.13095851    11243.916     1000 
 2908000   0.48300366   -2.0284008   0.72378099   -1.3046198   0.11673804    11539.345     1000 
 2910000   0.47878282   -1.9886174   0.71745606   -1.2711613   0.13051111     11413.25     1000 
 2912000   0.46852538   -1.9638956   0.70208528   -1.2618104   0.13972095    11261.577     1000 
 2914000   0.46114826   -1.9719748   0.69103067   -1.2809442   0.12568471    11424.777     1000 
 2916000   0.49118358   -1.9944051    0.7360386   -1.2583665   0.12156721    11362.637     1000 
 2918000   0.46755472   -1.9374521   0.70063074   -1.2368214   0.14788573    11202.527     1000 
 2920000   0.49503457    -1.955995    0.7418093   -1.2141857   0.12581222    11341.398     1000 
 2922000    0.4872037   -1.9359163   0.73007474   -1.2058415   0.13104215    11310.265     1000 
 2924000   0.47727181    -1.991974   0.71519181   -1.2767822   0.13037991    11364.539     1000 
 2926000    0.4687665   -1.9633873    0.7024466   -1.2609407   0.14307685     11260.96     1000 
 2928000   0.47578327   -2.0052173   0.71296122   -1.2922561    0.1265961    11487.654     1000 
 2930000   0.47340035   -2.0451305   0.70939042   -1.3357401   0.12550707    11379.078     1000 
 2932000   0.49894406    -1.964511   0.74766767   -1.2168433   0.12552834    11541.692     1000 
 2934000   0.47135967   -2.0129607   0.70633247   -1.3066283   0.12902498    11389.727     1000 
 2936000   0.46229054    -2.005955   0.69274238   -1.3132126   0.13563063    11407.763     1000 
 2938000   0.46674509   -1.9805183   0.69941752   -1.2811008   0.12587417     11385.51     1000 
 2940000   0.47682033   -2.0167483   0.71451526    -1.302233   0.13848504    11365.887     1000 
 2942000   0.46885455   -1.9717485   0.70257855   -1.2691699   0.12541975    11319.471     1000 
 2944000   0.49182308    -1.959255   0.73699689   -1.2222581   0.12443143    11470.239     1000 
 2946000   0.47059134   -1.9664408   0.70518113   -1.2612597   0.13538519    11340.704     1000 
 2948000   0.48361874   -1.9804258   0.72470268   -1.2557231   0.12248328    11412.032     1000 
 2950000   0.47566496   -1.9657118   0.71278394   -1.2529278   0.12750088    11438.504     1000 
 2952000   0.45491084   -1.9338825   0.68168389   -1.2521986     0.128528    11449.335     1000 
 2954000   0.48855666    -1.945009   0.73210215   -1.2129069   0.15025101    11120.155     1000 
 2956000   0.47191968   -1.9639481   0.70717164   -1.2567765   0.11960423    11483.197     1000 
 2958000    0.4647344   -1.9372143    0.6964045   -1.2408098   0.13414012    11176.793     1000 
 2960000   0.48289281   -1.9512136   0.72361488   -1.2275988   0.13526683    11219.563     1000 
 2962000   0.47605469    -1.990632   0.71336795    -1.277264   0.11755821    11477.303     1000 
 2964000    0.5083667   -2.0124881    0.7617875   -1.2507006   0.13535784    11441.689     1000 
 2966000   0.48685545   -2.0115816   0.72955289   -1.2820287   0.12745493    11401.517     1000 
 2968000   0.49011224   -1.9934717   0.73443319   -1.2590385    0.1127596    11547.169     1000 
 2970000   0.46834332   -1.9843538   0.70181247   -1.2825414    0.1315004    11339.877     1000 
 2972000   0.48326202   -1.9399651   0.72416814   -1.2157969   0.12586826    11359.197     1000 
 2974000    0.4699184   -1.9437843   0.70417273   -1.2396116   0.12977278    11447.707     1000 
 2976000   0.48896636   -1.9671939   0.73271609   -1.2344778   0.12835338    11340.371     1000 
 2978000   0.47877182   -1.9650553   0.71743957   -1.2476157   0.12452894    11477.878     1000 
 2980000   0.46980693   -1.9551612   0.70400569   -1.2511555   0.12623873    11399.581     1000 
 2982000   0.48167514   -1.9661468    0.7217902   -1.2443566   0.13755847    11343.273     1000 
 2984000   0.48087863   -1.9777923   0.72059662   -1.2571956    0.1213926    11549.027     1000 
 2986000   0.47542423   -1.9668763   0.71242321   -1.2544531    0.1304439    11516.309     1000 
 2988000   0.48422254   -1.9451115   0.72560748   -1.2195041   0.13382295    11383.017     1000 
 2990000   0.47555783   -1.9810331   0.71262341   -1.2684097   0.12568365    11485.495     1000 
 2992000    0.4824542   -1.9759633   0.72295762   -1.2530056   0.12353088    11459.995     1000 
 2994000    0.4859824   -1.9163776   0.72824462    -1.188133   0.11809833    11312.278     1000 
 2996000   0.46675423   -1.9960421   0.69943121   -1.2966109   0.12442768    11530.239     1000 
 2998000   0.47381802    -1.969576    0.7100163   -1.2595597   0.13767958    11348.885     1000 
 3000000   0.49953108   -2.0009854   0.74854733   -1.2524381   0.12630202    11408.888     1000 
Loop time of 7272.29 on 1 procs for 3000000 steps with 1000 atoms

Performance: 178210.767 tau/day, 412.525 timesteps/s
100.0% CPU use with 1 MPI tasks x 1 OpenMP threads

MPI task timing breakdown:
Section |  min time  |  avg time  |  max time  |%varavg| %total
---------------------------------------------------------------
Pair    | 6559.3     | 6559.3     | 6559.3     |   0.0 | 90.20
Neigh   | 564.43     | 564.43     | 564.43     |   0.0 |  7.76
Comm    | 61.938     | 61.938     | 61.938     |   0.0 |  0.85
Output  | 0.027227   | 0.027227   | 0.027227   |   0.0 |  0.00
Modify  | 75.588     | 75.588     | 75.588     |   0.0 |  1.04
Other   |            | 11.01      |            |       |  0.15

Nlocal:        1000.00 ave        1000 max        1000 min
Histogram: 1 0 0 0 0 0 0 0 0 0
Nghost:        6023.00 ave        6023 max        6023 min
Histogram: 1 0 0 0 0 0 0 0 0 0
Neighs:        199898.0 ave      199898 max      199898 min
Histogram: 1 0 0 0 0 0 0 0 0 0

Total # of neighbors = 199898
Ave neighs/atom = 199.89800
Neighbor list builds = 150000
Dangerous builds not checked

Total wall time: 2:01:12
