LAMMPS (29 Sep 2021 - Update 2)
OMP_NUM_THREADS environment is not set. Defaulting to 1 thread. (src/comm.cpp:98)
  using 1 OpenMP thread(s) per MPI task
# ----------------------- Inicialização -----------------------

units			lj
atom_style 		atomic
dimension 		3
boundary 		p p p

# -------------------- Criação dos Átomos ---------------------

read_data 		topologia.txt
Reading data file ...
  orthogonal box = (0.0000000 0.0000000 0.0000000) to (21.540000 21.540000 21.540000)
  1 by 1 by 1 MPI processor grid
  reading atoms ...
  1000 atoms
  read_data CPU = 0.005 seconds

velocity 		all create ${temp} 87287 rot yes dist gaussian
velocity 		all create 0.38 87287 rot yes dist gaussian

# ------------------ Interação Interatômica -------------------

pair_style		table linear 2000
pair_coeff		1 1 force.table AA 10.0
WARNING: 3 of 2000 force values in table AA are inconsistent with -dE/dr.
WARNING:  Should only be flagged at inflection points (src/pair_table.cpp:465)
pair_coeff		1 2 force.table AB 10.0
WARNING: 1 of 2000 force values in table AB are inconsistent with -dE/dr.
WARNING:  Should only be flagged at inflection points (src/pair_table.cpp:465)
pair_coeff		2 2 force.table BB 10.0
pair_write		1 1 2000 r 0.008 10.0 table.check AA
Appending to table file table.check with DATE: 2023-06-17
Neighbor list info ...
  update every 1 steps, delay 10 steps, check yes
  max neighbors/atom: 2000, page size: 100000
  master list distance cutoff = 10.3
  ghost atom cutoff = 10.3
  binsize = 5.15, bins = 5 5 5
  1 neighbor lists, perpetual/occasional/extra = 1 0 0
  (1) pair table, perpetual
      attributes: half, newton on
      pair build: half/bin/atomonly/newton
      stencil: half/bin/3d
      bin: standard
pair_write		1 2 2000 r 0.008 10.0 table.check AB
Appending to table file table.check with DATE: 2023-06-17
pair_write		2 2 2000 r 0.008 10.0 table.check BB
Appending to table file table.check with DATE: 2023-06-17

neighbor 		0.3 bin
neigh_modify		every 20 delay 0 check no

# ------------------------- Ensemble --------------------------------------

fix 1			all npt temp ${temp} ${temp} 0.5 iso ${press} ${press} 5
fix 1			all npt temp 0.38 ${temp} 0.5 iso ${press} ${press} 5
fix 1			all npt temp 0.38 0.38 0.5 iso ${press} ${press} 5
fix 1			all npt temp 0.38 0.38 0.5 iso 0.13 ${press} 5
fix 1			all npt temp 0.38 0.38 0.5 iso 0.13 0.13 5

# ---------------------- Função de Distribuição Radial -----------------------

#compute RDF 		all rdf 2000 1 1 1 2 2 2
#fix 2 			all ave/time 1 2000 2000 c_RDF[*] file rdf.data mode vector

# ------------------------- Execução ---------------------------

timestep 		0.005
thermo_style		custom step temp pe ke etotal press vol atoms
thermo			2000
run			3000000
Per MPI rank memory allocation (min/avg/max) = 3.614 | 3.614 | 3.614 Mbytes
Step Temp PotEng KinEng TotEng Press Volume Atoms 
       0         0.38  -0.99611563      0.56943  -0.42668563   0.10596114    9993.9483     1000 
    2000   0.38475333   -2.2995319   0.57655286   -1.7229791   0.12714205    11410.115     1000 
    4000   0.37484807    -2.270942   0.56170983   -1.7092322   0.12706603    11464.827     1000 
    6000   0.37124649   -2.2880044   0.55631286   -1.7316916    0.1228759    11351.294     1000 
    8000   0.38140834   -2.3021452    0.5715404   -1.7306048   0.13036893    11329.433     1000 
   10000   0.37461038   -2.3032136   0.56135366   -1.7418599    0.1321915    11321.959     1000 
   12000   0.39315258   -2.3067004   0.58913914   -1.7175613   0.13251786    11283.098     1000 
   14000   0.39102299    -2.311677   0.58594795    -1.725729   0.12434496    11415.127     1000 
   16000   0.38839037   -2.2880471   0.58200298   -1.7060441     0.127226    11360.613     1000 
   18000   0.38656196   -2.3728282   0.57926309   -1.7935652    0.1174894    11536.143     1000 
   20000   0.37023031   -2.2821408   0.55479011   -1.7273507    0.1399282    11267.354     1000 
   22000   0.38173235   -2.3463746   0.57202592   -1.7743487   0.12406972    11384.768     1000 
   24000   0.37438929   -2.2650626   0.56102236   -1.7040402   0.13405272    11359.799     1000 
   26000   0.38383358   -2.2940291   0.57517462   -1.7188545   0.14137294    11245.455     1000 
   28000   0.38648539   -2.2987956   0.57914836   -1.7196472   0.13380085    11340.949     1000 
   30000    0.3737627   -2.2972817   0.56008341   -1.7371983   0.13803634    11300.452     1000 
   32000   0.37269639   -2.2988559   0.55848553   -1.7403703   0.11497114    11458.647     1000 
   34000   0.37789345   -2.3217987   0.56627334   -1.7555254   0.12793771    11400.617     1000 
   36000   0.37637163   -2.2649385   0.56399288   -1.7009456    0.1379208    11316.752     1000 
   38000   0.36627448   -2.3212224   0.54886231   -1.7723601   0.12303642     11374.46     1000 
   40000   0.38816963   -2.2573641    0.5816722   -1.6756919   0.15806384    11164.707     1000 
   42000   0.36346014   -2.2856391   0.54464502    -1.740994   0.13130198    11377.869     1000 
   44000   0.37460949   -2.3216675   0.56135232   -1.7603152   0.13928912    11270.088     1000 
   46000   0.37143446   -2.3154753   0.55659454   -1.7588808   0.12158062    11383.285     1000 
   48000   0.37623688   -2.3033974   0.56379096   -1.7396065   0.13532406    11315.715     1000 
   50000   0.38160414   -2.3327414   0.57183381   -1.7609076   0.12265049     11489.51     1000 
   52000   0.37005506   -2.2395067   0.55452751   -1.6849792   0.14246188    11178.104     1000 
   54000   0.38951965   -2.3327104   0.58369519   -1.7490152    0.1260522    11394.164     1000 
   56000   0.38642969    -2.311319   0.57906488   -1.7322541   0.12567517    11360.631     1000 
   58000   0.37111106   -2.2988554   0.55610993   -1.7427455   0.13136729    11371.508     1000 
   60000   0.38497981   -2.3203997   0.57689225   -1.7435074   0.12390848     11447.69     1000 
   62000   0.40297618   -2.3232705   0.60385981   -1.7194107   0.12185406    11398.812     1000 
   64000   0.37424172   -2.2484426   0.56080121   -1.6876414   0.11690233    11396.719     1000 
   66000   0.37935414    -2.338373   0.56846218   -1.7699108   0.12900547    11373.081     1000 
   68000   0.38124501    -2.279418   0.57129565   -1.7081223   0.12685706    11378.218     1000 
   70000   0.39717796   -2.2892578   0.59517117   -1.6940867   0.12026723    11436.265     1000 
   72000   0.37689297   -2.3018208   0.56477411   -1.7370466   0.12241977    11342.525     1000 
   74000   0.37658114   -2.3213076   0.56430684   -1.7570008   0.11818355    11501.097     1000 
   76000   0.38438101   -2.3076837   0.57599494   -1.7316888   0.11817395    11358.737     1000 
   78000     0.367344   -2.2874554   0.55046498   -1.7369904   0.13593672    11244.662     1000 
   80000    0.3695557   -2.2873646   0.55377922   -1.7335854   0.13084268    11319.247     1000 
   82000   0.36062337   -2.2889451   0.54039412    -1.748551   0.11623103    11454.687     1000 
   84000    0.3880373   -2.3187574    0.5814739   -1.7372835   0.12950106     11439.39     1000 
   86000   0.36205731   -2.3582065   0.54254288   -1.8156636    0.1296776    11377.289     1000 
   88000   0.36882089   -2.2948341    0.5526781    -1.742156   0.12559596    11378.946     1000 
   90000   0.37587347   -2.3033091    0.5632464   -1.7400628   0.13374418    11329.404     1000 
   92000   0.37967054   -2.3200549    0.5689363   -1.7511186   0.14428231    11240.754     1000 
   94000   0.37583599   -2.2705137   0.56319023   -1.7073235   0.13533489    11309.801     1000 
   96000   0.38855973   -2.3031407   0.58225676   -1.7208839   0.13126999    11320.702     1000 
   98000   0.38091418   -2.2752191    0.5707999   -1.7044192   0.13045716    11348.399     1000 
  100000    0.3888782   -2.2844399   0.58273398   -1.7017059   0.13168039    11316.907     1000 
  102000   0.38078282   -2.2691635   0.57060306   -1.6985604   0.12623448    11349.402     1000 
  104000   0.37588119   -2.2842789   0.56325796    -1.721021   0.11616503     11495.39     1000 
  106000   0.38496535   -2.3159139   0.57687058   -1.7390433   0.12379586    11374.355     1000 
  108000   0.38263905   -2.2927686   0.57338462    -1.719384   0.12929794    11394.097     1000 
  110000   0.37331951   -2.2930045   0.55941928   -1.7335852   0.12285026    11474.243     1000 
  112000   0.37958995    -2.338919   0.56881555   -1.7701034   0.12579437     11437.13     1000 
  114000   0.37158309   -2.3335272   0.55681726   -1.7767099   0.11571616    11473.133     1000 
  116000   0.37732832   -2.3672348   0.56542649   -1.8018083   0.11048861    11575.548     1000 
  118000   0.40504524   -2.3304908    0.6069603   -1.7235305   0.13300424    11357.474     1000 
  120000   0.39034539   -2.3235325   0.58493256   -1.7385999   0.12615137    11333.586     1000 
  122000    0.3913735   -2.2664665   0.58647318   -1.6799933   0.13443234    11359.697     1000 
  124000   0.38883184   -2.3460672   0.58266451   -1.7634027   0.12314678    11520.809     1000 
  126000   0.37085772   -2.3199065    0.5557303   -1.7641762   0.13677981    11294.096     1000 
  128000   0.39484539   -2.2858772   0.59167582   -1.6942014   0.13495968    11333.936     1000 
  130000   0.36403308   -2.3016191   0.54550357   -1.7561155   0.13055893    11342.839     1000 
  132000   0.37578787   -2.3050853   0.56311812   -1.7419671    0.1194197    11372.316     1000 
  134000   0.36413751   -2.3059429   0.54566005   -1.7602829   0.12406866    11431.762     1000 
  136000    0.3706593     -2.27745   0.55543296   -1.7220171   0.12793529    11383.801     1000 
  138000   0.38232695   -2.3307536   0.57291694   -1.7578366   0.12505815    11423.114     1000 
  140000   0.37583289   -2.3340835   0.56318559   -1.7708979   0.13505008    11299.627     1000 
  142000   0.38090642   -2.3283925   0.57078827   -1.7576043   0.12846503     11397.98     1000 
  144000   0.38068031   -2.2736836   0.57044945   -1.7032341   0.12317058    11347.584     1000 
  146000   0.38529977    -2.297263   0.57737171   -1.7198913   0.13449165    11303.274     1000 
  148000   0.38228821   -2.2920671   0.57285889   -1.7192082   0.12844231    11383.392     1000 
  150000   0.36376266   -2.2929612   0.54509835   -1.7478628   0.13299257    11332.203     1000 
  152000    0.3916169   -2.2791186   0.58683792   -1.6922807   0.13450621    11286.829     1000 
  154000   0.37336754   -2.2779274   0.55949127   -1.7184361   0.13440038    11255.157     1000 
  156000   0.38247794   -2.2929626   0.57314319   -1.7198194   0.13109069     11281.59     1000 
  158000   0.35766876   -2.2974547   0.53596663   -1.7614881   0.13255776    11313.592     1000 
  160000   0.38990937   -2.2986046    0.5842792   -1.7143254   0.12777006     11454.95     1000 
  162000   0.37801336   -2.2780897   0.56645302   -1.7116366   0.13700697    11288.643     1000 
  164000   0.38416968   -2.3205314   0.57567826   -1.7448532   0.12702368    11331.676     1000 
  166000   0.37653141    -2.269078   0.56423232   -1.7048457   0.14154808    11220.731     1000 
  168000   0.38282755   -2.3169934   0.57366708   -1.7433264   0.13255741     11346.49     1000 
  170000   0.37652627   -2.3094742   0.56422462   -1.7452495    0.1256845    11367.911     1000 
  172000    0.3861869   -2.2873024   0.57870107   -1.7086013   0.13277327    11398.447     1000 
  174000   0.35745588    -2.320308   0.53564763   -1.7846603   0.13976785    11294.965     1000 
  176000   0.38356232   -2.3005926   0.57476814   -1.7258245   0.13117714    11359.818     1000 
  178000   0.38844014    -2.370624   0.58207754   -1.7885465   0.13749362    11360.571     1000 
  180000   0.35510461   -2.3152801   0.53212425   -1.7831559   0.12491584    11440.052     1000 
  182000   0.37327642   -2.3182938   0.55935471   -1.7589391   0.14024413    11364.626     1000 
  184000   0.39000812   -2.3561216   0.58442717   -1.7716944   0.13922174    11374.435     1000 
  186000   0.38094782   -2.3441324    0.5708503   -1.7732821   0.12734077    11429.948     1000 
  188000   0.37816054   -2.3161746   0.56667357   -1.7495011   0.13428202    11304.746     1000 
  190000   0.38728726   -2.2705595   0.58034995   -1.6902096   0.13337882    11243.123     1000 
  192000   0.38744297   -2.2648132    0.5805833   -1.6842299   0.13670454     11216.02     1000 
  194000    0.3784342   -2.2706986   0.56708364   -1.7036149   0.13297188    11380.263     1000 
  196000   0.37655733   -2.3549994   0.56427116   -1.7907283   0.14445274    11300.864     1000 
  198000   0.39414693   -2.2817251   0.59062918   -1.6910959   0.13153585    11226.371     1000 
  200000   0.37811835    -2.290244   0.56661035   -1.7236336   0.12605168    11429.145     1000 
  202000   0.38007725   -2.3045565   0.56954577   -1.7350107   0.12252137    11483.406     1000 
  204000   0.36818532   -2.2856753    0.5517257   -1.7339496   0.13826899    11330.081     1000 
  206000   0.38265824   -2.2785559   0.57341337   -1.7051426   0.13109513    11366.166     1000 
  208000   0.39014583   -2.3137449   0.58463352   -1.7291114   0.14034203    11191.973     1000 
  210000   0.36462629   -2.3116794    0.5463925   -1.7652869   0.12831908    11292.252     1000 
  212000   0.37552789   -2.3039537   0.56272854   -1.7412251   0.14561062    11251.855     1000 
  214000   0.37459304   -2.2983509   0.56132767   -1.7370233   0.13155868      11380.8     1000 
  216000   0.39184687   -2.2888377   0.58718253   -1.7016551   0.13637745     11333.68     1000 
  218000   0.37587706   -2.2824929   0.56325177   -1.7192411   0.13023716     11396.02     1000 
  220000   0.38156352   -2.3232974   0.57177294   -1.7515244   0.11553704    11401.404     1000 
  222000   0.36704478    -2.281871    0.5500166   -1.7318544    0.1272625    11363.957     1000 
  224000   0.39095062   -2.3092188   0.58583951   -1.7233793   0.12507109    11389.572     1000 
  226000   0.37871374   -2.3004426   0.56750254   -1.7329401   0.12685805    11441.016     1000 
  228000   0.38143266   -2.2886765   0.57157684   -1.7170997   0.13014297    11249.433     1000 
  230000   0.38075381   -2.2745176   0.57055959    -1.703958   0.14284177     11129.49     1000 
  232000   0.39355854    -2.331087   0.58974747   -1.7413395   0.12871496    11367.457     1000 
  234000    0.3954759   -2.2935643   0.59262064   -1.7009437   0.13623254    11310.668     1000 
  236000   0.38386567   -2.3291461    0.5752227   -1.7539234   0.11823371    11493.311     1000 
  238000   0.38910644   -2.2812674     0.583076   -1.6981914   0.13600969    11328.411     1000 
  240000   0.37663301   -2.3234867   0.56438457   -1.7591021   0.12372455     11372.51     1000 
  242000   0.37907145    -2.273727   0.56803856   -1.7056885   0.12405038     11336.94     1000 
  244000   0.38374283    -2.292505   0.57503863   -1.7174663   0.13670449    11329.134     1000 
  246000   0.37367233   -2.2765781   0.55994798   -1.7166301   0.12913199    11238.032     1000 
  248000   0.37709506   -2.3040419   0.56507694    -1.738965   0.13142109    11248.143     1000 
  250000    0.3866341   -2.2953445   0.57937119   -1.7159734   0.13474027    11366.309     1000 
  252000   0.38693564   -2.3056684   0.57982306   -1.7258454   0.13030727    11387.335     1000 
  254000   0.38098416   -2.2676318   0.57090476    -1.696727   0.12318788    11416.911     1000 
  256000   0.38243127   -2.3084146   0.57307326   -1.7353413   0.12841607    11408.601     1000 
  258000   0.37827334   -2.3109157   0.56684259   -1.7440731   0.13116313    11318.439     1000 
  260000    0.3885862   -2.3195469   0.58229642   -1.7372505   0.14413664    11290.628     1000 
  262000   0.37015066   -2.2817716   0.55467077   -1.7271009   0.12150118    11401.641     1000 
  264000   0.39244329   -2.3400872   0.58807627   -1.7520109   0.12161547    11445.575     1000 
  266000   0.37566827   -2.2841025   0.56293891   -1.7211636    0.1236485    11332.295     1000 
  268000    0.3817828   -2.3237809   0.57210153   -1.7516794   0.13413505    11337.836     1000 
  270000   0.38590086   -2.2896145   0.57827244   -1.7113421   0.14421645    11250.901     1000 
  272000   0.40050184    -2.308851   0.60015201    -1.708699   0.14328727    11246.892     1000 
  274000   0.37209813   -2.3165828   0.55758904   -1.7589938   0.13262592    11296.083     1000 
  276000    0.3822485   -2.3480175   0.57279937   -1.7752181   0.11974632     11454.97     1000 
  278000   0.39890072   -2.2756311   0.59775273   -1.6778784   0.13950662    11309.857     1000 
  280000   0.38748866   -2.3131428   0.58065175   -1.7324911   0.12723049    11421.386     1000 
  282000   0.37749942   -2.3278462   0.56568288   -1.7621634    0.1262951    11428.956     1000 
  284000   0.38042631   -2.2727322   0.57006883   -1.7026634   0.13863654    11270.338     1000 
  286000   0.38093564   -2.3057515   0.57083205   -1.7349194    0.1209549    11402.306     1000 
  288000   0.38346295   -2.3095614   0.57461924   -1.7349421   0.13067377    11345.973     1000 
  290000   0.36917653   -2.2807737   0.55321103   -1.7275626   0.13586563    11216.341     1000 
  292000   0.38655567   -2.2712684   0.57925367   -1.6920147   0.13619892    11282.926     1000 
  294000   0.38627825   -2.3544611   0.57883796   -1.7756231   0.12860274     11492.15     1000 
  296000   0.37792307   -2.2612851   0.56631773   -1.6949674    0.1341815    11301.975     1000 
  298000    0.3769584   -2.2843778   0.56487216   -1.7195056   0.12280089    11365.348     1000 
  300000   0.37970231   -2.2791409    0.5689839    -1.710157   0.13280663    11303.499     1000 
  302000    0.3840278   -2.2786085   0.57546566   -1.7031428   0.13847275    11310.614     1000 
  304000   0.38439278    -2.239613   0.57601258   -1.6636004    0.1385818    11285.695     1000 
  306000   0.37175041   -2.3626161   0.55706799   -1.8055481   0.13616113    11367.601     1000 
  308000   0.37940512   -2.3164409   0.56853857   -1.7479024   0.12866858    11372.577     1000 
  310000   0.37175944   -2.2754868   0.55708152   -1.7184053   0.13149323     11293.57     1000 
  312000   0.39341908   -2.3194902    0.5895385   -1.7299517   0.12717884    11327.475     1000 
  314000   0.38272095    -2.364235   0.57350735   -1.7907277   0.13562089    11290.571     1000 
  316000    0.3739645    -2.320151    0.5603858   -1.7597652   0.14136528    11282.912     1000 
  318000   0.40673905   -2.2989986   0.60949846   -1.6895001    0.1345207    11277.971     1000 
  320000    0.3884227   -2.3100666   0.58205142   -1.7280151   0.13082732    11401.874     1000 
  322000   0.37317741   -2.2804328   0.55920635   -1.7212264   0.13060689     11319.72     1000 
  324000    0.3689595   -2.2978386   0.55288581   -1.7449528   0.12286593    11461.225     1000 
  326000    0.3747587   -2.2553298   0.56157591   -1.6937539   0.13602606    11265.496     1000 
  328000   0.37320232    -2.307315   0.55924368   -1.7480714   0.13625998     11306.52     1000 
  330000   0.39125954   -2.2461868   0.58630242   -1.6598844    0.1450854    11201.351     1000 
  332000   0.35568495   -2.3392469    0.5329939    -1.806253   0.12501551    11437.919     1000 
  334000   0.37145863   -2.3145231   0.55663075   -1.7578923    0.1361174    11249.837     1000 
  336000   0.36444481   -2.2787584   0.54612055   -1.7326378    0.1310346    11314.104     1000 
  338000   0.37685113   -2.3209011   0.56471142   -1.7561897   0.13182712    11331.684     1000 
  340000   0.36124241   -2.3325883   0.54132175   -1.7912665   0.12663473    11392.753     1000 
  342000   0.36254434   -2.3105388   0.54327269   -1.7672661   0.14255184    11442.029     1000 
  344000   0.37680436   -2.2805598   0.56464133   -1.7159185   0.13171917    11329.036     1000 
  346000   0.37522263   -2.3112858   0.56227111   -1.7490147    0.1266512    11360.882     1000 
  348000   0.38078056   -2.3017325   0.57059968   -1.7311328   0.13094632    11342.164     1000 
  350000   0.37447269   -2.2611586   0.56114733   -1.7000112    0.1407262    11297.817     1000 
  352000   0.38233593   -2.2998311   0.57293038   -1.7269008   0.11698263    11396.159     1000 
  354000   0.37343902   -2.3122048   0.55959837   -1.7526064   0.12628132      11347.3     1000 
  356000   0.39365817   -2.2827862   0.58989677   -1.6928894   0.14119401    11388.032     1000 
  358000   0.38683449   -2.2890256   0.57967149   -1.7093541   0.13195567     11342.92     1000 
  360000   0.38990306   -2.3254599   0.58426974   -1.7411902   0.13956442    11232.874     1000 
  362000   0.38613132   -2.2841344   0.57861778   -1.7055166    0.1317897    11390.914     1000 
  364000   0.37258902   -2.3398866   0.55832464    -1.781562   0.13360648    11356.451     1000 
  366000   0.40189343   -2.3070274    0.6022373   -1.7047901   0.13792581    11282.172     1000 
  368000   0.39285639    -2.315732   0.58869529   -1.7270367   0.12119452    11401.829     1000 
  370000   0.38314535    -2.279715   0.57414331   -1.7055717    0.1483367    11132.755     1000 
  372000   0.37838952     -2.31878   0.56701669   -1.7517633   0.12174971    11463.255     1000 
  374000   0.38551768   -2.3455545   0.57769825   -1.7678562   0.11957358    11444.994     1000 
  376000   0.38309209   -2.2697896   0.57406349   -1.6957261   0.13839775    11142.035     1000 
  378000   0.38140167   -2.2953225    0.5715304   -1.7237921   0.12785009     11341.54     1000 
  380000   0.38630802    -2.310323   0.57888256   -1.7314405   0.13198155    11320.194     1000 
  382000   0.38491384   -2.3058383   0.57679339   -1.7290449   0.13702758    11318.016     1000 
  384000   0.38005087    -2.272927   0.56950623   -1.7034208   0.14903873    11218.068     1000 
  386000   0.37865078   -2.2647508    0.5674082   -1.6973426   0.12846517    11366.424     1000 
  388000   0.37677064   -2.3178719   0.56459081   -1.7532811    0.1185103    11448.395     1000 
  390000   0.38503211   -2.2892079   0.57697061   -1.7122373   0.13130899    11301.941     1000 
  392000   0.35638178   -2.3158652    0.5340381   -1.7818271   0.13166652    11350.657     1000 
  394000   0.38595767   -2.3067013   0.57835757   -1.7283438   0.14116192    11274.088     1000 
  396000    0.3696398   -2.3226042   0.55390524    -1.768699   0.13543167    11317.188     1000 
  398000   0.36377239   -2.3011743   0.54511293   -1.7560613   0.13024207    11382.735     1000 
  400000   0.37376763   -2.2696034   0.56009079   -1.7095126   0.12683552    11299.759     1000 
  402000   0.38149406   -2.2923677   0.57166885   -1.7206989   0.11655963    11544.132     1000 
  404000   0.38088504   -2.2719711   0.57075623   -1.7012149   0.12602437    11436.915     1000 
  406000   0.37697981   -2.2483221   0.56490425   -1.6834178   0.13831927    11283.463     1000 
  408000   0.38331557   -2.3117819   0.57439838   -1.7373835    0.1276573    11380.067     1000 
  410000   0.38608508   -2.2873055    0.5785485    -1.708757    0.1328337    11295.527     1000 
  412000   0.36871845   -2.2917423   0.55252459   -1.7392177   0.12523751    11322.766     1000 
  414000   0.37446546   -2.2989555    0.5611365    -1.737819   0.12956396    11381.245     1000 
  416000   0.35309205   -2.3250035   0.52910844   -1.7958951   0.12835503    11353.285     1000 
  418000   0.37946938   -2.2590669   0.56863486   -1.6904321   0.12623866    11359.723     1000 
  420000   0.37522009   -2.3163932   0.56226731   -1.7541259   0.12401529    11452.339     1000 
  422000   0.39662339   -2.3336281   0.59434015    -1.739288   0.13495826     11355.07     1000 
  424000   0.38655322   -2.3330823   0.57925001   -1.7538323   0.12856936    11440.486     1000 
  426000   0.39624672   -2.3159435   0.59377571   -1.7221678   0.12640559     11425.48     1000 
  428000    0.3737236   -2.3138843   0.56002482   -1.7538594   0.13855046    11243.426     1000 
  430000   0.36072053   -2.2592819   0.54053971   -1.7187422   0.14025305    11250.083     1000 
  432000   0.37650774   -2.3068165   0.56419684   -1.7426196    0.1259376    11437.635     1000 
  434000    0.3632639   -2.3192709   0.54435095     -1.77492   0.13410391    11323.324     1000 
  436000    0.3771244    -2.293145   0.56512091   -1.7280241   0.13492418    11415.617     1000 
  438000   0.38476751   -2.3094209   0.57657411   -1.7328468   0.13233404    11346.379     1000 
  440000   0.36886646   -2.3134963   0.55274639   -1.7607499   0.13135452    11346.534     1000 
  442000   0.38473352   -2.2548554   0.57652318   -1.6783322    0.1349612    11311.177     1000 
  444000   0.37223182   -2.3206906   0.55778938   -1.7629012   0.13093219    11351.735     1000 
  446000    0.3719463   -2.3016537   0.55736153   -1.7442922   0.13243452    11287.226     1000 
  448000   0.39637207   -2.2947092   0.59396355   -1.7007456   0.13495425    11253.669     1000 
  450000   0.39467284   -2.3292037   0.59141725   -1.7377864   0.12352714    11419.505     1000 
  452000   0.36521544   -2.2991662   0.54727533   -1.7518909   0.13015639    11416.913     1000 
  454000   0.37728962   -2.2822457   0.56536849   -1.7168772   0.13143875    11338.857     1000 
  456000   0.38063456   -2.3190084   0.57038088   -1.7486275   0.11009636    11562.667     1000 
  458000   0.37520222    -2.282764   0.56224052   -1.7205235   0.13419393    11324.987     1000 
  460000   0.38603383   -2.3344896    0.5784717   -1.7560179    0.1244613    11429.679     1000 
  462000   0.36730914   -2.2777446   0.55041274   -1.7273319   0.13240787     11310.78     1000 
  464000   0.38455078   -2.3149238   0.57624935   -1.7386745   0.13101125    11349.597     1000 
  466000   0.38443113   -2.2920656   0.57607005   -1.7159956      0.14276    11223.104     1000 
  468000   0.37813318   -2.2584959   0.56663257   -1.6918634   0.13543259    11229.713     1000 
  470000   0.36119047   -2.2685171   0.54124392   -1.7272732   0.14293666    11290.929     1000 
  472000   0.37274825   -2.2745654   0.55856325   -1.7160021   0.13799675    11273.369     1000 
  474000    0.3918912   -2.3239433   0.58724896   -1.7366943   0.14186281     11399.41     1000 
  476000   0.38495134    -2.299849   0.57684959   -1.7229994   0.13396582    11278.131     1000 
  478000   0.39086228   -2.2965843   0.58570713   -1.7108771   0.12814583    11378.086     1000 
  480000   0.38219288   -2.3251275   0.57271604   -1.7524115   0.13967693    11297.147     1000 
  482000   0.38637867    -2.308582   0.57898843   -1.7295936   0.14501009    11220.238     1000 
  484000   0.37967688   -2.2891393    0.5689458   -1.7201935   0.13681152    11330.332     1000 
  486000   0.38096648   -2.3068723   0.57087827    -1.735994   0.12696899    11368.902     1000 
  488000   0.39385938   -2.3135806   0.59019828   -1.7233823   0.12471734    11379.477     1000 
  490000   0.38119075   -2.3469485   0.57121435   -1.7757342   0.11361654     11396.52     1000 
  492000   0.37461459    -2.300414   0.56135997   -1.7390541   0.13592847    11345.358     1000 
  494000   0.37417711   -2.3248725    0.5607044   -1.7641681   0.12811971    11364.227     1000 
  496000   0.36549324    -2.329916   0.54769162   -1.7822244   0.12990058    11326.292     1000 
  498000   0.37942971   -2.2889121   0.56857542   -1.7203367   0.13363706     11331.97     1000 
  500000   0.37482013   -2.2550085   0.56166796   -1.6933405   0.13252413     11398.48     1000 
  502000   0.39019894   -2.2890251   0.58471311    -1.704312   0.13166407    11303.632     1000 
  504000   0.36322374   -2.3350447   0.54429078   -1.7907539   0.12628471     11389.72     1000 
  506000   0.39584427   -2.2516215   0.59317265   -1.6584488   0.13441068    11319.089     1000 
  508000   0.37133723   -2.2917607   0.55644884   -1.7353118   0.13023471    11325.593     1000 
  510000   0.39246581   -2.3014215   0.58811001   -1.7133115    0.1309765    11420.955     1000 
  512000   0.37681293   -2.3358641   0.56465417   -1.7712099   0.14261518     11298.24     1000 
  514000   0.37799251   -2.2804778   0.56642178    -1.714056   0.13606822    11289.273     1000 
  516000   0.37504335   -2.3221679   0.56200246   -1.7601654   0.13502165    11282.582     1000 
  518000   0.36971777    -2.331082   0.55402208   -1.7770599   0.13484805    11348.441     1000 
  520000   0.38250648   -2.3179923   0.57318595   -1.7448064   0.13398972    11305.902     1000 
  522000   0.38466707   -2.2829253    0.5764236   -1.7065017   0.14298714    11260.707     1000 
  524000   0.37940219   -2.2840615   0.56853418   -1.7155273   0.12432551    11476.661     1000 
  526000   0.36509708   -2.3029856   0.54709797   -1.7558876   0.13184075    11317.124     1000 
  528000   0.37263921   -2.3273241   0.55839985   -1.7689242   0.12184466    11415.003     1000 
  530000   0.37872389   -2.3119584   0.56751775   -1.7444406   0.13105365     11351.94     1000 
  532000   0.38469832   -2.3193764   0.57647043    -1.742906    0.1240927    11363.523     1000 
  534000   0.38832601   -2.3288566   0.58190653   -1.7469501   0.12656474    11370.708     1000 
  536000   0.36211574   -2.3695137   0.54263044   -1.8268832   0.12163111    11425.065     1000 
  538000   0.39242153   -2.3224335   0.58804366   -1.7343899   0.13405499    11377.653     1000 
  540000   0.38095683   -2.2999718   0.57086381    -1.729108   0.12991481    11381.784     1000 
  542000   0.37364342   -2.3385996   0.55990466   -1.7786949   0.13329318    11352.358     1000 
  544000   0.36700952    -2.310614   0.54996376   -1.7606502   0.12847713    11424.856     1000 
  546000   0.37196131   -2.3243855   0.55738403   -1.7670014   0.12843457    11407.623     1000 
  548000   0.38332813   -2.2688328    0.5744172   -1.6944156   0.14738643    11236.088     1000 
  550000   0.37267324   -2.3092335   0.55845085   -1.7507826   0.12080124    11416.751     1000 
  552000   0.39051186   -2.3556361   0.58518202   -1.7704541   0.12943731    11405.156     1000 
  554000   0.38425773   -2.2976774    0.5758102   -1.7218672   0.13460801    11329.815     1000 
  556000   0.38639447   -2.3056585   0.57901211   -1.7266464    0.1383138    11317.239     1000 
  558000   0.38447536   -2.3378073   0.57613632    -1.761671   0.12622168    11308.196     1000 
  560000   0.37853585   -2.2897686   0.56723597   -1.7225327   0.12964832    11385.899     1000 
  562000   0.36836851   -2.2668151   0.55200021   -1.7148149   0.13092192    11329.708     1000 
  564000   0.37915752   -2.2789517   0.56816754   -1.7107842   0.12615559    11389.458     1000 
  566000   0.40042395   -2.2729617   0.60003529   -1.6729264   0.13734145    11344.123     1000 
  568000    0.3595314    -2.301353   0.53875781   -1.7625952   0.13076276    11326.453     1000 
  570000   0.36402832   -2.3351709   0.54549644   -1.7896744   0.12742795    11387.196     1000 
  572000   0.37245338   -2.3439941   0.55812139   -1.7858728     0.132371    11401.991     1000 
  574000   0.36694615   -2.2927122    0.5498688   -1.7428434   0.13547682    11270.125     1000 
  576000   0.37326964   -2.2657459   0.55934455   -1.7064014   0.13470801    11316.888     1000 
  578000   0.38039416   -2.2727071   0.57002065   -1.7026865   0.11841982    11429.298     1000 
  580000   0.37882112   -2.2685668   0.56766345   -1.7009034   0.13167182      11319.5     1000 
  582000   0.38719548   -2.2882117   0.58021243   -1.7079993   0.13734944    11266.334     1000 
  584000   0.37694688   -2.2827523    0.5648549   -1.7178974   0.13730663    11355.043     1000 
  586000   0.37955541   -2.2915629   0.56876379   -1.7227991   0.12443207    11343.554     1000 
  588000   0.37856036   -2.3104786    0.5672727   -1.7432059     0.131735    11357.012     1000 
  590000   0.37530135   -2.2702726   0.56238907   -1.7078836   0.12167662    11430.891     1000 
  592000   0.36776676   -2.3144226   0.55109848   -1.7633241   0.13143518    11360.893     1000 
  594000   0.37094659   -2.3424285   0.55586346    -1.786565   0.12155908    11398.759     1000 
  596000   0.37983432   -2.3158554   0.56918173   -1.7466737   0.13891084     11295.02     1000 
  598000   0.37670975   -2.3278159   0.56449957   -1.7633163   0.13485982    11310.494     1000 
  600000   0.37913863   -2.3416999   0.56813924   -1.7735607   0.12209605    11462.578     1000 
  602000   0.39338039   -2.3074731   0.58948051   -1.7179926   0.12987709    11475.668     1000 
  604000   0.38621991   -2.3017937   0.57875053   -1.7230431   0.13003394     11388.64     1000 
  606000   0.39881355   -2.2917446   0.59762211   -1.6941225    0.1396499    11315.335     1000 
  608000   0.37985953   -2.2932557   0.56921951   -1.7240362   0.12952829    11454.443     1000 
  610000   0.38840013    -2.295409    0.5820176   -1.7133914   0.13830418     11252.67     1000 
  612000   0.38022314   -2.3001541   0.56976437   -1.7303897   0.13797761    11300.954     1000 
  614000   0.39473702   -2.2909448   0.59151342   -1.6994314   0.12548893    11341.328     1000 
  616000   0.36263865   -2.2685378   0.54341401   -1.7251238   0.11479115     11458.06     1000 
  618000   0.37687923   -2.2971768   0.56475353   -1.7324233   0.13338471    11272.699     1000 
  620000   0.39942681   -2.2911105   0.59854107   -1.6925695   0.12605435    11431.399     1000 
  622000   0.38463517   -2.2661381    0.5763758   -1.6897623     0.115468    11424.775     1000 
  624000   0.36554947   -2.2923611   0.54777588   -1.7445852   0.13632271     11309.13     1000 
  626000   0.38924682   -2.2959261   0.58328636   -1.7126397   0.12411906     11432.02     1000 
  628000    0.3997833   -2.3111434   0.59907527   -1.7120682   0.12802629    11436.655     1000 
  630000   0.37196957    -2.360431    0.5573964   -1.8030346   0.12588758     11389.81     1000 
  632000   0.39228648   -2.3321792   0.58784129   -1.7443379   0.12107855    11403.003     1000 
  634000   0.37579152   -2.2980833    0.5631236   -1.7349597   0.13254667    11356.486     1000 
  636000   0.37912597   -2.2955167   0.56812026   -1.7273964   0.12837773    11330.749     1000 
  638000   0.37758303   -2.3026426   0.56580818   -1.7368345   0.12743511    11400.558     1000 
  640000   0.38142843   -2.2831492    0.5715705   -1.7115787   0.13353046     11373.66     1000 
  642000   0.38274111   -2.3153558   0.57353755   -1.7418183   0.11620147    11540.537     1000 
  644000   0.36118354    -2.307556   0.54123353   -1.7663225    0.1373945    11212.386     1000 
  646000   0.37255625   -2.2918794   0.55827553   -1.7336039   0.12572315    11405.852     1000 
  648000   0.37338829   -2.3053027   0.55952235   -1.7457804   0.14141703    11150.954     1000 
  650000   0.36817585    -2.319684   0.55171151   -1.7679724   0.13135531    11450.906     1000 
  652000   0.36804704   -2.2523277   0.55151849   -1.7008092   0.13542131    11257.367     1000 
  654000   0.37179075   -2.2896955   0.55712843   -1.7325671   0.13566039    11262.134     1000 
  656000   0.39005947   -2.2525045   0.58450411   -1.6680003   0.13809143    11336.368     1000 
  658000   0.38149776   -2.3275505   0.57167439   -1.7558762   0.12678044    11372.321     1000 
  660000   0.36837843   -2.3017959   0.55201507   -1.7497808   0.13250827    11322.933     1000 
  662000   0.37722117   -2.2835129   0.56526592    -1.718247   0.12507311    11428.413     1000 
  664000   0.39628109   -2.2569559   0.59382721   -1.6631287   0.11858328    11429.226     1000 
  666000   0.38364262   -2.3275137   0.57488847   -1.7526252   0.12967153    11395.787     1000 
  668000   0.37213953   -2.2963035   0.55765108   -1.7386524   0.11758001     11493.88     1000 
  670000   0.36351095   -2.3038797   0.54472116   -1.7591585   0.13062885     11359.22     1000 
  672000    0.3659406   -2.2834557   0.54836199   -1.7350937   0.11858176     11464.88     1000 
  674000   0.38333769    -2.273437   0.57443153   -1.6990054   0.13125479    11320.404     1000 
  676000   0.37726663   -2.2814824   0.56533405   -1.7161483   0.13184901    11326.215     1000 
  678000   0.38546283   -2.2866565   0.57761604   -1.7090405   0.13543101    11332.519     1000 
  680000   0.36852639    -2.291043    0.5522368   -1.7388062   0.12940843    11395.144     1000 
  682000   0.36868268   -2.3082923   0.55247099   -1.7558213   0.12738574     11427.49     1000 
  684000   0.38119224   -2.3020207   0.57121657   -1.7308041   0.12531601    11410.251     1000 
  686000   0.39719549   -2.3010135   0.59519744    -1.705816   0.12809799    11445.226     1000 
  688000    0.3771744   -2.2987197   0.56519583   -1.7335238   0.13099606    11411.647     1000 
  690000    0.3770464    -2.299546   0.56500404    -1.734542   0.12536176    11368.587     1000 
  692000   0.37415714    -2.316136   0.56067448   -1.7554615    0.1279468    11420.179     1000 
  694000   0.39552224   -2.2710108   0.59269008   -1.6783207   0.14661552    11289.939     1000 
  696000   0.38019305   -2.3266046   0.56971929   -1.7568853   0.12338668    11397.725     1000 
  698000   0.33812988   -2.3309151   0.50668763   -1.8242275   0.13528847    11306.113     1000 
  700000   0.36943946   -2.2598052   0.55360504   -1.7062002   0.13360173    11342.984     1000 
  702000   0.37606421   -2.2855973   0.56353222    -1.722065    0.1181335     11492.86     1000 
  704000   0.37993909   -2.3008147   0.56933873    -1.731476   0.12766651    11377.115     1000 
  706000   0.36421005   -2.3143083   0.54576876   -1.7685396   0.12367129    11425.232     1000 
  708000   0.40288915   -2.2879892   0.60372939   -1.6842598   0.13151307    11320.577     1000 
  710000   0.38746903   -2.2666519   0.58062234   -1.6860296   0.12708727    11391.941     1000 
  712000    0.3781565   -2.3214027   0.56666751   -1.7547352   0.12490843    11451.194     1000 
  714000   0.39904568   -2.3220762   0.59796995   -1.7241062   0.12857275    11369.261     1000 
  716000   0.38410587   -2.3386858   0.57558265   -1.7631032   0.12840935    11453.974     1000 
  718000   0.37032547    -2.327837   0.55493272   -1.7729043   0.13172211    11410.909     1000 
  720000   0.37625247    -2.326445   0.56381432   -1.7626307   0.13289493    11351.319     1000 
  722000   0.38936517   -2.3134309    0.5834637   -1.7299672   0.13510549    11336.459     1000 
  724000   0.38977071   -2.2807801   0.58407142   -1.6967087    0.1264022    11456.478     1000 
  726000   0.40057972    -2.231564   0.60026871   -1.6312953   0.12708997    11341.495     1000 
  728000   0.36684473   -2.2584946   0.54971683   -1.7087778   0.13041056    11328.729     1000 
  730000   0.38554541   -2.3123374    0.5777398   -1.7345976   0.13001707    11298.405     1000 
  732000   0.38379191   -2.3369702   0.57511218    -1.761858     0.116302    11412.279     1000 
  734000   0.37040378   -2.2503049   0.55505006   -1.6952548   0.13385364      11251.5     1000 
  736000   0.36568812   -2.3110626   0.54798365   -1.7630789   0.11524238    11458.889     1000 
  738000    0.3838931   -2.3299616   0.57526381   -1.7546978   0.13560086    11361.642     1000 
  740000   0.37588669   -2.3056271    0.5632662   -1.7423609    0.1190694    11407.184     1000 
  742000   0.38929878   -2.2703869   0.58336422   -1.6870226    0.1338113    11320.792     1000 
  744000   0.36362707   -2.2781971   0.54489516   -1.7333019   0.12144332    11424.795     1000 
  746000   0.38203249   -2.2861178   0.57247569   -1.7136421   0.13479771    11412.967     1000 
  748000   0.38271718   -2.2650178   0.57350169   -1.6915161   0.13790437    11248.921     1000 
  750000   0.37787533   -2.2774575   0.56624618   -1.7112113   0.14124398    11375.854     1000 
  752000   0.40010629   -2.3136701   0.59955928   -1.7141108   0.14824546    11303.724     1000 
  754000   0.36027824   -2.3395263   0.53987694   -1.7996494   0.13096927    11303.166     1000 
  756000   0.37383414   -2.3535578   0.56019047   -1.7933673   0.12413896    11523.256     1000 
  758000   0.37614143   -2.3014533   0.56364794   -1.7378053   0.11977153    11423.948     1000 
  760000   0.37443954   -2.3010703   0.56109765   -1.7399726    0.1300937    11392.238     1000 
  762000   0.38645114    -2.300984   0.57909704   -1.7218869   0.12449907    11445.496     1000 
  764000    0.3981636   -2.3396768   0.59664816   -1.7430287   0.13024302    11395.785     1000 
  766000   0.38164398   -2.2690197   0.57189351   -1.6971262   0.13279182    11318.988     1000 
  768000   0.37498482   -2.2839944   0.56191475   -1.7220797   0.12725346    11426.882     1000 
  770000   0.36964859   -2.3514486   0.55391841   -1.7975302    0.1205963    11520.083     1000 
  772000   0.39076211   -2.3189265   0.58555702   -1.7333694     0.133073    11406.316     1000 
  774000   0.37737426   -2.3184935   0.56549533   -1.7529982   0.12253105    11413.289     1000 
  776000   0.35520666   -2.2933775   0.53227718   -1.7611003   0.12475826    11304.126     1000 
  778000   0.38009614   -2.3003911   0.56957407    -1.730817   0.13633284     11339.13     1000 
  780000   0.35405305   -2.3005716    0.5305485   -1.7700231   0.11830106     11375.56     1000 
  782000   0.37139672   -2.3124713   0.55653798   -1.7559333   0.13917202     11337.83     1000 
  784000   0.37164807    -2.284878   0.55691464   -1.7279633   0.12824112    11399.506     1000 
  786000   0.39006321   -2.3298674   0.58450972   -1.7453576   0.13395719    11341.012     1000 
  788000   0.37447146   -2.3145394   0.56114549   -1.7533939   0.13705805    11374.551     1000 
  790000   0.37470755   -2.3160909   0.56149926   -1.7545917    0.1308649    11346.445     1000 
  792000   0.37588824   -2.3254092   0.56326853   -1.7621406   0.12609647     11458.19     1000 
  794000   0.37106511   -2.2487749   0.55604107   -1.6927338   0.11991342     11433.96     1000 
  796000   0.38486605   -2.2704965   0.57672177   -1.6937747   0.13446451    11335.517     1000 
  798000   0.36338803   -2.2785969   0.54453697     -1.73406    0.1219104    11452.253     1000 
  800000   0.36988523   -2.3048736   0.55427301   -1.7506006   0.12516601    11419.646     1000 
  802000   0.39553324   -2.3435326   0.59270657    -1.750826   0.12737575    11388.361     1000 
  804000   0.37786598   -2.3086866   0.56623217   -1.7424544   0.13000261    11394.209     1000 
  806000   0.36989079   -2.2712769   0.55428135   -1.7169956   0.13717725    11271.241     1000 
  808000   0.40281826   -2.3038895   0.60362317   -1.7002663   0.13436794    11318.647     1000 
  810000   0.39552188   -2.3019273   0.59268954   -1.7092378   0.13552427    11370.864     1000 
  812000   0.39805336   -2.2770833   0.59648296   -1.6806003   0.13852389     11339.42     1000 
  814000   0.37401182   -2.3274931   0.56045671   -1.7670364   0.11331033    11442.204     1000 
  816000   0.35497294   -2.2869977   0.53192696   -1.7550707   0.13465474    11359.222     1000 
  818000   0.37112687   -2.3046163   0.55613362   -1.7484827   0.13204418    11286.134     1000 
  820000   0.39490474   -2.2987677   0.59176475   -1.7070029   0.11909011    11508.018     1000 
  822000   0.39443852   -2.3087644   0.59106613   -1.7176982   0.13981084    11325.246     1000 
  824000   0.38683104   -2.3119951   0.57966632   -1.7323288   0.13745929    11293.777     1000 
  826000   0.38426463   -2.2938068   0.57582055   -1.7179863   0.13750089    11282.149     1000 
  828000   0.38601354    -2.330401    0.5784413   -1.7519597   0.12137533    11474.689     1000 
  830000    0.3842331   -2.3392395    0.5757733   -1.7634662   0.12447339    11435.359     1000 
  832000   0.39103762   -2.3107152   0.58596988   -1.7247453    0.1343892    11310.095     1000 
  834000   0.38943845   -2.3008362   0.58357351   -1.7172627   0.13254687    11358.966     1000 
  836000   0.38530213   -2.3018455   0.57737525   -1.7244702   0.13992898    11254.428     1000 
  838000   0.38898705   -2.2693678   0.58289709   -1.6864707   0.13499804    11332.528     1000 
  840000   0.37398316   -2.2709286   0.56041376   -1.7105148   0.12421223    11385.456     1000 
  842000    0.3947488   -2.3160653   0.59153108   -1.7245342   0.13575639    11358.068     1000 
  844000     0.385254   -2.3017911   0.57730312    -1.724488   0.12859988    11326.603     1000 
  846000   0.38653914   -2.2970235    0.5792289   -1.7177946   0.12385655    11333.714     1000 
  848000   0.40170215   -2.2894798   0.60195067   -1.6875291   0.11791267     11468.09     1000 
  850000   0.38044477   -2.2898526   0.57009649   -1.7197561   0.12745693    11423.247     1000 
  852000   0.37477114   -2.2954021   0.56159455   -1.7338075   0.13644297    11279.096     1000 
  854000     0.367703   -2.2840661   0.55100295   -1.7330632   0.14492252    11256.055     1000 
  856000   0.38392268   -2.3286891   0.57530814    -1.753381   0.12412827    11371.474     1000 
  858000   0.36307505   -2.2788138   0.54406797   -1.7347458   0.12670698    11334.242     1000 
  860000   0.39506568   -2.2987962   0.59200592   -1.7067903   0.13434048    11376.844     1000 
  862000   0.38820982     -2.31769   0.58173242   -1.7359576   0.12996214    11375.045     1000 
  864000    0.3775048   -2.3211155   0.56569094   -1.7554246   0.12722701    11386.187     1000 
  866000   0.38566153   -2.3116244   0.57791381   -1.7337106   0.14626769    11278.821     1000 
  868000   0.39322745   -2.3289512   0.58925134   -1.7396999   0.13112505    11445.098     1000 
  870000   0.36571861   -2.3265554   0.54802933    -1.778526   0.12592791    11418.336     1000 
  872000   0.38233197   -2.3217127   0.57292445   -1.7487883   0.13435168    11364.293     1000 
  874000   0.38280594   -2.2802689    0.5736347   -1.7066342   0.13108187    11310.993     1000 
  876000   0.38996462   -2.2488874   0.58436199   -1.6645254   0.13632528    11249.774     1000 
  878000   0.38750293   -2.2602348   0.58067313   -1.6795616   0.14203641    11203.149     1000 
  880000    0.3957257   -2.2607987   0.59299496   -1.6678037   0.14026335    11265.973     1000 
  882000   0.37543023   -2.2992343    0.5625822   -1.7366521    0.1286238    11454.945     1000 
  884000   0.36855609   -2.3263954   0.55228129   -1.7741141   0.12534094    11346.182     1000 
  886000   0.38203309   -2.2906692   0.57247658   -1.7181926   0.13001773    11351.619     1000 
  888000   0.37033105   -2.2503975   0.55494108   -1.6954564   0.14007028    11246.551     1000 
  890000   0.38573761   -2.2711912   0.57802781   -1.6931634   0.12754384     11302.06     1000 
  892000   0.38460015   -2.2800667   0.57632332   -1.7037434   0.14072758    11270.833     1000 
  894000   0.35546334   -2.2733356   0.53266182   -1.7406738   0.12377347    11337.646     1000 
  896000   0.36930056   -2.3429528   0.55339689   -1.7895559   0.13897715    11342.625     1000 
  898000   0.38995928    -2.325896   0.58435399    -1.741542   0.13359152    11317.146     1000 
  900000   0.37848767   -2.2860808   0.56716378    -1.718917   0.12395097    11370.918     1000 
  902000   0.37292935   -2.3036583   0.55883463   -1.7448236   0.12956819    11420.493     1000 
  904000    0.3712237   -2.3171391   0.55627871   -1.7608604   0.13827304    11259.519     1000 
  906000   0.39840265   -2.2483814   0.59700637   -1.6513751   0.13563056    11416.699     1000 
  908000   0.38470122    -2.297932   0.57647477   -1.7214572   0.11918842    11443.136     1000 
  910000   0.37755728   -2.2838209   0.56576959   -1.7180513   0.13686115    11369.387     1000 
  912000   0.38114366    -2.335999   0.57114377   -1.7648552   0.13283691    11343.726     1000 
  914000   0.37934416   -2.2449756   0.56844722   -1.6765284   0.14350902    11169.059     1000 
  916000    0.3832946   -2.2985375   0.57436696   -1.7241706   0.12899669    11356.604     1000 
  918000   0.37341667   -2.3030842   0.55956488   -1.7435193   0.12335895    11397.606     1000 
  920000   0.38710652   -2.3154393   0.58007911   -1.7353602    0.1354564     11331.41     1000 
  922000   0.37691761   -2.3397501   0.56481103   -1.7749391   0.12307949    11521.447     1000 
  924000    0.3891906   -2.2792643   0.58320211   -1.6960622   0.14081219    11293.804     1000 
  926000   0.37233307    -2.327221    0.5579411   -1.7692799   0.13095894    11405.905     1000 
  928000   0.38319718    -2.326453   0.57422097    -1.752232   0.12760503    11371.169     1000 
  930000   0.37462885   -2.2788816   0.56138134   -1.7175003   0.14371682    11194.675     1000 
  932000   0.38454666   -2.3332626   0.57624317   -1.7570195   0.11616689    11528.515     1000 
  934000   0.38097015   -2.3145857   0.57088376   -1.7437019   0.13187036    11328.086     1000 
  936000    0.3618643   -2.3218408   0.54225365   -1.7795871   0.11479459    11500.048     1000 
  938000   0.37261088   -2.3224795    0.5583574   -1.7641221   0.13113316    11361.138     1000 
  940000   0.37524719   -2.3321993   0.56230792   -1.7698914   0.12385443    11376.047     1000 
  942000    0.3748602   -2.2887461   0.56172802   -1.7270181   0.12957377    11280.099     1000 
  944000   0.38723563   -2.2857425    0.5802726   -1.7054699   0.13063798    11297.781     1000 
  946000   0.37447935   -2.2524978   0.56115731   -1.6913405   0.13198141     11250.48     1000 
  948000   0.38576626   -2.2276855   0.57807074   -1.6496147   0.13335038    11327.704     1000 
  950000   0.38794169    -2.351392   0.58133062   -1.7700614   0.12945146    11406.826     1000 
  952000    0.3734193   -2.3178861   0.55956883   -1.7583173   0.13546499    11227.615     1000 
  954000   0.36581219    -2.308432   0.54816957   -1.7602624   0.13119623    11343.814     1000 
  956000   0.36423206   -2.3472656   0.54580174   -1.8014638   0.13483501    11288.725     1000 
  958000    0.3829019   -2.2755671    0.5737785   -1.7017886   0.13789542    11272.588     1000 
  960000   0.37834519   -2.3014587   0.56695027   -1.7345084   0.13685281    11254.007     1000 
  962000    0.3776975   -2.3045445    0.5659797   -1.7385648   0.14409923     11214.49     1000 
  964000   0.39232113   -2.3428196   0.58789322   -1.7549264   0.12982124      11501.6     1000 
  966000   0.38965778   -2.2923547   0.58390219   -1.7084526   0.12918028    11314.887     1000 
  968000   0.37569104   -2.2943415   0.56297303   -1.7313685   0.12797573    11368.706     1000 
  970000   0.37694976   -2.3048537   0.56485922   -1.7399944   0.13030841    11364.765     1000 
  972000    0.3776375   -2.2982348    0.5658898    -1.732345   0.13005293    11363.002     1000 
  974000   0.37985962   -2.2873125   0.56921963   -1.7180929   0.13013299    11406.105     1000 
  976000   0.37714414   -2.3429385   0.56515049   -1.7777881   0.12816093    11345.822     1000 
  978000   0.36577787   -2.3119663   0.54811814   -1.7638482   0.12330737    11374.095     1000 
  980000   0.37767473   -2.2861796   0.56594558    -1.720234   0.13451022    11340.818     1000 
  982000   0.38227889    -2.284037   0.57284492    -1.711192   0.12404887    11442.568     1000 
  984000   0.39357612   -2.3470232   0.58977382   -1.7572494   0.12854149    11491.217     1000 
  986000   0.38220458   -2.3049025   0.57273356   -1.7321689   0.13955679    11329.582     1000 
  988000   0.37142165   -2.3183431   0.55657534   -1.7617678   0.13661671    11424.679     1000 
  990000   0.39005329   -2.3259966   0.58449486   -1.7415018   0.12796762     11447.13     1000 
  992000   0.37559018   -2.2957711   0.56282189   -1.7329492    0.1215703    11244.453     1000 
  994000   0.38886748   -2.2980275   0.58271792   -1.7153096   0.12645841    11362.118     1000 
  996000    0.3749016   -2.2842199   0.56179005   -1.7224298   0.11995778    11434.334     1000 
  998000   0.38727179   -2.3180166   0.58032677   -1.7376898   0.13152112    11330.597     1000 
 1000000   0.38400871   -2.2493293   0.57543706   -1.6738923    0.1393008    11168.163     1000 
 1002000   0.39044828   -2.2982934   0.58508675   -1.7132067   0.12672958    11431.603     1000 
 1004000    0.3789245   -2.2911732   0.56781836   -1.7233548    0.1262602    11404.284     1000 
 1006000    0.3774188   -2.3552138   0.56556207   -1.7896517   0.12750579    11271.721     1000 
 1008000   0.38446777   -2.3099804   0.57612496   -1.7338554   0.12528532    11351.019     1000 
 1010000   0.37915464   -2.3191043   0.56816322    -1.750941   0.13833522    11365.099     1000 
 1012000   0.36647895   -2.3084351    0.5491687   -1.7592664   0.13388268    11341.723     1000 
 1014000    0.3737683   -2.2886713    0.5600918   -1.7285795   0.13741681    11307.658     1000 
 1016000   0.37852924    -2.296145   0.56722606    -1.728919   0.13285015    11409.596     1000 
 1018000   0.36991279   -2.3277549   0.55431432   -1.7734406   0.12616922    11397.615     1000 
 1020000   0.38338556   -2.3037486   0.57450327   -1.7292453   0.13298808     11291.25     1000 
 1022000   0.38728073   -2.3285399   0.58034017   -1.7481997   0.13152206    11452.278     1000 
 1024000   0.39018888   -2.3441642   0.58469804   -1.7594662   0.13321735    11391.925     1000 
 1026000   0.36376695   -2.3155834   0.54510477   -1.7704787   0.12876407    11439.051     1000 
 1028000    0.3894116   -2.3080147   0.58353328   -1.7244815   0.13150188    11357.993     1000 
 1030000   0.37885494   -2.2823062   0.56771412   -1.7145921   0.14151618    11306.594     1000 
 1032000   0.37037267   -2.2643134   0.55500344   -1.7093099   0.12532577    11360.914     1000 
 1034000   0.39797834   -2.2766372   0.59637054   -1.6802667   0.14256955    11253.298     1000 
 1036000   0.39068922   -2.3284584   0.58544779   -1.7430106   0.12490078    11453.958     1000 
 1038000   0.38184037   -2.2959034   0.57218779   -1.7237156   0.11912937    11444.453     1000 
 1040000    0.3718192   -2.3311123   0.55717107   -1.7739412   0.11208149    11510.159     1000 
 1042000   0.36504041   -2.3351563   0.54701306   -1.7881433   0.13087909    11323.478     1000 
 1044000   0.37086351   -2.2937645   0.55573898   -1.7380255   0.12308833    11403.018     1000 
 1046000   0.38558926   -2.3105267   0.57780551   -1.7327212   0.12987922     11367.12     1000 
 1048000    0.3868817   -2.2973821   0.57974223   -1.7176398    0.1271301    11379.895     1000 
 1050000   0.37969492      -2.3067   0.56897283   -1.7377272   0.14073386    11310.821     1000 
 1052000   0.38063716    -2.298778   0.57038478   -1.7283932   0.12692785    11331.449     1000 
 1054000   0.37404185   -2.2817687   0.56050171    -1.721267   0.14158986    11256.992     1000 
 1056000   0.37988966   -2.2969979   0.56926465   -1.7277333   0.13960898    11287.899     1000 
 1058000   0.37282927   -2.3077352   0.55868466   -1.7490505   0.12664867    11435.318     1000 
 1060000   0.37313012   -2.3095957   0.55913548   -1.7504602   0.11795038    11480.014     1000 
 1062000   0.38000988   -2.3352159   0.56944481   -1.7657711   0.11869019    11447.343     1000 
 1064000   0.37293801   -2.3506837    0.5588476   -1.7918361   0.12430508     11397.27     1000 
 1066000   0.37783227   -2.3286461   0.56618166   -1.7624644   0.12596554     11376.06     1000 
 1068000   0.38545444   -2.3215815   0.57760348    -1.743978   0.11924028     11556.72     1000 
 1070000   0.37754954   -2.3172085   0.56575799   -1.7514505   0.11576916    11482.571     1000 
 1072000   0.38508188   -2.2570805    0.5770452   -1.6800353   0.14015521    11302.976     1000 
 1074000   0.37952688   -2.3175434   0.56872103   -1.7488224   0.13417505    11399.339     1000 
 1076000   0.38272565   -2.2925496   0.57351439   -1.7190352   0.13968465    11353.519     1000 
 1078000   0.36670667   -2.3149585   0.54950994   -1.7654486   0.11677607    11410.491     1000 
 1080000   0.38279719    -2.326399   0.57362159   -1.7527774    0.1356218    11333.417     1000 
 1082000   0.39773762   -2.3014418   0.59600983    -1.705432   0.13081725    11522.932     1000 
 1084000    0.3794636   -2.2841165    0.5686262   -1.7154903   0.12461218    11444.369     1000 
 1086000    0.3819998   -2.2913779    0.5724267   -1.7189512   0.12289477    11367.434     1000 
 1088000   0.37668273   -2.3128712   0.56445907   -1.7484121   0.13075084    11395.813     1000 
 1090000   0.38965964   -2.2698616   0.58390497   -1.6859567   0.13446573    11328.196     1000 
 1092000   0.37544284    -2.314145   0.56260109   -1.7515439   0.13213314     11349.45     1000 
 1094000   0.37591959   -2.3161118   0.56331551   -1.7527962   0.13962279    11308.053     1000 
 1096000   0.37358895   -2.3122117   0.55982305   -1.7523886   0.13542245    11265.437     1000 
 1098000   0.39452031   -2.2588855   0.59118868   -1.6676968   0.14975375    11226.659     1000 
 1100000   0.38569695    -2.289743   0.57796688   -1.7117761   0.12758585    11406.366     1000 
 1102000   0.39623131   -2.2602695   0.59375262   -1.6665169   0.13845644    11262.805     1000 
 1104000   0.37193653   -2.3082884    0.5573469   -1.7509415    0.1346162    11325.079     1000 
 1106000   0.38544719   -2.2756354   0.57759261   -1.6980428   0.13166806    11326.744     1000 
 1108000   0.38399942   -2.3357147   0.57542314   -1.7602916   0.13394846    11332.057     1000 
 1110000   0.39319905   -2.2853682   0.58920878   -1.6961594   0.13863752    11280.143     1000 
 1112000   0.38133171   -2.2839208   0.57142557   -1.7124953   0.14049952      11374.8     1000 
 1114000   0.37432377   -2.3248172   0.56092417    -1.763893    0.1304843    11416.913     1000 
 1116000   0.36868035   -2.2863601    0.5524675   -1.7338926   0.13124894    11301.775     1000 
 1118000   0.36964211   -2.2852381    0.5539087   -1.7313294   0.12275163    11356.763     1000 
 1120000     0.388691   -2.2717355   0.58245346    -1.689282   0.13474753     11296.58     1000 
 1122000   0.35914524   -2.3059959   0.53817915   -1.7678168   0.12951511    11382.938     1000 
 1124000   0.39985387   -2.3192173   0.59918102   -1.7200363   0.13327405    11339.675     1000 
 1126000   0.39696813   -2.3062502   0.59485674   -1.7113935   0.12188092    11392.453     1000 
 1128000   0.40684448   -2.2552573   0.60965645   -1.6456009   0.13451007    11300.296     1000 
 1130000   0.38876196    -2.316287    0.5825598   -1.7337272   0.13472389    11315.173     1000 
 1132000   0.38311478   -2.3292523    0.5740975   -1.7551548   0.11611895    11459.643     1000 
 1134000   0.38408328   -2.2649343    0.5755488   -1.6893855   0.13919475    11300.549     1000 
 1136000    0.3767727   -2.2744484   0.56459389   -1.7098545   0.13159563    11324.349     1000 
 1138000   0.37741191   -2.3115421   0.56555175   -1.7459903   0.12957762    11359.576     1000 
 1140000   0.37414842   -2.3073842   0.56066141   -1.7467228   0.12953482    11342.328     1000 
 1142000   0.38600699   -2.3091444   0.57843147   -1.7307129   0.12880051    11427.925     1000 
 1144000   0.38913051   -2.3045932   0.58311207   -1.7214811   0.12507388    11454.258     1000 
 1146000   0.36466435   -2.3663995   0.54644953     -1.81995   0.12260691    11431.227     1000 
 1148000   0.36639935   -2.2648157   0.54904943   -1.7157663   0.13069421      11398.3     1000 
 1150000   0.38492673    -2.344577    0.5768127   -1.7677643   0.11848333    11468.756     1000 
 1152000   0.38458672   -2.3247948   0.57630319   -1.7484916   0.14692895    11321.661     1000 
 1154000   0.40102892   -2.3210955   0.60094184   -1.7201537   0.13373934    11376.924     1000 
 1156000   0.38011473    -2.318267   0.56960192   -1.7486651    0.1337234    11284.937     1000 
 1158000   0.37846425   -2.2850993   0.56712868   -1.7179706   0.13477682    11217.329     1000 
 1160000   0.37819939   -2.3009581   0.56673179   -1.7342263   0.13214464    11368.505     1000 
 1162000    0.3865681   -2.2983047    0.5792723   -1.7190324   0.12680475    11424.196     1000 
 1164000   0.39089961   -2.2992053   0.58576307   -1.7134422   0.12671618    11360.837     1000 
 1166000   0.38019625   -2.3034265   0.56972408   -1.7337025   0.12731496    11367.621     1000 
 1168000   0.38239809   -2.3002613   0.57302354   -1.7272377   0.12609612    11360.515     1000 
 1170000   0.37346171   -2.2868472   0.55963237   -1.7272148   0.12989842    11432.783     1000 
 1172000   0.38756743   -2.3062666    0.5807698   -1.7254968   0.13023397    11382.673     1000 
 1174000   0.38097858   -2.3340543    0.5708964   -1.7631579   0.12112701    11555.363     1000 
 1176000   0.38582905   -2.3051367   0.57816483   -1.7269718   0.13315789    11331.994     1000 
 1178000   0.37469964   -2.2852051   0.56148741   -1.7237177   0.13758889    11425.627     1000 
 1180000   0.37255533   -2.3050242   0.55827416     -1.74675   0.13709545    11327.982     1000 
 1182000    0.3756672   -2.2787921    0.5629373   -1.7158548   0.14049913    11355.416     1000 
 1184000   0.36395857   -2.3525669   0.54539191    -1.807175   0.12386451    11320.794     1000 
 1186000   0.38234229   -2.3177348   0.57293992   -1.7447949   0.13141278    11407.879     1000 
 1188000   0.38440168   -2.3126063   0.57602592   -1.7365803   0.12978578    11328.931     1000 
 1190000   0.38386091   -2.2869495   0.57521557   -1.7117339   0.13599864    11259.965     1000 
 1192000    0.3561929   -2.2784358   0.53375507   -1.7446807   0.13139421    11379.882     1000 
 1194000   0.39194507   -2.3458062   0.58732968   -1.7584765   0.13452409    11265.804     1000 
 1196000   0.38726386   -2.3236467   0.58031489   -1.7433318   0.13056453    11307.359     1000 
 1198000   0.38845117   -2.3150845   0.58209408   -1.7329905   0.13602644    11319.401     1000 
 1200000   0.37753202   -2.3063278   0.56573173    -1.740596   0.11898156    11432.924     1000 
 1202000   0.36050046   -2.2680334   0.54020993   -1.7278234   0.14038475    11213.514     1000 
 1204000   0.38916152   -2.2765699   0.58315854   -1.6934113    0.1363526    11352.109     1000 
 1206000   0.37205823   -2.3128719   0.55752926   -1.7553426   0.12124791    11423.735     1000 
 1208000   0.38555908   -2.2957959   0.57776029   -1.7180356   0.13019487    11407.014     1000 
 1210000   0.37593613   -2.3012625   0.56334029   -1.7379222   0.13596856    11292.459     1000 
 1212000   0.36228268    -2.320779    0.5428806   -1.7778984    0.1214043    11377.013     1000 
 1214000    0.3828038   -2.3061048   0.57363149   -1.7324733   0.12793294    11411.252     1000 
 1216000   0.37526123   -2.3312802   0.56232895   -1.7689512   0.14030216    11249.178     1000 
 1218000    0.3746271   -2.3160858   0.56137871   -1.7547071   0.13711148    11229.381     1000 
 1220000   0.37928862   -2.2713434     0.568364   -1.7029794   0.13774629    11265.863     1000 
 1222000   0.37413091    -2.275414   0.56063516   -1.7147789    0.1270858    11262.355     1000 
 1224000   0.38226764   -2.3446137   0.57282806   -1.7717856   0.13583196    11325.383     1000 
 1226000   0.36179645   -2.3200864   0.54215199   -1.7779344   0.12697353    11364.847     1000 
 1228000   0.39285269   -2.2910512   0.58868975   -1.7023614   0.13567542    11309.791     1000 
 1230000   0.36193391   -2.2750218   0.54235796   -1.7326638   0.12230518    11363.688     1000 
 1232000   0.37938696   -2.2779327   0.56851136   -1.7094214   0.13506037    11415.947     1000 
 1234000   0.38914504   -2.2949834   0.58313384   -1.7118495   0.13810788    11297.021     1000 
 1236000   0.38043249   -2.3092482   0.57007809   -1.7391701     0.137629    11290.005     1000 
 1238000    0.3796185   -2.3574416   0.56885833   -1.7885833   0.12074622     11451.47     1000 
 1240000   0.38199354   -2.3087484   0.57241732   -1.7363311   0.13119618    11376.439     1000 
 1242000   0.37102195   -2.3531588   0.55597639   -1.7971825   0.12630104    11382.605     1000 
 1244000   0.39198709   -2.3262815   0.58739266   -1.7388889   0.12552098    11390.045     1000 
 1246000    0.3830205   -2.2818268   0.57395621   -1.7078706   0.14927128    11229.432     1000 
 1248000   0.38438323   -2.2999575   0.57599827   -1.7239592   0.13210344    11423.908     1000 
 1250000   0.38579993   -2.3260599    0.5781212   -1.7479387   0.12173837    11419.736     1000 
 1252000   0.37077683   -2.3000068   0.55560907   -1.7443977   0.13733351    11301.523     1000 
 1254000   0.36695151   -2.3186166   0.54987683   -1.7687398   0.11926518    11449.626     1000 
 1256000   0.37145303   -2.3016068   0.55662236   -1.7449844   0.12846602    11392.868     1000 
 1258000   0.37820416   -2.2922955   0.56673893   -1.7255566   0.12434225    11385.046     1000 
 1260000   0.39061429   -2.2930301   0.58533551   -1.7076946   0.12207398    11452.011     1000 
 1262000   0.39275807   -2.2862811   0.58854797   -1.6977331   0.13218272    11272.091     1000 
 1264000   0.37168009    -2.355868   0.55696262   -1.7989054   0.12890986    11359.307     1000 
 1266000   0.38567898   -2.3236562   0.57793995   -1.7457162   0.13637088    11400.548     1000 
 1268000   0.38934252   -2.2969008   0.58342977   -1.7134711   0.11901636      11368.5     1000 
 1270000   0.38018528   -2.3365437   0.56970765   -1.7668361   0.12440026    11439.495     1000 
 1272000   0.37616749   -2.3257006   0.56368699   -1.7620137   0.13112963    11301.812     1000 
 1274000   0.39065112   -2.2658934    0.5853907   -1.6805027   0.13953359    11252.872     1000 
 1276000   0.36882476   -2.2952925    0.5526839   -1.7426086   0.12677507    11311.445     1000 
 1278000   0.37711667   -2.3081306   0.56510932   -1.7430213    0.1268928    11377.169     1000 
 1280000   0.39921323   -2.3028546   0.59822102   -1.7046336   0.11716356    11439.354     1000 
 1282000   0.38953928    -2.279874   0.58372461   -1.6961494   0.12798322      11337.7     1000 
 1284000   0.38474729   -2.3329181   0.57654382   -1.7563743   0.12016251    11449.279     1000 
 1286000   0.37315724   -2.2862918   0.55917613   -1.7271157   0.13707733    11304.499     1000 
 1288000   0.37048927   -2.3200963   0.55517817   -1.7649181   0.13811118    11316.071     1000 
 1290000   0.39853354   -2.2875945    0.5972025    -1.690392   0.12363986    11427.746     1000 
 1292000   0.37656235   -2.2816564   0.56427868   -1.7173778   0.13810832    11297.345     1000 
 1294000   0.38880255   -2.3205251   0.58262063   -1.7379045   0.12408411    11364.634     1000 
 1296000   0.38478698   -2.2965711   0.57660329   -1.7199678   0.13202563    11332.498     1000 
 1298000   0.36364343   -2.3063468   0.54491967   -1.7614271   0.12389341     11448.76     1000 
 1300000   0.37973665   -2.3059561   0.56903538   -1.7369207   0.13398425    11320.252     1000 
 1302000   0.38281476   -2.2908905   0.57364792   -1.7172426   0.13626484     11353.96     1000 
 1304000   0.38334619    -2.331174   0.57444427   -1.7567298   0.13568666    11377.953     1000 
 1306000    0.3753421   -2.2613477   0.56245014   -1.6988975    0.1401883    11255.549     1000 
 1308000   0.40468936   -2.2927315   0.60642701   -1.6863045   0.13197219    11279.593     1000 
 1310000   0.37295902   -2.2786661   0.55887909    -1.719787   0.12633012    11335.494     1000 
 1312000   0.36527721   -2.2584197    0.5473679   -1.7110518   0.13691626    11235.518     1000 
 1314000   0.36788153   -2.2537414   0.55127047   -1.7024709   0.12510039    11369.328     1000 
 1316000   0.38050686   -2.2686593   0.57018953   -1.6984698   0.12253714     11365.28     1000 
 1318000   0.39240926   -2.3051286   0.58802527   -1.7171033   0.13020439    11329.188     1000 
 1320000   0.37945413   -2.3179591   0.56861201   -1.7493471   0.13037093    11420.689     1000 
 1322000   0.37003646   -2.3108751   0.55449963   -1.7563755   0.13655649    11357.658     1000 
 1324000   0.39489025   -2.3468381   0.59174304   -1.7550951   0.12026266    11472.441     1000 
 1326000   0.38329268   -2.2945793   0.57436408   -1.7202152   0.13478985    11387.286     1000 
 1328000   0.38142157   -2.2878802   0.57156023     -1.71632   0.13335062    11330.092     1000 
 1330000   0.39452881   -2.2933592   0.59120143   -1.7021578   0.13844432    11338.301     1000 
 1332000   0.38548703   -2.3076313   0.57765232    -1.729979   0.14218523    11295.613     1000 
 1334000    0.3794376   -2.3532473   0.56858725   -1.7846601   0.11946434    11475.541     1000 
 1336000   0.37351513   -2.2540588   0.55971242   -1.6943463    0.1290344    11377.481     1000 
 1338000   0.37277789   -2.2941577   0.55860767     -1.73555   0.13632511     11202.55     1000 
 1340000   0.36122524   -2.3033207   0.54129603   -1.7620247   0.13490567    11378.611     1000 
 1342000   0.36987913   -2.3148312   0.55426388   -1.7605673   0.12805952    11395.961     1000 
 1344000   0.38792862   -2.2637698   0.58131104   -1.6824588   0.12598344    11390.714     1000 
 1346000   0.38370501   -2.3211683   0.57498195   -1.7461864   0.14255939    11298.242     1000 
 1348000   0.37165359   -2.3466256   0.55692291   -1.7897027    0.1134022    11551.875     1000 
 1350000   0.37762009   -2.3094062    0.5658637   -1.7435425    0.1243972    11400.066     1000 
 1352000   0.38401694   -2.2858032   0.57544939   -1.7103538   0.13934593    11296.318     1000 
 1354000   0.39721889   -2.3100347   0.59523251   -1.7148022   0.12925486     11422.38     1000 
 1356000   0.39017953   -2.3345115   0.58468402   -1.7498275   0.13465959    11376.465     1000 
 1358000   0.38481498   -2.2885852   0.57664524     -1.71194    0.1333316    11403.467     1000 
 1360000   0.40192241   -2.2663773   0.60228073   -1.6640965   0.13905664    11246.406     1000 
 1362000   0.38870782   -2.2958744   0.58247867   -1.7133957    0.1149292    11468.735     1000 
 1364000   0.37121654   -2.2823826   0.55626799   -1.7261147   0.12560395    11396.937     1000 
 1366000    0.3788273   -2.2768953   0.56767271   -1.7092226   0.13888181    11314.583     1000 
 1368000    0.3738831   -2.2511262   0.56026382   -1.6908624   0.12897466    11297.282     1000 
 1370000   0.37610235   -2.2740341   0.56358937   -1.7104447   0.13658122    11368.964     1000 
 1372000   0.38935597   -2.2660495   0.58344992   -1.6825996   0.13244003    11279.752     1000 
 1374000    0.3839801   -2.3240272   0.57539419    -1.748633   0.12813809    11427.843     1000 
 1376000   0.38816464   -2.2733577   0.58166472    -1.691693   0.14415597    11267.866     1000 
 1378000   0.36495274   -2.2990317   0.54688169     -1.75215   0.12890548    11354.321     1000 
 1380000   0.37183753   -2.2752523   0.55719854   -1.7180538   0.12365596    11368.729     1000 
 1382000   0.37926569   -2.3053635   0.56832963   -1.7370339    0.1367081    11316.986     1000 
 1384000   0.38010149   -2.2885702   0.56958208   -1.7189881   0.12557991    11383.873     1000 
 1386000   0.38281064   -2.3292716   0.57364175   -1.7556299   0.13129272    11350.021     1000 
 1388000   0.38101466   -2.3085215   0.57095046    -1.737571   0.12418123    11397.183     1000 
 1390000   0.38418523   -2.2853016   0.57570157      -1.7096   0.13557243    11396.373     1000 
 1392000   0.38808393   -2.3215926   0.58154377   -1.7400488    0.1239331    11467.931     1000 
 1394000   0.38046363   -2.2910051   0.57012476   -1.7208803   0.13491167    11401.532     1000 
 1396000   0.35873366   -2.2943994    0.5375624    -1.756837   0.13017707    11329.571     1000 
 1398000   0.35885389   -2.3118649   0.53774255   -1.7741223   0.12358363    11428.757     1000 
 1400000   0.37317254   -2.3166838   0.55919905   -1.7574848    0.1250041    11353.886     1000 
 1402000   0.38220474   -2.3326014    0.5727338   -1.7598676   0.13429188    11352.566     1000 
 1404000   0.37255284   -2.2583597   0.55827044   -1.7000893   0.12295625    11378.712     1000 
 1406000   0.37696405    -2.279771   0.56488063   -1.7148904   0.13738248    11342.328     1000 
 1408000   0.37612156    -2.380487   0.56361815   -1.8168688   0.12654486    11372.997     1000 
 1410000   0.38518603   -2.3464219   0.57720126   -1.7692206   0.11724555    11565.637     1000 
 1412000   0.39835515   -2.2649939    0.5969352   -1.6680587   0.14201831      11244.7     1000 
 1414000   0.37659152   -2.3138973   0.56432239   -1.7495749   0.13220528    11365.538     1000 
 1416000   0.38458553   -2.3362499   0.57630142   -1.7599485   0.12340198    11484.515     1000 
 1418000   0.37853723   -2.2935275   0.56723803   -1.7262895    0.1387063     11172.77     1000 
 1420000   0.36952686    -2.298986   0.55373599     -1.74525    0.1324263    11313.287     1000 
 1422000   0.40057739   -2.2839002   0.60026522    -1.683635    0.1298575    11254.085     1000 
 1424000   0.38832991   -2.2476924   0.58191237     -1.66578   0.13318913    11265.244     1000 
 1426000   0.37949787   -2.2866733   0.56867756   -1.7179957   0.13852667     11248.75     1000 
 1428000   0.37744737   -2.3266003   0.56560488   -1.7609955   0.13066117    11324.357     1000 
 1430000   0.38695347   -2.2900735   0.57984977   -1.7102237   0.12928219    11406.814     1000 
 1432000   0.38969554   -2.3045925   0.58395877   -1.7206338   0.12247582     11368.48     1000 
 1434000   0.37987378   -2.3030197   0.56924087   -1.7337789   0.12929429    11404.212     1000 
 1436000   0.37130185   -2.2574485   0.55639582   -1.7010527   0.13253928    11333.409     1000 
 1438000   0.35910582   -2.2788636   0.53812007   -1.7407435   0.12671319    11352.897     1000 
 1440000   0.36598523   -2.3065294   0.54842886   -1.7581005   0.11755497     11383.14     1000 
 1442000   0.35647331   -2.2805131   0.53417525   -1.7463379   0.14241078    11209.243     1000 
 1444000    0.3732423   -2.2899722   0.55930358   -1.7306686   0.13041807     11334.43     1000 
 1446000   0.36733636   -2.2675684   0.55045353   -1.7171149   0.13708431    11249.818     1000 
 1448000   0.38831641   -2.3260335   0.58189214   -1.7441414   0.12497313    11421.457     1000 
 1450000   0.38653721   -2.2916063   0.57922602   -1.7123803    0.1391973    11329.562     1000 
 1452000   0.38490976   -2.3415145   0.57678728   -1.7647272   0.13253972     11446.91     1000 
 1454000   0.37889071   -2.3020894   0.56776773   -1.7343217   0.12409975    11459.805     1000 
 1456000   0.37845074   -2.2904683   0.56710844   -1.7233599    0.1257167    11334.931     1000 
 1458000   0.39551727   -2.3096077   0.59268263   -1.7169251   0.12935928    11191.787     1000 
 1460000   0.40768766   -2.3035483   0.61091996   -1.6926283   0.13664521     11380.32     1000 
 1462000   0.38280085   -2.3296852   0.57362708   -1.7560581   0.12503591    11323.625     1000 
 1464000   0.38613004   -2.3463532   0.57861587   -1.7677373    0.1441843    11365.134     1000 
 1466000   0.40212746   -2.3259923     0.602588   -1.7234043      0.11949    11461.525     1000 
 1468000   0.36296939   -2.3149764   0.54390963   -1.7710668   0.11726389    11511.806     1000 
 1470000   0.40337958    -2.326771    0.6044643   -1.7223067   0.12412596     11408.47     1000 
 1472000   0.37623545   -2.2572664   0.56378882   -1.6934776   0.13532297    11237.771     1000 
 1474000   0.37650638   -2.2961971   0.56419481   -1.7320022    0.1259577    11442.097     1000 
 1476000   0.39010132   -2.3086039   0.58456682   -1.7240371   0.13156873    11302.824     1000 
 1478000   0.36925056   -2.2649895   0.55332197   -1.7116675   0.13086088    11259.154     1000 
 1480000   0.38842444   -2.2867419   0.58205402   -1.7046878   0.12652467    11342.845     1000 
 1482000   0.38473433   -2.2897966   0.57652439   -1.7132722   0.12648999    11472.578     1000 
 1484000   0.39590037   -2.2840011    0.5932567   -1.6907444    0.1332285    11307.052     1000 
 1486000    0.3595741   -2.2878556   0.53882179   -1.7490338   0.12338057    11343.779     1000 
 1488000   0.37238119   -2.3247273   0.55801322   -1.7667141   0.12670003    11469.665     1000 
 1490000   0.37306422   -2.3022101   0.55903674   -1.7431733   0.12896773    11315.256     1000 
 1492000   0.38244901   -2.3329364   0.57309984   -1.7598366   0.13277109     11377.51     1000 
 1494000   0.37735805   -2.3260343   0.56547104   -1.7605632    0.1354525    11407.863     1000 
 1496000    0.3772018   -2.3083097   0.56523689   -1.7430728   0.13422685    11356.918     1000 
 1498000   0.38590126   -2.3283058   0.57827304   -1.7500328   0.13191034    11354.172     1000 
 1500000   0.37737827   -2.3232048   0.56550134   -1.7577034   0.13891875    11300.014     1000 
 1502000   0.39510808   -2.3430176   0.59206946   -1.7509481   0.13210251    11465.597     1000 
 1504000   0.37136372   -2.2881038   0.55648854   -1.7316153   0.13706044    11236.305     1000 
 1506000   0.38715519   -2.2759497   0.58015205   -1.6957977   0.13102597    11406.565     1000 
 1508000   0.38413058   -2.3190425   0.57561967   -1.7434228   0.13730925    11329.398     1000 
 1510000   0.40491413   -2.3252448   0.60676382    -1.718481   0.13487386      11399.9     1000 
 1512000   0.38304017   -2.3029999    0.5739857   -1.7290142   0.14354429    11281.678     1000 
 1514000   0.39615485   -2.3249866   0.59363805   -1.7313485   0.12399372    11368.372     1000 
 1516000   0.37639725    -2.330403   0.56403127   -1.7663717   0.12995353    11325.171     1000 
 1518000   0.37935389   -2.2942251   0.56846181   -1.7257633   0.13327918    11358.314     1000 
 1520000   0.37945716   -2.3062392   0.56861655   -1.7376226   0.12286212    11378.933     1000 
 1522000   0.39412074   -2.2841798   0.59058992   -1.6935899   0.11879979    11428.312     1000 
 1524000   0.38652413   -2.2804913   0.57920641   -1.7012849    0.1295609    11377.129     1000 
 1526000   0.37957226   -2.3273504   0.56878903   -1.7585614   0.11940797    11420.867     1000 
 1528000   0.36905393     -2.30185   0.55302731   -1.7488227   0.12916423    11319.324     1000 
 1530000   0.38348737   -2.3195986   0.57465583   -1.7449428   0.13092043    11363.367     1000 
 1532000     0.377501   -2.3081405   0.56568524   -1.7424553   0.11927409    11491.472     1000 
 1534000   0.38774522   -2.2621593   0.58103621   -1.6811231   0.12358095    11409.979     1000 
 1536000   0.35477049   -2.3454731   0.53162358   -1.8138495   0.12423417    11457.799     1000 
 1538000   0.36534253   -2.3078816   0.54746579   -1.7604158   0.14086936    11248.638     1000 
 1540000   0.38325973   -2.2751918    0.5743147   -1.7008771    0.1327759     11326.89     1000 
 1542000   0.37246786   -2.2865198   0.55814309   -1.7283767   0.12396089    11405.366     1000 
 1544000   0.38920724   -2.3525617   0.58322704   -1.7693346   0.13554635    11404.164     1000 
 1546000   0.37741349   -2.3366946   0.56555411   -1.7711405   0.12287865      11385.9     1000 
 1548000   0.37952778   -2.3018968   0.56872238   -1.7331744   0.12978653    11383.037     1000 
 1550000   0.36417233   -2.2596709   0.54571224   -1.7139587   0.13281198    11286.864     1000 
 1552000   0.38337745   -2.3250873   0.57449112   -1.7505962   0.11771166      11526.5     1000 
 1554000   0.37098542   -2.2926218   0.55592165   -1.7367002   0.12293954    11485.185     1000 
 1556000   0.37988404   -2.3307158   0.56925624   -1.7614596   0.13469698     11281.29     1000 
 1558000   0.36290915   -2.3331182   0.54381936   -1.7892988   0.13171443     11415.45     1000 
 1560000   0.38528952   -2.3028877   0.57735635   -1.7255314   0.13976716    11252.758     1000 
 1562000   0.39767047   -2.3407375   0.59590919   -1.7448283   0.13539377    11414.127     1000 
 1564000   0.37372643   -2.3029618   0.56002906   -1.7429327    0.1191415    11354.638     1000 
 1566000    0.3794559   -2.3014277   0.56861466   -1.7328131    0.1303704    11326.877     1000 
 1568000   0.38274482   -2.2897472   0.57354311   -1.7162041   0.15422197    11207.399     1000 
 1570000    0.3660407   -2.2960572   0.54851199   -1.7475452   0.12490536    11400.355     1000 
 1572000   0.37191379    -2.299385   0.55731282   -1.7420722   0.12721439    11381.125     1000 
 1574000   0.41294564   -2.2650064   0.61879905   -1.6462074    0.1392099    11308.943     1000 
 1576000    0.3790305   -2.3216027    0.5679772   -1.7536254   0.12566693    11422.607     1000 
 1578000   0.39107334   -2.3111948   0.58602341   -1.7251714   0.12248608    11457.481     1000 
 1580000   0.38306519   -2.2656435   0.57402319   -1.6916203    0.1364051    11308.658     1000 
 1582000   0.37756194   -2.3344132   0.56577657   -1.7686367   0.13007683    11383.635     1000 
 1584000   0.37332826   -2.3293069    0.5594324   -1.7698745   0.13353976    11361.945     1000 
 1586000   0.37449305   -2.2941635   0.56117783   -1.7329856   0.12839025    11406.347     1000 
 1588000   0.38678472   -2.3070298    0.5795969   -1.7274329   0.12093153    11399.126     1000 
[...]
 2614000   0.38276303   -2.2967488    0.5735704   -1.7231784   0.11741006     11406.08     1000 
 2616000   0.37936881   -2.2640487   0.56848417   -1.6955645   0.13638861    11232.682     1000 
 2618000   0.38424696   -2.3287402   0.57579406   -1.7529462   0.13012828    11348.052     1000 
 2620000   0.39264213    -2.330629   0.58837424   -1.7422547   0.13648016    11309.753     1000 
 2622000   0.38035724   -2.3196397   0.56996533   -1.7496744   0.13144583    11323.294     1000 
 2624000   0.37942939   -2.2959525   0.56857494   -1.7273776   0.13257889    11407.104     1000 
 2626000   0.36991077   -2.3214492   0.55431128   -1.7671379   0.12701879    11362.373     1000 
 2628000   0.39291226   -2.2977326   0.58877902   -1.7089536   0.14103785    11265.686     1000 
 2630000   0.37753462   -2.2807717   0.56573562   -1.7150361   0.15221268    11170.682     1000 
 2632000   0.39953622   -2.2880127   0.59870502   -1.6893077   0.14641877    11303.579     1000 
 2634000   0.38513646   -2.3139389   0.57712699   -1.7368119    0.1232136     11486.78     1000 
 2636000   0.38445007   -2.3213311   0.57609843   -1.7452327   0.12320289    11367.797     1000 
 2638000   0.37614502   -2.2346441   0.56365332   -1.6709908   0.13238753    11300.123     1000 
 2640000   0.37761168   -2.3214511    0.5658511      -1.7556   0.13443614    11430.152     1000 
 2642000   0.36804255   -2.3221328   0.55151176    -1.770621   0.12595368    11400.958     1000 
 2644000   0.37080649   -2.2833537   0.55565352   -1.7277001   0.13987887    11229.026     1000 
 2646000    0.3808481   -2.3068555   0.57070087   -1.7361547   0.15082572    11254.314     1000 
 2648000   0.37319466   -2.3049129    0.5592322   -1.7456807   0.12980793    11383.304     1000 
 2650000   0.38503894   -2.2788517   0.57698085   -1.7018708   0.13787665    11313.724     1000 
 2652000   0.36920022   -2.2832815   0.55324653   -1.7300349   0.13123903    11328.566     1000 
 2654000   0.38336901    -2.282725   0.57447845   -1.7082465   0.13857083    11255.317     1000 
 2656000   0.38589708   -2.3085314   0.57826678   -1.7302646    0.1307477    11379.138     1000 
 2658000   0.38458246   -2.2673323   0.57629682   -1.6910355   0.14408666    11194.033     1000 
 2660000   0.37353227   -2.3176879   0.55973811   -1.7579498   0.12318149    11477.226     1000 
 2662000   0.38037575    -2.285895   0.56999306   -1.7159019   0.12969545    11290.423     1000 
 2664000   0.38885624   -2.2986026   0.58270108   -1.7159015   0.13583933     11333.04     1000 
 2666000   0.39946965   -2.2987463   0.59860528    -1.700141   0.13727776    11335.007     1000 
 2668000   0.37778653   -2.2889405   0.56611312   -1.7228274   0.13058746    11401.576     1000 
 2670000   0.37522984   -2.2957326   0.56228191   -1.7334507   0.11637282    11385.059     1000 
 2672000   0.36509991    -2.330255   0.54710222   -1.7831527   0.12171646    11425.313     1000 
 2674000   0.38398763   -2.2820606   0.57540547   -1.7066551   0.13140097    11309.921     1000 
 2676000   0.37213938   -2.2893173   0.55765086   -1.7316665   0.12264358    11430.578     1000 
 2678000   0.38736163   -2.2928571    0.5804614   -1.7123957   0.13617919    11276.923     1000 
 2680000   0.37578666   -2.3487204   0.56311631   -1.7856041     0.130081    11422.826     1000 
 2682000    0.3807396   -2.3342665   0.57053829   -1.7637282   0.12590597    11474.827     1000 
 2684000   0.36932387   -2.3236932   0.55343182   -1.7702614   0.13033334    11370.548     1000 
 2686000   0.37880731   -2.3007867   0.56764276   -1.7331439   0.13854392    11293.769     1000 
 2688000   0.38575826   -2.3433193   0.57805876   -1.7652606   0.11787988     11389.52     1000 
 2690000   0.37399452   -2.3228088   0.56043079    -1.762378   0.13196152    11372.841     1000 
 2692000   0.37221747   -2.2918214   0.55776788   -1.7340535   0.12774476      11346.3     1000 
 2694000   0.37664651   -2.3153491   0.56440479   -1.7509443   0.11965414    11399.609     1000 
 2696000   0.36915122   -2.3327164    0.5531731   -1.7795433   0.12478939    11357.859     1000 
 2698000   0.37424387   -2.3220733   0.56080444   -1.7612688   0.12841939    11439.458     1000 
 2700000   0.37941507   -2.3303794   0.56855348   -1.7618259   0.13000484     11394.56     1000 
 2702000   0.37026118   -2.3162783   0.55483637   -1.7614419   0.12259001    11412.878     1000 
 2704000   0.39259765   -2.2800263   0.58830757   -1.6917187   0.13793028    11258.439     1000 
 2706000   0.38225274   -2.2857602   0.57280573   -1.7129545   0.13270381    11389.676     1000 
 2708000   0.36960674   -2.2753892   0.55385571   -1.7215335   0.13005003      11391.6     1000 
 2710000   0.36598051   -2.2821091   0.54842179   -1.7336873   0.12567276    11334.927     1000 
 2712000   0.37647634   -2.2940282    0.5641498   -1.7298784   0.13552536     11368.02     1000 
 2714000   0.37579158    -2.340628   0.56312368   -1.7775043   0.12470104    11398.525     1000 
 2716000   0.37628732    -2.281732   0.56386656   -1.7178655   0.13830882    11249.549     1000 
 2718000   0.38120251   -2.3042766   0.57123197   -1.7330446   0.13444439    11291.774     1000 
 2720000   0.39209289   -2.3130448   0.58755119   -1.7254936   0.12280452     11474.59     1000 
 2722000   0.39550594   -2.2940938   0.59266565   -1.7014282    0.1231027    11474.307     1000 
 2724000   0.37109407   -2.2888833   0.55608447   -1.7327988   0.12397068    11422.865     1000 
 2726000   0.39657619   -2.3341448   0.59426942   -1.7398754   0.13141897    11394.829     1000 
 2728000   0.37873758   -2.2414394   0.56753827   -1.6739012   0.14240417    11281.232     1000 
 2730000   0.37386491   -2.3120258   0.56023656   -1.7517893   0.13334552    11284.749     1000 
 2732000   0.38599601    -2.302818   0.57841502    -1.724403   0.12163914    11361.878     1000 
 2734000   0.37901535   -2.3168599    0.5679545   -1.7489054   0.13173037    11324.531     1000 
 2736000   0.38015028   -2.2404568    0.5696552   -1.6708016   0.12869942    11257.061     1000 
 2738000   0.38212336   -2.2878291   0.57261185   -1.7152172   0.13285452    11389.013     1000 
 2740000   0.37861684   -2.3467911   0.56735733   -1.7794337   0.12873688    11364.998     1000 
 2742000   0.38912987   -2.2817976   0.58311112   -1.6986865   0.13121789    11360.034     1000 
 2744000    0.3810274   -2.3389298   0.57096956   -1.7679602   0.13016787    11353.597     1000 
 2746000   0.38233582   -2.3095267   0.57293023   -1.7365964   0.12871049    11364.652     1000 
 2748000   0.39203037   -2.3025094   0.58745752   -1.7150519   0.13197339    11399.656     1000 
 2750000   0.37878372   -2.3146686   0.56760741   -1.7470611   0.12398907    11465.168     1000 
 2752000   0.39428634    -2.298119   0.59083808   -1.7072809   0.12057852    11447.151     1000 
 2754000   0.36547184   -2.3123249   0.54765955   -1.7646653   0.13874158    11324.319     1000 
 2756000   0.38310365   -2.3275661   0.57408082   -1.7534853   0.11997195    11498.109     1000 
 2758000   0.38913289   -2.3329265   0.58311564   -1.7498109   0.13388547    11356.142     1000 
 2760000   0.37692059   -2.3056325    0.5648155   -1.7408169   0.11458796    11419.415     1000 
 2762000   0.38518894   -2.3182132   0.57720563   -1.7410076   0.13856204    11311.529     1000 
 2764000   0.39919546   -2.2960747    0.5981944   -1.6978803   0.13591809     11286.21     1000 
 2766000   0.37844502   -2.3183956   0.56709986   -1.7512958   0.13036161    11388.815     1000 
 2768000    0.3861197   -2.3370426   0.57860037   -1.7584422   0.13078417    11425.491     1000 
 2770000   0.36870511   -2.3322315   0.55250461   -1.7797269   0.12440082    11491.351     1000 
 2772000   0.39135854   -2.3191699   0.58645077   -1.7327191   0.12998985    11391.131     1000 
 2774000   0.37452402   -2.2999469   0.56122425   -1.7387227   0.12345365    11407.043     1000 
 2776000   0.39299574    -2.296244   0.58890411   -1.7073399   0.12373984    11324.612     1000 
 2778000   0.36795432   -2.3172965   0.55137955    -1.765917   0.12180135    11354.561     1000 
 2780000   0.37895871   -2.2538931   0.56786963   -1.6860234   0.13188822    11288.213     1000 
 2782000   0.38844762   -2.2943768   0.58208876   -1.7122881    0.1315717    11358.013     1000 
 2784000   0.37345348   -2.3161291   0.55962005    -1.756509    0.1193447    11547.148     1000 
 2786000    0.3830122    -2.336173   0.57394379   -1.7622293    0.1332941      11369.9     1000 
 2788000   0.37608354   -2.2744711   0.56356118     -1.71091   0.13261768    11397.738     1000 
 2790000   0.37696692   -2.3187587   0.56488492   -1.7538738   0.12545571    11391.769     1000 
 2792000   0.39037073    -2.327426   0.58497054   -1.7424555   0.13150517     11352.63     1000 
 2794000   0.36054166   -2.3247584   0.54027168   -1.7844867    0.1224121    11413.268     1000 
 2796000   0.36625416   -2.3090071   0.54883186   -1.7601753   0.13120057    11337.964     1000 
 2798000   0.38119119   -2.3430774     0.571215   -1.7718624   0.13329343    11403.523     1000 
 2800000   0.39294229   -2.2595258   0.58882402   -1.6707017   0.13413095    11350.756     1000 
 2802000   0.36865177   -2.3133872   0.55242468   -1.7609625   0.12011164    11455.195     1000 
 2804000   0.38666658   -2.3643978   0.57941987   -1.7849779   0.12835609    11498.806     1000 
 2806000   0.36704631   -2.3154553   0.55001889   -1.7654364   0.11013679    11565.397     1000 
 2808000   0.38657685   -2.2964774   0.57928541    -1.717192   0.13589996    11271.507     1000 
 2810000   0.38032686   -2.3315543    0.5699198   -1.7616345   0.12644683    11415.838     1000 
 2812000   0.36915669   -2.3393816    0.5531813   -1.7862003   0.13118599    11346.843     1000 
 2814000   0.36212336   -2.2959875   0.54264186   -1.7533457   0.12693537    11349.108     1000 
 2816000    0.3759284   -2.3282297    0.5633287    -1.764901   0.12556514    11507.655     1000 
 2818000   0.37302371   -2.3149514   0.55897603   -1.7559754    0.1365046     11283.87     1000 
 2820000   0.37716861   -2.3646906   0.56518717   -1.7995034   0.11656368    11486.161     1000 
 2822000   0.34913603   -2.2824586   0.52318035   -1.7592783    0.1192636    11470.012     1000 
 2824000   0.36699233   -2.2796505   0.54993801   -1.7297125   0.13305769     11295.63     1000 
 2826000     0.370291   -2.2507289   0.55488106   -1.6958478   0.13552004    11250.667     1000 
 2828000   0.36958913   -2.2876829   0.55382931   -1.7338536     0.134423    11340.179     1000 
 2830000   0.36509211   -2.3458348   0.54709053   -1.7987443   0.13351848    11337.457     1000 
 2832000   0.38682322   -2.2899788   0.57965459   -1.7103242   0.13470473    11373.219     1000 
 2834000   0.39187582   -2.3390696   0.58722591   -1.7518437   0.13231255    11392.173     1000 
 2836000   0.37329572    -2.318897   0.55938363   -1.7595134   0.13010152    11418.971     1000 
 2838000   0.38584069   -2.2789072   0.57818227   -1.7007249    0.1452731    11294.319     1000 
 2840000   0.37715183   -2.2727415   0.56516202   -1.7075795   0.14984022    11299.589     1000 
 2842000   0.39029354   -2.2988716   0.58485486   -1.7140167   0.13678532    11326.062     1000 
 2844000   0.36835679   -2.2763361   0.55198266   -1.7243535   0.14625122    11183.409     1000 
 2846000   0.39232952   -2.3169572   0.58790578   -1.7290515   0.13592226    11299.145     1000 
 2848000   0.37744803   -2.3115707   0.56560588   -1.7459648   0.12539301    11381.612     1000 
 2850000   0.37920806   -2.2708851   0.56824327   -1.7026418   0.14227305    11264.452     1000 
 2852000   0.37053933   -2.2985533   0.55525319   -1.7433002   0.12622144    11346.284     1000 
 2854000   0.38783753    -2.306794   0.58117453   -1.7256194   0.12098309    11396.897     1000 
 2856000   0.37390609   -2.3388837   0.56029828   -1.7785854   0.12882932    11399.291     1000 
 2858000   0.39228539   -2.3072447   0.58783966    -1.719405   0.14338875    11305.658     1000 
 2860000   0.37580058    -2.289233   0.56313716   -1.7260958   0.12803362    11314.991     1000 
 2862000   0.38501149   -2.2945662   0.57693972   -1.7176265   0.12417485    11370.359     1000 
 2864000   0.37361088   -2.3256877   0.55985591   -1.7658317   0.12770853    11375.242     1000 
 2866000   0.35636753   -2.3166623   0.53401675   -1.7826456   0.11892373    11362.516     1000 
 2868000   0.38899121   -2.2778574   0.58290334    -1.694954   0.13534701    11311.134     1000 
 2870000   0.38317903    -2.282351   0.57419377   -1.7081572    0.1226694    11354.657     1000 
 2872000   0.37743708   -2.2933341   0.56558946   -1.7277446   0.13279291    11232.202     1000 
 2874000   0.38392375   -2.2237159   0.57530974   -1.6484062   0.15026747    11149.344     1000 
 2876000   0.36667656   -2.3062348   0.54946483     -1.75677   0.12848534    11330.645     1000 
 2878000   0.37195635   -2.2751259   0.55737659   -1.7177494   0.13632806    11357.662     1000 
 2880000   0.38747322   -2.2666513   0.58062863   -1.6860227   0.12754694    11378.825     1000 
 2882000    0.3947612   -2.2587261   0.59154966   -1.6671764   0.12257045    11421.575     1000 
 2884000    0.3761562   -2.3159994   0.56367007   -1.7523293    0.1347511    11323.119     1000 
 2886000   0.38918322   -2.3104597   0.58319106   -1.7272687   0.12514433    11420.825     1000 
 2888000   0.37361786   -2.2982657   0.55986636   -1.7383994   0.12868701    11407.984     1000 
 2890000   0.37830892   -2.3405622   0.56689591   -1.7736663   0.12419504    11523.637     1000 
 2892000    0.4061214   -2.2805725   0.60857292   -1.6719996   0.13946777    11242.479     1000 
 2894000   0.39996391   -2.2953022   0.59934592   -1.6959563    0.1270478    11421.066     1000 
 2896000   0.39663687   -2.3131455   0.59436036   -1.7187851   0.12856234    11417.987     1000 
 2898000   0.38826919   -2.2599786   0.58182138   -1.6781573   0.12473016    11422.077     1000 
 2900000   0.39916438   -2.2986795   0.59814782   -1.7005317   0.14196453    11237.079     1000 
 2902000   0.36150289   -2.3271451   0.54171208    -1.785433   0.12674475    11398.281     1000 
 2904000    0.3852571   -2.3025271   0.57730777   -1.7252193   0.13456501    11351.432     1000 
 2906000   0.38374821   -2.2829689   0.57504669   -1.7079222   0.13034583    11299.002     1000 
 2908000   0.37559635   -2.3101513   0.56283114   -1.7473202   0.12577144    11407.104     1000 
 2910000   0.38101364   -2.3164081   0.57094894   -1.7454592   0.12701776    11348.071     1000 
 2912000   0.37396495   -2.3036182   0.56038648   -1.7432317   0.13594279    11272.102     1000 
 2914000   0.37156139   -2.2881691   0.55678474   -1.7313844    0.1293711    11338.854     1000 
 2916000   0.38644707   -2.2790015   0.57909093   -1.6999106   0.13740608    11277.221     1000 
 2918000   0.36991464   -2.3041013   0.55431709   -1.7497842   0.12625059    11482.222     1000 
 2920000   0.38114143   -2.3473338   0.57114043   -1.7761933   0.12340825    11411.259     1000 
 2922000   0.36604952   -2.3927156    0.5485252   -1.8441904   0.11630868    11565.005     1000 
 2924000   0.38363537    -2.340493    0.5748776   -1.7656154   0.13792793    11375.732     1000 
 2926000   0.36222598   -2.2991232   0.54279563   -1.7563276   0.12193073    11472.535     1000 
 2928000   0.37368022   -2.3025937   0.55995982   -1.7426339   0.12024214    11403.764     1000 
 2930000      0.36481   -2.3046544   0.54666778   -1.7579866   0.13668645    11388.673     1000 
 2932000    0.3798193   -2.2877019   0.56915922   -1.7185427   0.12371927    11324.881     1000 
 2934000   0.38229605   -2.3007284   0.57287063   -1.7278578   0.13074334    11357.228     1000 
 2936000   0.37874887   -2.3022548   0.56755518   -1.7346996    0.1323242     11264.66     1000 
 2938000   0.37668449    -2.275216   0.56446171   -1.7107542   0.12447215    11398.234     1000 
 2940000   0.36495119   -2.2900967   0.54687936   -1.7432173   0.13142732    11269.322     1000 
 2942000   0.36815255   -2.2958589    0.5516766   -1.7441823   0.13039204    11325.935     1000 
 2944000   0.39317202   -2.3383888   0.58916827   -1.7492205   0.12624704    11407.165     1000 
 2946000   0.37457755   -2.2845758   0.56130445   -1.7232714   0.12132948    11398.306     1000 
 2948000   0.36540062   -2.2694432   0.54755282   -1.7218904   0.12676427    11375.829     1000 
 2950000   0.38704328   -2.3445576   0.57998435   -1.7645732   0.12292309    11458.332     1000 
 2952000   0.36779675   -2.3227793   0.55114343   -1.7716359   0.13267092    11318.376     1000 
 2954000   0.38379438   -2.3132689   0.57511588    -1.738153   0.12317904    11443.262     1000 
 2956000   0.38378504   -2.2884489   0.57510188    -1.713347   0.14299859    11193.798     1000 
 2958000   0.36419915   -2.3672803   0.54575243   -1.8215279   0.11723519    11485.621     1000 
 2960000   0.36736426    -2.281865   0.55049534   -1.7313697   0.13293904    11381.174     1000 
 2962000   0.39155759   -2.2934366   0.58674905   -1.7066875   0.13049393     11257.17     1000 
 2964000   0.37717302   -2.2892411   0.56519377   -1.7240474   0.12981515    11384.664     1000 
 2966000   0.38862752   -2.2791714   0.58235834    -1.696813   0.13744977    11350.111     1000 
 2968000   0.37546216   -2.2832017   0.56263004   -1.7205716   0.13923567    11329.478     1000 
 2970000   0.38350525   -2.3005067   0.57468261   -1.7258241   0.13099182     11369.73     1000 
 2972000   0.38532942    -2.317784   0.57741613   -1.7403679   0.12797851    11313.713     1000 
 2974000   0.39699046   -2.2919102   0.59489021     -1.69702   0.13514973    11314.084     1000 
 2976000   0.38062298    -2.332989   0.57036354   -1.7626254   0.11848768    11376.674     1000 
 2978000   0.37742909   -2.3301739    0.5655775   -1.7645964   0.12812296    11427.362     1000 
 2980000   0.38772443   -2.2843989   0.58100505   -1.7033939   0.13171616    11354.376     1000 
 2982000   0.37299598   -2.2991604   0.55893447   -1.7402259   0.12855306    11382.223     1000 
 2984000   0.38940156   -2.2767199   0.58351824   -1.6932017   0.13015704     11364.54     1000 
 2986000   0.39572917   -2.2473978   0.59300015   -1.6543976   0.14035281    11257.045     1000 
 2988000   0.38118827   -2.2998267   0.57121062   -1.7286161   0.13554083    11256.632     1000 
 2990000   0.39448367   -2.2735725   0.59113378   -1.6824387   0.11636504    11431.346     1000 
 2992000   0.38213724   -2.2788812   0.57263266   -1.7062486   0.13715987    11261.508     1000 
 2994000   0.38282733   -2.3045499   0.57366676   -1.7308831   0.12725274    11367.962     1000 
 2996000   0.38757256   -2.2997735   0.58077749    -1.718996   0.11490087    11513.592     1000 
 2998000   0.37697712   -2.3201156   0.56490021   -1.7552154   0.13697812    11376.027     1000 
 3000000    0.3760146   -2.3013361   0.56345788   -1.7378782   0.12999494     11308.73     1000 
Loop time of 7185.75 on 1 procs for 3000000 steps with 1000 atoms

Performance: 180357.071 tau/day, 417.493 timesteps/s
100.0% CPU use with 1 MPI tasks x 1 OpenMP threads

MPI task timing breakdown:
Section |  min time  |  avg time  |  max time  |%varavg| %total
---------------------------------------------------------------
Pair    | 6478.9     | 6478.9     | 6478.9     |   0.0 | 90.16
Neigh   | 558.52     | 558.52     | 558.52     |   0.0 |  7.77
Comm    | 61.715     | 61.715     | 61.715     |   0.0 |  0.86
Output  | 0.026736   | 0.026736   | 0.026736   |   0.0 |  0.00
Modify  | 75.717     | 75.717     | 75.717     |   0.0 |  1.05
Other   |            | 10.84      |            |       |  0.15

Nlocal:        1000.00 ave        1000 max        1000 min
Histogram: 1 0 0 0 0 0 0 0 0 0
Nghost:        6025.00 ave        6025 max        6025 min
Histogram: 1 0 0 0 0 0 0 0 0 0
Neighs:        201432.0 ave      201432 max      201432 min
Histogram: 1 0 0 0 0 0 0 0 0 0

Total # of neighbors = 201432
Ave neighs/atom = 201.43200
Neighbor list builds = 150000
Dangerous builds not checked

Total wall time: 1:59:45
