LAMMPS (29 Sep 2021 - Update 2)
OMP_NUM_THREADS environment is not set. Defaulting to 1 thread. (src/comm.cpp:98)
  using 1 OpenMP thread(s) per MPI task
# ----------------------- Inicialização -----------------------

units			lj
atom_style 		atomic
dimension 		3
boundary 		p p p

# -------------------- Criação dos Átomos ---------------------

read_data 		topologia.txt
Reading data file ...
  orthogonal box = (0.0000000 0.0000000 0.0000000) to (21.540000 21.540000 21.540000)
  1 by 1 by 1 MPI processor grid
  reading atoms ...
  1000 atoms
  read_data CPU = 0.005 seconds

velocity 		all create ${temp} 87287 rot yes dist gaussian
velocity 		all create 0.42 87287 rot yes dist gaussian

# ------------------ Interação Interatômica -------------------

pair_style		table linear 2000
pair_coeff		1 1 force.table AA 10.0
WARNING: 3 of 2000 force values in table AA are inconsistent with -dE/dr.
WARNING:  Should only be flagged at inflection points (src/pair_table.cpp:465)
pair_coeff		1 2 force.table AB 10.0
WARNING: 1 of 2000 force values in table AB are inconsistent with -dE/dr.
WARNING:  Should only be flagged at inflection points (src/pair_table.cpp:465)
pair_coeff		2 2 force.table BB 10.0
pair_write		1 1 2000 r 0.008 10.0 table.check AA
Appending to table file table.check with DATE: 2023-06-17
Neighbor list info ...
  update every 1 steps, delay 10 steps, check yes
  max neighbors/atom: 2000, page size: 100000
  master list distance cutoff = 10.3
  ghost atom cutoff = 10.3
  binsize = 5.15, bins = 5 5 5
  1 neighbor lists, perpetual/occasional/extra = 1 0 0
  (1) pair table, perpetual
      attributes: half, newton on
      pair build: half/bin/atomonly/newton
      stencil: half/bin/3d
      bin: standard
pair_write		1 2 2000 r 0.008 10.0 table.check AB
Appending to table file table.check with DATE: 2023-06-17
pair_write		2 2 2000 r 0.008 10.0 table.check BB
Appending to table file table.check with DATE: 2023-06-17

neighbor 		0.3 bin
neigh_modify		every 20 delay 0 check no

# ------------------------- Ensemble --------------------------------------

fix 1			all npt temp ${temp} ${temp} 0.5 iso ${press} ${press} 5
fix 1			all npt temp 0.42 ${temp} 0.5 iso ${press} ${press} 5
fix 1			all npt temp 0.42 0.42 0.5 iso ${press} ${press} 5
fix 1			all npt temp 0.42 0.42 0.5 iso 0.13 ${press} 5
fix 1			all npt temp 0.42 0.42 0.5 iso 0.13 0.13 5

# ---------------------- Função de Distribuição Radial -----------------------

#compute RDF 		all rdf 2000 1 1 1 2 2 2
#fix 2 			all ave/time 1 2000 2000 c_RDF[*] file rdf.data mode vector

# ------------------------- Execução ---------------------------

timestep 		0.005
thermo_style		custom step temp pe ke etotal press vol atoms
thermo			2000
run			3000000
Per MPI rank memory allocation (min/avg/max) = 3.614 | 3.614 | 3.614 Mbytes
Step Temp PotEng KinEng TotEng Press Volume Atoms 
       0         0.42  -0.99611563      0.62937  -0.36674563   0.10995956    9993.9483     1000 
    2000   0.41621161   -2.1095542    0.6236931    -1.485861   0.11556092    11413.305     1000 
    4000   0.43145585   -2.1833457   0.64653659   -1.5368091   0.12753181    11478.519     1000 
    6000   0.42337618   -2.1768743   0.63442921   -1.5424451   0.12787878    11332.585     1000 
    8000   0.41743157   -2.1373797   0.62552121   -1.5118585   0.13724347    11251.342     1000 
   10000   0.41723105   -2.1368701   0.62522073   -1.5116494   0.12746359    11346.293     1000 
   12000   0.40870243   -2.1783097   0.61244059   -1.5658691   0.11722044    11446.523     1000 
   14000   0.42413466   -2.1636871   0.63556579   -1.5281213   0.13199232    11390.092     1000 
   16000   0.41741136   -2.1718628   0.62549092   -1.5463718   0.13375841     11331.94     1000 
   18000   0.40571746   -2.1836794   0.60796762   -1.5757118   0.12221423    11399.079     1000 
   20000   0.41433594   -2.1507576   0.62088241   -1.5298752   0.12732625    11405.583     1000 
   22000   0.43273119   -2.1794555   0.64844769   -1.5310078   0.13639494    11280.322     1000 
   24000   0.41671368   -2.1620715   0.62444545   -1.5376261    0.1348733    11328.865     1000 
   26000   0.41300828   -2.1474757    0.6188929   -1.5285828    0.1294077    11364.109     1000 
   28000   0.42110927   -2.1481588   0.63103225   -1.5171266   0.12248715    11367.143     1000 
   30000   0.42925212   -2.1448354    0.6432343   -1.5016011   0.13509994    11307.041     1000 
   32000   0.42546056   -2.1882557   0.63755265   -1.5507031    0.1169135    11432.704     1000 
   34000   0.42444301   -2.2063648   0.63602785   -1.5703369   0.13304283    11330.332     1000 
   36000   0.40806645   -2.1929485   0.61148758   -1.5814609   0.12355293    11410.608     1000 
   38000   0.41643916   -2.1753771   0.62403408   -1.5513431   0.13214069    11414.576     1000 
   40000   0.42540375   -2.1535974   0.63746751   -1.5161299   0.13214458    11259.538     1000 
   42000   0.40974307   -2.1656134   0.61399999   -1.5516134   0.11636632    11437.044     1000 
   44000   0.42637711   -2.1957486    0.6389261   -1.5568225   0.13305022      11415.3     1000 
   46000   0.41765914   -2.1729616   0.62586222   -1.5470994   0.12921966    11387.816     1000 
   48000    0.4093347   -2.1615547   0.61338804   -1.5481667   0.12650974    11372.464     1000 
   50000   0.42681718   -2.1154354   0.63958554   -1.4758498   0.13102555    11328.906     1000 
   52000    0.4242267      -2.1641   0.63570371   -1.5283962   0.13940695    11252.334     1000 
   54000     0.413659   -2.1658823   0.61986801   -1.5460143   0.12806042    11379.126     1000 
   56000   0.43044341   -2.1758669   0.64501945   -1.5308474   0.12856924    11455.481     1000 
   58000   0.42370696   -2.1468471   0.63492488   -1.5119222   0.13030139        11340     1000 
   60000   0.41108319   -2.1727861   0.61600815    -1.556778   0.13200657    11414.792     1000 
   62000   0.41993924   -2.1919446   0.62927895   -1.5626657   0.13646553    11348.328     1000 
   64000   0.42932225   -2.1527438    0.6433394   -1.5094044   0.12273552     11343.65     1000 
   66000   0.43245966   -2.1806058   0.64804081    -1.532565    0.1262435    11444.593     1000 
   68000   0.42551481   -2.1773111   0.63763394   -1.5396772   0.13378404    11322.045     1000 
   70000   0.41887231   -2.1883134   0.62768016   -1.5606332   0.14091084     11236.03     1000 
   72000   0.41387911   -2.1660192   0.62019785   -1.5458214    0.1288616     11430.49     1000 
   74000   0.42485354   -2.1077768   0.63664303   -1.4711338   0.14379682    11173.439     1000 
   76000   0.39487017   -2.1697785   0.59171295   -1.5780656   0.12352889    11383.909     1000 
   78000   0.43106222   -2.1597777   0.64594674    -1.513831   0.12077695     11483.91     1000 
   80000    0.4222189    -2.138896   0.63269503    -1.506201   0.12175839    11391.928     1000 
   82000   0.42588107   -2.1637408   0.63818279    -1.525558   0.12997205    11290.458     1000 
   84000   0.41702925    -2.189139   0.62491833   -1.5642206   0.11964887    11563.397     1000 
   86000    0.4289104   -2.1774745   0.64272224   -1.5347522   0.13614309     11339.29     1000 
   88000   0.42187374   -2.1476002    0.6321778   -1.5154224   0.13215424    11301.232     1000 
   90000   0.41997683   -2.1864381   0.62933528   -1.5571028   0.12670287    11385.535     1000 
   92000   0.43438771   -2.1678469   0.65092998   -1.5169169   0.12879203    11370.481     1000 
   94000   0.42022429   -2.1117437   0.62970611   -1.4820376   0.13212873    11337.841     1000 
   96000   0.41605799   -2.1851533   0.62346289   -1.5616904   0.12527671     11393.13     1000 
   98000   0.41554262   -2.1272078   0.62269061   -1.5045172   0.12336496    11341.362     1000 
  100000   0.40992956   -2.1016935   0.61427945    -1.487414   0.13375405    11193.571     1000 
  102000   0.42511182   -2.1682009   0.63703006   -1.5311708   0.14455031    11231.173     1000 
  104000   0.43053887   -2.1807649   0.64516249   -1.5356024   0.12391662    11466.294     1000 
  106000   0.42885223   -2.1377828   0.64263506   -1.4951478    0.1312165    11404.574     1000 
  108000   0.42429712   -2.1157067   0.63580924   -1.4798974   0.13446119    11348.558     1000 
  110000   0.41372527   -2.1662685   0.61996732   -1.5463012   0.12357283    11378.728     1000 
  112000   0.40506691    -2.180717   0.60699277   -1.5737242   0.11269221    11542.914     1000 
  114000   0.42275562   -2.1620119    0.6334993   -1.5285126   0.12751338     11329.08     1000 
  116000   0.43489026   -2.1636726   0.65168306   -1.5119896    0.1382072    11225.597     1000 
  118000   0.42741711   -2.1699471   0.64048454   -1.5294625   0.12398478    11435.497     1000 
  120000   0.41628484   -2.1614309   0.62380283    -1.537628   0.13885862    11301.442     1000 
  122000   0.41259276   -2.1197115   0.61827025   -1.5014412   0.14566708     11208.33     1000 
  124000   0.41767807   -2.1572524   0.62589059   -1.5313618   0.13607871    11418.326     1000 
  126000   0.43520601   -2.2062942   0.65215621    -1.554138   0.13417003    11352.318     1000 
  128000   0.39330779   -2.1401815   0.58937173   -1.5508098   0.12102513    11393.088     1000 
  130000   0.42667497   -2.1439339   0.63937244   -1.5045614   0.12421952     11443.97     1000 
  132000   0.42194233   -2.0932323   0.63228058   -1.4609517   0.13994102    11255.525     1000 
  134000   0.40282713   -2.1861717   0.60363645   -1.5825353   0.12861045    11321.442     1000 
  136000   0.42432217   -2.1873833   0.63584677   -1.5515366   0.12855238    11459.564     1000 
  138000   0.41079956    -2.144339   0.61558313   -1.5287559   0.13879895    11435.844     1000 
  140000   0.41988475   -2.1598917    0.6291973   -1.5306944   0.14014217     11212.96     1000 
  142000   0.41141888   -2.1758779   0.61651119   -1.5593667   0.14640361    11181.109     1000 
  144000   0.43073291   -2.1813756   0.64545326   -1.5359223   0.13375884    11274.241     1000 
  146000   0.39940902   -2.1513145   0.59851442      -1.5528   0.14124724    11275.916     1000 
  148000   0.42098604   -2.1872013   0.63084758   -1.5563538   0.12752471    11436.676     1000 
  150000   0.42356322   -2.1285751   0.63470948   -1.4938656    0.1405397    11333.442     1000 
  152000   0.43265311   -2.1406983   0.64833068   -1.4923676   0.12080553    11308.993     1000 
  154000   0.40302869   -2.1947404    0.6039385   -1.5908019   0.13242138    11349.498     1000 
  156000    0.4277457    -2.140376   0.64097693   -1.4993991   0.13042361    11363.571     1000 
  158000   0.40573943   -2.1734366   0.60800053   -1.5654361   0.11693528    11476.863     1000 
  160000   0.42195508   -2.1512817   0.63229969    -1.518982   0.12008799    11432.997     1000 
  162000   0.42252814   -2.1822275   0.63315841   -1.5490691   0.12416564    11456.962     1000 
  164000   0.41881961   -2.1142282   0.62760119    -1.486627   0.12685146    11371.242     1000 
  166000   0.42003369   -2.1494035   0.62942049    -1.519983   0.13411418    11350.205     1000 
  168000   0.42877754   -2.1628511   0.64252314    -1.520328    0.1332428    11438.903     1000 
  170000   0.40734092   -2.1970928   0.61040036   -1.5866925   0.12462499     11445.82     1000 
  172000   0.42508078    -2.166172   0.63698355   -1.5291885   0.12984222    11408.061     1000 
  174000   0.41849644   -2.1489199   0.62711692    -1.521803   0.14190867    11258.596     1000 
  176000   0.42244812   -2.1767386    0.6330385   -1.5437001   0.12049884    11425.542     1000 
  178000   0.41729842   -2.1420839   0.62532169   -1.5167622   0.13181651    11325.594     1000 
  180000   0.42323541   -2.1776724   0.63421826   -1.5434541   0.12753674    11414.092     1000 
  182000    0.4099331   -2.1699555   0.61428475   -1.5556707   0.12997339    11407.226     1000 
  184000   0.42521746   -2.2126679   0.63718837   -1.5754796   0.14115654    11310.674     1000 
  186000   0.43057334   -2.1735127   0.64521415   -1.5282985    0.1308547    11410.096     1000 
  188000   0.42033546   -2.1849399   0.62987269   -1.5550672   0.13184359    11379.709     1000 
  190000   0.40893479   -2.1431037   0.61278879   -1.5303149   0.13659843    11364.032     1000 
  192000   0.41843921    -2.203307   0.62703116   -1.5762758   0.12642337    11448.422     1000 
  194000   0.42327909   -2.1619089   0.63428371   -1.5276252    0.1332103    11318.105     1000 
  196000   0.42087628   -2.1789312   0.63068311   -1.5482481     0.134585    11289.579     1000 
  198000    0.4015336   -2.1456615    0.6016981   -1.5439634    0.1300857    11373.825     1000 
  200000   0.41817828     -2.15475   0.62664015   -1.5281099   0.13078569    11436.521     1000 
  202000   0.40315701   -2.1955714   0.60413077   -1.5914407   0.12645041    11346.365     1000 
  204000   0.43016131   -2.1532089   0.64459672   -1.5086122     0.138143     11293.17     1000 
  206000   0.42053354   -2.1623721   0.63016951   -1.5322026   0.13615917     11301.65     1000 
  208000   0.41288588   -2.1754376   0.61870949   -1.5567281   0.11132786    11505.975     1000 
  210000   0.42472577   -2.1600976   0.63645157   -1.5236461   0.13005687    11310.469     1000 
  212000   0.42313043   -2.1925212   0.63406095   -1.5584603   0.13934136    11315.491     1000 
  214000   0.43295327   -2.1445113   0.64878047   -1.4957308   0.13408735    11254.443     1000 
  216000   0.39718441   -2.1863505   0.59518084   -1.5911697   0.11936181    11484.933     1000 
  218000   0.43220589   -2.2162022   0.64766052   -1.5685417   0.12135789    11395.953     1000 
  220000   0.43000839   -2.1947767   0.64436758   -1.5504091   0.13234855    11355.719     1000 
  222000   0.43445602   -2.1988583   0.65103235   -1.5478259   0.13644486    11324.108     1000 
  224000   0.42910657   -2.2014332    0.6430162    -1.558417   0.12386999    11374.499     1000 
  226000   0.42936814   -2.1742707   0.64340815   -1.5308626   0.12178946    11446.997     1000 
  228000   0.41706588    -2.114448   0.62497322   -1.4894748   0.12644973    11274.638     1000 
  230000   0.40213255   -2.1846462   0.60259562   -1.5820505   0.12006938    11415.482     1000 
  232000   0.40978576   -2.1800447   0.61406396   -1.5659808   0.14187614    11271.441     1000 
  234000   0.41949824   -2.2071546   0.62861812   -1.5785364   0.13031227    11383.834     1000 
  236000   0.41012413   -2.1648792   0.61457101   -1.5503082   0.13955209    11279.983     1000 
  238000   0.42415143   -2.1612884   0.63559091   -1.5256975   0.12386374    11415.431     1000 
  240000   0.44665375   -2.2349137   0.66931064   -1.5656031   0.12629507     11461.22     1000 
  242000   0.41103177   -2.1867914   0.61593111   -1.5708603   0.11548188     11370.27     1000 
  244000   0.41681841   -2.1714508   0.62460239   -1.5468484   0.13354738    11324.718     1000 
  246000   0.42290619   -2.1069519   0.63372492    -1.473227   0.13936339    11188.131     1000 
  248000   0.42999095   -2.1514853   0.64434144   -1.5071439   0.12208665    11437.012     1000 
  250000   0.40717778   -2.1915994    0.6101559   -1.5814435   0.12020082    11495.601     1000 
  252000   0.42950506   -2.1920764   0.64361333   -1.5484631   0.12648773      11396.5     1000 
  254000   0.42495602   -2.1562581    0.6367966   -1.5194615   0.13152083    11250.051     1000 
  256000   0.42246275    -2.172038   0.63306043   -1.5389775   0.13840761    11269.764     1000 
  258000   0.40022404   -2.1248655   0.59973572   -1.5251298   0.12457643    11409.425     1000 
  260000   0.40118529   -2.2031807   0.60117616   -1.6020045   0.11851224    11517.993     1000 
  262000   0.39633307   -2.1080353   0.59390511   -1.5141301    0.1324393    11329.451     1000 
  264000   0.39294764   -2.1651585   0.58883204   -1.5763264   0.13916509    11312.115     1000 
  266000   0.43781976   -2.1441278   0.65607292   -1.4880549   0.14189688    11301.156     1000 
  268000    0.3954977   -2.1369001    0.5926533   -1.5442468    0.1314525    11291.252     1000 
  270000   0.42530352   -2.1715225   0.63731732   -1.5342052   0.12116574    11451.783     1000 
  272000   0.43501456   -2.1697137   0.65186932   -1.5178444   0.13517454    11313.056     1000 
  274000   0.42997904   -2.1533847   0.64432359   -1.5090611   0.13372535     11382.73     1000 
  276000   0.43724726   -2.1546001   0.65521502   -1.4993851   0.14088112    11354.049     1000 
  278000   0.40874441   -2.1243382    0.6125035   -1.5118347   0.14007145    11229.766     1000 
  280000   0.41970323   -2.1546127   0.62892529   -1.5256874   0.13102892    11239.405     1000 
  282000   0.43543881   -2.1564413   0.65250506   -1.5039363   0.12525855    11436.123     1000 
  284000   0.43084097   -2.1613292    0.6456152    -1.515714   0.13770075    11273.433     1000 
  286000   0.41471612   -2.1313154    0.6214521   -1.5098633   0.13224923    11312.344     1000 
  288000   0.41923449   -2.1692976   0.62822288   -1.5410747   0.14024309     11267.08     1000 
  290000   0.43586473    -2.142447    0.6531433   -1.4893037    0.1265005    11378.324     1000 
  292000   0.43574175    -2.141357   0.65295901    -1.488398    0.1387926    11304.982     1000 
  294000   0.41356504   -2.2266902   0.61972721    -1.606963    0.1334248    11355.677     1000 
  296000   0.41795202   -2.1259601    0.6263011   -1.4996589   0.13417238    11215.265     1000 
  298000   0.43018056   -2.1502528   0.64462557   -1.5056272   0.12205578    11512.694     1000 
  300000   0.41507787   -2.1313363   0.62199419   -1.5093421   0.12756191    11451.578     1000 
  302000    0.4180376   -2.1596006   0.62642935   -1.5331713   0.12927664    11434.962     1000 
  304000   0.42676741   -2.1445105   0.63951097   -1.5049995    0.1377173    11329.469     1000 
  306000   0.42120788   -2.1671068      0.63118   -1.5359268   0.12918346    11375.544     1000 
  308000   0.41758186   -2.1815793   0.62574642   -1.5558329   0.12576649    11553.013     1000 
  310000   0.40164493   -2.1769335   0.60186493   -1.5750686   0.12883294     11428.71     1000 
  312000   0.42805222    -2.168858   0.64143625   -1.5274218   0.12960259    11389.837     1000 
  314000   0.43308945   -2.2035447   0.64898454   -1.5545602   0.12955098     11406.02     1000 
  316000   0.41766941   -2.1221532   0.62587761   -1.4962755   0.13040015    11275.109     1000 
  318000   0.40993643   -2.1302431   0.61428974   -1.5159534   0.13108673    11331.773     1000 
  320000   0.41109152   -2.1707131   0.61602064   -1.5546925   0.13075975    11378.993     1000 
  322000   0.42062686   -2.1990113   0.63030936   -1.5687019   0.12422239    11476.124     1000 
  324000   0.42492084   -2.1563506   0.63674387   -1.5196068   0.13689892    11296.697     1000 
  326000    0.4132663   -2.1522851   0.61927955   -1.5330056   0.14356199    11231.298     1000 
  328000   0.42026346   -2.1211571   0.62976479   -1.4913923   0.12931774    11440.024     1000 
  330000   0.42845153   -2.1250454   0.64203462   -1.4830107   0.11966557    11396.544     1000 
  332000   0.42319294   -2.1791362   0.63415461   -1.5449816   0.12683675    11475.264     1000 
  334000   0.43278722   -2.1348947   0.64853165   -1.4863631   0.13919736    11362.189     1000 
  336000   0.40172482   -2.1528369   0.60198464   -1.5508522   0.12712174    11413.715     1000 
  338000   0.43724501   -2.1729081   0.65521165   -1.5176965   0.13380487    11335.484     1000 
  340000   0.39339168    -2.119569   0.58949744   -1.5300715   0.12256458    11260.358     1000 
  342000   0.41544509   -2.1658054   0.62254447   -1.5432609    0.1265557    11401.835     1000 
  344000   0.42355363   -2.1767325   0.63469512   -1.5420374   0.13592027     11284.76     1000 
  346000   0.39628901   -2.1595969   0.59383908   -1.5657578   0.13000995    11300.557     1000 
  348000   0.41574908   -2.1703338        0.623   -1.5473338   0.13442158    11402.048     1000 
  350000   0.42644682   -2.1675216   0.63903056    -1.528491   0.14057817     11376.57     1000 
  352000   0.41191509   -2.1782289   0.61725476   -1.5609741   0.12155262    11506.602     1000 
  354000    0.4132912   -2.2373367   0.61931686   -1.6180198   0.12612364     11470.87     1000 
  356000   0.42510311   -2.1548324   0.63701702   -1.5178154   0.12977635     11409.89     1000 
  358000   0.41842585   -2.1855183   0.62701114   -1.5585071   0.13203384    11364.572     1000 
  360000   0.43962425   -2.1976956   0.65877695   -1.5389187   0.13080206     11335.88     1000 
  362000   0.41820048     -2.13463   0.62667342   -1.5079565   0.13322894    11347.634     1000 
  364000   0.43389053   -2.1706481   0.65018496   -1.5204632   0.12776952    11315.301     1000 
  366000   0.42848106    -2.142241   0.64207887   -1.5001621   0.13119296    11413.074     1000 
  368000   0.43173116   -2.2019928   0.64694915   -1.5550437   0.12415778    11502.249     1000 
  370000    0.4181887   -2.1869437   0.62665576    -1.560288   0.13302383    11306.201     1000 
  372000   0.41514221    -2.215887    0.6220906   -1.5937964   0.12143798    11534.162     1000 
  374000   0.42182566   -2.1923546   0.63210576   -1.5602489   0.13292887     11348.67     1000 
  376000   0.42274445    -2.173201   0.63348256   -1.5397185   0.13006114    11399.465     1000 
  378000   0.41108538   -2.1663311   0.61601144   -1.5503197   0.12505946    11421.876     1000 
  380000   0.42906512   -2.2025442   0.64295409   -1.5595901    0.1374112    11308.416     1000 
  382000    0.4275882   -2.1661833   0.64074092   -1.5254424   0.12764072     11496.38     1000 
  384000   0.41453191   -2.1679979   0.62117606   -1.5468218   0.13559726     11319.56     1000 
  386000   0.41754319   -2.1463338   0.62568847   -1.5206454   0.12982526    11401.927     1000 
  388000   0.41668142   -2.1779726   0.62439711   -1.5535755   0.12292557    11310.439     1000 
  390000   0.42229624   -2.2022051   0.63281092   -1.5693942   0.12676361    11393.012     1000 
  392000   0.41224537   -2.1882876   0.61774969   -1.5705379   0.13003732    11417.738     1000 
  394000   0.43667977   -2.1930033   0.65436463   -1.5386387   0.13609261    11378.337     1000 
  396000   0.42637421   -2.1750131   0.63892176   -1.5360914   0.14116833    11416.515     1000 
  398000   0.43156195   -2.1746919   0.64669558   -1.5279963   0.13852611    11278.711     1000 
  400000   0.42318521   -2.1126682   0.63414304   -1.4785251   0.12613244    11445.981     1000 
  402000   0.42023863   -2.2096033   0.62972759   -1.5798757   0.13967937    11312.347     1000 
  404000   0.41021647   -2.2192284   0.61470938    -1.604519   0.12800368    11413.639     1000 
  406000   0.40831867   -2.1279689   0.61186552   -1.5161034   0.12412804    11421.601     1000 
  408000   0.41776666    -2.189088   0.62602334   -1.5630646   0.12676748    11393.057     1000 
  410000   0.41512635   -2.1938428   0.62206684    -1.571776   0.11596454    11463.767     1000 
  412000   0.40558535   -2.1385163   0.60776965   -1.5307466   0.13911691    11234.849     1000 
  414000   0.42702836   -2.1310073     0.639902   -1.4911053   0.13406396    11315.601     1000 
  416000   0.42458533   -2.1713004   0.63624111   -1.5350592   0.13309074    11322.379     1000 
  418000   0.39914921   -2.1677311   0.59812509    -1.569606   0.13890119    11307.095     1000 
  420000   0.40569389   -2.2322324   0.60793229   -1.6243001    0.1214436    11550.004     1000 
  422000   0.42804302   -2.1414111   0.64142247   -1.4999887   0.14293113     11246.27     1000 
  424000   0.42920447   -2.1943025    0.6431629   -1.5511396   0.12017855    11392.574     1000 
  426000   0.40511043   -2.1739343   0.60705798   -1.5668764   0.13288857    11310.419     1000 
  428000   0.43141811    -2.156334   0.64648004    -1.509854   0.12844456    11264.887     1000 
  430000    0.4477381   -2.1864419   0.67093555   -1.5155063   0.12995212    11403.622     1000 
  432000   0.42208639   -2.1467663   0.63249645   -1.5142699   0.13374207    11343.093     1000 
  434000   0.43453005   -2.2216099   0.65114328   -1.5704666   0.11946187    11513.993     1000 
  436000   0.44688526   -2.1710786   0.66965756   -1.5014211   0.13160069    11405.701     1000 
  438000   0.41861161   -2.1831102    0.6272895   -1.5558207    0.1267207    11429.359     1000 
  440000   0.42683945   -2.1802887   0.63961891   -1.5406698   0.12982375    11338.708     1000 
  442000   0.43173226   -2.2120155   0.64695079   -1.5650647   0.11928915    11478.224     1000 
  444000   0.42462726   -2.1972813   0.63630395   -1.5609773   0.13927875    11241.756     1000 
  446000   0.43509843   -2.2081904     0.651995   -1.5561954   0.12244754    11351.646     1000 
  448000   0.43239284   -2.1446552   0.64794068   -1.4967145   0.13797318    11281.814     1000 
  450000   0.41566042   -2.2068607   0.62286714   -1.5839936   0.12371946    11393.127     1000 
  452000   0.41994113   -2.1747302   0.62928178   -1.5454484   0.13387864    11334.904     1000 
  454000    0.4185733   -2.1920612   0.62723209   -1.5648291   0.13579162    11321.094     1000 
  456000   0.41845185   -2.1919762   0.62705009   -1.5649261   0.12800722    11402.764     1000 
  458000   0.42584059   -2.1456155   0.63812212   -1.5074933   0.13787983    11268.972     1000 
  460000   0.43288841   -2.2092487   0.64868329   -1.5605654   0.12176446    11386.744     1000 
  462000   0.40854724   -2.1891577   0.61220803   -1.5769497   0.13810278    11415.698     1000 
  464000   0.43023012   -2.1533208   0.64469984    -1.508621   0.13651397    11283.464     1000 
  466000   0.42201631   -2.1473375   0.63239145    -1.514946   0.14093392    11210.454     1000 
  468000    0.4170525   -2.1131762   0.62495316    -1.488223   0.13798108    11247.336     1000 
  470000   0.40959248   -2.1799391   0.61377433   -1.5661648   0.12848145    11400.537     1000 
  472000   0.39532934   -2.1883709   0.59240102   -1.5959699   0.12616366    11418.329     1000 
  474000   0.42533197   -2.1885805   0.63735996   -1.5512206    0.1196266    11525.511     1000 
  476000    0.4380179   -2.1465312   0.65636982   -1.4901613   0.12720518    11380.446     1000 
  478000   0.42857205   -2.1729517   0.64221522   -1.5307364   0.13441564    11455.716     1000 
  480000   0.40472931   -2.1710395   0.60648688   -1.5645526   0.12773405    11335.285     1000 
  482000   0.42057272   -2.1067409   0.63022822   -1.4765127   0.13629518    11263.391     1000 
  484000   0.42584211   -2.1748955    0.6381244   -1.5367711   0.14205083    11401.456     1000 
  486000   0.41628892   -2.1434309   0.62380895    -1.519622   0.12735431    11396.827     1000 
  488000   0.42945287   -2.2021825   0.64353513   -1.5586474   0.12479071    11417.701     1000 
  490000   0.40925914   -2.1721433   0.61327482   -1.5588685   0.13383372     11309.55     1000 
  492000   0.43072471   -2.1865521   0.64544098   -1.5411111   0.12598335    11417.567     1000 
  494000   0.43274884   -2.1569863   0.64847413   -1.5085122   0.13742252      11289.2     1000 
  496000   0.41905481   -2.1902128   0.62795363   -1.5622592   0.13429938    11350.701     1000 
  498000   0.41636377    -2.141049   0.62392111   -1.5171279   0.12787794    11407.784     1000 
  500000   0.43303853   -2.1614397   0.64890823   -1.5125314   0.12823124    11363.559     1000 
  502000   0.41637148   -2.1220739   0.62393266   -1.4981413   0.13405851    11272.498     1000 
  504000   0.41931845   -2.1665563   0.62834869   -1.5382076   0.13708733    11287.842     1000 
  506000   0.42937936   -2.1939311   0.64342497   -1.5505062   0.13187323    11339.983     1000 
  508000   0.41387579   -2.1267855   0.62019287   -1.5065926   0.12947108    11352.262     1000 
  510000    0.4286701   -2.1660332   0.64236215   -1.5236711   0.13927576    11312.963     1000 
  512000   0.42081182   -2.1936271   0.63058652   -1.5630406   0.12971869    11334.663     1000 
  514000   0.41704511   -2.1272383    0.6249421   -1.5022962   0.14533755    11244.031     1000 
  516000   0.42538822   -2.1650556   0.63744424   -1.5276114     0.132122    11322.682     1000 
  518000    0.4128511   -2.1600092   0.61865737   -1.5413519    0.1163485    11467.371     1000 
  520000   0.42096933   -2.2079172   0.63082253   -1.5770947   0.11553492    11437.754     1000 
  522000   0.41577946   -2.2212351   0.62304552   -1.5981896   0.12369132    11395.902     1000 
  524000   0.42862627   -2.1762655   0.64229647   -1.5339691   0.13137995    11351.277     1000 
  526000   0.39738083   -2.1488635   0.59547517   -1.5533883   0.11795273    11377.255     1000 
  528000   0.41882557   -2.1828986   0.62761012   -1.5552885   0.13827904    11258.902     1000 
  530000   0.43304063   -2.1804837   0.64891139   -1.5315723   0.13385709    11323.172     1000 
  532000    0.4196768   -2.1707533   0.62888568   -1.5418676   0.13121936    11467.071     1000 
  534000   0.42228831   -2.1406105   0.63279903   -1.5078115   0.11930148     11376.44     1000 
  536000   0.40406822   -2.1789388   0.60549623   -1.5734426   0.14079368    11311.496     1000 
  538000   0.43569337   -2.1456275   0.65288652    -1.492741   0.13657723    11346.198     1000 
  540000   0.42222673   -2.1597004   0.63270675   -1.5269936   0.14345403    11253.946     1000 
  542000   0.41637342   -2.1560342   0.62393556   -1.5320986   0.13565233    11325.511     1000 
  544000   0.43269373   -2.1683672   0.64839156   -1.5199756   0.14062219    11311.168     1000 
  546000    0.4175721   -2.1508262    0.6257318   -1.5250944   0.13530633    11194.503     1000 
  548000   0.41997529   -2.1397793   0.62933297   -1.5104464   0.13599828    11306.773     1000 
  550000   0.41030288   -2.1819126   0.61483886   -1.5670737   0.13728359    11286.121     1000 
  552000   0.42469021   -2.1822207   0.63639828   -1.5458224   0.12947913    11372.752     1000 
  554000   0.40791907   -2.1192727   0.61126673    -1.508006   0.13012465    11376.925     1000 
  556000    0.4185293   -2.1923657   0.62716616   -1.5651995   0.12635666     11393.49     1000 
  558000   0.41845667   -2.2134872   0.62705731   -1.5864299   0.11613052    11421.978     1000 
  560000   0.43065999    -2.165652     0.645344    -1.520308   0.14012924    11238.333     1000 
  562000   0.41250778   -2.1978375    0.6181429   -1.5796946   0.13288086     11372.32     1000 
  564000   0.41020142   -2.1781245   0.61468682   -1.5634377   0.12437338    11407.564     1000 
  566000   0.43600297    -2.132653   0.65335045   -1.4793025   0.12440541    11369.922     1000 
  568000   0.43209242   -2.1726998    0.6474905   -1.5252093   0.12756037    11374.646     1000 
  570000   0.42301509   -2.1184931   0.63388811    -1.484605   0.12556001     11361.21     1000 
  572000   0.40949164   -2.1889928   0.61362322   -1.5753696   0.12304357    11468.912     1000 
  574000   0.42851965   -2.1728961   0.64213669   -1.5307594   0.12480945    11466.204     1000 
  576000   0.41892148   -2.1936398   0.62775384    -1.565886   0.12889336    11331.987     1000 
  578000    0.4124823   -2.1706675   0.61810473   -1.5525628   0.13203423    11369.448     1000 
  580000    0.4252715   -2.1791863   0.63726934   -1.5419169   0.13819657    11343.723     1000 
  582000    0.4039442   -2.1773445   0.60531038   -1.5720341   0.13211341    11294.804     1000 
  584000   0.40323569   -2.1336628   0.60424869   -1.5294141    0.1360602    11295.448     1000 
  586000   0.41144474   -2.1129253   0.61654995   -1.4963753   0.12280982    11391.154     1000 
  588000   0.42474788   -2.1874673   0.63648471   -1.5509826   0.12910705    11369.448     1000 
  590000   0.40079844   -2.1689663   0.60059646   -1.5683698   0.12979235    11341.533     1000 
  592000   0.43755882   -2.1189668   0.65568189   -1.4632849   0.12272687     11311.77     1000 
  594000   0.41653132   -2.1455375   0.62417218   -1.5213653   0.12960168    11399.932     1000 
  596000   0.39821874   -2.1261918   0.59673079    -1.529461   0.11819567    11427.124     1000 
  598000   0.41031953    -2.139475   0.61486382   -1.5246112   0.13336705    11320.117     1000 
  600000   0.42401046   -2.1724985   0.63537967   -1.5371188   0.12928042    11394.555     1000 
  602000   0.43081956    -2.152622   0.64558311   -1.5070389   0.11949131    11417.619     1000 
  604000   0.42482031   -2.1655634   0.63659324   -1.5289702   0.13546639    11290.894     1000 
  606000   0.41858708   -2.1655546   0.62725274   -1.5383019   0.13232701    11293.945     1000 
  608000   0.44453965   -2.2240995   0.66614266   -1.5579569   0.12606505    11439.411     1000 
  610000   0.43077143   -2.1770287     0.645511   -1.5315177   0.12395143    11414.132     1000 
  612000   0.42246825   -2.1633509   0.63306868   -1.5302823     0.121762    11372.196     1000 
  614000   0.42418711    -2.176409   0.63564438   -1.5407647   0.12564162    11430.472     1000 
  616000   0.42607696   -2.1479236   0.63847632   -1.5094472   0.13265143    11251.056     1000 
  618000   0.42056474    -2.203669   0.63021626   -1.5734527   0.14198778    11286.105     1000 
  620000   0.41035885   -2.1943579   0.61492274   -1.5794351   0.12898832    11422.707     1000 
  622000   0.40988615   -2.1506055   0.61421439   -1.5363912   0.12966371    11325.198     1000 
  624000   0.40039019   -2.1468373    0.5999847   -1.5468526   0.13242114    11341.885     1000 
  626000     0.403841   -2.1341195   0.60515574   -1.5289637   0.14399274     11236.54     1000 
  628000   0.42176089   -2.1365144   0.63200869   -1.5045057   0.15269388    11141.144     1000 
  630000   0.41731829   -2.1499329   0.62535146   -1.5245814    0.1381992    11237.985     1000 
  632000   0.39429332   -2.1614901   0.59084854   -1.5706416   0.12579281    11429.276     1000 
  634000   0.42435087   -2.1370583   0.63588978   -1.5011685    0.1428432    11268.467     1000 
  636000   0.43452248   -2.1329133   0.65113194   -1.4817814   0.12736226    11373.791     1000 
  638000   0.41548123   -2.0970753   0.62259862   -1.4744767   0.13196179     11210.27     1000 
  640000   0.40074677   -2.1204155   0.60051904   -1.5198965   0.12718717    11353.519     1000 
  642000    0.4348805    -2.194352   0.65166843   -1.5426836   0.13282271    11332.896     1000 
  644000   0.41789326   -2.1187372   0.62621305   -1.4925241   0.14448936    11174.805     1000 
  646000   0.42566433   -2.1535768     0.637858   -1.5157188   0.13504971    11282.698     1000 
  648000   0.41074254    -2.131135    0.6154977   -1.5156373   0.12436163    11433.345     1000 
  650000   0.39744235   -2.1885781   0.59556736   -1.5930107   0.11819147    11413.433     1000 
  652000   0.41498092   -2.1855645   0.62184891   -1.5637156   0.13103221    11464.676     1000 
  654000   0.42253766   -2.0822726   0.63317268   -1.4490999   0.13943242    11175.371     1000 
  656000    0.4248143   -2.1038935   0.63658423   -1.4673093   0.13398981    11295.407     1000 
  658000   0.42788283   -2.1728149   0.64118242   -1.5316325   0.12532703    11412.428     1000 
  660000   0.44957837   -2.1930996   0.67369319   -1.5194064   0.13603495    11317.322     1000 
  662000   0.43426967    -2.123755    0.6507531   -1.4730019   0.12611538    11421.279     1000 
  664000   0.40089262   -2.1784442   0.60073759   -1.5777066   0.12846292    11414.654     1000 
  666000   0.42551533   -2.1660954   0.63763472   -1.5284607   0.13220113    11306.202     1000 
  668000   0.42615281    -2.153088   0.63858998    -1.514498   0.14129792    11276.528     1000 
  670000   0.42072577   -2.1537603   0.63045757   -1.5233028   0.11786175    11561.741     1000 
  672000   0.40641307    -2.169451   0.60900999    -1.560441   0.13115057    11312.536     1000 
  674000   0.41507307   -2.1304976     0.621987   -1.5085106   0.14743635    11178.342     1000 
  676000   0.42603803   -2.1863996   0.63841798   -1.5479816   0.14761687    11323.926     1000 
  678000   0.41122975   -2.1617875   0.61622777   -1.5455597   0.12806878    11350.244     1000 
  680000   0.40404609   -2.1835802   0.60546306   -1.5781172   0.12082123    11504.299     1000 
  682000   0.42252176   -2.1978476   0.63314886   -1.5646987   0.11945607    11429.356     1000 
  684000   0.44122042   -2.1904272   0.66116879   -1.5292584   0.12785394    11447.154     1000 
  686000   0.41350923   -2.1967484   0.61964358   -1.5771048   0.11635836     11517.57     1000 
  688000   0.38978443   -2.1583457   0.58409198   -1.5742537   0.12896804    11372.429     1000 
  690000   0.43448952   -2.1393591   0.65108254   -1.4882766   0.12145879    11495.944     1000 
  692000   0.40728666   -2.2144733   0.61031906   -1.6041542   0.12034931    11421.834     1000 
  694000   0.43816299   -2.1459977   0.65658723   -1.4894104   0.14182434    11339.168     1000 
  696000   0.41821214   -2.1648161   0.62669089   -1.5381252   0.13419092    11359.187     1000 
  698000   0.42481147   -2.1696777   0.63657998   -1.5330977   0.13293878     11319.53     1000 
  700000   0.43538338   -2.1632463   0.65242199   -1.5108243   0.12582974    11408.221     1000 
  702000   0.41540279   -2.1808228   0.62248108   -1.5583418    0.1286655    11431.954     1000 
  704000   0.41410211   -2.1528074   0.62053202   -1.5322754    0.1355651    11231.183     1000 
  706000   0.40907469   -2.1572276   0.61299842   -1.5442291   0.14109114    11257.834     1000 
  708000   0.42635476   -2.1502567    0.6388926   -1.5113641    0.1233424     11388.09     1000 
  710000   0.41804634   -2.1600693   0.62644245   -1.5336268   0.12786687    11402.274     1000 
  712000   0.40596491    -2.186666   0.60833841   -1.5783276   0.12207674    11510.204     1000 
  714000   0.42703325   -2.1648225   0.63990932   -1.5249132   0.12655576    11375.547     1000 
  716000   0.42004804   -2.1491182   0.62944198   -1.5196763   0.13180893    11290.783     1000 
  718000   0.41182706   -2.1269156   0.61712285   -1.5097928   0.12930775    11299.175     1000 
  720000   0.42730684   -2.1353839    0.6403193   -1.4950646   0.13052946    11310.486     1000 
  722000   0.40978779   -2.1343032     0.614067   -1.5202362    0.1315278    11307.139     1000 
  724000   0.44047487   -2.1221544   0.66005159   -1.4621028   0.13007331    11287.101     1000 
  726000   0.42436388   -2.1444629   0.63590927   -1.5085536   0.13457918    11324.521     1000 
  728000   0.42145189   -2.1745609   0.63154566   -1.5430152   0.12406446    11445.116     1000 
  730000   0.41688381   -2.1638817   0.62470038   -1.5391813   0.12742363    11394.301     1000 
  732000   0.40970957   -2.1905744    0.6139498   -1.5766246   0.13366908    11348.028     1000 
  734000   0.40682471   -2.1630638   0.60962682   -1.5534369   0.13081239    11308.736     1000 
  736000   0.40193554   -2.1724901    0.6023004   -1.5701897   0.11931637     11407.51     1000 
  738000   0.41137847   -2.1245362   0.61645063   -1.5080855   0.12627273    11369.411     1000 
  740000   0.42377636    -2.199467   0.63502887   -1.5644381   0.13207978    11326.288     1000 
  742000   0.41666053   -2.1863825    0.6243658   -1.5620167   0.13568875     11248.31     1000 
  744000   0.41438492   -2.1661563   0.62095581   -1.5452005   0.13458662    11355.836     1000 
  746000   0.41404912   -2.1455874   0.62045261   -1.5251348   0.14611338    11302.149     1000 
  748000   0.40797427   -2.2207765   0.61134944   -1.6094271   0.12968965    11448.111     1000 
  750000   0.43198369   -2.2009011   0.64732756   -1.5535736   0.13017323    11418.528     1000 
  752000   0.40284352   -2.2356204   0.60366102   -1.6319594   0.12066838    11485.351     1000 
  754000   0.42307023   -2.1834774   0.63397074   -1.5495066   0.12836074     11363.79     1000 
  756000   0.42888424    -2.193425   0.64268304   -1.5507419   0.13159541    11412.376     1000 
  758000   0.44436367   -2.1193124   0.66587895   -1.4534334   0.12761425    11385.527     1000 
  760000   0.43975065   -2.1433497   0.65896635   -1.4843834   0.13448204    11312.113     1000 
  762000   0.41125048   -2.1485698   0.61625884    -1.532311   0.13440199    11221.537     1000 
  764000   0.41063849   -2.1737324   0.61534177   -1.5583906   0.12678665    11494.887     1000 
  766000   0.42049946   -2.2159999   0.63011844   -1.5858814    0.1137661    11537.538     1000 
  768000   0.41409035   -2.1793196    0.6205144   -1.5588052   0.12135183    11446.018     1000 
  770000   0.39678447   -2.1835285   0.59458153    -1.588947   0.12465929    11326.202     1000 
  772000   0.42539014   -2.1504657   0.63744712   -1.5130185   0.13111956    11447.522     1000 
  774000   0.43280831   -2.1411361   0.64856325   -1.4925729   0.12977757    11236.042     1000 
  776000   0.42733433   -2.1434942    0.6403605   -1.5031337   0.14675998    11194.148     1000 
  778000   0.41581977   -2.1166317   0.62310592   -1.4935258   0.12754471    11367.694     1000 
  780000   0.43516533   -2.1996461   0.65209525   -1.5475508   0.13318356    11357.393     1000 
  782000   0.40995417   -2.1638171   0.61431632   -1.5495008   0.13520543    11269.559     1000 
  784000    0.4429107   -2.1865465   0.66370169   -1.5228448   0.12417857    11472.967     1000 
  786000   0.43239566   -2.1464874    0.6479449   -1.4985425   0.12780878    11513.646     1000 
  788000   0.41809877   -2.1783661     0.626521   -1.5518451   0.13377596    11329.885     1000 
  790000   0.43470717   -2.1532327   0.65140869    -1.501824   0.12652542    11397.561     1000 
  792000    0.4207103    -2.145891   0.63043438   -1.5154566   0.12547443    11362.943     1000 
  794000   0.42435637   -2.1283544   0.63589802   -1.4924564   0.13659601    11348.556     1000 
  796000   0.43481544   -2.1543709   0.65157094      -1.5028   0.13386103    11333.409     1000 
  798000   0.42757549   -2.1730042   0.64072187   -1.5322823    0.1206411    11432.441     1000 
  800000   0.43149492   -2.1749615   0.64659514   -1.5283663   0.12617107     11414.23     1000 
  802000   0.41520676   -2.1615653   0.62218733   -1.5393779   0.12442527    11422.095     1000 
  804000   0.40270606   -2.1958641   0.60345503   -1.5924091   0.13413575    11283.382     1000 
  806000   0.41132333   -2.1906384     0.616368   -1.5742704   0.12723401    11366.043     1000 
  808000   0.43820732    -2.157467   0.65665367   -1.5008133   0.13553662    11352.754     1000 
  810000   0.42560149   -2.1660546   0.63776383   -1.5282907   0.14261073    11289.309     1000 
  812000   0.43700515   -2.1050399   0.65485222   -1.4501877   0.13573041    11324.596     1000 
  814000   0.42197576   -2.1042739   0.63233067   -1.4719432   0.12903669    11356.345     1000 
  816000   0.40923275   -2.1838546   0.61323527   -1.5706194   0.11882573    11442.836     1000 
  818000   0.41958279   -2.1234171   0.62874481   -1.4946723   0.13774116    11249.904     1000 
  820000   0.41327333   -2.1644609   0.61929008   -1.5451709   0.13970984    11274.952     1000 
  822000   0.42541457   -2.1799961   0.63748374   -1.5425124   0.12156846    11413.838     1000 
  824000   0.40683668   -2.1937448   0.60964476   -1.5841001   0.13343455    11305.125     1000 
  826000    0.4100795   -2.1311804   0.61450413   -1.5166763   0.12400987    11306.877     1000 
  828000   0.41434605   -2.2028572   0.62089756   -1.5819596   0.11765941    11451.691     1000 
  830000   0.42823153   -2.1392217   0.64170494   -1.4975168   0.12832906    11398.141     1000 
  832000   0.40692994   -2.1373533   0.60978452   -1.5275688   0.12322042    11400.028     1000 
  834000   0.42785766   -2.1813523    0.6411447   -1.5402076    0.1310506    11466.477     1000 
  836000   0.41317793   -2.1504601   0.61914712    -1.531313   0.13482273    11340.669     1000 
  838000   0.42885169   -2.1747728   0.64263425   -1.5321385   0.13489237    11383.798     1000 
  840000   0.41813627   -2.1067367   0.62657721   -1.4801594   0.14253522      11186.5     1000 
  842000   0.41589925   -2.1550779   0.62322503   -1.5318529   0.12238747    11475.774     1000 
  844000     0.423788    -2.155954   0.63504632   -1.5209077   0.13243154    11341.256     1000 
  846000   0.42572833   -2.2000076   0.63795391   -1.5620537   0.12620422     11450.16     1000 
  848000   0.42707513   -2.1744214   0.63997209   -1.5344494   0.11233515    11500.145     1000 
  850000   0.43355373    -2.157573   0.64968026   -1.5078927   0.12745987    11382.358     1000 
  852000   0.37936316   -2.1736209    0.5684757   -1.6051452   0.13479721    11323.338     1000 
  854000   0.40193462   -2.2089568   0.60229903   -1.6066578   0.13827685    11376.926     1000 
  856000   0.41706825   -2.1753425   0.62497678   -1.5503657    0.1336772     11378.25     1000 
  858000   0.41347662   -2.1652809   0.61959472   -1.5456862   0.11806536    11395.473     1000 
  860000   0.42231498   -2.1669642   0.63283899   -1.5341252   0.13083685    11402.864     1000 
  862000   0.44367803   -2.1573601   0.66485153   -1.4925086   0.15875409    11201.402     1000 
  864000   0.42042621   -2.1707756   0.63000868   -1.5407669   0.13063151    11365.497     1000 
  866000   0.40468369   -2.1532515   0.60641851   -1.5468329   0.12065459    11393.183     1000 
  868000   0.42281426   -2.1368217   0.63358717   -1.5032345   0.12472598    11326.335     1000 
  870000   0.42853049   -2.1530884   0.64215295   -1.5109354   0.11841996    11407.939     1000 
  872000   0.41239738   -2.1628397   0.61797747   -1.5448623   0.12873461    11431.694     1000 
  874000   0.42874556   -2.1719174   0.64247523   -1.5294422   0.13047763    11391.745     1000 
  876000   0.42738346   -2.1554996   0.64043412   -1.5150655   0.13179916    11339.798     1000 
  878000   0.42413127   -2.1140337   0.63556071    -1.478473   0.13938833    11256.653     1000 
  880000   0.43816395   -2.1539322   0.65658868   -1.4973435   0.13134673    11428.084     1000 
  882000   0.42727545   -2.1507292   0.64027226   -1.5104569   0.13069431    11427.317     1000 
  884000   0.40602621   -2.1511032   0.60843027   -1.5426729   0.12327376     11428.75     1000 
  886000    0.4098836   -2.1988929   0.61421057   -1.5846824   0.13195826    11366.727     1000 
  888000   0.42323989   -2.1292248   0.63422497   -1.4949998    0.1409032    11248.081     1000 
  890000   0.41709038   -2.1660583   0.62500993   -1.5410484   0.12392939    11417.575     1000 
  892000   0.42356011   -2.1815637   0.63470483   -1.5468589   0.13575303    11382.132     1000 
  894000   0.42172935   -2.1845042   0.63196143   -1.5525427   0.11453105    11478.203     1000 
  896000   0.40887323   -2.1640181   0.61269653   -1.5513215   0.12664464    11380.563     1000 
  898000   0.44190431   -2.1459223   0.66219361   -1.4837287   0.13026014     11397.78     1000 
  900000    0.4026002   -2.1663648    0.6032964   -1.5630685   0.13147148    11271.457     1000 
  902000   0.42125897   -2.1343068   0.63125657   -1.5030502   0.13451629    11347.331     1000 
  904000   0.41077249   -2.1694359   0.61554258   -1.5538933   0.13566156    11312.414     1000 
  906000   0.42709915   -2.1785063   0.64000807   -1.5384983   0.12648218    11427.197     1000 
  908000    0.4108617   -2.1976825   0.61567625   -1.5820062   0.12801904    11441.754     1000 
  910000    0.4302484   -2.1718435   0.64472723   -1.5271163   0.13409864    11318.381     1000 
  912000   0.42129703     -2.17402    0.6313136   -1.5427064   0.13642435    11310.143     1000 
  914000   0.41209822    -2.132701   0.61752919   -1.5151718   0.13605706    11224.394     1000 
  916000   0.41549567    -2.194292   0.62262027   -1.5716717   0.12369376    11484.121     1000 
  918000   0.41291367   -2.1533452   0.61875113   -1.5345941   0.14685111    11200.459     1000 
  920000   0.40538317   -2.1817941   0.60746668   -1.5743274   0.12756611    11385.799     1000 
  922000   0.40323461   -2.1862339   0.60424706   -1.5819868   0.11970445    11421.321     1000 
  924000   0.41088243    -2.199339   0.61570732   -1.5836317    0.1184235     11434.17     1000 
  926000   0.41672937   -2.1917436   0.62446895   -1.5672746   0.12313858    11474.746     1000 
  928000   0.44165865   -2.1982694   0.66182549   -1.5364439    0.1230345    11342.789     1000 
  930000   0.43706559   -2.1873995   0.65494279   -1.5324567   0.13789685    11367.752     1000 
  932000   0.41934648   -2.1708137    0.6283907    -1.542423   0.12813368    11398.728     1000 
  934000   0.40515693   -2.2158346   0.60712766   -1.6087069   0.12455315    11425.557     1000 
  936000   0.41790083   -2.1582317   0.62622439   -1.5320074   0.12093494    11365.494     1000 
  938000   0.41943238   -2.1593506   0.62851943   -1.5308312   0.13737088    11248.758     1000 
  940000   0.43206288   -2.1423499   0.64744623   -1.4949036   0.14374347    11291.563     1000 
  942000    0.4261604   -2.1582331   0.63860136   -1.5196317   0.13182773    11319.945     1000 
  944000   0.42596596   -2.1828562      0.63831   -1.5445462   0.13077912    11421.242     1000 
  946000   0.44056093   -2.1567679   0.66018055   -1.4965874   0.13416971    11288.618     1000 
  948000   0.41785932    -2.148017   0.62616219   -1.5218548   0.12165779    11416.561     1000 
  950000    0.4146956   -2.1737926   0.62142136   -1.5523712   0.12958366    11309.884     1000 
  952000   0.40574617   -2.1191261   0.60801063   -1.5111155   0.14092988    11119.561     1000 
  954000   0.40894606   -2.1854747   0.61280568    -1.572669   0.11813896    11476.668     1000 
  956000   0.42883579    -2.150833   0.64261044   -1.5082226    0.1404155    11353.205     1000 
  958000   0.42087563   -2.1758245   0.63068212   -1.5451424   0.12434015    11422.677     1000 
  960000   0.39505483   -2.2003539   0.59198967   -1.6083642   0.14759513    11222.706     1000 
  962000   0.41593783   -2.2096168   0.62328284    -1.586334   0.12190069    11400.934     1000 
  964000   0.44778553   -2.2169403   0.67100662   -1.5459337   0.12932609    11365.853     1000 
  966000   0.42243216    -2.137509   0.63301459   -1.5044944   0.12976468     11341.46     1000 
  968000   0.43025569   -2.1711295   0.64473816   -1.5263913   0.13952839      11425.1     1000 
  970000   0.41132436    -2.194782   0.61636956   -1.5784125   0.12084366    11515.542     1000 
  972000   0.41877326   -2.1816475   0.62753172   -1.5541157   0.12458648    11413.468     1000 
  974000   0.42271332   -2.1594017   0.63343592   -1.5259657   0.12664754    11379.384     1000 
  976000   0.40727671   -2.1666771   0.61030415    -1.556373   0.11863455    11566.504     1000 
  978000    0.4432082   -2.1645707   0.66414749   -1.5004232   0.12081555    11511.922     1000 
  980000   0.41237557   -2.2223413   0.61794479   -1.6043965   0.13113035    11461.386     1000 
  982000   0.43420696   -2.2023136   0.65065914   -1.5516545   0.14098596    11315.307     1000 
  984000   0.43965204    -2.196108   0.65881858   -1.5372894   0.12871743    11346.224     1000 
  986000   0.42204195   -2.1640641   0.63242986   -1.5316342   0.12693444    11428.385     1000 
  988000    0.4153227   -2.1696281   0.62236107    -1.547267   0.13481139    11363.393     1000 
  990000   0.41862641   -2.1367332   0.62731167   -1.5094216   0.11790592    11466.334     1000 
  992000   0.40761673    -2.146286   0.61081367   -1.5354723   0.13536827    11352.683     1000 
  994000   0.42672686   -2.1972961   0.63945019   -1.5578459   0.12400971    11378.706     1000 
  996000   0.43439599   -2.1724455    0.6509424   -1.5215031   0.13355791    11403.443     1000 
  998000   0.41887076   -2.1649836   0.62767783   -1.5373058   0.12425119    11376.927     1000 
 1000000   0.41508525   -2.1690393   0.62200525    -1.547034   0.13090989    11287.499     1000 
 1002000   0.41092391   -2.1382995   0.61576948     -1.52253   0.12475345    11330.823     1000 
 1004000   0.43435443   -2.1665375   0.65088012   -1.5156574   0.12708152    11419.108     1000 
 1006000   0.42178032   -2.1437564    0.6320378   -1.5117186   0.13285414     11358.09     1000 
 1008000   0.39538368   -2.1824032   0.59248245   -1.5899207   0.13033088    11321.011     1000 
 1010000   0.40102277   -2.1407472   0.60093262   -1.5398145    0.1320261    11309.736     1000 
 1012000   0.42359784   -2.1928276   0.63476137   -1.5580662    0.1364793    11343.323     1000 
 1014000   0.43408541   -2.1708078   0.65047698   -1.5203308   0.13462516    11269.471     1000 
 1016000   0.41286537    -2.176471   0.61867875   -1.5577923   0.13178913    11297.203     1000 
 1018000   0.41270398   -2.1739705   0.61843691   -1.5555336   0.12990205    11392.241     1000 
 1020000   0.42234156   -2.1531585   0.63287882   -1.5202796   0.12287242    11385.981     1000 
 1022000   0.43161319   -2.1367176   0.64677236   -1.4899453   0.13758884    11274.171     1000 
 1024000   0.40798834   -2.1226891   0.61137053   -1.5113185   0.14558006    11182.581     1000 
 1026000   0.39683804   -2.1744212    0.5946618   -1.5797594    0.1277402      11353.5     1000 
 1028000   0.41962804   -2.1913914   0.62881261   -1.5625788   0.11231934    11417.603     1000 
 1030000   0.41264304   -2.1340746   0.61834559    -1.515729   0.13803576    11286.711     1000 
 1032000   0.40400916   -2.1441538   0.60540772   -1.5387461   0.11763954    11350.104     1000 
 1034000     0.427575   -2.1580981   0.64072114   -1.5173769   0.12258163    11421.706     1000 
 1036000   0.41790073   -2.1508738   0.62622425   -1.5246496   0.13813694    11336.056     1000 
 1038000   0.40737845   -2.2044767   0.61045661   -1.5940201   0.12811497    11353.476     1000 
 1040000   0.41874185   -2.1927434   0.62748466   -1.5652587    0.1300876    11336.198     1000 
 1042000   0.42230181   -2.2074934   0.63281925   -1.5746742   0.12680615    11471.014     1000 
 1044000   0.41912436   -2.1678056   0.62805785   -1.5397478   0.12845765    11382.168     1000 
 1046000   0.41278264   -2.1485626   0.61855478   -1.5300078   0.13334021    11378.901     1000 
 1048000   0.42092145     -2.18153   0.63075079   -1.5507792   0.11698486    11464.509     1000 
 1050000   0.41731277   -2.1823368   0.62534318   -1.5569936   0.13546509    11335.078     1000 
 1052000   0.40315183   -2.1566458   0.60412301   -1.5525228   0.11288734    11306.391     1000 
 1054000   0.40670585   -2.1366202   0.60944872   -1.5271715     0.134081    11248.753     1000 
 1056000   0.42773048   -2.1271378   0.64095412   -1.4861837   0.12962843    11363.795     1000 
 1058000   0.43786474   -2.1752059   0.65614031   -1.5190656   0.13317183    11280.553     1000 
 1060000   0.42917053   -2.1644539   0.64311205   -1.5213418   0.13090125    11373.121     1000 
 1062000   0.41922999   -2.1874498   0.62821614   -1.5592337   0.13490764    11315.685     1000 
 1064000   0.41546476   -2.1946088   0.62257395   -1.5720348   0.13966523    11343.355     1000 
 1066000   0.42073157   -2.1667473   0.63046626    -1.536281   0.13385136    11429.715     1000 
 1068000   0.42256673   -2.1816608   0.63321624   -1.5484446   0.13296502    11362.418     1000 
 1070000   0.42874871   -2.1934055   0.64247995   -1.5509255   0.13575373    11243.801     1000 
 1072000    0.4145276   -2.1441072   0.62116961   -1.5229376   0.13260947    11310.781     1000 
 1074000   0.42807224   -2.1694585   0.64146625   -1.5279923   0.13192262     11385.03     1000 
 1076000   0.43170638   -2.1504049   0.64691201   -1.5034929   0.13059499     11308.85     1000 
 1078000   0.42130825   -2.1237567   0.63133041   -1.4924263   0.12468087    11309.876     1000 
 1080000   0.40932957    -2.172533   0.61338036   -1.5591526   0.13115991     11368.05     1000 
 1082000   0.40609834   -2.1864412   0.60853836   -1.5779028   0.12435382    11412.008     1000 
 1084000   0.43380184   -2.1694156   0.65005206   -1.5193635   0.13543948    11358.014     1000 
 1086000   0.41650127   -2.1598628   0.62412716   -1.5357356   0.13600518    11322.276     1000 
 1088000   0.41782506   -2.1215324   0.62611085   -1.4954216    0.1305658     11365.06     1000 
 1090000   0.40959259   -2.1815435   0.61377449    -1.567769    0.1221963    11340.833     1000 
 1092000   0.41924107   -2.2238418   0.62823275   -1.5956091   0.12381619    11448.395     1000 
 1094000   0.40571871   -2.1764768   0.60796948   -1.5685073   0.12385269     11433.91     1000 
 1096000   0.40986697   -2.1364093   0.61418566   -1.5222237   0.13471577    11400.724     1000 
 1098000   0.41664347   -2.1784958   0.62434024   -1.5541555   0.13367131     11203.09     1000 
 1100000   0.40245594   -2.1415373   0.60308022   -1.5384571   0.12544168     11380.76     1000 
 1102000   0.42059486   -2.1274375   0.63026139   -1.4971761   0.13923945     11278.83     1000 
 1104000   0.40145934   -2.1397763   0.60158682   -1.5381895    0.1349672    11295.037     1000 
 1106000   0.42254391   -2.1577294   0.63318204   -1.5245474   0.12175908    11461.752     1000 
 1108000   0.41941455   -2.1516887   0.62849271    -1.523196   0.14725374    11124.987     1000 
 1110000   0.41978009   -2.1148058   0.62904047   -1.4857654   0.13475872    11217.144     1000 
 1112000   0.42186449   -2.1805631   0.63216394   -1.5483991   0.12899321    11304.069     1000 
 1114000   0.41327086   -2.1796207   0.61928638   -1.5603343   0.13085314    11401.344     1000 
 1116000   0.42418186   -2.1676593   0.63563651   -1.5320228   0.12384215    11350.855     1000 
 1118000   0.41029936   -2.1603366   0.61483359    -1.545503   0.12021128    11383.247     1000 
 1120000   0.41896029    -2.170815     0.627812    -1.543003   0.12090747    11401.491     1000 
 1122000   0.42867478   -2.2003178   0.64236916   -1.5579486   0.11858695    11503.273     1000 
 1124000   0.42392583   -2.1824967   0.63525286   -1.5472439   0.12089228    11434.649     1000 
 1126000   0.42187512   -2.1776573   0.63217987   -1.5454774   0.12747052    11324.388     1000 
 1128000    0.4234594   -2.1904248   0.63455391   -1.5558709   0.13344199    11436.259     1000 
 1130000   0.41443189    -2.179174   0.62102619   -1.5581478   0.12849218    11435.864     1000 
 1132000   0.42041415   -2.2283841   0.62999061   -1.5983934    0.1140444     11610.81     1000 
 1134000   0.43503871   -2.1661168    0.6519055   -1.5142113   0.12709977    11347.942     1000 
 1136000   0.43618054   -2.1921857   0.65361654   -1.5385692   0.12925099    11362.779     1000 
 1138000   0.41630275   -2.1951562   0.62382968   -1.5713265   0.13068522    11321.339     1000 
 1140000   0.40843441   -2.2043684   0.61203896   -1.5923294   0.13252796    11358.164     1000 
 1142000   0.42330996   -2.1294791   0.63432998   -1.4951491   0.13452359    11285.534     1000 
 1144000   0.40929279   -2.1991127   0.61332525   -1.5857875   0.13235655    11259.383     1000 
 1146000   0.42467703   -2.1422202   0.63637854   -1.5058417   0.13764862    11257.689     1000 
 1148000   0.41594548   -2.1871197   0.62329431   -1.5638254    0.1337052    11389.972     1000 
 1150000   0.42373097   -2.1526844   0.63496086   -1.5177236   0.14236956    11290.674     1000 
 1152000    0.4124694   -2.1779785    0.6180854   -1.5598931   0.11784981    11439.129     1000 
 1154000   0.42895324   -2.1781537   0.64278644   -1.5353672   0.12079582    11417.855     1000 
 1156000   0.42140858   -2.1696148   0.63148075    -1.538134   0.13773642    11315.302     1000 
 1158000    0.4232183   -2.1516553   0.63419262   -1.5174627   0.12003702    11477.665     1000 
 1160000   0.42175055   -2.1337461    0.6319932   -1.5017529   0.13501461    11275.231     1000 
 1162000   0.43807681   -2.1728076    0.6564581   -1.5163495   0.12088519    11524.139     1000 
 1164000   0.41704625   -2.2061439   0.62494381   -1.5812001    0.1323387    11467.176     1000 
 1166000   0.42303401    -2.157049   0.63391646   -1.5231326   0.13479439    11287.331     1000 
 1168000   0.43554773   -2.1679256   0.65266827   -1.5152573   0.13920786    11297.876     1000 
 1170000   0.41755686   -2.1754936   0.62570896   -1.5497846   0.12336114    11399.634     1000 
 1172000   0.39933416   -2.1508662   0.59840224   -1.5524639   0.14559022    11172.859     1000 
 1174000   0.42688944    -2.172712   0.63969382   -1.5330182   0.14196529    11373.279     1000 
 1176000   0.40861169    -2.153557   0.61230462   -1.5412523   0.12657649      11302.1     1000 
 1178000   0.43850959   -2.1534147   0.65710662   -1.4963081   0.13751775    11334.112     1000 
 1180000   0.39900808   -2.1708086    0.5979136    -1.572895   0.12367775    11430.902     1000 
 1182000   0.41515964   -2.1828689   0.62211673   -1.5607522   0.12723754    11475.389     1000 
 1184000   0.41340026   -2.1279051   0.61948029   -1.5084248    0.1319842    11247.009     1000 
 1186000   0.42159102   -2.1203816   0.63175414   -1.4886275   0.12558372    11404.118     1000 
 1188000     0.431302   -2.1596762   0.64630605   -1.5133701   0.12763932    11336.459     1000 
 1190000   0.40116386   -2.1859245   0.60114405   -1.5847805   0.13002046    11366.613     1000 
 1192000   0.41177804   -2.2006148    0.6170494   -1.5835654    0.1290201    11437.796     1000 
 1194000   0.42319783   -2.1670136   0.63416194   -1.5328517   0.12785905    11353.456     1000 
 1196000   0.41243617   -2.1487456    0.6180356     -1.53071   0.12766063    11356.119     1000 
 1198000   0.41556883   -2.1371644   0.62272989   -1.5144345   0.13858857    11306.088     1000 
 1200000   0.42589489   -2.1468983   0.63820349   -1.5086949   0.12873661    11354.377     1000 
 1202000   0.42083547   -2.1788997   0.63062195   -1.5482777   0.12834852    11410.553     1000 
 1204000   0.42409833    -2.170212   0.63551135   -1.5347006   0.12957136    11295.404     1000 
 1206000   0.43212622   -2.2059116   0.64754114   -1.5583705   0.13716164    11340.929     1000 
 1208000   0.43333364   -2.1830752   0.64935047   -1.5337247   0.13166962    11368.799     1000 
 1210000   0.41523503   -2.1775114   0.62222969   -1.5552817   0.13476221    11362.613     1000 
 1212000   0.43398844   -2.1736796   0.65033168   -1.5233479   0.12667719    11383.437     1000 
 1214000   0.41417218   -2.1739462   0.62063702   -1.5533092   0.13690886    11250.659     1000 
 1216000    0.4111805   -2.1214902   0.61615398   -1.5053363   0.12728897    11294.999     1000 
 1218000   0.41367789    -2.204569   0.61989632   -1.5846727   0.14445301    11269.905     1000 
 1220000   0.41932604   -2.1764116   0.62836007   -1.5480515   0.13990525    11339.478     1000 
 1222000   0.44068878   -2.1452602   0.66037213   -1.4848881   0.12831595    11404.747     1000 
 1224000   0.42235149    -2.192888   0.63289371   -1.5599943   0.13207247    11363.431     1000 
 1226000    0.4257297   -2.2153816   0.63795595   -1.5774256   0.13172885    11371.817     1000 
 1228000   0.43504931   -2.1669185   0.65192139   -1.5149971   0.13214053    11255.065     1000 
 1230000   0.41130798   -2.1553623   0.61634501   -1.5390173   0.13339654    11220.851     1000 
 1232000   0.41340448   -2.1450061   0.61948661   -1.5255195   0.14048912     11323.22     1000 
 1234000   0.42157401   -2.1175416   0.63172866   -1.4858129   0.13455035    11370.918     1000 
 1236000   0.41586561   -2.1359338   0.62317461   -1.5127592   0.12543421    11350.959     1000 
 1238000   0.41491231   -2.1937013    0.6217461   -1.5719552   0.13067645    11294.061     1000 
 1240000    0.4206804   -2.1317226   0.63038958    -1.501333   0.12707549    11387.084     1000 
 1242000   0.39599433   -2.1276693   0.59339751   -1.5342718   0.12179672    11340.462     1000 
 1244000   0.41364816   -2.1439683   0.61985176   -1.5241166    0.1199693    11372.814     1000 
 1246000   0.41882118   -2.1515941   0.62760353   -1.5239905   0.13311687    11253.611     1000 
 1248000   0.43536558   -2.1658459   0.65239532   -1.5134506    0.1200345    11466.708     1000 
 1250000   0.41615034    -2.187855   0.62360129   -1.5642537   0.12374214    11353.052     1000 
 1252000   0.41611132   -2.1687077   0.62354281   -1.5451649   0.13566719    11255.181     1000 
 1254000   0.39375551   -2.1413759   0.59004263   -1.5513333   0.13161367    11398.084     1000 
 1256000   0.41306977   -2.1152902   0.61898505   -1.4963051   0.12671625    11355.829     1000 
 1258000   0.43721666   -2.2137479   0.65516917   -1.5585788    0.1315593    11301.874     1000 
 1260000   0.42886347   -2.1932994   0.64265191   -1.5506475   0.12545712    11336.669     1000 
 1262000   0.41471454   -2.1831094   0.62144973   -1.5616597   0.12708162    11363.778     1000 
 1264000   0.40397954   -2.1220406   0.60536334   -1.5166773   0.13674957    11225.195     1000 
 1266000    0.4075524   -2.2087888   0.61071728   -1.5980715   0.13250107    11343.032     1000 
 1268000   0.42814887   -2.1506478   0.64158108   -1.5090667   0.12251402    11405.516     1000 
 1270000   0.44667796   -2.1812776   0.66934692   -1.5119307   0.13398017    11334.385     1000 
 1272000   0.41120912   -2.1710408   0.61619686   -1.5548439   0.13674368     11305.51     1000 
 1274000   0.41846196     -2.15451   0.62706525   -1.5274447   0.13186275     11376.97     1000 
 1276000   0.40903102   -2.1797327   0.61293299   -1.5667997    0.1278952     11365.36     1000 
 1278000   0.40926446   -2.1941649    0.6132828   -1.5808821   0.13341719    11367.926     1000 
 1280000   0.41003132   -2.1480746   0.61443194   -1.5336426   0.12501978    11378.728     1000 
 1282000   0.42889683   -2.1610994    0.6427019   -1.5183975   0.13115636    11401.431     1000 
 1284000   0.42957504   -2.1069938    0.6437182   -1.4632756   0.13335094    11327.375     1000 
 1286000   0.41697036   -2.1165439   0.62483009   -1.4917138   0.13580593    11340.336     1000 
 1288000   0.41511434   -2.1558921   0.62204884   -1.5338432   0.13552104    11327.467     1000 
 1290000   0.39558942   -2.1829622   0.59279074   -1.5901715   0.13033867     11173.29     1000 
 1292000   0.40915694   -2.1466717   0.61312168   -1.5335501   0.11708833    11480.842     1000 
 1294000   0.42796553   -2.1735792   0.64130635   -1.5322729   0.13008397    11320.257     1000 
 1296000   0.43466067   -2.2124282   0.65133901   -1.5610892   0.12601494    11432.033     1000 
 1298000   0.41475969    -2.152426    0.6215174   -1.5309086   0.12139117     11369.79     1000 
 1300000   0.41285782   -2.1684887   0.61866744   -1.5498212   0.12733548    11438.985     1000 
 1302000   0.42496126   -2.1586858   0.63680445   -1.5218813   0.12508105    11422.354     1000 
 1304000   0.43187566   -2.1660449   0.64716567   -1.5188793   0.12961705    11316.755     1000 
 1306000   0.41714817   -2.1453596   0.62509654    -1.520263   0.12458342    11348.984     1000 
 1308000   0.43380305   -2.1746954   0.65005388   -1.5246416   0.14548625     11151.65     1000 
 1310000   0.44187597   -2.2098186   0.66215114   -1.5476674   0.13305421    11395.129     1000 
 1312000    0.4222501   -2.1463212   0.63274178   -1.5135794   0.13470874    11276.611     1000 
 1314000   0.41655321   -2.1722614   0.62420498   -1.5480565   0.12146648    11536.714     1000 
 1316000   0.40521431   -2.2044441   0.60721364   -1.5972305    0.1303446    11386.092     1000 
 1318000   0.43028977   -2.1822178   0.64478921   -1.5374286   0.12847259    11296.316     1000 
 1320000   0.40614536   -2.1903046   0.60860882   -1.5816958   0.13906485    11279.471     1000 
 1322000   0.42799773   -2.1894836   0.64135459    -1.548129   0.12555741    11435.684     1000 
 1324000   0.42648655   -2.1905555   0.63909009   -1.5514654   0.13699427    11342.101     1000 
 1326000   0.41214843   -2.1945884   0.61760443    -1.576984    0.1343179    11333.452     1000 
 1328000   0.41702765   -2.1486751   0.62491593   -1.5237592   0.11802228    11479.289     1000 
 1330000   0.42568691   -2.1498644   0.63789184   -1.5119726   0.13963702    11364.152     1000 
 1332000   0.41824267   -2.1522962   0.62673664   -1.5255595   0.13162477    11259.369     1000 
 1334000   0.41381706   -2.2081671   0.62010486   -1.5880622   0.12177125    11473.235     1000 
 1336000   0.41586745   -2.1851163   0.62317737   -1.5619389   0.12733819    11402.958     1000 
 1338000   0.43964334   -2.1623428   0.65880555   -1.5035372   0.13678829    11368.295     1000 
 1340000   0.41363718   -2.1607409   0.61983532   -1.5409056   0.12593062    11340.986     1000 
 1342000   0.41299575   -2.1697708   0.61887413   -1.5508967   0.13489559    11323.568     1000 
 1344000   0.43564039   -2.2017316   0.65280712   -1.5489245   0.13057281    11364.104     1000 
 1346000   0.39842451   -2.1758466   0.59703912   -1.5788074   0.11537639    11624.651     1000 
 1348000   0.42865679   -2.1616442    0.6423422    -1.519302   0.13279778    11307.887     1000 
 1350000   0.42288052   -2.1531737   0.63368646   -1.5194872   0.14020177    11269.489     1000 
 1352000   0.42336766   -2.1714939   0.63441644   -1.5370775    0.1461673    11241.702     1000 
 1354000   0.42983367   -2.1616338   0.64410576   -1.5175281   0.13126705    11360.517     1000 
 1356000   0.43230615   -2.1230808   0.64781077     -1.47527   0.13685063    11171.286     1000 
 1358000   0.41593342   -2.1673872   0.62327623    -1.544111   0.13153802    11403.349     1000 
 1360000   0.42232743    -2.155451   0.63285766   -1.5225933   0.13290691    11377.892     1000 
 1362000   0.40634689   -2.1794024   0.60891082   -1.5704916   0.13053178     11296.67     1000 
 1364000   0.43170682   -2.1909871   0.64691267   -1.5440744   0.12262787    11456.733     1000 
 1366000   0.43579889   -2.1635086   0.65304464   -1.5104639   0.13473652    11297.387     1000 
 1368000   0.40448377   -2.1111435   0.60611893   -1.5050246   0.12643557    11265.581     1000 
 1370000    0.4200132    -2.197333   0.62938977   -1.5679433   0.12120476    11387.546     1000 
 1372000   0.42788748   -2.1900448   0.64118939   -1.5488554   0.12022781    11542.054     1000 
 1374000   0.41513602   -2.1137587   0.62208133   -1.4916774   0.14140727    11300.655     1000 
 1376000   0.42176168   -2.1497505   0.63200987   -1.5177407   0.12377366    11454.398     1000 
 1378000   0.39694093    -2.129372   0.59481598    -1.534556   0.13459877    11229.441     1000 
 1380000   0.42304881   -2.1547457   0.63393864   -1.5208071   0.12564999    11343.603     1000 
 1382000   0.40603753   -2.1509378   0.60844724   -1.5424905    0.1254254    11459.901     1000 
 1384000   0.41689974   -2.1784361   0.62472427   -1.5537118   0.13295847    11320.547     1000 
 1386000    0.4123127   -2.1563877   0.61785058   -1.5385371   0.12488713    11455.381     1000 
 1388000    0.3992667   -2.1334879   0.59830115   -1.5351868   0.13046068    11227.002     1000 
 1390000   0.42976415   -2.2130634   0.64400158   -1.5690619   0.12087484     11505.56     1000 
 1392000   0.43754028   -2.1910935   0.65565411   -1.5354394    0.1331894    11441.966     1000 
 1394000   0.42937033    -2.167651   0.64341144   -1.5242395   0.13155512    11323.829     1000 
 1396000   0.43149442   -2.1767141    0.6465944   -1.5301197    0.1265143    11372.367     1000 
 1398000   0.42008732   -2.1724291   0.62950086   -1.5429283   0.13238522     11238.83     1000 
 1400000   0.43358282   -2.1678523   0.64972385   -1.5181285    0.1341331    11389.857     1000 
 1402000   0.43297086   -2.1846064   0.64880683   -1.5357995    0.1306067    11280.193     1000 
 1404000   0.42622252   -2.1614067   0.63869445   -1.5227123   0.12744461    11354.334     1000 
 1406000   0.41885966   -2.1379751    0.6276612   -1.5103139   0.14187584    11280.365     1000 
 1408000   0.42843041   -2.1513225   0.64200297   -1.5093195   0.14430329    11202.302     1000 
 1410000   0.43426382   -2.1252413   0.65074434   -1.4744969   0.14310646    11269.453     1000 
 1412000   0.43807757   -2.1373638   0.65645925   -1.4809045   0.13009053    11403.319     1000 
 1414000   0.41839208   -2.1622373   0.62696054   -1.5352767   0.12287903    11449.291     1000 
 1416000   0.43046045   -2.1574543   0.64504499   -1.5124093   0.13521805    11383.714     1000 
 1418000   0.41115628   -2.1228431   0.61611769   -1.5067255   0.12428183     11426.28     1000 
 1420000   0.44045769   -2.2058645   0.66002585   -1.5458386   0.12949003    11391.135     1000 
 1422000   0.42914423   -2.2117496   0.64307263   -1.5686769   0.12512834    11429.915     1000 
 1424000   0.40926603   -2.1526457   0.61328514   -1.5393605   0.13329182    11281.976     1000 
 1426000   0.41933874   -2.1673895    0.6283791   -1.5390104    0.1089046    11591.079     1000 
 1428000   0.41329608   -2.1734354   0.61932418   -1.5541112   0.12669938    11350.134     1000 
 1430000   0.41541583   -2.1320532   0.62250062   -1.5095526   0.13334069    11324.747     1000 
 1432000   0.41478747   -2.1479187   0.62155902   -1.5263597   0.12733892    11373.548     1000 
 1434000   0.41013602   -2.1739825   0.61458883   -1.5593937   0.13091543    11405.251     1000 
 1436000   0.40879403   -2.1878442   0.61257785   -1.5752663   0.13565568    11345.647     1000 
 1438000   0.42634055   -2.2068154   0.63887131   -1.5679441   0.12830974    11463.718     1000 
 1440000   0.41468357   -2.1563808   0.62140333   -1.5349775     0.138711    11276.765     1000 
 1442000   0.41945842   -2.1798203   0.62855844   -1.5512618   0.12043096    11481.576     1000 
 1444000   0.40626959   -2.1404177   0.60879498   -1.5316227   0.12875146    11286.427     1000 
 1446000   0.41182116   -2.1744918   0.61711401   -1.5573778   0.13162017    11330.447     1000 
 1448000   0.40551793    -2.158353   0.60766862   -1.5506843   0.13822338    11281.449     1000 
 1450000   0.40974334   -2.1644687   0.61400039   -1.5504683   0.12921214    11328.211     1000 
 1452000   0.43034859   -2.1896781   0.64487736   -1.5448008   0.13960934    11280.988     1000 
 1454000    0.4173976   -2.1992982   0.62547031   -1.5738279   0.13341504    11429.132     1000 
 1456000   0.41007891   -2.1437104   0.61450324   -1.5292072    0.1151087    11413.086     1000 
 1458000   0.41095387     -2.16399   0.61581437   -1.5481757   0.12575287    11228.472     1000 
 1460000   0.42148264   -2.1672958   0.63159174    -1.535704   0.11816644    11529.403     1000 
 1462000   0.41594722    -2.173751   0.62329691   -1.5504541   0.13365718    11394.609     1000 
 1464000   0.41999697   -2.1789054   0.62936546     -1.54954   0.13154549    11378.388     1000 
 1466000   0.43811215   -2.1238168   0.65651105   -1.4673058   0.12688221    11353.592     1000 
 1468000   0.44523105   -2.1842408   0.66717873    -1.517062   0.12744049    11508.759     1000 
 1470000    0.4445089   -2.1604049   0.66609659   -1.4943083   0.13484461    11256.052     1000 
 1472000   0.42892959   -2.1761973     0.642751   -1.5334463   0.13072054    11331.761     1000 
 1474000   0.43715025    -2.138905   0.65506965   -1.4838353   0.12886936    11273.306     1000 
 1476000   0.42926664   -2.1461693   0.64325606   -1.5029132   0.13726555    11295.884     1000 
 1478000   0.43254199   -2.1844438   0.64816416   -1.5362796   0.13396696    11319.815     1000 
 1480000   0.40660505   -2.1839692   0.60929767   -1.5746715   0.13006831    11493.613     1000 
 1482000   0.40259287   -2.1453293   0.60328542   -1.5420439   0.12641579    11324.933     1000 
 1484000   0.41358905   -2.1240211   0.61976319   -1.5042579   0.12038787      11426.8     1000 
 1486000   0.42069406     -2.16554   0.63041004     -1.53513   0.12786823    11335.614     1000 
 1488000   0.41075995   -2.1715147   0.61552378   -1.5559909   0.12687058    11450.627     1000 
 1490000    0.3957905   -2.1835473   0.59309207   -1.5904552   0.13182465    11333.545     1000 
 1492000   0.40430088   -2.1631379   0.60584487   -1.5572931   0.12790207    11331.805     1000 
 1494000    0.4105005   -2.1586651   0.61513501   -1.5435301   0.13231149    11304.696     1000 
 1496000   0.41640929   -2.1694772   0.62398932   -1.5454879   0.13180709    11366.296     1000 
 1498000   0.42521154   -2.1436623    0.6371795   -1.5064828    0.1262728    11368.384     1000 
 1500000   0.42367514   -2.1780973    0.6348772   -1.5432201   0.11848862    11499.484     1000 
 1502000   0.41300993   -2.2094322   0.61889539   -1.5905368   0.12925485    11442.951     1000 
 1504000    0.4031308   -2.1848897    0.6040915   -1.5807982   0.12741878    11429.846     1000 
 1506000   0.41842002   -2.1435109   0.62700239   -1.5165085   0.11818712    11466.987     1000 
 1508000    0.4401846   -2.1846717   0.65961662    -1.525055   0.12992202    11390.883     1000 
 1510000   0.41931924   -2.2199235   0.62834989   -1.5915736   0.12408397    11428.567     1000 
 1512000   0.43475002   -2.1572871   0.65147291   -1.5058142   0.11784572    11378.034     1000 
 1514000   0.42010606    -2.146747   0.62952893    -1.517218   0.13598271    11243.502     1000 
 1516000     0.431549   -2.1611792   0.64667618    -1.514503   0.12911359    11390.754     1000 
 1518000   0.42994159   -2.1301178   0.64426747   -1.4858503   0.13243172    11326.955     1000 
 1520000   0.41246962   -2.1388246   0.61808573   -1.5207389   0.12438394    11341.874     1000 
 1522000   0.40718296   -2.1558557   0.61016367    -1.545692   0.13619456    11292.003     1000 
 1524000   0.40798596   -2.1471403   0.61136696   -1.5357733   0.13317889    11292.544     1000 
 1526000   0.40862347   -2.2397365   0.61232227   -1.6274142   0.14026985    11325.083     1000 
 1528000   0.44849967   -2.1762807   0.67207676    -1.504204   0.13173644    11398.863     1000 
 1530000    0.4409221   -2.1515022   0.66072177   -1.4907804   0.13350793    11388.712     1000 
 1532000   0.41299906   -2.1741638   0.61887909   -1.5552847   0.14337904    11180.409     1000 
 1534000   0.41785947   -2.1590832   0.62616241   -1.5329208   0.13919389    11361.008     1000 
 1536000   0.40720746   -2.1552002   0.61020038   -1.5449998   0.12372755    11337.996     1000 
 1538000   0.43334815   -2.1767018    0.6493722   -1.5273296   0.13412215    11316.895     1000 
 1540000   0.41799285   -2.1928396   0.62636229   -1.5664773   0.14247803    11220.028     1000 
 1542000   0.40822769   -2.2012714    0.6117292   -1.5895422   0.12793167    11348.466     1000 
 1544000   0.42950483   -2.1630024   0.64361299   -1.5193894   0.12304172     11429.29     1000 
 1546000   0.42011777   -2.1291277   0.62954647   -1.4995813   0.12979803    11295.588     1000 
 1548000   0.40915997    -2.144676   0.61312622   -1.5315497   0.12774578    11355.444     1000 
 1550000   0.41692726   -2.1404843    0.6247655   -1.5157188   0.13581237    11337.095     1000 
 1552000    0.4293779    -2.143026   0.64342278   -1.4996032   0.12685569    11363.014     1000 
 1554000   0.43292599   -2.1660449    0.6487396   -1.5173053   0.11615778    11457.031     1000 
 1556000   0.42100831   -2.1313082   0.63088096   -1.5004272    0.1285138    11339.692     1000 
 1558000   0.43106336   -2.1388747   0.64594844   -1.4929262   0.12735444     11360.93     1000 
 1560000   0.41342712   -2.1855176   0.61952054   -1.5659971   0.12490027    11437.684     1000 
 1562000   0.40608102   -2.1978406    0.6085124   -1.5893282   0.12905327    11318.697     1000 
 1564000   0.40554388   -2.1243149    0.6077075   -1.5166074   0.11474587    11421.053     1000 
 1566000   0.42335327   -2.2004661   0.63439487   -1.5660712   0.12704631    11417.016     1000 
 1568000   0.43495565   -2.1562955   0.65178104   -1.5045144   0.12074511    11496.802     1000 
 1570000   0.44306303   -2.1780089   0.66392995   -1.5140789   0.13146728    11329.481     1000 
 1572000   0.41830974   -2.1788097   0.62683715   -1.5519725   0.12334659    11437.282     1000 
 1574000   0.43424358   -2.1245746   0.65071401   -1.4738606   0.12385579    11330.524     1000 
 1576000   0.42834636     -2.18441   0.64187702    -1.542533   0.12520068    11423.184     1000 
 1578000   0.41205166   -2.2017879   0.61745942   -1.5843285   0.11326623    11510.763     1000 
 1580000   0.41856463    -2.205699   0.62721909   -1.5784799    0.1207355    11439.001     1000 
 1582000   0.42074198   -2.1285757   0.63048186   -1.4980938   0.12817495    11406.134     1000 
 1584000   0.42867472   -2.1391329   0.64236907   -1.4967639   0.13834367    11266.625     1000 
 1586000   0.42593766   -2.1694162   0.63826758   -1.5311486   0.12996957    11438.158     1000 
 1588000   0.42793695   -2.1834764   0.64126352   -1.5422129   0.12393435    11382.068     1000 
[...]
 2614000   0.41380351    -2.157833   0.62008455   -1.5377485    0.1294607    11306.871     1000 
 2616000   0.43536961   -2.1945252   0.65240136   -1.5421239    0.1167781    11459.985     1000 
 2618000   0.41686385   -2.2004781   0.62467047   -1.5758076   0.13411014    11412.265     1000 
 2620000   0.42133455   -2.1165598   0.63136983     -1.48519    0.1464717    11193.175     1000 
 2622000   0.42161237   -2.1608573   0.63178613   -1.5290711   0.12821407    11402.577     1000 
 2624000   0.43097114   -2.1922723   0.64581025    -1.546462    0.1356017    11359.173     1000 
 2626000   0.41216927     -2.17277   0.61763565   -1.5551343   0.13873503     11238.37     1000 
 2628000   0.44598378   -2.1906803    0.6683067   -1.5223736   0.13637978    11345.157     1000 
 2630000   0.42419371   -2.1749493   0.63565428   -1.5392951   0.13018849     11288.65     1000 
 2632000   0.42252614   -2.1794279   0.63315543   -1.5462725   0.12494208    11318.408     1000 
 2634000   0.43382396   -2.1799359    0.6500852   -1.5298507   0.13155656     11357.94     1000 
 2636000   0.41877452   -2.2248765   0.62753361   -1.5973429   0.13581845    11402.755     1000 
 2638000   0.41895347   -2.1707319   0.62780178   -1.5429301   0.13609497    11275.407     1000 
 2640000   0.42490147   -2.1697643   0.63671486   -1.5330494   0.13318166    11255.421     1000 
 2642000   0.43147083   -2.1507979   0.64655905   -1.5042389   0.12607294    11421.329     1000 
 2644000     0.430746   -2.1200195   0.64547288   -1.4745466   0.13466647    11302.486     1000 
 2646000   0.41676596    -2.184339   0.62452379   -1.5598152   0.11092498    11560.192     1000 
 2648000   0.42320083   -2.1135321   0.63416644   -1.4793657   0.14025394    11212.625     1000 
 2650000    0.4171503   -2.1257642   0.62509972   -1.5006645   0.12950255    11264.218     1000 
 2652000   0.41811521   -2.1692088   0.62654564   -1.5426631   0.11774206    11443.741     1000 
 2654000   0.39304192   -2.1876352   0.58897332   -1.5986619   0.12865615    11314.505     1000 
 2656000   0.43425115   -2.1871943   0.65072536    -1.536469   0.11408471    11481.104     1000 
 2658000   0.42593552   -2.2100523   0.63826438   -1.5717879   0.12499195     11386.66     1000 
 2660000   0.44134283   -2.1691289   0.66135223   -1.5077767   0.12808334    11356.247     1000 
 2662000   0.41276207   -2.1553306   0.61852397   -1.5368066   0.14101889    11236.266     1000 
 2664000   0.43325065   -2.1700078    0.6492261   -1.5207817   0.12798667    11372.021     1000 
 2666000   0.42335224    -2.124745   0.63439334   -1.4903517   0.12187697    11457.162     1000 
 2668000   0.41048487   -2.1696461   0.61511158   -1.5545346   0.12313818    11399.778     1000 
 2670000   0.42656071   -2.1744302   0.63920122    -1.535229   0.12866225    11473.753     1000 
 2672000   0.42303754   -2.1576627   0.63392175    -1.523741   0.12079707    11443.655     1000 
 2674000   0.42663879   -2.1790282   0.63931822     -1.53971   0.12076439    11425.328     1000 
 2676000   0.42589418   -2.1855465   0.63820243    -1.547344   0.12339943     11486.42     1000 
 2678000   0.42629329   -2.1571417    0.6388005   -1.5183412   0.12040534    11392.726     1000 
 2680000   0.41357174   -2.1500169   0.61973725   -1.5302797   0.12707231    11322.903     1000 
 2682000   0.42932881   -2.1415108   0.64334922   -1.4981616   0.12679232    11376.815     1000 
 2684000   0.42445401   -2.1670579   0.63604433   -1.5310136   0.13885644    11349.054     1000 
 2686000   0.43195789   -2.1335709   0.64728889    -1.486282   0.11631574    11500.369     1000 
 2688000   0.42695303   -2.1762947   0.63978911   -1.5365055   0.13915714    11347.773     1000 
 2690000   0.41109399    -2.164207   0.61602435   -1.5481827      0.11629    11457.583     1000 
 2692000   0.41012948   -2.1323947   0.61457903   -1.5178156   0.13782594    11279.407     1000 
 2694000   0.40919762   -2.1404167   0.61318263   -1.5272341   0.14121061    11247.713     1000 
 2696000   0.43162934   -2.1518328   0.64679657   -1.5050363   0.12656612    11395.634     1000 
 2698000   0.43166773   -2.1914697   0.64685409   -1.5446156   0.12501409    11318.878     1000 
 2700000   0.43974526   -2.1392205   0.65895827   -1.4802622    0.1428771    11382.155     1000 
 2702000    0.4178578   -2.1631783   0.62615991   -1.5370184     0.119682    11509.344     1000 
 2704000   0.42787247   -2.1805111   0.64116689   -1.5393442   0.12872381    11464.197     1000 
 2706000   0.42736274    -2.163182   0.64040307   -1.5227789   0.14324855     11198.92     1000 
 2708000   0.39674696   -2.1804791   0.59452532   -1.5859537   0.12732185    11285.361     1000 
 2710000   0.42743734   -2.1812004   0.64051485   -1.5406856    0.1337863    11316.157     1000 
 2712000   0.43191412   -2.1457002   0.64722331   -1.4984769   0.13619631    11332.972     1000 
 2714000   0.42315075    -2.106631    0.6340914   -1.4725396   0.13517502    11232.977     1000 
 2716000   0.42484806   -2.1422799   0.63663482   -1.5056451   0.11850566    11436.291     1000 
 2718000   0.44480365    -2.139336   0.66653826   -1.4727977   0.13471687     11216.94     1000 
 2720000   0.42777708   -2.1386982   0.64102396   -1.4976742   0.12983041    11392.543     1000 
 2722000   0.40202809   -2.1636103   0.60243909   -1.5611712   0.13572284    11326.135     1000 
 2724000   0.42874634   -2.1582921   0.64247639   -1.5158157   0.13797103     11224.62     1000 
 2726000   0.43199568   -2.1747633   0.64734552   -1.5274178   0.12778333    11392.681     1000 
 2728000   0.40682727   -2.1793516   0.60963067   -1.5697209   0.13011645    11309.937     1000 
 2730000   0.41061283   -2.1689277   0.61530333   -1.5536244   0.12630604     11358.17     1000 
 2732000   0.42160132   -2.1581274   0.63176958   -1.5263579   0.13253398    11384.385     1000 
 2734000   0.41518387   -2.1647787   0.62215303   -1.5426256   0.12357651    11421.443     1000 
 2736000   0.43150065   -2.1558819   0.64660372   -1.5092781   0.12872159    11366.461     1000 
 2738000   0.42291883   -2.1745822   0.63374387   -1.5408383   0.13169632    11393.828     1000 
 2740000   0.40491109   -2.1527745   0.60675927   -1.5460152   0.11723006    11510.079     1000 
 2742000   0.41133822   -2.1436766   0.61639032   -1.5272863   0.12909141    11392.939     1000 
 2744000     0.428426   -2.1468238   0.64199637   -1.5048274   0.12210525    11467.003     1000 
 2746000   0.43514969   -2.1535905   0.65207181   -1.5015187   0.11878717    11444.014     1000 
 2748000   0.42675215   -2.1291483    0.6394881   -1.4896602   0.14349861    11291.101     1000 
 2750000   0.41908334   -2.1799205   0.62799639   -1.5519242   0.12494592    11447.028     1000 
 2752000   0.42537357   -2.1522123    0.6374223     -1.51479   0.12067742    11435.986     1000 
 2754000   0.41835055   -2.1693539    0.6268983   -1.5424556   0.12486391    11355.278     1000 
 2756000   0.44089819   -2.1985515   0.66068594   -1.5378655    0.1313429    11391.182     1000 
 2758000    0.4162133   -2.2091253   0.62369563   -1.5854296   0.12886404    11506.911     1000 
 2760000   0.42578659   -2.1428592    0.6380412    -1.504818   0.13211482    11319.124     1000 
 2762000   0.42726076   -2.1238519   0.64025025   -1.4836017   0.12955006    11397.622     1000 
 2764000    0.3978212   -2.1751867   0.59613506   -1.5790516   0.13822747     11311.74     1000 
 2766000   0.41152049   -2.1353137   0.61666346   -1.5186503   0.12524933    11393.254     1000 
 2768000   0.41940813   -2.1988338   0.62848308   -1.5703507   0.13445769    11311.661     1000 
 2770000    0.4409599   -2.1428115   0.66077842   -1.4820331   0.13422181    11356.107     1000 
 2772000   0.40359316   -2.1699908   0.60478434   -1.5652064   0.12622403    11451.556     1000 
 2774000   0.40676161   -2.1495558   0.60953227   -1.5400235   0.12994877    11296.813     1000 
 2776000   0.41533544   -2.1592189   0.62238015   -1.5368387   0.12727904    11360.843     1000 
 2778000   0.43640857   -2.1764359   0.65395824   -1.5224777    0.1260207    11477.469     1000 
 2780000   0.42043149   -2.1368828   0.63001659   -1.5068662   0.13116434    11324.953     1000 
 2782000   0.40558612   -2.1818445    0.6077708   -1.5740737   0.12059015    11415.304     1000 
 2784000   0.42538558   -2.1613143   0.63744029    -1.523874    0.1278979    11368.385     1000 
 2786000   0.42805434   -2.1726316   0.64143943   -1.5311922   0.12550897    11319.782     1000 
 2788000   0.39967275   -2.1886263   0.59890962   -1.5897167   0.13271574    11303.021     1000 
 2790000   0.43608812   -2.2010452   0.65347805   -1.5475671   0.12940505    11476.066     1000 
 2792000   0.40258976   -2.1971638   0.60328076   -1.5938831   0.12929066    11400.881     1000 
 2794000   0.41270806   -2.1639173   0.61844303   -1.5454743   0.11930583    11315.357     1000 
 2796000   0.41760368   -2.1378441   0.62577911    -1.512065    0.1273294    11395.453     1000 
 2798000   0.41854986   -2.2134355   0.62719696   -1.5862386   0.12114406    11457.145     1000 
 2800000   0.40981168   -2.1567908   0.61410281    -1.542688     0.124785    11474.608     1000 
 2802000   0.44681044   -2.1519312   0.66954545   -1.4823857   0.12815721    11280.291     1000 
 2804000   0.40805543   -2.1551635   0.61147106   -1.5436924   0.14114218      11161.2     1000 
 2806000   0.40579177     -2.13637   0.60807897   -1.5282911   0.13855827    11208.377     1000 
 2808000   0.39184216   -2.1688508   0.58717547   -1.5816754   0.13047999    11367.737     1000 
 2810000   0.41862367   -2.1669634   0.62730757   -1.5396559   0.13622488    11282.621     1000 
 2812000   0.40925898   -2.1349479   0.61327459   -1.5216733   0.12765627    11306.773     1000 
 2814000   0.42556497   -2.2178818   0.63770911   -1.5801727   0.14082101    11327.128     1000 
 2816000   0.42620813   -2.1740898   0.63867288   -1.5354169   0.12226085    11423.549     1000 
 2818000   0.42497382   -2.1590914   0.63682328   -1.5222682   0.12143934    11342.038     1000 
 2820000   0.42078832    -2.173352    0.6305513   -1.5428007   0.13367041    11402.497     1000 
 2822000   0.42053705   -2.1685495   0.63017477   -1.5383747   0.13349468    11370.575     1000 
 2824000    0.4198604   -2.1453086   0.62916081   -1.5161478   0.13654148    11411.742     1000 
 2826000   0.43490118   -2.1642513   0.65169942   -1.5125519   0.12225501    11488.371     1000 
 2828000   0.42558867   -2.1682878   0.63774462   -1.5305431   0.13290023    11348.029     1000 
 2830000   0.42569065   -2.1681699   0.63789745   -1.5302725   0.12297281     11491.02     1000 
 2832000   0.41828373   -2.1980022   0.62679817    -1.571204   0.12559551    11478.701     1000 
 2834000   0.42647402   -2.1758415   0.63907132   -1.5367701   0.13744859    11227.775     1000 
 2836000   0.43671666    -2.201447   0.65441992   -1.5470271   0.12641641    11433.051     1000 
 2838000   0.42964198   -2.1943756    0.6438185   -1.5505571   0.12957872    11455.031     1000 
 2840000   0.42732981   -2.1895025   0.64035372   -1.5491488    0.1250411    11433.657     1000 
 2842000   0.42273362   -2.2009495   0.63346634   -1.5674832   0.12996684    11374.755     1000 
 2844000   0.42206701   -2.1382372   0.63246741   -1.5057698   0.14584504    11280.318     1000 
 2846000    0.4338704   -2.1517985   0.65015479   -1.5016437   0.13269167    11280.644     1000 
 2848000   0.42128782   -2.1707154   0.63129979   -1.5394156    0.1416128    11310.147     1000 
 2850000     0.416438   -2.1710586   0.62403234   -1.5470262   0.12202041    11374.858     1000 
 2852000   0.43038781   -2.1476832   0.64493613    -1.502747   0.12789009    11428.881     1000 
 2854000   0.43586792   -2.2064579   0.65314808   -1.5533099   0.14190617    11371.834     1000 
 2856000   0.41105239   -2.1485844     0.615962   -1.5326223    0.1449694    11164.184     1000 
 2858000    0.4136367   -2.1667145   0.61983459   -1.5468799   0.13314797     11308.66     1000 
 2860000   0.40696094   -2.1720316   0.60983097   -1.5622006   0.11439168    11496.245     1000 
 2862000   0.42245226   -2.1805045   0.63304472   -1.5474598   0.13702681    11374.593     1000 
 2864000   0.42504979   -2.1706178   0.63693712   -1.5336807   0.11914613    11423.943     1000 
 2866000   0.41922963   -2.1826163    0.6282156   -1.5544006   0.11757264    11481.667     1000 
 2868000   0.42687675   -2.1693074    0.6396748   -1.5296326    0.1281267     11427.54     1000 
 2870000    0.4252833   -2.1770716   0.63728703   -1.5397845    0.1238303    11463.474     1000 
 2872000   0.42705639   -2.1834039     0.639944   -1.5434599   0.13378392    11350.125     1000 
 2874000   0.42025819   -2.1779083   0.62975689   -1.5481514   0.12095163    11399.494     1000 
 2876000   0.43581236   -2.1538386   0.65306482   -1.5007738   0.12950968    11381.607     1000 
 2878000   0.42446087   -2.1903612   0.63605461   -1.5543066   0.13853981    11266.239     1000 
 2880000   0.41547592   -2.1906751   0.62259067   -1.5680844   0.13078759    11467.132     1000 
 2882000   0.43924951   -2.1503609    0.6582154   -1.4921455   0.11757273     11500.11     1000 
 2884000   0.41383463   -2.2220296    0.6201312   -1.6018984   0.12419619    11540.294     1000 
 2886000   0.40386775   -2.1828577   0.60519582   -1.5776619   0.12882752    11449.188     1000 
 2888000   0.42660093   -2.1937597   0.63926149   -1.5544982   0.12919329    11380.369     1000 
 2890000   0.42556308   -2.1614829   0.63770628   -1.5237766    0.1286208    11440.537     1000 
 2892000   0.42293433   -2.2070103   0.63376709   -1.5732432   0.12237091    11373.461     1000 
 2894000   0.42778888    -2.163717   0.64104163   -1.5226754   0.13381076    11358.748     1000 
 2896000   0.41343325   -2.1980426   0.61952973   -1.5785129   0.12779529    11353.783     1000 
 2898000   0.42656595    -2.130315   0.63920908   -1.4911059   0.12632975    11288.928     1000 
 2900000     0.414736   -2.1523309   0.62148189    -1.530849   0.12178266    11347.904     1000 
 2902000   0.42336289   -2.1588216   0.63440929   -1.5244123   0.13120248    11434.845     1000 
 2904000   0.40904584   -2.1639794    0.6129552   -1.5510242   0.11116062    11513.378     1000 
 2906000   0.42189808   -2.1618569   0.63221428   -1.5296426   0.12768516    11415.816     1000 
 2908000   0.42643914   -2.1915604   0.63901905   -1.5525414     0.120707    11403.986     1000 
 2910000   0.39715684   -2.1462094   0.59513952   -1.5510699   0.14054228    11280.495     1000 
 2912000   0.42633568   -2.1276933   0.63886402   -1.4888293   0.13426542    11271.629     1000 
 2914000   0.42274925   -2.0999271   0.63348976   -1.4664373   0.13510929    11262.782     1000 
 2916000   0.41860427   -2.1594307   0.62727849   -1.5321522   0.13659874    11380.814     1000 
 2918000   0.42163041   -2.1427671   0.63181317   -1.5109539    0.1200516    11431.191     1000 
 2920000   0.41866835   -2.1945709   0.62737452   -1.5671963   0.13077361    11439.549     1000 
 2922000   0.41739907   -2.1748035    0.6254725    -1.549331   0.13433651    11412.314     1000 
 2924000   0.42722483     -2.19587    0.6401964   -1.5556736   0.13228122    11387.869     1000 
 2926000   0.43797067   -2.1654083   0.65629905   -1.5091092   0.11899887    11501.229     1000 
 2928000   0.41874315   -2.2229463   0.62748662   -1.5954597   0.12018578    11595.853     1000 
 2930000   0.42969855   -2.1698865   0.64390327   -1.5259833   0.12770513     11422.93     1000 
 2932000   0.42274971   -2.1151205   0.63349044     -1.48163   0.14391776    11234.609     1000 
 2934000   0.41692062   -2.1680067   0.62475555   -1.5432511    0.1387617    11261.935     1000 
 2936000   0.42718879   -2.2137008    0.6401424   -1.5735584   0.11380761    11479.992     1000 
 2938000   0.40653418   -2.1468583   0.60919146   -1.5376669   0.13919669    11295.808     1000 
 2940000   0.40357308   -2.1147956   0.60475427   -1.5100413   0.13074123      11247.8     1000 
 2942000    0.4290455   -2.1328191   0.64292468   -1.4898944   0.12807369    11426.027     1000 
 2944000    0.4302015   -2.1261923   0.64465695   -1.4815354    0.1292652    11245.538     1000 
 2946000   0.42184926   -2.1697726   0.63214112   -1.5376314   0.12747725    11243.892     1000 
 2948000   0.41640401    -2.214225   0.62398141   -1.5902436   0.11972784    11351.358     1000 
 2950000   0.43693505   -2.1661897   0.65474717   -1.5114425   0.13439941    11269.353     1000 
 2952000   0.41118906   -2.1534888    0.6161668    -1.537322   0.13554049    11409.169     1000 
 2954000   0.40838268   -2.1884628   0.61196145   -1.5765013   0.12631824    11347.919     1000 
 2956000   0.43802947   -2.1957879   0.65638716   -1.5394007   0.13122537    11390.784     1000 
 2958000   0.40886339   -2.1571518   0.61268178     -1.54447   0.13504518    11302.467     1000 
 2960000   0.42995364   -2.1985138   0.64428553   -1.5542283   0.12817073     11385.88     1000 
 2962000   0.39781612   -2.2157176   0.59612746   -1.6195901   0.13214074    11252.135     1000 
 2964000   0.41997784   -2.1897204    0.6293368   -1.5603836   0.12678015    11434.859     1000 
 2966000    0.4258203   -2.2133863   0.63809172   -1.5752945   0.12504235    11374.404     1000 
 2968000   0.42208029    -2.136964   0.63248731   -1.5044767   0.12133994    11455.933     1000 
 2970000   0.41130397   -2.1844646   0.61633901   -1.5681256   0.12418525    11415.806     1000 
 2972000    0.4270219   -2.1420291   0.63989231   -1.5021368   0.13474768    11250.516     1000 
 2974000   0.42965859   -2.1841762   0.64384339   -1.5403328      0.13237    11417.344     1000 
 2976000   0.42439152   -2.1874407   0.63595069     -1.55149   0.13149153    11440.586     1000 
 2978000   0.44300186   -2.1153468   0.66383829   -1.4515085   0.12998096    11369.065     1000 
 2980000   0.43225539   -2.1367473   0.64773471   -1.4890126   0.13020716     11322.67     1000 
 2982000   0.39843541   -2.1610442   0.59705546   -1.5639887   0.13371726    11328.203     1000 
 2984000   0.41101013   -2.1890663   0.61589868   -1.5731676   0.13145875    11371.719     1000 
 2986000   0.42725699   -2.1310285   0.64024459   -1.4907839   0.14475235    11196.139     1000 
 2988000   0.42592276    -2.148866   0.63824525   -1.5106207   0.12848943    11399.601     1000 
 2990000   0.39366749    -2.167654   0.58991074   -1.5777433   0.12045797    11448.498     1000 
 2992000   0.41456924   -2.1668238   0.62123201   -1.5455918   0.13815775    11173.352     1000 
 2994000   0.40916581   -2.2050796   0.61313497   -1.5919446   0.11934343    11486.275     1000 
 2996000   0.44850698   -2.1464865    0.6720877   -1.4743988   0.13813137    11330.298     1000 
 2998000   0.41039812   -2.1482275   0.61498158   -1.5332459   0.12030961    11371.181     1000 
 3000000   0.40789053   -2.1286832   0.61122395   -1.5174593   0.14400643    11139.185     1000 
Loop time of 7237.31 on 1 procs for 3000000 steps with 1000 atoms

Performance: 179071.988 tau/day, 414.518 timesteps/s
100.0% CPU use with 1 MPI tasks x 1 OpenMP threads

MPI task timing breakdown:
Section |  min time  |  avg time  |  max time  |%varavg| %total
---------------------------------------------------------------
Pair    | 6525.8     | 6525.8     | 6525.8     |   0.0 | 90.17
Neigh   | 563.67     | 563.67     | 563.67     |   0.0 |  7.79
Comm    | 61.525     | 61.525     | 61.525     |   0.0 |  0.85
Output  | 0.025882   | 0.025882   | 0.025882   |   0.0 |  0.00
Modify  | 75.464     | 75.464     | 75.464     |   0.0 |  1.04
Other   |            | 10.88      |            |       |  0.15

Nlocal:        1000.00 ave        1000 max        1000 min
Histogram: 1 0 0 0 0 0 0 0 0 0
Nghost:        6097.00 ave        6097 max        6097 min
Histogram: 1 0 0 0 0 0 0 0 0 0
Neighs:        204667.0 ave      204667 max      204667 min
Histogram: 1 0 0 0 0 0 0 0 0 0

Total # of neighbors = 204667
Ave neighs/atom = 204.66700
Neighbor list builds = 150000
Dangerous builds not checked

Total wall time: 2:00:37
