LAMMPS (29 Sep 2021 - Update 2)
OMP_NUM_THREADS environment is not set. Defaulting to 1 thread. (src/comm.cpp:98)
  using 1 OpenMP thread(s) per MPI task
# ----------------------- Inicialização -----------------------

units			lj
atom_style 		atomic
dimension 		3
boundary 		p p p

# -------------------- Criação dos Átomos ---------------------

read_data 		topologia.txt
Reading data file ...
  orthogonal box = (0.0000000 0.0000000 0.0000000) to (21.540000 21.540000 21.540000)
  1 by 1 by 1 MPI processor grid
  reading atoms ...
  1000 atoms
  read_data CPU = 0.005 seconds

velocity 		all create ${temp} 87287 rot yes dist gaussian
velocity 		all create 0.58 87287 rot yes dist gaussian

# ------------------ Interação Interatômica -------------------

pair_style		table linear 2000
pair_coeff		1 1 force.table AA 10.0
WARNING: 3 of 2000 force values in table AA are inconsistent with -dE/dr.
WARNING:  Should only be flagged at inflection points (src/pair_table.cpp:465)
pair_coeff		1 2 force.table AB 10.0
WARNING: 1 of 2000 force values in table AB are inconsistent with -dE/dr.
WARNING:  Should only be flagged at inflection points (src/pair_table.cpp:465)
pair_coeff		2 2 force.table BB 10.0
pair_write		1 1 2000 r 0.008 10.0 table.check AA
Appending to table file table.check with DATE: 2023-06-17
Neighbor list info ...
  update every 1 steps, delay 10 steps, check yes
  max neighbors/atom: 2000, page size: 100000
  master list distance cutoff = 10.3
  ghost atom cutoff = 10.3
  binsize = 5.15, bins = 5 5 5
  1 neighbor lists, perpetual/occasional/extra = 1 0 0
  (1) pair table, perpetual
      attributes: half, newton on
      pair build: half/bin/atomonly/newton
      stencil: half/bin/3d
      bin: standard
pair_write		1 2 2000 r 0.008 10.0 table.check AB
Appending to table file table.check with DATE: 2023-06-17
pair_write		2 2 2000 r 0.008 10.0 table.check BB
Appending to table file table.check with DATE: 2023-06-17

neighbor 		0.3 bin
neigh_modify		every 20 delay 0 check no

# ------------------------- Ensemble --------------------------------------

fix 1			all npt temp ${temp} ${temp} 0.5 iso ${press} ${press} 5
fix 1			all npt temp 0.58 ${temp} 0.5 iso ${press} ${press} 5
fix 1			all npt temp 0.58 0.58 0.5 iso ${press} ${press} 5
fix 1			all npt temp 0.58 0.58 0.5 iso 0.13 ${press} 5
fix 1			all npt temp 0.58 0.58 0.5 iso 0.13 0.13 5

# ---------------------- Função de Distribuição Radial -----------------------

#compute RDF 		all rdf 2000 1 1 1 2 2 2
#fix 2 			all ave/time 1 2000 2000 c_RDF[*] file rdf.data mode vector

# ------------------------- Execução ---------------------------

timestep 		0.005
thermo_style		custom step temp pe ke etotal press vol atoms
thermo			2000
run			3000000
Per MPI rank memory allocation (min/avg/max) = 3.614 | 3.614 | 3.614 Mbytes
Step Temp PotEng KinEng TotEng Press Volume Atoms 
       0         0.58  -0.99611563      0.86913  -0.12698563   0.12595324    9993.9483     1000 
    2000   0.56038079   -1.7329199   0.83973061  -0.89318926   0.12153669    11502.036     1000 
    4000   0.58689461    -1.705347   0.87946157  -0.82588539   0.14480147    11362.848     1000 
    6000   0.57549554   -1.7541477   0.86238007  -0.89176762   0.11560062    11650.021     1000 
    8000   0.59498836   -1.6634128   0.89159006   -0.7718227   0.13155675    11308.648     1000 
   10000   0.56851536    -1.708894   0.85192027  -0.85697376   0.13040683    11352.255     1000 
   12000   0.56528786    -1.736734   0.84708386  -0.88965017   0.12758117    11474.587     1000 
   14000   0.58340717   -1.7053165   0.87423565  -0.83108081   0.12890703    11494.697     1000 
   16000   0.57016974   -1.7588053   0.85439936   -0.9044059   0.13377553    11465.718     1000 
   18000   0.57541576   -1.7173275   0.86226052  -0.85506694   0.12717163    11466.176     1000 
   20000   0.58708763   -1.7483645   0.87975081   -0.8686137   0.13239825    11514.783     1000 
   22000   0.56168154   -1.7283611   0.84167978  -0.88668131   0.12809129     11478.29     1000 
   24000   0.54792536   -1.7029804   0.82106615  -0.88191425   0.12788598    11361.969     1000 
   26000   0.59021959   -1.7047061   0.88444405  -0.82026202   0.11426638    11642.006     1000 
   28000   0.58028969   -1.7319185   0.86956411  -0.86235443    0.1414527    11452.343     1000 
   30000   0.58153694   -1.7070381    0.8714331  -0.83560498   0.13627499    11277.223     1000 
   32000    0.5970433   -1.6901735   0.89466938  -0.79550411   0.13382895    11401.152     1000 
   34000   0.60814683    -1.711009   0.91130802  -0.79970098   0.14155214     11375.17     1000 
   36000   0.58477746   -1.6964029   0.87628902  -0.82011387   0.11917931    11605.892     1000 
   38000   0.57034429   -1.7073134   0.85466092   -0.8526525   0.12415973    11462.486     1000 
   40000   0.58726567   -1.7362921    0.8800176   -0.8562745   0.12275423     11521.24     1000 
   42000    0.5993397   -1.7357576   0.89811054  -0.83764703   0.12464668    11620.626     1000 
   44000   0.57248836    -1.713426   0.85787381  -0.85555221   0.12058671    11621.207     1000 
   46000   0.57125112   -1.6662648    0.8560198    -0.810245   0.12808536    11391.459     1000 
   48000   0.59104591   -1.7875632   0.88568229  -0.90188095   0.12765159    11503.748     1000 
   50000   0.56606496   -1.6998712   0.84824834   -0.8516229   0.12090628    11484.118     1000 
   52000   0.59064198   -1.7628304   0.88507701  -0.87775344   0.13602231    11372.454     1000 
   54000   0.57672995    -1.715596   0.86422983   -0.8513662   0.13109142    11553.212     1000 
   56000     0.565249   -1.7350762   0.84702562  -0.88805054   0.13428076    11447.856     1000 
   58000   0.57210664    -1.682526    0.8573018  -0.82522423   0.13478509    11406.917     1000 
   60000   0.59980429   -1.7500046   0.89880673   -0.8511979   0.14382192    11307.744     1000 
   62000   0.58088835   -1.7070293    0.8704612  -0.83656811   0.13014526    11274.451     1000 
   64000   0.60555899   -1.7127305   0.90743014  -0.80530035   0.12968444    11518.835     1000 
   66000   0.56012596    -1.723221   0.83934876  -0.88387223    0.1325717    11324.827     1000 
   68000   0.58898578   -1.6665336   0.88259519  -0.78393838   0.13627991    11296.447     1000 
   70000   0.56478599    -1.704142   0.84633181  -0.85781022   0.13388035    11347.411     1000 
   72000   0.59265685   -1.7414467    0.8880963  -0.85335045   0.11698857    11601.125     1000 
   74000   0.56935646   -1.7484399   0.85318066  -0.89525921   0.13041351    11484.192     1000 
   76000   0.55903282   -1.7262718   0.83771068  -0.88856114   0.12599186    11474.114     1000 
   78000   0.58451337   -1.7086807   0.87589328  -0.83278741   0.13117851    11404.884     1000 
   80000   0.58651844   -1.6953611   0.87889789  -0.81646317   0.11883591    11724.949     1000 
   82000    0.5681907   -1.7458465   0.85143376   -0.8944127   0.13337789    11381.462     1000 
   84000   0.56596346   -1.7476833   0.84809625  -0.89958704    0.1226646    11709.303     1000 
   86000   0.58817887   -1.7106784   0.88138604  -0.82929234   0.12032715    11555.031     1000 
   88000   0.59661224   -1.7174818   0.89402345  -0.82345833   0.13140974    11481.531     1000 
   90000   0.57597415    -1.658477   0.86309726  -0.79537977   0.13074449    11558.338     1000 
   92000   0.58112375   -1.6850939   0.87081394  -0.81427992   0.14235125    11331.136     1000 
   94000   0.59185223   -1.6931929   0.88689057  -0.80630235    0.1350272    11384.276     1000 
   96000   0.60200375   -1.6501766   0.90210262    -0.748074   0.14406201    11317.557     1000 
   98000   0.60387564   -1.6905658   0.90490764  -0.78565815   0.13783358    11396.692     1000 
  100000   0.55913248   -1.7580362   0.83786002  -0.92017614   0.13848088    11428.824     1000 
  102000   0.59028946   -1.7289714   0.88454876  -0.84442267   0.13768279    11423.347     1000 
  104000   0.55767999   -1.7016699   0.83568347  -0.86598639   0.12902451    11519.407     1000 
  106000   0.59811921   -1.7067072   0.89628163  -0.81042558   0.13418872    11397.818     1000 
  108000    0.5855126   -1.7189397   0.87739063  -0.84154911    0.1379669    11506.671     1000 
  110000   0.57788188   -1.7598694   0.86595599  -0.89391343   0.12415605    11448.834     1000 
  112000   0.56666366   -1.8012447   0.84914549  -0.95209917   0.12706628    11491.681     1000 
  114000   0.58245502   -1.6983006   0.87280884  -0.82549171   0.13762827    11377.158     1000 
  116000   0.58800208   -1.7137101   0.88112112  -0.83258894   0.13725937    11375.298     1000 
  118000   0.58706384   -1.7397743   0.87971517  -0.86005915   0.13547538    11486.984     1000 
  120000    0.5904328   -1.7100767   0.88476355   -0.8253131   0.12136377    11607.244     1000 
  122000   0.60077292   -1.7528527   0.90025822  -0.85259452   0.12140773    11451.991     1000 
  124000   0.56567511   -1.6725535   0.84766415  -0.82488934    0.1378545    11319.065     1000 
  126000   0.58085856   -1.7148464   0.87041655  -0.84442985   0.13628047     11564.44     1000 
  128000   0.59475596     -1.72614    0.8912418  -0.83489821   0.12809738    11528.876     1000 
  130000   0.56463533   -1.6560687   0.84610605  -0.80996261   0.12800483    11301.078     1000 
  132000   0.58243332   -1.7187459   0.87277633  -0.84596961   0.12306506    11515.657     1000 
  134000   0.54959104   -1.7297822   0.82356217  -0.90622005   0.13660282    11457.194     1000 
  136000   0.59286083   -1.7002044   0.88840195  -0.81180246   0.12983071      11609.5     1000 
  138000   0.60152834   -1.7194422   0.90139022  -0.81805194   0.12219074    11578.674     1000 
  140000   0.58658787    -1.721168   0.87900193  -0.84216608   0.12657692    11598.764     1000 
  142000   0.58934981   -1.7308143   0.88314069  -0.84767361   0.12101566    11633.606     1000 
  144000   0.58462375   -1.6557786   0.87605869  -0.77971992   0.12907877    11423.852     1000 
  146000   0.59183393   -1.7437615   0.88686314  -0.85689839    0.1368133    11334.852     1000 
  148000    0.5786751   -1.6658047   0.86714464  -0.79866002   0.13697167    11455.645     1000 
  150000   0.57441386   -1.7358337   0.86075916  -0.87507458   0.12559803     11451.81     1000 
  152000   0.59428515   -1.6763816   0.89053629  -0.78584528   0.14538868    11313.772     1000 
  154000    0.5923012   -1.6622023   0.88756336  -0.77463898    0.1455483    11324.533     1000 
  156000   0.59398523   -1.6972671   0.89008687  -0.80718019   0.13719703    11420.682     1000 
  158000   0.57801394   -1.7261311   0.86615388  -0.85997722    0.1290121    11414.107     1000 
  160000   0.58471184    -1.686302    0.8761907  -0.81011126   0.13851532    11299.457     1000 
  162000   0.57313065   -1.7589617   0.85883629  -0.90012546   0.12454761    11554.907     1000 
  164000   0.57032053   -1.7212062   0.85462532   -0.8665809   0.12094831    11604.822     1000 
  166000   0.58402444   -1.7267496   0.87516062  -0.85158893   0.12819456    11634.116     1000 
  168000   0.57363961   -1.7656576   0.85959895  -0.90605864   0.13770548    11320.526     1000 
  170000   0.56415501   -1.7232628   0.84538629  -0.87787656   0.13717585    11287.371     1000 
  172000   0.55903907   -1.7014571   0.83772005  -0.86373701   0.13124349    11361.371     1000 
  174000   0.57483831   -1.6841188   0.86139521  -0.82272354   0.14225085    11305.815     1000 
  176000   0.59128582   -1.6835918   0.88604181  -0.79755003   0.13440801    11426.703     1000 
  178000   0.54895436   -1.7730202   0.82260811  -0.95041212     0.119625    11622.574     1000 
  180000   0.57097133   -1.7010665   0.85560054  -0.84546594   0.11862792     11582.91     1000 
  182000   0.57729547   -1.7588368   0.86507727  -0.89375956   0.12811729    11472.355     1000 
  184000    0.5760436   -1.7474574   0.86320133  -0.88425605   0.13050423    11461.316     1000 
  186000   0.57467364   -1.7149594   0.86114845  -0.85381092   0.13722181    11394.762     1000 
  188000   0.56006735   -1.6779734   0.83926092  -0.83871244   0.13812347    11295.503     1000 
  190000   0.55471818   -1.6966833   0.83124519   -0.8654381   0.12395792    11624.931     1000 
  192000   0.59701347   -1.6918613   0.89462468  -0.79723658   0.13430655    11401.207     1000 
  194000   0.58476481   -1.6807246   0.87627007  -0.80445452   0.13530215    11424.754     1000 
  196000   0.55324775   -1.7376964   0.82904176  -0.90865469   0.11952752    11490.881     1000 
  198000   0.58037032   -1.7091489   0.86968493  -0.83946394   0.13586154    11554.996     1000 
  200000   0.56239562   -1.6671854   0.84274983  -0.82443559   0.13884571    11303.776     1000 
  202000   0.57991777   -1.7301217   0.86900678  -0.86111492   0.12843044    11430.964     1000 
  204000   0.59186039   -1.7032691    0.8869028  -0.81636632   0.13703552    11405.368     1000 
  206000   0.59902253   -1.7018272   0.89763526  -0.80419192   0.11817861    11596.401     1000 
  208000   0.57038846   -1.6685463   0.85472711  -0.81381923   0.13899392    11328.985     1000 
  210000   0.61225772   -1.6970751    0.9174682  -0.77960693   0.13265548    11532.307     1000 
  212000   0.57194368   -1.6741884    0.8570576  -0.81713083   0.13027358    11395.148     1000 
  214000   0.56424649   -1.7710321   0.84552336   -0.9255087   0.12740866    11471.394     1000 
  216000   0.58658456   -1.7063173   0.87899696  -0.82732037   0.13054369    11646.466     1000 
  218000   0.57834202   -1.7349131   0.86664552  -0.86826762   0.12094525    11543.627     1000 
  220000   0.56511616   -1.6812268   0.84682656  -0.83440022   0.11900143    11550.138     1000 
  222000   0.59190961   -1.6665792   0.88697655  -0.77960269   0.13653023    11416.237     1000 
  224000    0.5786129   -1.7072262   0.86705143  -0.84017477   0.13611618    11361.571     1000 
  226000   0.56971699   -1.6818272   0.85372091  -0.82810629   0.12851268    11255.094     1000 
  228000   0.56422737   -1.6964501   0.84549471  -0.85095534   0.12622766    11472.477     1000 
  230000   0.59504582   -1.7012072   0.89167616  -0.80953101   0.12569632    11521.445     1000 
  232000    0.5793055   -1.7147359    0.8680893  -0.84664664   0.13697408    11428.907     1000 
  234000   0.61258823   -1.7010398   0.91796346  -0.78307632   0.13544167    11332.512     1000 
  236000    0.5461293   -1.7397593   0.81837476   -0.9213845   0.12885044     11415.71     1000 
  238000   0.55580084   -1.6779595   0.83286756  -0.84509191   0.14253113    11226.614     1000 
  240000   0.60579464   -1.7725778   0.90778327   -0.8647945   0.13198847    11487.675     1000 
  242000   0.57841074   -1.7354003    0.8667485  -0.86865177   0.12314434    11702.623     1000 
  244000   0.55226123    -1.760183   0.82756346  -0.93261952   0.13130677    11541.624     1000 
  246000   0.57042769   -1.7240358   0.85478589  -0.86924991   0.13287276    11402.339     1000 
  248000   0.59561363   -1.7922031   0.89252702   -0.8996761   0.12192393     11565.71     1000 
  250000   0.60635623    -1.750846    0.9086248  -0.84222121     0.132218    11556.016     1000 
  252000   0.61498244   -1.7198272   0.92155119  -0.79827602   0.13581423    11450.403     1000 
  254000   0.60471294   -1.7690044   0.90616234  -0.86284203   0.12710945    11595.718     1000 
  256000   0.58144375   -1.7309444   0.87129345  -0.85965099     0.124586    11364.983     1000 
  258000   0.59277459   -1.7324362   0.88827273  -0.84416343   0.13126174     11583.79     1000 
  260000   0.58764204   -1.7378607   0.88058159  -0.85727908   0.12031536    11558.599     1000 
  262000   0.58090097   -1.7109073    0.8704801  -0.84042718   0.12630016    11426.617     1000 
  264000    0.5756074    -1.696117   0.86254769  -0.83356929   0.13178241    11428.404     1000 
  266000   0.56495497   -1.7280606   0.84658503  -0.88147556   0.13596684    11296.127     1000 
  268000   0.58119483   -1.6322055   0.87092045  -0.76128505   0.12267498    11394.229     1000 
  270000   0.58216136   -1.7378833    0.8723688  -0.86551445    0.1167007    11600.971     1000 
  272000   0.57658491    -1.627039   0.86401249  -0.76302651   0.13376615    11363.071     1000 
  274000   0.60372935    -1.727466   0.90468843  -0.82277754   0.12698581    11461.018     1000 
  276000    0.5922122   -1.7223174   0.88742998  -0.83488746   0.11455239    11574.642     1000 
  278000   0.58591583   -1.7003961   0.87799487  -0.82240128    0.1327437    11422.765     1000 
  280000    0.5817466   -1.7122911   0.87174728   -0.8405438   0.13721746    11303.665     1000 
  282000   0.57757979   -1.7208194   0.86550331   -0.8553161   0.13273516    11558.652     1000 
  284000   0.58833862   -1.7341408   0.88162543  -0.85251541    0.1276046    11376.475     1000 
  286000   0.58616542   -1.7376951   0.87836888  -0.85932618   0.14112898     11283.66     1000 
  288000    0.5588116   -1.7160422   0.83737918  -0.87866301   0.12715174    11394.344     1000 
  290000   0.58360009   -1.7654018   0.87452473  -0.89087708   0.12808481    11659.168     1000 
  292000   0.57817157   -1.7517057    0.8663901  -0.88531556   0.13596387    11398.668     1000 
  294000   0.59869838   -1.7415384   0.89714952  -0.84438893    0.1384952    11523.968     1000 
  296000   0.57617329   -1.7376797   0.86339568  -0.87428407   0.12618161    11535.966     1000 
  298000   0.62097774   -1.7312349   0.93053514  -0.80069975   0.12490806    11466.177     1000 
  300000   0.60444628    -1.711592   0.90576276   -0.8058292   0.14165845    11432.919     1000 
  302000   0.57414946   -1.6262262   0.86036297  -0.76586327    0.1331797    11246.314     1000 
  304000   0.59290477   -1.7166999    0.8884678  -0.82823214   0.13244143    11555.083     1000 
  306000   0.57381196   -1.6852647   0.85985723  -0.82540749   0.13816799    11400.018     1000 
  308000   0.56029117   -1.7315303   0.83959632  -0.89193395   0.12678694    11602.344     1000 
  310000   0.57644665   -1.7665174    0.8638053  -0.90271208    0.1181254    11715.641     1000 
  312000   0.57944409   -1.6936349   0.86829697  -0.82533795   0.13038405    11435.805     1000 
  314000   0.58564645   -1.7335416    0.8775912  -0.85595035   0.13615297    11461.635     1000 
  316000     0.565897     -1.71588   0.84799666   -0.8678833   0.12588475    11354.398     1000 
  318000   0.62045611   -1.7009247   0.92975348  -0.77117118   0.13293492    11405.421     1000 
  320000   0.59533234    -1.751998   0.89210551  -0.85989253   0.12911032      11521.9     1000 
  322000   0.56428419   -1.7187338   0.84557987  -0.87315397   0.13276633     11513.74     1000 
  324000   0.57128339     -1.70365   0.85606817  -0.84758182   0.12274619    11597.636     1000 
  326000   0.57292445   -1.7270367   0.85852729  -0.86850939   0.13186155    11500.667     1000 
  328000   0.55728247   -1.7177465   0.83508778  -0.88265873   0.11759757    11579.159     1000 
  330000    0.5582368   -1.7155756   0.83651785  -0.87905774   0.12415987    11449.058     1000 
  332000   0.57953734   -1.7332453    0.8684367  -0.86480857   0.12669454     11557.36     1000 
  334000   0.58377378   -1.7550331   0.87478501  -0.88024813   0.12823119    11458.934     1000 
  336000   0.59959137   -1.6860638   0.89848766  -0.78757618   0.13072523    11360.167     1000 
  338000   0.56262439   -1.7183126   0.84309265  -0.87521992   0.12092637    11536.289     1000 
  340000   0.58418652   -1.6705129   0.87540349   -0.7951094   0.12152263    11609.892     1000 
  342000    0.5650289   -1.7373458    0.8466958  -0.89064996   0.12593144    11389.183     1000 
  344000   0.60031105   -1.7531699   0.89956611  -0.85360383    0.1280263    11457.547     1000 
  346000   0.58076286    -1.713604   0.87027315  -0.84333085   0.13350997    11255.814     1000 
  348000   0.55108209   -1.7263809   0.82579651  -0.90058443   0.13513484    11533.566     1000 
  350000   0.60177354   -1.6864396   0.90175765   -0.7846819   0.13436972    11260.954     1000 
  352000   0.55521885   -1.7151827   0.83199544  -0.88318725   0.13735253    11419.576     1000 
  354000   0.57129157   -1.7110291   0.85608041  -0.85494868    0.1377374    11310.045     1000 
  356000   0.59111918   -1.6951629   0.88579209  -0.80937077   0.13351629     11438.15     1000 
  358000   0.57029678   -1.7261744   0.85458973  -0.87158466   0.13320715    11308.493     1000 
  360000   0.60728463   -1.7253621   0.91001601  -0.81534605   0.13566116    11279.359     1000 
  362000   0.59618486   -1.6410459   0.89338301  -0.74766286   0.13014995    11399.521     1000 
  364000   0.58856033   -1.7016497   0.88195766  -0.81969199   0.12008863    11475.402     1000 
  366000   0.56870565   -1.7356349   0.85220542  -0.88342948   0.12723832    11516.042     1000 
  368000   0.56593181    -1.740435   0.84804882  -0.89238614   0.11917852    11524.255     1000 
  370000   0.61066258   -1.7178542   0.91507787  -0.80277632   0.12629815    11598.277     1000 
  372000   0.56737432   -1.7528012   0.85021041  -0.90259074   0.11462773    11631.515     1000 
  374000   0.58983475   -1.7501126   0.88386737  -0.86624522   0.12958086    11407.251     1000 
  376000   0.56889416   -1.7358477   0.85248789  -0.88335983   0.11900063    11512.799     1000 
  378000   0.58828557   -1.6672624   0.88154593   -0.7857165   0.12387234    11568.048     1000 
  380000   0.55607419   -1.7075277   0.83327717  -0.87425052   0.14030115    11262.568     1000 
  382000   0.56904326   -1.6812928   0.85271133  -0.82858145   0.12793744     11510.87     1000 
  384000   0.55670627   -1.7272181   0.83422434  -0.89299376   0.11331965    11795.425     1000 
  386000   0.56192507   -1.7109767   0.84204471  -0.86893194   0.12426178    11448.124     1000 
  388000   0.56322268   -1.7295534   0.84398919  -0.88556425   0.11603709     11560.76     1000 
  390000   0.58201596   -1.7324898   0.87215092  -0.86033893   0.12120719    11509.489     1000 
  392000   0.58009834   -1.7343284   0.86927736  -0.86505107   0.12798563    11617.708     1000 
  394000   0.58827567   -1.7122735   0.88153109  -0.83074237   0.12906103    11597.136     1000 
  396000   0.59564084   -1.6778892    0.8925678  -0.78532143   0.13623044    11436.528     1000 
  398000   0.57917258   -1.7088419   0.86789011  -0.84095178   0.13423336    11400.951     1000 
  400000   0.58017483   -1.6901221   0.86939198  -0.82073015   0.13395758    11340.607     1000 
  402000   0.58371125   -1.6948247    0.8746913  -0.82013335   0.12023703    11583.757     1000 
  404000   0.57193259   -1.7136599   0.85704098  -0.85661888   0.12029263    11590.789     1000 
  406000   0.59161638   -1.7842017   0.88653715  -0.89766458   0.13187582    11486.316     1000 
  408000   0.58121566   -1.7287111   0.87095167  -0.85775943   0.11560913    11667.982     1000 
  410000     0.556215   -1.6979086   0.83348817  -0.86442039   0.13079042    11307.531     1000 
  412000     0.576297   -1.7039167   0.86358105  -0.84033564   0.13052991    11448.898     1000 
  414000   0.58293972   -1.7632097   0.87353517  -0.88967451   0.13165865    11580.067     1000 
  416000   0.56504844   -1.6973129   0.84672509  -0.85058781   0.12339147    11434.022     1000 
  418000   0.56737038   -1.6882878   0.85020451  -0.83808332   0.14475279    11171.667     1000 
  420000   0.57781311   -1.7601171   0.86585294  -0.89426416   0.13159667     11499.17     1000 
  422000   0.59088878   -1.6690026   0.88544683  -0.78355576   0.14057226    11383.684     1000 
  424000   0.59604562   -1.6709444   0.89317436  -0.77777009    0.1339495    11394.242     1000 
  426000   0.56950213   -1.6912534   0.85339894  -0.83785442   0.12159855    11470.449     1000 
  428000   0.57490442   -1.7435185   0.86149428  -0.88202421   0.13347988    11275.482     1000 
  430000   0.57322987   -1.7400174   0.85898496  -0.88103243   0.12477522    11434.856     1000 
  432000   0.60497945   -1.6902339   0.90656171  -0.78367217   0.13118197    11501.537     1000 
  434000   0.58225947   -1.7140932   0.87251582  -0.84157741   0.13592908     11360.33     1000 
  436000   0.56521235   -1.6822235   0.84697071  -0.83525284    0.1419627    11259.305     1000 
  438000   0.60804734   -1.6794941   0.91115895  -0.76833513   0.14282808    11301.676     1000 
  440000   0.58063112   -1.6945965   0.87007573  -0.82452076   0.13197019    11351.805     1000 
  442000   0.57492968   -1.7367116   0.86153213  -0.87517949   0.13495424    11386.091     1000 
  444000   0.58944873   -1.6939594   0.88328892  -0.81067045   0.14278956    11365.129     1000 
  446000   0.57545353   -1.7301467   0.86231711  -0.86782961   0.12670363    11511.598     1000 
  448000    0.5939508    -1.654655   0.89003528  -0.76461976   0.13661505    11221.621     1000 
  450000   0.57879374   -1.7356787   0.86732243  -0.86835623   0.11871404    11631.421     1000 
  452000    0.5739316   -1.6414551    0.8600365  -0.78141857   0.13001805    11324.605     1000 
  454000   0.55914311   -1.7227248   0.83787594  -0.88484885   0.12565417    11386.346     1000 
  456000   0.58409773   -1.6928171   0.87527045  -0.81754669   0.13671985    11448.254     1000 
  458000   0.61252538   -1.7538878   0.91786928  -0.83601855   0.13111007    11553.323     1000 
  460000    0.5504999    -1.745043    0.8249241  -0.92011894   0.11039155    11796.396     1000 
  462000   0.58043717   -1.6910441   0.86978509  -0.82125896   0.13311344    11467.926     1000 
  464000    0.5600708   -1.7464931   0.83926609  -0.90722697   0.12256101    11506.083     1000 
  466000   0.57333201   -1.6958327   0.85913802  -0.83669473    0.1268786    11432.832     1000 
  468000    0.5747616   -1.7456473   0.86128026  -0.88436703    0.1354624    11634.233     1000 
  470000   0.58175038   -1.7337474   0.87175295  -0.86199447   0.12601425    11306.145     1000 
  472000   0.54349678   -1.7765156   0.81442993  -0.96208567   0.13795556    11439.103     1000 
  474000   0.59506488   -1.7147418   0.89170473  -0.82303708   0.12677631    11559.008     1000 
  476000   0.58127265   -1.6926299   0.87103707  -0.82159286    0.1290589    11430.697     1000 
  478000   0.58282446   -1.7923433   0.87336245  -0.91898084   0.12517377    11628.764     1000 
  480000   0.58052381   -1.7206398   0.86991493  -0.85072485   0.12066012    11546.219     1000 
  482000    0.5672226   -1.7075797   0.84998307   -0.8575966   0.13119908    11360.143     1000 
  484000   0.56920479   -1.6991892   0.85295338  -0.84623577   0.12773842    11526.848     1000 
  486000   0.58378787   -1.7308607   0.87480612  -0.85605462   0.12985749    11587.848     1000 
  488000   0.58104514   -1.6908215   0.87069614   -0.8201254   0.13119064     11539.07     1000 
  490000   0.56927363   -1.7094141   0.85305653   -0.8563576   0.13547294    11415.858     1000 
  492000   0.58901955   -1.7103989    0.8826458  -0.82775311    0.1386893    11533.502     1000 
  494000   0.58490564   -1.7364129   0.87648109  -0.85993181   0.12916966    11531.065     1000 
  496000   0.57286303    -1.701356   0.85843525  -0.84292079   0.12585774    11497.675     1000 
  498000   0.60055949   -1.7402735    0.8999384  -0.84033511   0.13461563    11319.819     1000 
  500000   0.60516184   -1.6744769   0.90683501  -0.76764185   0.13681263    11520.282     1000 
  502000   0.57317555   -1.6501832   0.85890356  -0.79127963   0.11596767     11464.85     1000 
  504000   0.57734834   -1.6862968   0.86515649  -0.82114032   0.12651802     11563.84     1000 
  506000   0.57401823    -1.699698   0.86016631  -0.83953169   0.13110186    11498.657     1000 
  508000   0.57179807   -1.7119871   0.85683941  -0.85514768   0.13004783    11503.785     1000 
  510000   0.57668726   -1.6677325   0.86416585  -0.80356665   0.13962719    11200.004     1000 
  512000   0.56640196   -1.6684162   0.84875334  -0.81966289   0.12735403    11380.959     1000 
  514000   0.57343173   -1.7183868   0.85928745  -0.85909931   0.13356194    11461.437     1000 
  516000   0.58741801    -1.691261   0.88024589  -0.81101506   0.13573494    11360.261     1000 
  518000   0.57598989   -1.7373016   0.86312085   -0.8741807   0.12768514     11516.04     1000 
  520000   0.56554325   -1.7278814   0.84746656  -0.88041487   0.11967371    11575.534     1000 
  522000   0.61503421    -1.661822   0.92162877  -0.74019319   0.14803567    11250.531     1000 
  524000   0.58648399   -1.7376874   0.87884626  -0.85884115   0.13582181    11330.952     1000 
  526000   0.57379836   -1.6940085   0.85983684  -0.83417164   0.12738036    11380.196     1000 
  528000    0.6082535   -1.6729376   0.91146786  -0.76146972   0.13307193    11411.168     1000 
  530000    0.5824594   -1.7189754   0.87281541  -0.84616001   0.13248351    11388.871     1000 
  532000   0.56767651   -1.7402561   0.85066325  -0.88959288   0.12945536    11511.308     1000 
  534000    0.5751069    -1.749635   0.86179769  -0.88783727   0.12612985    11505.378     1000 
  536000   0.56864825   -1.7062586   0.85211941  -0.85413922   0.13918666    11393.711     1000 
  538000   0.61016531   -1.7858537   0.91433272  -0.87152101   0.14624226    11426.115     1000 
  540000   0.57519712   -1.7026471   0.86193289  -0.84071424   0.12097959    11556.169     1000 
  542000   0.56168501   -1.7354043   0.84168499  -0.89371927   0.13247694    11505.843     1000 
  544000   0.56985197   -1.7213292   0.85392318  -0.86740605   0.11704553    11676.667     1000 
  546000   0.60478723   -1.7420696   0.90627366  -0.83579594   0.13497902    11449.033     1000 
  548000    0.5702244   -1.6872133   0.85448126  -0.83273208   0.12829529    11458.078     1000 
  550000   0.60461317   -1.7085064   0.90601283  -0.80249359   0.13273604    11480.308     1000 
  552000   0.58858527    -1.711184   0.88199502  -0.82918902   0.13407851    11451.411     1000 
  554000   0.57827605   -1.7702627   0.86654667  -0.90371605   0.11926435    11428.959     1000 
  556000   0.57830032   -1.7117862   0.86658303  -0.84520317   0.14147595    11312.461     1000 
  558000   0.58170183   -1.7324052    0.8716802  -0.86072497   0.13306741    11471.778     1000 
  560000   0.57503707   -1.7711239   0.86169305  -0.90943087   0.13934696    11513.905     1000 
  562000   0.59075023   -1.7335826   0.88523922  -0.84834342   0.13004519    11667.908     1000 
  564000   0.55569909   -1.7384857   0.83271508  -0.90577064   0.11100317    11690.544     1000 
  566000   0.58110777   -1.7123177   0.87078999  -0.84152769   0.13312643    11480.366     1000 
  568000   0.57720228   -1.7626573   0.86493761   -0.8977197   0.12446635    11561.932     1000 
  570000   0.57826473     -1.67988    0.8665297  -0.81335031   0.13189478    11421.084     1000 
  572000   0.59597028   -1.7101884   0.89306147  -0.81712693   0.13038045    11430.833     1000 
  574000    0.5626381   -1.6797604   0.84311319  -0.83664721   0.12883408    11516.282     1000 
  576000   0.58867685   -1.7463615   0.88213226  -0.86422923   0.13425066    11391.726     1000 
  578000   0.56303431   -1.7005397   0.84370692  -0.85683279   0.13273429    11397.404     1000 
  580000   0.56091044   -1.7369408   0.84052429  -0.89641647   0.12353468    11525.671     1000 
  582000   0.57913939   -1.7082359   0.86784037  -0.84039556   0.13492444    11438.568     1000 
  584000   0.55673362   -1.6854319   0.83426533  -0.85116659   0.13526764    11416.187     1000 
  586000   0.57911008   -1.7253885   0.86779645  -0.85759207   0.12068014    11548.828     1000 
  588000   0.58478885   -1.7174378   0.87630608  -0.84113172   0.11874028    11521.557     1000 
  590000   0.60969627    -1.715656   0.91362986   -0.8020261   0.13777707    11356.571     1000 
  592000   0.57891805   -1.7481806   0.86750869  -0.88067187    0.1142777    11679.816     1000 
  594000   0.56335294   -1.7713178   0.84418439  -0.92713339   0.10896522    11642.439     1000 
  596000   0.59934045   -1.7690885   0.89811167  -0.87097688   0.12747732    11396.133     1000 
  598000   0.59245161   -1.6844539   0.88778873  -0.79666515   0.12920815    11462.002     1000 
  600000   0.59084124   -1.7417038    0.8853756  -0.85632818   0.12577285    11566.903     1000 
  602000   0.57302759   -1.6884549   0.85868184  -0.82977309   0.12334196    11639.745     1000 
  604000    0.5795124   -1.7055607   0.86839933  -0.83716137   0.12325152     11531.77     1000 
  606000   0.56282023   -1.7481565   0.84338612  -0.90477035   0.10409904    11725.511     1000 
  608000   0.57626082   -1.6675308   0.86352684  -0.80400397   0.13289945    11409.136     1000 
  610000   0.58284489   -1.7481128   0.87339307  -0.87471978   0.13290522    11568.209     1000 
  612000   0.59250066   -1.6885064   0.88786224  -0.80064421   0.13249491    11357.281     1000 
  614000   0.56347418   -1.7324512   0.84436606  -0.88808511   0.12479104    11530.352     1000 
  616000   0.57248065   -1.7600277   0.85786225  -0.90216541   0.12827237    11513.776     1000 
  618000    0.5693273   -1.6813708   0.85313696  -0.82823379   0.14096802    11308.503     1000 
  620000   0.57305913   -1.6675265   0.85872911  -0.80879735   0.12496654    11441.777     1000 
  622000   0.59569144   -1.7084551   0.89264363  -0.81581152    0.1394767     11414.74     1000 
  624000    0.5926965   -1.7294636    0.8881557  -0.84130793   0.14048803    11364.642     1000 
  626000    0.5907816   -1.7435541   0.88528622  -0.85826792   0.13203672    11597.205     1000 
  628000   0.54736933     -1.74391   0.82023294  -0.92367704   0.12080146    11600.629     1000 
  630000   0.60100931   -1.7561619   0.90061245  -0.85554943   0.13293901    11581.731     1000 
  632000    0.5865789   -1.7226011   0.87898848  -0.84361265   0.11477219     11769.52     1000 
  634000   0.57978132   -1.6725206    0.8688023  -0.80371834   0.14714754    11299.142     1000 
  636000   0.55993632   -1.7065095   0.83906457  -0.86744489   0.13286611    11505.734     1000 
  638000   0.57251857    -1.689624   0.85791907  -0.83170489   0.13179787    11386.119     1000 
  640000   0.59290902   -1.6578703   0.88847416   -0.7693961   0.12338114     11664.18     1000 
  642000   0.57490869   -1.6995775   0.86150067  -0.83807682   0.12371259    11551.113     1000 
  644000   0.58517725   -1.6750532   0.87688812   -0.7981651   0.12644312     11495.61     1000 
  646000   0.58472743   -1.7300225   0.87621405  -0.85380848    0.1280141    11481.681     1000 
  648000   0.56845538   -1.7322367   0.85183038  -0.88040637   0.12110707    11553.639     1000 
  650000   0.58399369   -1.7819749   0.87511455   -0.9068603   0.13440108    11538.234     1000 
  652000   0.62624407   -1.7824951   0.93842674   -0.8440684   0.13718783    11497.842     1000 
  654000   0.57981621   -1.6715495   0.86885459  -0.80269493   0.13716585    11405.284     1000 
  656000   0.55825231   -1.7691634   0.83654109  -0.93262232   0.13135541    11383.845     1000 
  658000   0.55879812   -1.6958776   0.83735899  -0.85851866   0.14224491    11302.533     1000 
  660000   0.59962085   -1.6695632   0.89853184  -0.77103131   0.13686076    11368.977     1000 
  662000   0.57796981    -1.709943   0.86608776  -0.84385524   0.13539763    11426.775     1000 
  664000    0.5928366    -1.722957   0.88836565  -0.83459135    0.1404044    11321.915     1000 
  666000   0.56853699    -1.723117   0.85195268  -0.87116435   0.11768345    11667.021     1000 
  668000   0.57393353   -1.6576344    0.8600394  -0.79759504   0.14148567    11426.533     1000 
  670000   0.58312422   -1.7335301   0.87381164  -0.85971842   0.12787738    11668.021     1000 
  672000    0.5529223   -1.6747613   0.82855406  -0.84620721   0.13034984    11494.631     1000 
  674000    0.6016857   -1.7397849   0.90162602  -0.83815885   0.11850226    11589.035     1000 
  676000   0.57936226    -1.758667   0.86817435  -0.89049268   0.12961309    11590.095     1000 
  678000   0.55614087   -1.6883309   0.83337709  -0.85495378   0.13277085    11330.368     1000 
  680000   0.55783173   -1.7222394   0.83591085  -0.88632856   0.13108937    11499.499     1000 
  682000   0.59445419   -1.6796143   0.89078961  -0.78882464   0.13372325    11355.673     1000 
  684000   0.58970592   -1.6954961   0.88367433  -0.81182181   0.13220975    11534.448     1000 
  686000   0.59500757   -1.7144799   0.89161884  -0.82286108   0.12674965    11502.226     1000 
  688000   0.58467428    -1.688619   0.87613442  -0.81248459   0.12428674     11453.16     1000 
  690000   0.58132123   -1.7225122   0.87110986  -0.85140233    0.1349054    11415.672     1000 
  692000   0.56535264    -1.762112   0.84718093  -0.91493105   0.11635719    11613.547     1000 
  694000    0.5536198   -1.6405975   0.82959927   -0.8109982   0.13195554    11224.207     1000 
  696000   0.56710659   -1.6801208   0.84980922  -0.83031163   0.13106404    11336.544     1000 
  698000   0.57672027   -1.7012138   0.86421532  -0.83699846   0.12616962    11418.576     1000 
  700000   0.56756313   -1.6870635   0.85049335  -0.83657013   0.12800491    11501.696     1000 
  702000   0.56707724   -1.7501474   0.84976525  -0.90038212   0.11815408    11650.963     1000 
  704000   0.58425525   -1.6847503    0.8755065  -0.80924384   0.12950703    11463.571     1000 
  706000   0.56410127    -1.711621   0.84530576  -0.86631528   0.13534607    11328.137     1000 
  708000   0.59368823   -1.7374763   0.88964181  -0.84783453   0.12158571    11626.095     1000 
  710000   0.58830726   -1.7300568   0.88157843  -0.84847837   0.11988297    11569.954     1000 
  712000   0.59283526   -1.6800723   0.88836364  -0.79170865   0.13328872    11464.004     1000 
  714000   0.58214717   -1.6910578   0.87234753  -0.81871025   0.12253182    11572.379     1000 
  716000   0.59808458   -1.6809486   0.89622974  -0.78471883   0.12737934     11532.58     1000 
  718000   0.58899846   -1.7643497   0.88261419  -0.88173552   0.13957543    11496.443     1000 
  720000   0.58853698   -1.6965072   0.88192267  -0.81458455   0.11858744    11678.561     1000 
  722000   0.55426299   -1.6954004   0.83056309  -0.86483735   0.12309352    11466.527     1000 
  724000   0.60574079   -1.7172707   0.90770257  -0.80956809   0.13088961    11526.951     1000 
  726000   0.57269804   -1.7282363   0.85818802  -0.87004831   0.13652896    11371.365     1000 
  728000   0.62486379   -1.7100839   0.93635839  -0.77372555     0.131798    11345.367     1000 
  730000   0.55909786   -1.7162945   0.83780814  -0.87848638   0.13320331    11338.298     1000 
  732000   0.58070772   -1.7224819   0.87019052  -0.85229133   0.13913593    11428.507     1000 
  734000   0.57449131   -1.7063138   0.86087522  -0.84543857   0.11820629    11571.968     1000 
  736000   0.59619525   -1.7009996   0.89339858  -0.80760103   0.12878625    11527.729     1000 
  738000   0.58065987   -1.7294729   0.87011882   -0.8593541   0.13592537    11454.915     1000 
  740000   0.56486612   -1.7018804   0.84645189  -0.85542847   0.12772098     11441.99     1000 
  742000   0.59924775   -1.7665063   0.89797275  -0.86853354   0.12719762    11606.594     1000 
  744000   0.59416855   -1.7106612   0.89036157   -0.8202996   0.13901784    11453.955     1000 
  746000    0.5875111   -1.7748239   0.88038538  -0.89443852     0.124975    11560.549     1000 
  748000   0.57452015   -1.7238383   0.86091844  -0.86291984   0.12160285    11653.711     1000 
  750000    0.5589497   -1.7508967   0.83758613  -0.91331057   0.12617625    11573.355     1000 
  752000   0.57690829   -1.6847178   0.86449707  -0.82022068   0.14068295    11327.624     1000 
  754000   0.56977095   -1.6909735   0.85380177  -0.83717169   0.14288786    11073.961     1000 
  756000   0.58836278   -1.7559942   0.88166162   -0.8743326    0.1301226    11505.625     1000 
  758000   0.58129572   -1.6970971   0.87107164  -0.82602544   0.13801166    11400.339     1000 
  760000   0.55797685   -1.7559713   0.83612831  -0.91984302   0.12034327    11558.006     1000 
  762000   0.57333864   -1.7439089   0.85914795  -0.88476092    0.1215326    11642.309     1000 
  764000    0.5653362   -1.7469314   0.84715629  -0.89977507   0.12200722    11483.817     1000 
  766000   0.56253699   -1.6745029   0.84296168  -0.83154126     0.130775    11349.929     1000 
  768000   0.57592548   -1.7917491   0.86302433   -0.9287248   0.12908131    11528.271     1000 
  770000   0.58868678   -1.7195091   0.88214714  -0.83736193   0.14331553    11350.419     1000 
  772000   0.58042405   -1.7712917   0.86976543  -0.90152626    0.1199422     11570.39     1000 
  774000   0.58823008   -1.7408146   0.88146278  -0.85935183   0.13870434    11466.791     1000 
  776000   0.58075986   -1.7044241   0.87026866   -0.8341554    0.1372108    11376.162     1000 
  778000   0.61759661   -1.6857549   0.92546852  -0.76028639   0.12909527    11506.179     1000 
  780000   0.58970509   -1.7175683   0.88367308  -0.83389524   0.12558769    11545.958     1000 
  782000   0.54824993   -1.7006567   0.82155252  -0.87910416   0.12929496     11514.09     1000 
  784000   0.55321943   -1.7066481   0.82899932  -0.87764877   0.14033677     11353.08     1000 
  786000   0.59342807    -1.717784   0.88925196    -0.828532   0.12919288    11423.101     1000 
  788000   0.56900866   -1.7228594   0.85265948  -0.87019992   0.13103325    11408.899     1000 
  790000    0.5590991   -1.7093401      0.83781  -0.87153007   0.12806249    11354.433     1000 
  792000   0.57943381   -1.7371603   0.86828156  -0.86887871   0.13352114      11471.3     1000 
  794000   0.59891615    -1.710333   0.89747585  -0.81285713   0.14124058    11324.307     1000 
  796000   0.58797721   -1.7179129   0.88108385  -0.83682902   0.12900274    11475.524     1000 
  798000   0.55496564   -1.7236819   0.83161601  -0.89206588   0.12465676    11735.627     1000 
  800000    0.5840719   -1.7213931   0.87523174  -0.84616131   0.13263254     11593.16     1000 
  802000   0.59462319   -1.6814123   0.89104285  -0.79036942   0.13535824    11314.719     1000 
  804000   0.57606859   -1.7099972   0.86323878  -0.84675841   0.13418618    11352.148     1000 
  806000   0.59360687   -1.6606716   0.88951989  -0.77115168   0.14124008    11347.721     1000 
  808000   0.57651786   -1.7038882   0.86391201  -0.83997622   0.13467109    11291.186     1000 
  810000    0.5883986   -1.6928626    0.8817153  -0.81114728   0.13517173    11410.338     1000 
  812000   0.60753691   -1.7183372   0.91039406  -0.80794315   0.15295976    11285.518     1000 
  814000   0.58260938   -1.7070194   0.87304016  -0.83397929   0.13062065    11421.869     1000 
  816000   0.57296544   -1.7280788   0.85858871  -0.86949013   0.11927333    11606.725     1000 
  818000   0.55946867   -1.7173591    0.8383638  -0.87899533   0.12193195    11672.713     1000 
  820000   0.58273889   -1.7329331   0.87323423  -0.85969888   0.12924797    11391.539     1000 
  822000   0.57799246   -1.7339824    0.8661217  -0.86786068   0.13145841    11397.675     1000 
  824000   0.57685187   -1.7032623   0.86441252  -0.83884977   0.12692781    11501.674     1000 
  826000   0.57807407   -1.6988979   0.86624399  -0.83265387   0.13108498    11493.919     1000 
  828000   0.60739003   -1.6728135   0.91017397  -0.76263952   0.13946104    11320.649     1000 
  830000   0.58122037   -1.6842041   0.87095873  -0.81324542   0.11930674    11720.033     1000 
  832000   0.59406255    -1.684143   0.89020274  -0.79394026   0.13549391    11311.694     1000 
  834000   0.59435114   -1.6953891   0.89063518  -0.80475392   0.13262706    11410.259     1000 
  836000    0.5795629   -1.7093182     0.868475  -0.84084315   0.13599116     11251.99     1000 
  838000   0.60105472   -1.7085624    0.9006805  -0.80788186   0.13491838    11421.816     1000 
  840000   0.59896176    -1.743741   0.89754419  -0.84619677   0.14170065    11479.024     1000 
  842000     0.580625   -1.6910387   0.87006656  -0.82097216     0.120476    11578.915     1000 
  844000   0.59737866   -1.7088422   0.89517192  -0.81367033   0.13771191    11501.136     1000 
  846000   0.57951067   -1.7348553   0.86839674  -0.86645852   0.13402585    11515.015     1000 
  848000   0.56430103   -1.6625634    0.8456051  -0.81695828   0.14231594    11378.003     1000 
  850000   0.59275166    -1.712376   0.88823836  -0.82413759   0.13303801    11563.062     1000 
  852000   0.56613232   -1.7316558   0.84834928  -0.88330651   0.11501737    11664.598     1000 
  854000   0.60788576   -1.7270228   0.91091681  -0.81610601   0.11957308    11576.485     1000 
  856000   0.58233682   -1.6989318   0.87263173  -0.82630011   0.14462576    11316.861     1000 
  858000    0.6088001   -1.6209335   0.91228696  -0.70864656   0.13308009    11467.428     1000 
  860000   0.56056571   -1.7757046   0.84000772  -0.93569693   0.11824218    11621.145     1000 
  862000   0.59251999   -1.7584617   0.88789121  -0.87057054   0.12287115    11461.921     1000 
  864000   0.56657616   -1.7186965   0.84901437  -0.86968215   0.11202654    11613.114     1000 
  866000   0.60945528    -1.701797   0.91326874  -0.78852824   0.12755232    11396.637     1000 
  868000   0.58692899    -1.709574    0.8795131  -0.83006092   0.13305976     11329.57     1000 
  870000   0.58749648   -1.7490448   0.88036348  -0.86868137   0.11848155    11650.421     1000 
  872000   0.59661121   -1.7070328   0.89402189  -0.81301092   0.12352045    11506.846     1000 
  874000   0.57733946   -1.6923719   0.86514318  -0.82722868   0.13188079    11222.582     1000 
  876000   0.56830929   -1.6774698   0.85161147  -0.82585837    0.1230835    11448.348     1000 
  878000   0.57346827   -1.7672788    0.8593422  -0.90793658   0.13335124    11649.847     1000 
  880000   0.58044795    -1.759297   0.86980125  -0.88949572   0.12195723    11600.002     1000 
  882000    0.5803821   -1.6903336   0.86970258  -0.82063099   0.13680966    11586.964     1000 
  884000   0.59181953   -1.7354505   0.88684157  -0.84860897   0.11983707    11591.067     1000 
  886000   0.58743276    -1.721177   0.88026799  -0.84090896   0.13367938    11445.267     1000 
  888000   0.60327929   -1.6356626   0.90401402  -0.73164858   0.12977734    11501.135     1000 
  890000   0.59531531   -1.6851364      0.89208  -0.79305636   0.13659373    11397.783     1000 
  892000   0.57900046   -1.7357145   0.86763219  -0.86808232   0.12096771    11600.749     1000 
  894000   0.59741827   -1.6937629   0.89523128  -0.79853157   0.12585137    11547.273     1000 
  896000   0.57119143   -1.7504367   0.85593036  -0.89450633   0.12749598    11626.864     1000 
  898000   0.57269086   -1.7390113   0.85817726  -0.88083403   0.13984408    11472.421     1000 
  900000   0.58912552   -1.7011938   0.88280459  -0.81838923   0.11880649    11472.924     1000 
  902000    0.5477306    -1.710042   0.82077431  -0.88926766   0.12804824    11507.624     1000 
  904000   0.57971994     -1.72888   0.86871034  -0.86016962   0.12114124    11604.508     1000 
  906000   0.57046499   -1.7393771   0.85484178  -0.88453533   0.13421568    11592.616     1000 
  908000   0.55887952   -1.7164523   0.83748097  -0.87897136   0.12754185    11446.781     1000 
  910000   0.58430896   -1.6824753   0.87558697  -0.80688828   0.13415316    11409.204     1000 
  912000    0.5764091   -1.6971892   0.86374904  -0.83344019   0.13001991    11373.024     1000 
  914000   0.60599977   -1.7409365   0.90809065  -0.83284581   0.13569123    11575.209     1000 
  916000   0.59133972   -1.6945948   0.88612257  -0.80847223    0.1467942    11244.047     1000 
  918000   0.57920762    -1.760299   0.86794262  -0.89235642    0.1287376    11482.036     1000 
  920000   0.59745986   -1.7113002   0.89529359  -0.81600656   0.12302501    11607.086     1000 
  922000    0.5992454   -1.6666569   0.89796923  -0.76868769   0.13741382    11253.103     1000 
  924000    0.6137164   -1.6786504   0.91965403  -0.75899634    0.1343505    11393.525     1000 
  926000   0.56585194   -1.7126819   0.84792913  -0.86475275   0.12485981    11469.152     1000 
  928000   0.56392268   -1.7443026   0.84503813  -0.89926443   0.12550588    11686.142     1000 
  930000   0.55620943   -1.7348997   0.83347984  -0.90141987   0.13025658    11370.673     1000 
  932000   0.56953771    -1.705052   0.85345226  -0.85159973   0.13125447    11461.197     1000 
  934000   0.56151696   -1.6836946   0.84143317  -0.84226141   0.13293027    11563.374     1000 
  936000   0.58611482   -1.7067618   0.87829306  -0.82846878    0.1260562    11488.363     1000 
  938000   0.58142269   -1.7411168    0.8712619  -0.86985489   0.13961154    11317.917     1000 
  940000   0.55660311   -1.7488455   0.83406977  -0.91477572   0.11796847    11455.468     1000 
  942000   0.57921214   -1.7390114   0.86794939  -0.87106204   0.12871365    11417.704     1000 
  944000   0.58951846   -1.6839662   0.88339341  -0.80057281   0.12089165    11469.179     1000 
  946000   0.58188026   -1.6941838   0.87194757  -0.82223627   0.13456732    11430.089     1000 
  948000   0.56071472   -1.7582647   0.84023101  -0.91803366   0.12078086    11509.549     1000 
  950000   0.57638965   -1.7846324   0.86371989  -0.92091248   0.12867608    11498.958     1000 
  952000    0.5696016   -1.6982349     0.853548  -0.84468694   0.13149574    11348.098     1000 
  954000   0.61064446   -1.6954889   0.91505072  -0.78043814    0.1384896    11277.534     1000 
  956000   0.58121386   -1.6596764   0.87094897  -0.78872748   0.13181003    11537.426     1000 
  958000   0.59985166   -1.7617613   0.89887771  -0.86288358   0.13392794    11457.108     1000 
  960000   0.56461434   -1.6912577   0.84607459   -0.8451831   0.13351598    11383.903     1000 
  962000   0.57205734   -1.6673662   0.85722792   -0.8101383   0.12510088    11511.197     1000 
  964000   0.56756777   -1.7408653   0.85050031  -0.89036496   0.12283457     11580.16     1000 
  966000   0.56793883   -1.7587855   0.85105634  -0.90772915   0.12091762    11522.524     1000 
  968000   0.59013639   -1.6536408   0.88431939   -0.7693214   0.12228788    11507.137     1000 
  970000     0.582533    -1.708397    0.8729257  -0.83547132   0.13270916    11437.437     1000 
  972000   0.57485694   -1.6901678   0.86142312  -0.82874471   0.13006193     11521.55     1000 
  974000   0.59265946   -1.6928643   0.88810021  -0.80476414   0.13646362    11414.563     1000 
  976000   0.56026226   -1.7702037     0.839553  -0.93065071   0.12062833    11538.577     1000 
  978000   0.56297835   -1.6586242   0.84362306   -0.8150011   0.12974991    11448.393     1000 
  980000   0.58021818   -1.7334305   0.86945695  -0.86397359    0.1394572    11418.031     1000 
  982000   0.57811065    -1.706177   0.86629881  -0.83987816   0.11635696    11773.475     1000 
  984000   0.58606648   -1.7021208   0.87822062  -0.82390018   0.12766862    11660.411     1000 
  986000   0.56567873   -1.7449006   0.84766957  -0.89723106   0.13193626    11417.261     1000 
  988000   0.60857545   -1.7022658   0.91195031  -0.79031553   0.12013823    11613.871     1000 
  990000   0.58347417   -1.7124562   0.87433604  -0.83812012    0.1237831    11553.099     1000 
  992000   0.58482883   -1.7353424     0.876366  -0.85897638   0.12020137    11734.517     1000 
  994000   0.56669376   -1.6923971    0.8491906  -0.84320649   0.12207353    11446.748     1000 
  996000   0.58617018   -1.7283005   0.87837601  -0.84992449   0.14004801    11386.607     1000 
  998000   0.57577681   -1.7221253   0.86280155  -0.85932375   0.12347467    11608.312     1000 
 1000000   0.55744224   -1.7332009   0.83532719  -0.89787368   0.12789548    11433.994     1000 
 1002000   0.56195869   -1.7278499    0.8420951  -0.88575485    0.1182137    11574.993     1000 
 1004000   0.55413372   -1.7254711   0.83036937  -0.89510173   0.13035473    11575.836     1000 
 1006000   0.60090464   -1.7171032    0.9004556  -0.81664762   0.13862311    11370.311     1000 
 1008000   0.60568508   -1.7385834    0.9076191  -0.83096428   0.13907162    11466.775     1000 
 1010000    0.5843315   -1.7567336   0.87562075  -0.88111281   0.13199439    11538.518     1000 
 1012000    0.5890833   -1.6769643   0.88274132  -0.79422297   0.14353259    11322.502     1000 
 1014000   0.58048155   -1.7097592   0.86985161  -0.83990763   0.12811134    11541.519     1000 
 1016000   0.57894701    -1.727176    0.8675521  -0.85962389   0.12278118    11493.211     1000 
 1018000   0.58650813   -1.7062239   0.87888243   -0.8273415   0.11754366    11596.369     1000 
 1020000   0.61516692   -1.6639713   0.92182763  -0.74214369   0.12677497    11481.666     1000 
 1022000   0.58232483   -1.7234832   0.87261376  -0.85086943   0.14136068    11359.435     1000 
 1024000   0.57529155   -1.7134972   0.86207439  -0.85142285   0.12199514    11590.582     1000 
 1026000   0.57312182   -1.7367249   0.85882305  -0.87790188   0.12698445     11459.54     1000 
 1028000   0.59121237   -1.7761915   0.88593173  -0.89025981   0.13492975    11418.813     1000 
 1030000   0.55703487   -1.7098193   0.83471675  -0.87510252    0.1309251    11481.139     1000 
 1032000   0.62707574   -1.7315068   0.93967299  -0.79183377   0.12190864    11538.643     1000 
 1034000   0.58682723   -1.7220998   0.87936061  -0.84273916   0.13327718    11424.759     1000 
 1036000    0.5796596    -1.725219   0.86861991  -0.85659909   0.13548436    11270.198     1000 
 1038000   0.60542757   -1.7076125   0.90723321  -0.80037928   0.13705721    11395.208     1000 
 1040000   0.54615069   -1.7353332   0.81840681  -0.91692639   0.11608991    11656.096     1000 
 1042000   0.57156234   -1.7124028   0.85648616  -0.85591661   0.12969851     11485.37     1000 
 1044000   0.57890071   -1.6814614   0.86748271  -0.81397872   0.14311747    11292.935     1000 
 1046000   0.58630763   -1.7243026   0.87858199  -0.84572056   0.13801047     11497.92     1000 
 1048000   0.56813991   -1.7073982   0.85135765  -0.85604053    0.1369003      11368.9     1000 
 1050000   0.57903801   -1.7202573   0.86768846  -0.85256881   0.13112433     11414.73     1000 
 1052000   0.58426611   -1.7078381   0.87552277  -0.83231529   0.13463549    11258.639     1000 
 1054000   0.56260986   -1.6984123   0.84307087  -0.85534138   0.13164348    11423.268     1000 
 1056000   0.57877292   -1.7239966   0.86729123  -0.85670542   0.12221107    11517.664     1000 
 1058000   0.56935756   -1.6892253    0.8531823  -0.83604304   0.13910602    11394.253     1000 
 1060000   0.59417728   -1.7094765   0.89037465  -0.81910189   0.13631685    11433.042     1000 
 1062000   0.56289188   -1.7096262   0.84349349   -0.8661327   0.13835442    11221.758     1000 
 1064000   0.59788543   -1.7424995   0.89593131  -0.84656821   0.12738936    11469.445     1000 
 1066000   0.61718192   -1.6984653   0.92484711  -0.77361821   0.13123565    11358.573     1000 
 1068000   0.59242286   -1.7784551   0.88774566  -0.89070943   0.12168157    11549.617     1000 
 1070000   0.56797055   -1.7320503   0.85110387  -0.88094642   0.13024879    11541.929     1000 
 1072000   0.58036205     -1.67242   0.86967253  -0.80274746   0.13371082    11394.456     1000 
 1074000   0.57237418   -1.7195229   0.85770272  -0.86182014   0.13229987    11357.227     1000 
 1076000   0.56401786    -1.745596   0.84518076  -0.90041524   0.13667689    11458.904     1000 
 1078000   0.57072034   -1.7430545   0.85522442  -0.88783006    0.1277069    11479.946     1000 
 1080000    0.5888389   -1.7936152   0.88237509  -0.91124013   0.11267848        11643     1000 
 1082000   0.59789568   -1.7210831   0.89594668  -0.82513646   0.12862718    11542.722     1000 
 1084000   0.56633475   -1.7210922   0.84865262  -0.87243956   0.13411021    11488.128     1000 
 1086000   0.58138821   -1.7174417   0.87121024  -0.84623148   0.13271173    11396.463     1000 
 1088000   0.54957241    -1.694449   0.82353426  -0.87091476   0.12930275    11374.893     1000 
 1090000   0.57354396   -1.7472711   0.85945562  -0.88781548   0.13072811    11479.557     1000 
 1092000   0.58613933   -1.6774523   0.87832978  -0.79912252   0.14825157    11316.986     1000 
 1094000   0.58627881   -1.6983068    0.8785388    -0.819768   0.13078293    11416.143     1000 
 1096000   0.58887432   -1.7554912   0.88242817    -0.873063   0.12305842    11545.492     1000 
 1098000   0.59068277   -1.7442182   0.88513812  -0.85908004   0.13182983     11581.67     1000 
 1100000   0.57738552   -1.7255695    0.8652122  -0.86035726   0.13129755    11670.498     1000 
 1102000   0.57149273   -1.7135628   0.85638186  -0.85718095   0.13004462    11418.118     1000 
 1104000   0.56830915   -1.7259127   0.85161126  -0.87430148   0.12773508    11497.312     1000 
 1106000   0.56944317   -1.7159304   0.85331058  -0.86261983   0.13836061    11406.257     1000 
 1108000   0.57767754   -1.7396389    0.8656498  -0.87398908   0.13160992    11544.964     1000 
 1110000   0.60059421   -1.7019566   0.89999042  -0.80196618   0.13495879    11500.054     1000 
 1112000   0.57625647    -1.727915   0.86352032  -0.86439471   0.12815279    11582.836     1000 
 1114000   0.57262119   -1.6533033   0.85807285  -0.79523047   0.12821158    11439.777     1000 
 1116000     0.598704   -1.6437763   0.89715794  -0.74661838   0.13053688    11433.787     1000 
 1118000   0.61211585   -1.7356988    0.9172556  -0.81844316   0.13605063    11365.046     1000 
 1120000   0.56876527   -1.6474343   0.85229475  -0.79513957   0.12728156    11467.443     1000 
 1122000   0.59443551   -1.7050692   0.89076161   -0.8143076   0.13805479    11439.337     1000 
 1124000   0.57774527   -1.7139273   0.86575129  -0.84817598   0.13237186    11426.814     1000 
 1126000   0.55311852   -1.7251117    0.8288481  -0.89626359   0.13021679    11543.628     1000 
 1128000   0.61059513   -1.6777247    0.9149768  -0.76274789   0.13391982    11379.335     1000 
 1130000   0.58355762   -1.6996471    0.8744611  -0.82518597    0.1435935    11450.161     1000 
 1132000   0.59806497   -1.7368516   0.89620036  -0.84065126   0.11999148    11670.486     1000 
 1134000   0.58499299   -1.7295351   0.87661199  -0.85292315   0.14520763    11276.391     1000 
 1136000    0.5981588    -1.705024   0.89634097  -0.80868308   0.12819525    11561.027     1000 
 1138000   0.59738056   -1.7326387   0.89517476  -0.83746394   0.13487618    11418.765     1000 
 1140000   0.57270161   -1.7355378   0.85819337  -0.87734442   0.11412052    11728.959     1000 
 1142000   0.58360061   -1.6377797   0.87452551  -0.76325416   0.13759728    11320.175     1000 
 1144000   0.56207414   -1.7217521    0.8422681  -0.87948403   0.13757183    11445.649     1000 
 1146000   0.59123389   -1.6448492   0.88596399  -0.75888525   0.13697509    11422.857     1000 
 1148000   0.58071397   -1.7120007   0.87019988  -0.84180085   0.13933311    11489.913     1000 
 1150000   0.57609319   -1.6867398   0.86327564  -0.82346419   0.13787053    11370.008     1000 
 1152000   0.59305616   -1.7290048   0.88869466  -0.84031019   0.14095928    11388.219     1000 
 1154000   0.58144845   -1.7339224   0.87130051  -0.86262187   0.13487859    11538.301     1000 
 1156000   0.60264193   -1.7491179   0.90305893  -0.84605898   0.13592818    11507.802     1000 
 1158000   0.60260205   -1.6744761   0.90299918  -0.77147697   0.12839521    11447.141     1000 
 1160000   0.57282572   -1.7494418   0.85837934   -0.8910625   0.12440593    11536.455     1000 
 1162000   0.60905698   -1.7206739   0.91267188    -0.808002   0.12700107    11432.685     1000 
 1164000   0.58396805    -1.723719   0.87507612  -0.84864291   0.13438428    11390.456     1000 
 1166000    0.5500038   -1.7630049   0.82418069  -0.93882417   0.11326939    11574.172     1000 
 1168000   0.56870103   -1.6906899    0.8521985  -0.83849136   0.12838878    11435.273     1000 
 1170000   0.58668159   -1.7467402   0.87914236  -0.86759781   0.13611556    11449.659     1000 
 1172000   0.56968294   -1.6758346   0.85366989  -0.82216474   0.12953309    11363.581     1000 
 1174000   0.58003405   -1.6721187   0.86918103  -0.80293769   0.12546711    11310.031     1000 
 1176000   0.57612479   -1.7312802   0.86332299  -0.86795724   0.12242773    11512.015     1000 
 1178000   0.59686144   -1.7074955   0.89439686  -0.81309865   0.12254358    11572.175     1000 
 1180000   0.56295534    -1.678862   0.84358858  -0.83527338   0.12807053    11261.293     1000 
 1182000   0.57457186   -1.7193274   0.86099593  -0.85833149   0.13023328     11276.07     1000 
 1184000   0.55596628    -1.715286   0.83311547  -0.88217055   0.11066456    11578.608     1000 
 1186000    0.5655247   -1.7345364   0.84743876  -0.88709764    0.1271516    11537.857     1000 
 1188000   0.57371454   -1.6724619   0.85971123  -0.81275066   0.13587478    11295.036     1000 
 1190000   0.56815624   -1.7122506   0.85138213  -0.86086849   0.12427234    11457.352     1000 
 1192000   0.57531048    -1.724495   0.86210276  -0.86239223   0.11540291    11550.594     1000 
 1194000   0.57011128   -1.7349534   0.85431175   -0.8806416   0.13081927    11425.412     1000 
 1196000   0.58481483   -1.7577848   0.87634503  -0.88143979   0.12855744    11579.714     1000 
 1198000   0.56566531   -1.7293302   0.84764947  -0.88168076   0.13710456    11404.499     1000 
 1200000   0.58514057   -1.6852317   0.87683315  -0.80839858   0.14000012    11468.247     1000 
 1202000   0.57385782   -1.6412558   0.85992595  -0.78132989   0.13327038    11305.249     1000 
 1204000   0.59106261    -1.698853   0.88570732  -0.81314568   0.13883762    11382.847     1000 
 1206000   0.60455953    -1.736493   0.90593246  -0.83056054   0.13301507    11523.952     1000 
 1208000   0.57846362   -1.7271417   0.86682774  -0.86031394   0.12368819     11537.55     1000 
 1210000   0.59449156   -1.7559139   0.89084561  -0.86506827   0.11621055     11645.59     1000 
 1212000   0.56141586   -1.7194129   0.84128167  -0.87813127     0.118939    11542.447     1000 
 1214000   0.57092303   -1.7866598   0.85552816   -0.9311316   0.12048727    11641.069     1000 
 1216000   0.57019185   -1.7681239   0.85443249  -0.91369143   0.11538129    11674.881     1000 
 1218000   0.56657877   -1.7233604   0.84901829  -0.87434215   0.11839451    11526.336     1000 
 1220000   0.56587863    -1.679241   0.84796913  -0.83127192   0.15489173    11259.364     1000 
 1222000   0.59201814   -1.7718752   0.88713918  -0.88473598   0.11645241    11577.345     1000 
 1224000   0.58021368   -1.7133572    0.8694502  -0.84390704   0.12879733    11398.221     1000 
 1226000   0.58346236   -1.7691939   0.87431835  -0.89487551   0.13667003    11486.106     1000 
 1228000   0.57169357   -1.7838379   0.85668281  -0.92715513   0.12912272    11375.922     1000 
 1230000   0.57760644   -1.7292278   0.86554325  -0.86368457    0.1333341    11499.081     1000 
 1232000   0.57823475   -1.6814595   0.86648478  -0.81497476   0.14002197    11460.203     1000 
 1234000   0.60222422   -1.7223796     0.902433  -0.81994661   0.13578354    11410.777     1000 
 1236000   0.57920152   -1.6949294   0.86793348  -0.82699596   0.13064341    11397.316     1000 
 1238000   0.62238549   -1.7328956   0.93264466  -0.80025097   0.13208519    11534.935     1000 
 1240000    0.5859982   -1.7199224    0.8781183  -0.84180412   0.13993886    11376.925     1000 
 1242000   0.57240916    -1.741506   0.85775513  -0.88375091   0.13398925    11377.396     1000 
 1244000   0.60218162   -1.7060828   0.90236916  -0.80371365   0.13280971    11486.687     1000 
 1246000   0.58259253   -1.7366934   0.87301491  -0.86367846   0.12358283    11554.294     1000 
 1248000   0.56111127   -1.6904066   0.84082524  -0.84958132   0.13165614    11472.491     1000 
 1250000   0.58520768   -1.6847196    0.8769337  -0.80778592   0.12459638    11440.577     1000 
 1252000   0.60247744   -1.7408483   0.90281244   -0.8380359    0.1451246     11321.22     1000 
 1254000   0.57749226   -1.7431144   0.86537215  -0.87774224   0.13793019    11406.687     1000 
 1256000   0.58987946   -1.6907036   0.88393438   -0.8067692     0.124549     11548.06     1000 
 1258000   0.56190481   -1.6869448   0.84201436  -0.84493041   0.12663284    11441.745     1000 
 1260000   0.58470532   -1.7201364   0.87618092  -0.84395546   0.14103219    11352.935     1000 
 1262000    0.6009148   -1.7082046   0.90047082  -0.80773382   0.12581659    11608.073     1000 
 1264000   0.58253809   -1.7074088   0.87293332  -0.83447546    0.1350089    11403.484     1000 
 1266000    0.6114288   -1.7117832   0.91622605   -0.7955572   0.14084812    11334.436     1000 
 1268000   0.55991728   -1.7408967   0.83903604  -0.90186065   0.13623197    11373.454     1000 
 1270000   0.57486379   -1.7445558    0.8614334  -0.88312237   0.12816106    11470.741     1000 
 1272000   0.58854764   -1.6989589   0.88193863  -0.81702026   0.14082628    11404.413     1000 
 1274000   0.55978349   -1.6774737   0.83883556   -0.8386381   0.13517831    11443.879     1000 
 1276000   0.56775936   -1.7356809    0.8507874  -0.88489352   0.13102855    11408.655     1000 
 1278000   0.56911798   -1.7105567   0.85282329  -0.85773339   0.11323967    11667.456     1000 
 1280000   0.60880202   -1.7028424   0.91228982  -0.79055258   0.13951299    11364.073     1000 
 1282000   0.54981959   -1.6395921   0.82390465  -0.81568743   0.13661022    11308.534     1000 
 1284000   0.61748209   -1.7206715   0.92529692  -0.79537456   0.12427996    11745.901     1000 
 1286000   0.61208434   -1.7112654   0.91720838  -0.79405699   0.13012711    11584.343     1000 
 1288000   0.57381074   -1.6816762    0.8598554  -0.82182077   0.13580475      11215.8     1000 
 1290000   0.57240906   -1.7149979   0.85775497  -0.85724289   0.13597458    11506.514     1000 
 1292000   0.60945737   -1.6860328   0.91327186  -0.77276094   0.13751522    11457.552     1000 
 1294000   0.59620734   -1.7825692    0.8934167  -0.88915254   0.13657357    11377.488     1000 
 1296000   0.56940215   -1.7041672   0.85324912  -0.85091807   0.14046864    11353.085     1000 
 1298000   0.56483119   -1.7031683   0.84639954  -0.85676877   0.11937822    11522.352     1000 
 1300000   0.59779936    -1.730485   0.89580234  -0.83468261   0.13800417    11399.289     1000 
 1302000   0.58132409   -1.6640388   0.87111415  -0.79292463   0.13160086    11352.462     1000 
 1304000   0.56086136   -1.7391595   0.84045075  -0.89870876   0.13426409    11385.821     1000 
 1306000   0.59557879   -1.7304054   0.89247482  -0.83793057   0.14019262    11504.502     1000 
 1308000   0.57491008   -1.7630951   0.86150276  -0.90159236   0.12106374    11503.001     1000 
 1310000    0.5921217   -1.7531694   0.88729436  -0.86587503   0.12643679    11483.126     1000 
 1312000   0.58203047   -1.7504606   0.87217266  -0.87828797   0.12590281    11507.333     1000 
 1314000   0.58310983   -1.7067513   0.87379008  -0.83296123   0.13998615    11273.458     1000 
 1316000    0.5658069   -1.7095484   0.84786164  -0.86168674   0.13901829    11394.702     1000 
 1318000   0.61319216   -1.7221787   0.91886845  -0.80331026    0.1350009    11461.245     1000 
 1320000    0.5964869   -1.7014293   0.89383562   -0.8075937   0.13380026    11402.326     1000 
 1322000   0.57481165   -1.7443586   0.86135526  -0.88300333   0.12459293    11594.635     1000 
 1324000   0.57950869   -1.7377983   0.86839378  -0.86940449   0.12432403    11553.552     1000 
 1326000   0.58801917   -1.7013242   0.88114673  -0.82017749   0.13767438      11268.8     1000 
 1328000   0.58440507   -1.7095711     0.875731   -0.8338401   0.12418847    11509.029     1000 
 1330000   0.56468517   -1.7935466   0.84618073  -0.94736591   0.13302916    11555.757     1000 
 1332000    0.5546671   -1.7235193   0.83116864  -0.89235065   0.12675626    11537.288     1000 
 1334000   0.56224128   -1.6409953   0.84251855  -0.79847675   0.14615489    11234.624     1000 
 1336000   0.55396819   -1.6943431   0.83012133  -0.86422177   0.12747404    11548.969     1000 
 1338000   0.57974048   -1.7457628   0.86874112  -0.87702167   0.12432735    11592.047     1000 
 1340000   0.58931534   -1.6708114   0.88308903  -0.78772238   0.13910984    11483.224     1000 
 1342000   0.57987051   -1.6414679   0.86893596  -0.77253195   0.13128769    11319.856     1000 
 1344000   0.59394725   -1.7030704   0.89002995  -0.81304043    0.1341703    11461.782     1000 
 1346000   0.59325685   -1.7078843    0.8889954  -0.81888891   0.13478042    11509.266     1000 
 1348000   0.59818659    -1.718837    0.8963826  -0.82245437   0.12440895    11491.198     1000 
 1350000   0.56407006   -1.7438337   0.84525898  -0.89857472   0.12595257    11519.805     1000 
 1352000   0.57983825   -1.6871929   0.86888761  -0.81830533   0.12953522    11588.337     1000 
 1354000   0.58968945   -1.6746563   0.88364964  -0.79100662   0.14927905    11369.497     1000 
 1356000      0.58975   -1.7482333   0.88374037  -0.86449294   0.13077825    11465.697     1000 
 1358000   0.58065471   -1.7052287   0.87011108  -0.83511764   0.13132395    11422.004     1000 
 1360000   0.57931622   -1.7515722   0.86810536  -0.88346681   0.12892361    11477.075     1000 
 1362000   0.58611378   -1.6875764   0.87829151  -0.80928485   0.12566152    11472.505     1000 
 1364000    0.5879781    -1.700802   0.88108518  -0.81971681   0.12551821    11506.203     1000 
 1366000   0.56790477   -1.7273063    0.8510053  -0.87630104   0.12700986    11545.821     1000 
 1368000   0.59519104   -1.7029817   0.89189377  -0.81108791   0.13387097    11454.237     1000 
 1370000    0.5763297   -1.6909659   0.86363005  -0.82733581   0.12712895    11498.264     1000 
 1372000   0.57618605   -1.7050783   0.86341479  -0.84166352   0.13628995    11394.688     1000 
 1374000   0.57396596   -1.7123664   0.86008799  -0.85227837   0.13057276    11423.237     1000 
 1376000   0.58327243   -1.7333457   0.87403373  -0.85931197   0.12334953    11617.052     1000 
 1378000   0.57860155   -1.7214126   0.86703442  -0.85437817   0.12971595    11413.909     1000 
 1380000   0.56701222   -1.7165995   0.84966781  -0.86693168   0.13202455    11453.326     1000 
 1382000   0.59441478   -1.6595588   0.89073055  -0.76882829    0.1319013    11443.521     1000 
 1384000   0.54552237   -1.7372739   0.81746527  -0.91980865   0.12361785    11483.403     1000 
 1386000   0.60887361    -1.759195    0.9123971  -0.84679787   0.13287452    11526.824     1000 
 1388000   0.56578863   -1.6583913   0.84783426  -0.81055702   0.13114934    11624.178     1000 
 1390000   0.60961821   -1.7275671   0.91351289  -0.81405419   0.13352025    11519.083     1000 
 1392000   0.57191177   -1.7168224   0.85700979  -0.85981261   0.14357172    11210.985     1000 
 1394000   0.57160312   -1.6330147   0.85654727  -0.77646745   0.12701822    11375.235     1000 
 1396000   0.58696839   -1.7433263   0.87957213  -0.86375419   0.13086524    11528.554     1000 
 1398000   0.58780098   -1.7630986   0.88081977  -0.88227885   0.14005898     11323.78     1000 
 1400000     0.576747   -1.7235312   0.86425537  -0.85927578   0.14342934    11308.119     1000 
 1402000   0.56204886   -1.7243836   0.84223021  -0.88215343   0.13634902     11386.43     1000 
 1404000   0.58375689   -1.7832114    0.8747597  -0.90845173   0.13366939    11480.448     1000 
 1406000   0.55769273   -1.7007498   0.83570255  -0.86504728   0.12968104    11526.692     1000 
 1408000   0.59589572   -1.7363211   0.89294973  -0.84337139   0.13936568    11424.246     1000 
 1410000   0.57760723   -1.7502921   0.86554443  -0.88474768   0.12872057    11487.641     1000 
 1412000   0.54327804   -1.6954341   0.81410215    -0.881332   0.13903552    11276.466     1000 
 1414000   0.57793685   -1.7290181   0.86603837  -0.86297978   0.13551081    11449.436     1000 
 1416000   0.60812252   -1.7154349    0.9112716  -0.80416331   0.13704964    11470.386     1000 
 1418000   0.57125923   -1.7222037   0.85603196  -0.86617179   0.11869547    11565.452     1000 
 1420000   0.58229139   -1.7144083   0.87256364  -0.84184466   0.14096428    11298.076     1000 
 1422000   0.59231443   -1.7239577   0.88758318  -0.83637453   0.13106184    11537.721     1000 
 1424000   0.55778415    -1.732361   0.83583955  -0.89652142   0.11845641    11566.751     1000 
 1426000   0.59066412   -1.7242206   0.88511019  -0.83911044    0.1348226    11497.037     1000 
 1428000   0.58972485   -1.7135898   0.88370269   -0.8298871   0.13257756     11484.29     1000 
 1430000   0.57936809   -1.6849399   0.86818308   -0.8167568   0.13970968    11326.322     1000 
 1432000   0.56487488   -1.6984709   0.84646501  -0.85200585   0.11719429    11561.395     1000 
 1434000   0.60188835   -1.7157012    0.9019297  -0.81377145   0.12483885    11439.207     1000 
 1436000   0.60539464   -1.6766341   0.90718387  -0.76945022   0.12815488    11454.174     1000 
 1438000   0.55891305   -1.7281182    0.8375312    -0.890587   0.13277203    11301.034     1000 
 1440000    0.6130596   -1.6869118   0.91866982  -0.76824199   0.13030025    11503.407     1000 
 1442000   0.57255764   -1.7077838   0.85797762  -0.84980621   0.12607385    11426.308     1000 
 1444000   0.55943367   -1.7118935   0.83831136  -0.87358211   0.14223406    11315.201     1000 
 1446000   0.58040358   -1.7168065   0.86973476  -0.84707174   0.12188244    11587.112     1000 
 1448000   0.57679198   -1.7321507   0.86432278  -0.86782794   0.13658903    11446.661     1000 
 1450000   0.57273361   -1.7527402   0.85824131  -0.89449886   0.13347354    11435.161     1000 
 1452000   0.57347963   -1.7524225   0.85935922  -0.89306327   0.11979003    11481.477     1000 
 1454000    0.5936979   -1.7069545   0.88965631  -0.81729819   0.13936285    11348.313     1000 
 1456000   0.57593609   -1.7064634   0.86304023  -0.84342317   0.13867484    11281.884     1000 
 1458000   0.58134747   -1.7001179   0.87114918  -0.82896868   0.13003474    11425.116     1000 
 1460000   0.56642972   -1.6966171   0.84879493  -0.84782214   0.12023102    11522.127     1000 
 1462000   0.58493754   -1.7411574    0.8765289  -0.86462846   0.13486926    11407.418     1000 
 1464000   0.59446022   -1.6820152   0.89079864   -0.7912166   0.13119896    11312.138     1000 
 1466000   0.57715447   -1.7042276   0.86486598  -0.83936166   0.12981606    11471.886     1000 
 1468000   0.57218356   -1.7427584   0.85741707   -0.8853413   0.10952792    11724.748     1000 
 1470000   0.59694483   -1.7262701   0.89452183  -0.83174828   0.12364745    11579.378     1000 
 1472000   0.58351403   -1.7509757   0.87439577   -0.8765799   0.11976937    11680.045     1000 
 1474000   0.57943752   -1.6795452   0.86828712  -0.81125803   0.12526082    11517.532     1000 
 1476000   0.60167826    -1.642768   0.90161487  -0.74115311    0.1278783    11481.245     1000 
 1478000   0.57209607   -1.6826655   0.85728597  -0.82537957   0.12372366     11549.79     1000 
 1480000   0.60675335   -1.6940538   0.90921989  -0.78483386   0.13773788    11298.146     1000 
 1482000   0.56064415   -1.7346654   0.84012526  -0.89454014   0.13358789    11327.557     1000 
 1484000   0.59006427   -1.7109782   0.88421131   -0.8267669   0.12583142     11608.83     1000 
 1486000   0.60666079   -1.7219849   0.90908119  -0.81290376   0.12377955    11678.614     1000 
 1488000   0.57570579    -1.748534   0.86269513  -0.88583884   0.12518193    11667.586     1000 
 1490000   0.56611495   -1.6855162   0.84832325  -0.83719293    0.1347435    11432.843     1000 
 1492000   0.61140841   -1.7027211   0.91619551  -0.78652558   0.12541512    11482.782     1000 
 1494000   0.60332996   -1.7091516   0.90408995  -0.80506163   0.13011258    11479.915     1000 
 1496000   0.59086425     -1.67216   0.88541008  -0.78674993   0.14127862    11343.699     1000 
 1498000   0.54484766   -1.6788408   0.81645422  -0.86238663   0.11884744    11554.805     1000 
 1500000   0.59038867   -1.7380659   0.88469742  -0.85336849   0.14090779    11424.802     1000 
 1502000   0.57403064   -1.6530993   0.86018492  -0.79291437   0.12628398    11522.685     1000 
 1504000   0.57787317   -1.7109147   0.86594294  -0.84497178   0.12087665    11443.735     1000 
 1506000   0.56690589   -1.7065319   0.84950847  -0.85702346   0.11792274    11733.891     1000 
 1508000   0.59695349    -1.668238   0.89453481   -0.7737032   0.12760352    11449.177     1000 
 1510000   0.60948369   -1.7018519   0.91331131  -0.78854059   0.13712002    11423.102     1000 
 1512000   0.54286114   -1.7512892   0.81347741  -0.93781183   0.11640902     11575.36     1000 
 1514000   0.56069212   -1.6895228   0.84019715  -0.84932569   0.13821544    11224.001     1000 
 1516000   0.57899876   -1.6917667   0.86762965  -0.82413705   0.15011241    11218.517     1000 
 1518000   0.58179985   -1.6869668   0.87182707  -0.81513974   0.13336176     11435.02     1000 
 1520000   0.56689543   -1.7056694    0.8494928  -0.85617656    0.1347703    11407.145     1000 
 1522000   0.56387864   -1.7446037   0.84497214  -0.89963157    0.1159659    11500.438     1000 
 1524000   0.59931208   -1.7050008   0.89806915  -0.80693166   0.13381762    11366.385     1000 
 1526000    0.5693938   -1.7305091   0.85323661  -0.87727245   0.12106213    11547.933     1000 
 1528000   0.55847277   -1.7520461   0.83687145  -0.91517468   0.11712955    11646.021     1000 
 1530000   0.59775879   -1.7293928   0.89574154  -0.83365121   0.14159901    11395.514     1000 
 1532000   0.57721882   -1.7372778   0.86496241  -0.87231535   0.12535579    11645.034     1000 
 1534000   0.58132372   -1.7357371    0.8711136  -0.86462346   0.12778502    11523.087     1000 
 1536000   0.57317337   -1.7626687   0.85890029  -0.90376837    0.1348063    11477.086     1000 
 1538000   0.57069146   -1.7463138   0.85518116  -0.89113266   0.12849622    11460.475     1000 
 1540000   0.55302749   -1.6675571    0.8287117  -0.83884537   0.13033449    11497.567     1000 
 1542000   0.55437709   -1.6225707   0.83073407  -0.79183659   0.13269227    11389.159     1000 
 1544000   0.55992013   -1.7394073   0.83904032  -0.90036696   0.12749704    11528.616     1000 
 1546000    0.5900561   -1.7101816   0.88419906  -0.82598251   0.12650245    11446.083     1000 
 1548000   0.59822052   -1.7581951   0.89643344  -0.86176167   0.13332078    11441.146     1000 
 1550000   0.57419857   -1.7171883   0.86043656  -0.85675177   0.13367076    11385.955     1000 
 1552000   0.56817676   -1.6788321   0.85141287  -0.82741918   0.13874109    11349.733     1000 
 1554000   0.59485943   -1.7144716   0.89139685  -0.82307476   0.13258623    11322.137     1000 
 1556000   0.58868681   -1.7453715   0.88214718  -0.86322429   0.14366469    11322.447     1000 
 1558000   0.57509735   -1.7585925   0.86178339  -0.89680916   0.13733271    11549.282     1000 
 1560000     0.596418   -1.7101274   0.89373238  -0.81639505   0.13411756    11378.664     1000 
 1562000   0.55980268   -1.7670988   0.83886431  -0.92823445   0.13556298    11422.863     1000 
 1564000   0.58598166   -1.7650821   0.87809352  -0.88698861   0.11796573    11551.052     1000 
 1566000   0.57171963   -1.7557962   0.85672186  -0.89907433   0.14042543    11534.766     1000 
 1568000   0.55851224   -1.7303297   0.83693059  -0.89339915   0.13405127        11276     1000 
 1570000   0.58169136   -1.7328504    0.8716645  -0.86118586   0.13300277    11371.079     1000 
 1572000   0.58263282   -1.7134989   0.87307528  -0.84042358   0.12843419    11550.927     1000 
 1574000   0.56185323   -1.6473507   0.84193706  -0.80541367   0.13647257    11397.698     1000 
 1576000   0.60630055   -1.7404476   0.90854137  -0.83190621   0.12527987    11491.579     1000 
 1578000   0.59793372   -1.6973295   0.89600368  -0.80132584   0.13270515    11447.169     1000 
 1580000   0.58444922   -1.7467829   0.87579715  -0.87098577   0.14056516    11492.124     1000 
 1582000   0.61012099    -1.734363   0.91426631  -0.82009669   0.13290629    11368.441     1000 
 1584000   0.60532546   -1.6848283   0.90708021  -0.77774811   0.13420248    11590.864     1000 
 1586000   0.58051571   -1.7288976    0.8699028  -0.85899482    0.1278503    11422.703     1000 
 1588000    0.5949462   -1.7225796   0.89152688   -0.8310527   0.13494981    11338.204     1000 
[...]
 2614000   0.57801519   -1.7502207   0.86615576  -0.88406491   0.13757586    11339.306     1000 
 2616000   0.55736526   -1.6755042   0.83521185  -0.84029233   0.12157115    11417.821     1000 
 2618000    0.5746885   -1.7934425   0.86117072  -0.93227174   0.11416399    11761.987     1000 
 2620000   0.58805545   -1.7376606    0.8812011  -0.85645948   0.12265561    11461.576     1000 
 2622000   0.56484641   -1.7670098   0.84642235  -0.92058748    0.1333237    11521.507     1000 
 2624000   0.55740852   -1.7271414   0.83527666  -0.89186478   0.13370273    11564.216     1000 
 2626000   0.56732618   -1.7350224   0.85013829   -0.8848841    0.1311028    11547.398     1000 
 2628000   0.57620248   -1.7883696   0.86343942  -0.92493019   0.12290257    11619.656     1000 
 2630000    0.5992635   -1.7468998   0.89799635  -0.84890344   0.12674932    11620.841     1000 
 2632000    0.5741802   -1.7491738   0.86040904  -0.88876475   0.12097772    11562.895     1000 
 2634000   0.60152514   -1.7242803   0.90138542  -0.82289486    0.1228836    11625.491     1000 
 2636000   0.59567812   -1.7114452   0.89262366  -0.81882152   0.11117656    11449.638     1000 
 2638000   0.57733271   -1.7043909   0.86513307  -0.83925787   0.12001772    11655.103     1000 
 2640000   0.57943622   -1.7334948   0.86828517  -0.86520963   0.13269984    11411.098     1000 
 2642000   0.54442595   -1.7556712   0.81582228   -0.9398489   0.11670739    11816.171     1000 
 2644000   0.56231434   -1.7485346   0.84262803   -0.9059066   0.11957689     11542.32     1000 
 2646000   0.58595099   -1.6821487   0.87804756  -0.80410117   0.12605608     11319.09     1000 
 2648000   0.56909747   -1.7158885   0.85279256  -0.86309594    0.1220958    11678.521     1000 
 2650000   0.57315659    -1.724745   0.85887514  -0.86586986   0.13536406    11422.231     1000 
 2652000   0.56560264   -1.6918969   0.84755556  -0.84434137   0.12821165    11446.995     1000 
 2654000   0.56806138   -1.6907433   0.85123998   -0.8395033   0.13040517    11406.246     1000 
 2656000   0.59106379    -1.715172   0.88570909  -0.82946291    0.1354854     11437.09     1000 
 2658000   0.58564226   -1.6918187   0.87758492  -0.81423375    0.1275065    11368.283     1000 
 2660000   0.57637604   -1.7103884   0.86369949  -0.84668886   0.13224221    11454.007     1000 
 2662000   0.61351596   -1.7784065   0.91935367  -0.85905281   0.12468443    11631.807     1000 
 2664000   0.58088361   -1.7221072   0.87045409  -0.85165314   0.13508172    11392.138     1000 
 2666000   0.57953061   -1.6505853   0.86842662  -0.78215869   0.13907477    11331.702     1000 
 2668000   0.57691773   -1.6900168   0.86451122  -0.82550563   0.13582984    11363.356     1000 
 2670000   0.58463503   -1.6838516    0.8760756  -0.80777603   0.14081917    11375.929     1000 
 2672000   0.58826717   -1.7195359   0.88151835  -0.83801756   0.11841886    11624.159     1000 
 2674000   0.58012639   -1.7602069    0.8693194  -0.89088752   0.12729624     11626.72     1000 
 2676000   0.62155612   -1.6915439   0.93140185  -0.76014203   0.13064383    11527.754     1000 
 2678000   0.56359977   -1.8034521   0.84455425  -0.95889788   0.10827158    11770.141     1000 
 2680000   0.59210409   -1.7296244   0.88726798  -0.84235645   0.13173253    11552.099     1000 
 2682000   0.58743311   -1.6625046   0.88026852  -0.78223611   0.14446432    11391.595     1000 
 2684000   0.59654736   -1.7043674   0.89392621  -0.81044122   0.14868117     11379.32     1000 
 2686000   0.58304651   -1.7235199    0.8736952   -0.8498247   0.12449968    11684.722     1000 
 2688000   0.57765915   -1.6820144   0.86562224   -0.8163922     0.122019    11522.716     1000 
 2690000   0.60513312   -1.7396087   0.90679198  -0.83281668   0.13203567    11518.013     1000 
 2692000    0.5738833   -1.7464332   0.85996412  -0.88646911   0.13791632    11408.011     1000 
 2694000   0.57592628   -1.6559307   0.86302553  -0.79290513   0.12677866    11489.919     1000 
 2696000   0.57656715   -1.6600686   0.86398588  -0.79608269   0.11828714    11617.228     1000 
 2698000     0.556915   -1.7143539   0.83453713  -0.87981678   0.13537428    11412.345     1000 
 2700000   0.58068761   -1.6984177   0.87016038  -0.82825733   0.14188833    11330.824     1000 
 2702000   0.56934206   -1.7627581   0.85315907  -0.90959905   0.12690159    11627.912     1000 
 2704000   0.58010646   -1.7090704   0.86928953  -0.83978092   0.13880669    11356.331     1000 
 2706000   0.57166304   -1.7018193   0.85663706  -0.84518224   0.13430846    11446.519     1000 
 2708000   0.57420654   -1.6721303   0.86044849   -0.8116818   0.12406758    11572.947     1000 
 2710000   0.57041412   -1.6775593   0.85476555  -0.82279375   0.13755692    11346.099     1000 
 2712000   0.56888501   -1.7413422   0.85247418  -0.88886802   0.12680037    11543.033     1000 
 2714000   0.59394474   -1.7284375   0.89002619  -0.83841132   0.13600782    11236.991     1000 
 2716000   0.57749225   -1.6899285   0.86537214  -0.82455637   0.12898837    11427.279     1000 
 2718000   0.58124323   -1.7503046   0.87099298  -0.87931164   0.13059251    11553.672     1000 
 2720000   0.61204672   -1.6707113   0.91715201  -0.75355933   0.13706834    11482.743     1000 
 2722000   0.59437443   -1.7247429   0.89067008  -0.83407279   0.13263928    11515.947     1000 
 2724000   0.58570564   -1.7087023    0.8776799  -0.83102239   0.13567467    11398.951     1000 
 2726000   0.57728224   -1.7134595   0.86505743  -0.84840211   0.14727406    11387.908     1000 
 2728000   0.56869814   -1.7062102   0.85219416  -0.85401599   0.12637454    11400.523     1000 
 2730000   0.57968735    -1.680535    0.8686615  -0.81187355   0.13451872    11509.265     1000 
 2732000   0.57682536   -1.7471646   0.86437279  -0.88279178    0.1143041    11692.797     1000 
 2734000   0.57206903   -1.7201605   0.85724544  -0.86291504   0.13094623    11509.286     1000 
 2736000   0.60579354   -1.6748248   0.90778162  -0.76704321   0.12943709    11397.606     1000 
 2738000   0.59157406   -1.7345177   0.88647373  -0.84804396    0.1412588    11505.703     1000 
 2740000   0.55377503   -1.6501699   0.82983189    -0.820338    0.1327957    11519.832     1000 
 2742000    0.5829006    -1.688516   0.87347654   -0.8150395   0.13945327    11461.727     1000 
 2744000   0.55880912   -1.7782292   0.83737546  -0.94085378   0.11632238    11605.715     1000 
 2746000   0.57128482   -1.6939858    0.8560703  -0.83791545   0.12039712     11510.29     1000 
 2748000   0.58103807   -1.6961024   0.87068555  -0.82541687   0.13805262    11389.176     1000 
 2750000   0.56851548   -1.6932522   0.85192045  -0.84133175   0.12686366    11512.493     1000 
 2752000   0.58868499   -1.6745943   0.88214445  -0.79244985    0.1196042    11585.961     1000 
 2754000   0.57535636   -1.7408463    0.8621715  -0.87867481   0.13101462    11644.231     1000 
 2756000   0.58480659    -1.718236   0.87633268  -0.84190333   0.13896916    11434.584     1000 
 2758000   0.57763485   -1.7394616   0.86558582  -0.87387577   0.12908951    11557.483     1000 
 2760000   0.56817718   -1.6313745    0.8514135  -0.77996099   0.12770399    11429.323     1000 
 2762000   0.58926972   -1.7337123   0.88302067  -0.85069161   0.14400832    11463.618     1000 
 2764000   0.56158006   -1.7684366   0.84152773  -0.92690886    0.1288353    11460.764     1000 
 2766000   0.60002213   -1.6982687   0.89913316  -0.79913559   0.14944134    11422.789     1000 
 2768000   0.58901084   -1.7602741   0.88263274  -0.87764141   0.12804445    11602.868     1000 
 2770000   0.56878716   -1.6687957   0.85232757  -0.81646816   0.13391741    11339.407     1000 
 2772000   0.58443527   -1.7193103   0.87577625  -0.84353408   0.13822223    11347.026     1000 
 2774000   0.56043497   -1.7125192   0.83981181  -0.87270743   0.13544997    11398.145     1000 
 2776000   0.58206604   -1.7175512   0.87222596  -0.84532525   0.13812929    11377.178     1000 
 2778000   0.58109014   -1.7018227   0.87076358  -0.83105911   0.14048122    11375.143     1000 
 2780000   0.58868824   -1.6867907   0.88214932  -0.80464139    0.1341778    11586.622     1000 
 2782000   0.60987973   -1.7255832   0.91390478  -0.81167846   0.14533339    11314.692     1000 
 2784000   0.58339578   -1.7449118   0.87421858  -0.87069322   0.14000019    11394.442     1000 
 2786000   0.57164238   -1.7044053    0.8566061  -0.84779916   0.13271599     11453.62     1000 
 2788000   0.57266563   -1.6760673   0.85813944  -0.81792784   0.12479186    11300.769     1000 
 2790000   0.58453718   -1.6520271   0.87592897  -0.77609814    0.1360188      11289.6     1000 
 2792000   0.57441269   -1.7282563   0.86075742  -0.86749883   0.12725831    11467.242     1000 
 2794000   0.57755291   -1.7473572   0.86546304  -0.88189418   0.14464018    11409.037     1000 
 2796000   0.58318131   -1.7281491   0.87389719  -0.85425186   0.12941129    11530.156     1000 
 2798000   0.57277832   -1.6989464   0.85830831   -0.8406381   0.14482765    11356.695     1000 
 2800000    0.5561839   -1.7089783   0.83344157  -0.87553673   0.13021765    11428.167     1000 
 2802000   0.56122238   -1.6614184   0.84099173  -0.82042669   0.12724475    11346.227     1000 
 2804000   0.57963668   -1.7127352   0.86858556  -0.84414966   0.12164442    11716.789     1000 
 2806000   0.57458086   -1.7410369   0.86100942   -0.8800275   0.13305768    11550.525     1000 
 2808000   0.59925314   -1.6898959   0.89798083  -0.79191509   0.14262724    11335.364     1000 
 2810000   0.56705561   -1.6618179   0.84973283  -0.81208508    0.1506678    11254.435     1000 
 2812000   0.57302019   -1.6823655   0.85867075  -0.82369476   0.14084479    11280.789     1000 
 2814000   0.56106253   -1.7311249    0.8407522  -0.89037267   0.12370696    11435.842     1000 
 2816000   0.58638493   -1.6791916   0.87869781  -0.80049377   0.12425464    11416.512     1000 
 2818000   0.56770414   -1.7283311   0.85070466  -0.87762648    0.1286081    11395.759     1000 
 2820000   0.54079046   -1.7204273    0.8103745  -0.91005283   0.11046532    11514.029     1000 
 2822000   0.59941396   -1.7469716   0.89822182  -0.84874973   0.13430085    11471.996     1000 
 2824000    0.5602133    -1.744383   0.83947963  -0.90490333   0.12619576    11455.983     1000 
 2826000   0.54260042   -1.6979503   0.81308672  -0.88486361   0.11829441    11642.618     1000 
 2828000   0.60174176   -1.7240144   0.90171003  -0.82230436   0.13491433    11379.436     1000 
 2830000   0.59853819    -1.686604   0.89690947  -0.78969448   0.12569192    11511.093     1000 
 2832000   0.56934869   -1.7104348   0.85316902  -0.85726579   0.13344319    11416.898     1000 
 2834000   0.57983037   -1.6911933   0.86887581  -0.82231745   0.13217341    11375.413     1000 
 2836000   0.59818464   -1.7474348   0.89637969  -0.85105511   0.12692219    11685.743     1000 
 2838000   0.59164461     -1.72767   0.88657945  -0.84109056   0.13260681    11422.381     1000 
 2840000   0.58261064   -1.7262437   0.87304204  -0.85320165   0.12905592    11520.076     1000 
 2842000   0.58611274   -1.7051109   0.87828994    -0.826821   0.13033304    11586.214     1000 
 2844000   0.61250723   -1.7339078   0.91784208  -0.81606574    0.1299466    11499.212     1000 
 2846000   0.58920156    -1.712379   0.88291853  -0.82946047    0.1369929    11351.612     1000 
 2848000   0.60346716   -1.7216833   0.90429554  -0.81738774   0.13636277    11468.267     1000 
 2850000   0.57062664   -1.6323411   0.85508402  -0.77725708   0.11767575    11367.837     1000 
 2852000   0.57124301   -1.6915168   0.85600765  -0.83550914   0.11923709    11503.389     1000 
 2854000   0.58750256   -1.7165767   0.88037259   -0.8362041   0.12641078    11505.829     1000 
 2856000   0.57681208     -1.65884   0.86435291   -0.7944871   0.13377521    11236.493     1000 
 2858000   0.55393999   -1.7092694   0.83007908  -0.87919033   0.11760377     11540.21     1000 
 2860000   0.59532738   -1.7534702   0.89209807  -0.86137211   0.12319671    11692.595     1000 
 2862000   0.57781796   -1.7384211   0.86586022  -0.87256084   0.12389761    11443.661     1000 
 2864000   0.57150299   -1.6817269   0.85639723  -0.82532966   0.13077963    11440.464     1000 
 2866000   0.62099624   -1.7019734   0.93056287  -0.77141049   0.13884782    11416.274     1000 
 2868000   0.58204149   -1.7016118   0.87218917  -0.82942262   0.13368923    11497.784     1000 
 2870000   0.60298423   -1.6860215   0.90357188  -0.78244967   0.11984617    11557.228     1000 
 2872000   0.59332546   -1.7547264    0.8890982  -0.86562815   0.13227525    11374.858     1000 
 2874000   0.55995225   -1.7181359   0.83908845  -0.87904741   0.12410255    11425.115     1000 
 2876000   0.59595444    -1.722629   0.89303773  -0.82959125   0.13530745    11417.574     1000 
 2878000   0.58108686   -1.7084637   0.87075866  -0.83770506   0.12947141    11487.361     1000 
 2880000   0.60825764   -1.7312977   0.91147407  -0.81982364   0.13416359    11394.462     1000 
 2882000   0.58898408   -1.6739475   0.88259264  -0.79135485   0.14290965    11460.368     1000 
 2884000   0.57716297   -1.6885156   0.86487871  -0.82363687   0.12567562    11544.702     1000 
 2886000   0.56677654   -1.6775194   0.84931464  -0.82820472   0.13923121    11243.788     1000 
 2888000   0.56984902   -1.6866525   0.85391875  -0.83273375   0.11524048    11509.851     1000 
 2890000   0.56377675   -1.7770681   0.84481946  -0.93224869   0.12251834    11405.834     1000 
 2892000   0.60060532   -1.7529233   0.90000708  -0.85291619   0.13860308    11369.341     1000 
 2894000   0.59770356   -1.7005285   0.89565878  -0.80486968   0.12508135    11581.285     1000 
 2896000   0.59135904   -1.6868131   0.88615152  -0.80066161   0.12142532    11547.788     1000 
 2898000   0.57332503   -1.7080016   0.85912755  -0.84887408   0.12977824    11374.035     1000 
 2900000   0.56794999   -1.7044243   0.85107306  -0.85335125   0.12205096    11608.955     1000 
 2902000   0.60028144   -1.7603837   0.89952174  -0.86086196   0.12671442    11523.484     1000 
 2904000   0.54339877   -1.7247593   0.81428306  -0.91047619   0.12964668    11422.123     1000 
 2906000    0.5974794      -1.6947   0.89532288  -0.79937708   0.13053427    11546.531     1000 
 2908000    0.5895869   -1.7033923   0.88349597  -0.81989636   0.13826581    11419.582     1000 
 2910000   0.56968328   -1.7240196   0.85367039  -0.87034921   0.11332525    11615.972     1000 
 2912000   0.60259826   -1.7207327   0.90299349  -0.81773924   0.13408686    11459.893     1000 
 2914000   0.56318908   -1.7216929   0.84393884  -0.87775401   0.13146779    11476.938     1000 
 2916000   0.56477823   -1.7429494   0.84632017  -0.89662921   0.12474483     11584.98     1000 
 2918000   0.58195122   -1.7294775    0.8720539  -0.85742365   0.12678181    11629.459     1000 
 2920000   0.58020858   -1.7445761   0.86944256   -0.8751335   0.12402122    11343.775     1000 
 2922000   0.60095962   -1.7128435   0.90053799   -0.8123055    0.1381865    11322.865     1000 
 2924000   0.57303465   -1.6664588   0.85869243   -0.8077664   0.13381175    11467.024     1000 
 2926000   0.55673071   -1.7627675   0.83426097  -0.92850653   0.13317279    11536.689     1000 
 2928000   0.56117101    -1.691495   0.84091477  -0.85058019   0.12393606    11435.714     1000 
 2930000   0.58119856    -1.697028   0.87092603  -0.82610201   0.13160159    11561.458     1000 
 2932000   0.57860859   -1.6173942   0.86704498  -0.75034921   0.13703235    11387.559     1000 
 2934000    0.5619967   -1.7039112   0.84215206  -0.86175916   0.12818424    11612.692     1000 
 2936000    0.5819334   -1.6844253    0.8720272  -0.81239812   0.13680141    11448.725     1000 
 2938000   0.60104482    -1.727717   0.90066567   -0.8270513   0.13060053    11468.604     1000 
 2940000   0.57050007   -1.7187186   0.85489436  -0.86382428   0.13746705     11432.15     1000 
 2942000   0.55945054   -1.6927486   0.83833663  -0.85441197    0.1316234    11397.946     1000 
 2944000   0.58017305   -1.7663067   0.86938931  -0.89691743   0.13886909    11453.017     1000 
 2946000   0.59094857   -1.6903768   0.88553643  -0.80484036   0.12830013    11454.821     1000 
 2948000   0.59788696   -1.7465519   0.89593361  -0.85061827   0.13372779    11501.828     1000 
 2950000   0.57308232   -1.6680084   0.85876386  -0.80924453   0.12201183    11560.096     1000 
 2952000   0.57209455   -1.7337784   0.85728369  -0.87649475   0.13198721    11335.957     1000 
 2954000   0.56267621   -1.6955046   0.84317029  -0.85233434   0.12690531    11396.381     1000 
 2956000   0.55481466   -1.7315638   0.83138977  -0.90017406   0.12226502    11588.861     1000 
 2958000   0.57701818   -1.7091982   0.86466174   -0.8445365   0.13515152    11335.395     1000 
 2960000   0.59467261   -1.7046167    0.8911169  -0.81349982   0.12514652    11433.661     1000 
 2962000   0.57488203   -1.7557944   0.86146072  -0.89433369   0.12040284    11635.309     1000 
 2964000   0.60293137   -1.6890785   0.90349266  -0.78558581   0.12335921    11605.402     1000 
 2966000   0.59504811   -1.7473302   0.89167959  -0.85565063    0.1321672    11546.121     1000 
 2968000    0.5812938   -1.7039311   0.87106875  -0.83286238   0.13543795    11430.986     1000 
 2970000   0.57381758   -1.7216608   0.85986565  -0.86179512    0.1284705    11438.923     1000 
 2972000    0.5714223   -1.7454696   0.85627632  -0.88919327   0.13637478    11539.184     1000 
 2974000   0.58247108   -1.7142514   0.87283291  -0.84141854   0.13206706    11437.921     1000 
 2976000   0.58811786   -1.7082667   0.88129461  -0.82697205   0.13305262    11369.211     1000 
 2978000    0.5699794   -1.7281819   0.85411413  -0.87406774   0.12994046    11470.822     1000 
 2980000   0.56378106   -1.7214731   0.84482592  -0.87664715   0.11798771    11513.074     1000 
 2982000   0.59700527   -1.6676015    0.8946124  -0.77298912   0.14418394    11331.198     1000 
 2984000   0.57812602   -1.7010518   0.86632185  -0.83472998   0.12688741    11443.721     1000 
 2986000   0.56778269   -1.6857506   0.85082235  -0.83492827   0.13387558    11412.573     1000 
 2988000    0.5797711   -1.8006864   0.86878699  -0.93189943   0.12687574    11632.396     1000 
 2990000    0.5752368   -1.6577394   0.86199234  -0.79574704   0.13541387    11382.932     1000 
 2992000   0.56528067   -1.6851412   0.84707308  -0.83806809   0.12833851    11427.457     1000 
 2994000    0.5668989   -1.7312395     0.849498   -0.8817415   0.13461791    11451.708     1000 
 2996000   0.56537867   -1.6973913   0.84721993  -0.85017142   0.12787114    11425.077     1000 
 2998000   0.59391929    -1.740466   0.88998806  -0.85047792     0.126505    11480.143     1000 
 3000000   0.57358746   -1.7153426   0.85952081  -0.85582184   0.13674802    11420.086     1000 
Loop time of 7349.56 on 1 procs for 3000000 steps with 1000 atoms

Performance: 176337.134 tau/day, 408.188 timesteps/s
100.0% CPU use with 1 MPI tasks x 1 OpenMP threads

MPI task timing breakdown:
Section |  min time  |  avg time  |  max time  |%varavg| %total
---------------------------------------------------------------
Pair    | 6621.5     | 6621.5     | 6621.5     |   0.0 | 90.09
Neigh   | 578.33     | 578.33     | 578.33     |   0.0 |  7.87
Comm    | 62.699     | 62.699     | 62.699     |   0.0 |  0.85
Output  | 0.027627   | 0.027627   | 0.027627   |   0.0 |  0.00
Modify  | 76.201     | 76.201     | 76.201     |   0.0 |  1.04
Other   |            | 10.81      |            |       |  0.15

Nlocal:        1000.00 ave        1000 max        1000 min
Histogram: 1 0 0 0 0 0 0 0 0 0
Nghost:        6039.00 ave        6039 max        6039 min
Histogram: 1 0 0 0 0 0 0 0 0 0
Neighs:        199789.0 ave      199789 max      199789 min
Histogram: 1 0 0 0 0 0 0 0 0 0

Total # of neighbors = 199789
Ave neighs/atom = 199.78900
Neighbor list builds = 150000
Dangerous builds not checked

Total wall time: 2:02:29
