LAMMPS (29 Sep 2021 - Update 2)
OMP_NUM_THREADS environment is not set. Defaulting to 1 thread. (src/comm.cpp:98)
  using 1 OpenMP thread(s) per MPI task
# ----------------------- Inicialização -----------------------

units			lj
atom_style 		atomic
dimension 		3
boundary 		p p p

# -------------------- Criação dos Átomos ---------------------

read_data 		topologia.txt
Reading data file ...
  orthogonal box = (0.0000000 0.0000000 0.0000000) to (21.540000 21.540000 21.540000)
  1 by 1 by 1 MPI processor grid
  reading atoms ...
  1000 atoms
  read_data CPU = 0.005 seconds

velocity 		all create ${temp} 87287 rot yes dist gaussian
velocity 		all create 0.55 87287 rot yes dist gaussian

# ------------------ Interação Interatômica -------------------

pair_style		table linear 2000
pair_coeff		1 1 force.table AA 10.0
WARNING: 3 of 2000 force values in table AA are inconsistent with -dE/dr.
WARNING:  Should only be flagged at inflection points (src/pair_table.cpp:465)
pair_coeff		1 2 force.table AB 10.0
WARNING: 1 of 2000 force values in table AB are inconsistent with -dE/dr.
WARNING:  Should only be flagged at inflection points (src/pair_table.cpp:465)
pair_coeff		2 2 force.table BB 10.0
pair_write		1 1 2000 r 0.008 10.0 table.check AA
Appending to table file table.check with DATE: 2023-06-17
Neighbor list info ...
  update every 1 steps, delay 10 steps, check yes
  max neighbors/atom: 2000, page size: 100000
  master list distance cutoff = 10.3
  ghost atom cutoff = 10.3
  binsize = 5.15, bins = 5 5 5
  1 neighbor lists, perpetual/occasional/extra = 1 0 0
  (1) pair table, perpetual
      attributes: half, newton on
      pair build: half/bin/atomonly/newton
      stencil: half/bin/3d
      bin: standard
pair_write		1 2 2000 r 0.008 10.0 table.check AB
Appending to table file table.check with DATE: 2023-06-17
pair_write		2 2 2000 r 0.008 10.0 table.check BB
Appending to table file table.check with DATE: 2023-06-17

neighbor 		0.3 bin
neigh_modify		every 20 delay 0 check no

# ------------------------- Ensemble --------------------------------------

fix 1			all npt temp ${temp} ${temp} 0.5 iso ${press} ${press} 5
fix 1			all npt temp 0.55 ${temp} 0.5 iso ${press} ${press} 5
fix 1			all npt temp 0.55 0.55 0.5 iso ${press} ${press} 5
fix 1			all npt temp 0.55 0.55 0.5 iso 0.13 ${press} 5
fix 1			all npt temp 0.55 0.55 0.5 iso 0.13 0.13 5

# ---------------------- Função de Distribuição Radial -----------------------

#compute RDF 		all rdf 2000 1 1 1 2 2 2
#fix 2 			all ave/time 1 2000 2000 c_RDF[*] file rdf.data mode vector

# ------------------------- Execução ---------------------------

timestep 		0.005
thermo_style		custom step temp pe ke etotal press vol atoms
thermo			2000
run			3000000
Per MPI rank memory allocation (min/avg/max) = 3.614 | 3.614 | 3.614 Mbytes
Step Temp PotEng KinEng TotEng Press Volume Atoms 
       0         0.55  -0.99611563     0.824175  -0.17194063   0.12295442    9993.9483     1000 
    2000    0.5484367   -1.7965845   0.82183239  -0.97475207   0.13036014    11438.137     1000 
    4000   0.55481358   -1.7919476   0.83138815  -0.96055941   0.13940507     11443.01     1000 
    6000   0.58188037   -1.7540206   0.87194774  -0.88207283   0.13977209    11374.256     1000 
    8000   0.52594245   -1.7821363   0.78812476  -0.99401157   0.12789861    11507.524     1000 
   10000   0.53827518   -1.7873636   0.80660535  -0.98075821   0.12145017    11595.045     1000 
   12000    0.5605894   -1.7433659   0.84004322  -0.90332269   0.12958433    11523.694     1000 
   14000   0.56346922   -1.7368822   0.84435863  -0.89252356   0.12771295    11428.694     1000 
   16000   0.54951516   -1.8050519   0.82344847  -0.98160339   0.11737258    11464.183     1000 
   18000    0.5631518    -1.767987   0.84388297  -0.92410398   0.13445362    11501.853     1000 
   20000    0.5895065   -1.7835949   0.88337548  -0.90021942   0.12909183     11460.97     1000 
   22000   0.55335783   -1.8215515   0.82920671  -0.99234482   0.12931267    11463.933     1000 
   24000   0.55216352    -1.847076   0.82741703   -1.0196589   0.13164132    11502.992     1000 
   26000   0.56295874   -1.7964791   0.84359368  -0.95288542   0.12871247    11562.919     1000 
   28000    0.5384965   -1.8153515     0.806937   -1.0084145   0.10965563    11660.107     1000 
   30000    0.5620887   -1.7955191   0.84228992  -0.95322916   0.14200019    11413.715     1000 
   32000   0.54468682    -1.753189    0.8162132  -0.93697576   0.12377454    11574.024     1000 
   34000   0.55823351   -1.7919131   0.83651292  -0.95540015   0.12236486    11513.425     1000 
   36000    0.5471974   -1.7462488   0.81997531  -0.92627347   0.13576118    11324.803     1000 
   38000   0.54552124   -1.7957984   0.81746357  -0.97833481   0.12321776     11399.97     1000 
   40000   0.57739548   -1.7717493   0.86522712  -0.90652217   0.13277097    11441.121     1000 
   42000   0.56244629   -1.8082182   0.84282577  -0.96539248   0.13736896    11441.632     1000 
   44000   0.56285652   -1.7457074    0.8434405  -0.90226693   0.13991221    11352.389     1000 
   46000   0.54424887   -1.7957049   0.81555693  -0.98014792   0.12232256    11459.635     1000 
   48000   0.54877409   -1.7940304   0.82233797  -0.97169242   0.13697789     11387.53     1000 
   50000   0.56910765   -1.7780365   0.85280782  -0.92522868   0.13623841    11570.901     1000 
   52000   0.55381462    -1.778843    0.8298912  -0.94895183   0.13677236    11362.707     1000 
   54000   0.55621105   -1.7631656   0.83348227  -0.92968329   0.13208427    11415.775     1000 
   56000   0.53305841   -1.8391602   0.79878802   -1.0403722   0.12729976    11506.107     1000 
   58000   0.55082488   -1.7733777   0.82541109  -0.94796659   0.12924167     11433.42     1000 
   60000    0.5635342     -1.80926     0.844456  -0.96480403   0.13507893    11407.448     1000 
   62000   0.56486811   -1.8404028   0.84645487  -0.99394794   0.12581966     11506.61     1000 
   64000   0.56095433   -1.7710713   0.84059006  -0.93048126    0.1243985    11484.063     1000 
   66000    0.5408176   -1.8571414   0.81041517   -1.0467262   0.12487705    11526.351     1000 
   68000   0.56342428    -1.808359   0.84429129   -0.9640677   0.14065835    11317.602     1000 
   70000   0.55103739     -1.74698   0.82572953   -0.9212505   0.13496252    11283.803     1000 
   72000   0.55092428   -1.7525292   0.82556003  -0.92696913    0.1194673    11530.205     1000 
   74000   0.55041401   -1.7658027    0.8247954  -0.94100735   0.13010308    11395.519     1000 
   76000   0.54240675   -1.7725962   0.81279652  -0.95979967    0.1357105    11522.235     1000 
   78000   0.53340126   -1.8254222   0.79930179   -1.0261204   0.11842862    11637.258     1000 
   80000   0.56041175   -1.8296602   0.83977701  -0.98988315   0.13254642    11410.039     1000 
   82000   0.54248784   -1.7838617   0.81291803  -0.97094367   0.13712054    11341.145     1000 
   84000   0.57054163   -1.8137566   0.85495663  -0.95879993   0.12804152    11424.505     1000 
   86000   0.55915236   -1.7873517   0.83788981  -0.94946186   0.12424921    11360.489     1000 
   88000   0.54500632   -1.8037706   0.81669197  -0.98707867   0.13700642    11283.668     1000 
   90000   0.54504589   -1.7610064   0.81675126  -0.94425512   0.15536358    11172.665     1000 
   92000   0.53836558   -1.7594884   0.80674083  -0.95274757   0.13270839    11386.605     1000 
   94000   0.55180548   -1.7814217   0.82688052  -0.95454123   0.12151752    11467.859     1000 
   96000   0.53872171   -1.7420693   0.80727449  -0.93479477   0.12707245    11388.598     1000 
   98000   0.57566837   -1.7260984   0.86263905  -0.86345936   0.12644814    11375.312     1000 
  100000   0.53887096   -1.7504662   0.80749814  -0.94296802   0.12579052    11569.205     1000 
  102000   0.55574014   -1.7839595    0.8327766  -0.95118294   0.13177978    11404.189     1000 
  104000   0.54822675   -1.7592512   0.82151778  -0.93773337   0.12773086    11502.567     1000 
  106000   0.54136019    -1.760781   0.81122825  -0.94955276   0.11786232    11520.498     1000 
  108000   0.54663066   -1.8174761   0.81912605  -0.99835003   0.12502857    11564.323     1000 
  110000   0.53507582   -1.8201065   0.80181111   -1.0182954   0.13356812    11322.342     1000 
  112000    0.5320779   -1.8319669   0.79731873   -1.0346481   0.13285407    11365.924     1000 
  114000   0.57690816   -1.7493209   0.86449687  -0.88482408   0.13460765    11379.102     1000 
  116000   0.53339204   -1.7937714   0.79928798  -0.99448341   0.13870634    11259.263     1000 
  118000   0.54918331   -1.7958126   0.82295119  -0.97286142   0.12524487    11575.497     1000 
  120000    0.5947121   -1.8139957   0.89117608  -0.92281959    0.1551454    11317.556     1000 
  122000   0.52962766    -1.800135   0.79364705   -1.0064879   0.14095087    11303.669     1000 
  124000   0.56844184   -1.7856034   0.85181009  -0.93379326   0.13702289    11431.698     1000 
  126000   0.57605201   -1.7783857   0.86321394  -0.91517175    0.1200354    11667.999     1000 
  128000   0.54662862   -1.7583673   0.81912299  -0.93924433   0.13237982    11397.592     1000 
  130000   0.58695976   -1.7384809    0.8795592  -0.85892167   0.15014233    11180.284     1000 
  132000   0.57431189   -1.8327674   0.86060636  -0.97216109   0.12912327    11485.277     1000 
  134000   0.54068639   -1.8072971   0.81021855  -0.99707859   0.12166466    11521.254     1000 
  136000   0.54499442   -1.7545905   0.81667413  -0.93791634   0.11877958    11556.998     1000 
  138000   0.54737319   -1.7980969   0.82023873   -0.9778582   0.13286906    11431.741     1000 
  140000   0.55066193   -1.7831256   0.82516691  -0.95795865    0.1345068    11520.809     1000 
  142000   0.55311902   -1.8189049   0.82884885  -0.99005606   0.12584364    11523.989     1000 
  144000   0.52536545   -1.8037392   0.78726013   -1.0164791   0.12915243    11497.073     1000 
  146000   0.55047711   -1.7566366   0.82488995  -0.93174666   0.12604559    11315.522     1000 
  148000   0.54432643   -1.8259004   0.81567316   -1.0102273   0.12371187    11600.232     1000 
  150000   0.55335294   -1.7780533   0.82919938  -0.94885391   0.12239184    11566.534     1000 
  152000   0.55312022    -1.798225   0.82885065  -0.96937431   0.12386391    11491.628     1000 
  154000   0.55367339   -1.7770423   0.82967957  -0.94736274   0.13427867     11430.85     1000 
  156000   0.55641211   -1.7882133   0.83378354  -0.95442977   0.12371287    11406.068     1000 
  158000    0.5404172   -1.8003013   0.80981518  -0.99048614   0.12527806    11551.684     1000 
  160000   0.55474636   -1.8011078   0.83128742  -0.96982036   0.13773154     11270.56     1000 
  162000   0.50399962   -1.7975137   0.75524343   -1.0422702   0.12642129    11373.195     1000 
  164000   0.56124031    -1.823453    0.8410186  -0.98243445   0.13311853    11507.749     1000 
  166000   0.55251686   -1.8039254   0.82794651   -0.9759789    0.1289033    11448.921     1000 
  168000   0.56662578   -1.7841461   0.84908874  -0.93505734   0.13175854    11330.466     1000 
  170000   0.55316696    -1.808538   0.82892069  -0.97961734   0.12348881    11504.244     1000 
  172000   0.55251858   -1.8089663   0.82794909  -0.98101723   0.14201002    11244.028     1000 
  174000   0.54943673   -1.7494155   0.82333094  -0.92608461    0.1423933     11330.73     1000 
  176000    0.5392213   -1.7588268   0.80802311   -0.9508037   0.12033069    11522.439     1000 
  178000   0.55120543   -1.7908634   0.82598133  -0.96488212   0.13039386    11385.226     1000 
  180000   0.56026334    -1.768008   0.83955462   -0.9284534   0.12267898    11455.779     1000 
  182000   0.56420496   -1.7415154   0.84546113  -0.89605425   0.12969795    11452.525     1000 
  184000    0.5642789   -1.7989081   0.84557193  -0.95333615     0.136424     11386.54     1000 
  186000   0.57303238   -1.8432342   0.85868902  -0.98454521   0.12157263    11644.154     1000 
  188000   0.57807694   -1.8160519   0.86624829  -0.94980356     0.133936    11502.688     1000 
  190000   0.51815419   -1.7880626   0.77645405   -1.0116085   0.13212361    11308.274     1000 
  192000   0.56015235   -1.8208885   0.83938829  -0.98150024   0.13295846    11471.735     1000 
  194000   0.53735724    -1.858239   0.80522982   -1.0530091   0.13435916    11434.232     1000 
  196000   0.53955522   -1.7912417    0.8085235  -0.98271821   0.12773258     11503.44     1000 
  198000   0.53240725   -1.7928893   0.79781227  -0.99507701    0.1414728    11302.821     1000 
  200000   0.55724259   -1.8062996   0.83502802  -0.97127157   0.13930002    11481.913     1000 
  202000    0.5622123   -1.7771032   0.84247513  -0.93462804   0.11702052    11641.322     1000 
  204000   0.58064482    -1.785028   0.87009626  -0.91493178   0.11982476    11507.016     1000 
  206000   0.54491978   -1.8230662   0.81656229   -1.0065039    0.1261015     11501.45     1000 
  208000   0.54661126   -1.7721652   0.81909697   -0.9530682    0.1251921    11518.856     1000 
  210000   0.54636888   -1.7758432   0.81873376  -0.95710945   0.12697011    11499.597     1000 
  212000   0.55391447   -1.7985722   0.83004083   -0.9685314   0.13287282    11342.275     1000 
  214000   0.56914027   -1.7876227    0.8528567    -0.934766   0.14672627    11296.523     1000 
  216000   0.55658517   -1.7870203   0.83404287  -0.95297743   0.13102825    11409.849     1000 
  218000   0.55986558   -1.7886319   0.83895858  -0.94967336   0.13078258    11353.584     1000 
  220000   0.54523922   -1.8224849   0.81704097   -1.0054439   0.13951176    11498.858     1000 
  222000   0.55417773    -1.805842   0.83043532  -0.97540669   0.14540296     11146.62     1000 
  224000   0.56060291   -1.8006361   0.84006347  -0.96057264    0.1267239    11502.468     1000 
  226000   0.52834994   -1.8102069   0.79173238   -1.0184745   0.12570132    11548.706     1000 
  228000   0.56003841   -1.7655784   0.83921755  -0.92636086   0.12499141    11496.035     1000 
  230000   0.52866478   -1.7353035   0.79220417  -0.94309933   0.13228478    11291.275     1000 
  232000   0.56121322   -1.7205431   0.84097801  -0.87956512   0.12467634    11518.516     1000 
  234000    0.5398998   -1.7318331   0.80903986  -0.92279326    0.1199971    11374.314     1000 
  236000   0.53907479    -1.785409   0.80780358  -0.97760538   0.12149777     11523.84     1000 
  238000   0.57396243   -1.7747896   0.86008271  -0.91470686   0.12552826    11493.815     1000 
  240000    0.5433606   -1.7341307   0.81422587  -0.91990485   0.13837183    11434.377     1000 
  242000   0.56035089   -1.8177012   0.83968581  -0.97801535   0.12891286    11450.254     1000 
  244000   0.55649464   -1.8010447   0.83390722  -0.96713744   0.12837982    11427.128     1000 
  246000    0.5570811   -1.7673683   0.83478602  -0.93258223   0.12802714    11626.529     1000 
  248000   0.55637481   -1.7838623   0.83372766  -0.95013468    0.1320928    11457.295     1000 
  250000   0.53527983   -1.7651851   0.80211682  -0.96306827   0.12949313    11362.653     1000 
  252000   0.54318473   -1.7972628   0.81396232  -0.98330045   0.13174975    11251.631     1000 
  254000   0.56972797   -1.7432355   0.85373737   -0.8894981   0.12583694    11498.227     1000 
  256000   0.52527609   -1.7670696   0.78712622  -0.97994338   0.13211502    11255.909     1000 
  258000   0.54413447   -1.7591539    0.8153855  -0.94376839   0.13439179    11377.562     1000 
  260000   0.54202469   -1.7678381     0.812224  -0.95561413   0.13574637    11383.795     1000 
  262000    0.5213576    -1.818785   0.78125437   -1.0375307   0.12935578    11306.195     1000 
  264000    0.5774172   -1.7974938   0.86525967  -0.93223415   0.12473523    11415.139     1000 
  266000   0.54525905   -1.7787606   0.81707069  -0.96168993   0.13110226    11393.666     1000 
  268000   0.55428132   -1.7763429   0.83059056  -0.94575229   0.13497954    11434.433     1000 
  270000   0.55129468   -1.8157704   0.82611508  -0.98965528   0.12800172    11494.009     1000 
  272000   0.57351285   -1.7902354     0.859409  -0.93082638    0.1232477    11518.998     1000 
  274000   0.53578225   -1.7917781    0.8028697  -0.98890842   0.13231392     11462.93     1000 
  276000   0.54783386   -1.7697815   0.82092905   -0.9488525   0.13020428    11410.181     1000 
  278000   0.53859226    -1.734538    0.8070805  -0.92745754   0.12772709    11412.096     1000 
  280000   0.52375072   -1.7715324   0.78484045  -0.98669191   0.12387917    11635.847     1000 
  282000   0.53851372   -1.7719671   0.80696281  -0.96500425   0.13062134    11404.737     1000 
  284000   0.55103777   -1.8150128    0.8257301   -0.9892827   0.11825161    11695.745     1000 
  286000   0.53701485   -1.7876647   0.80471675  -0.98294793   0.12827768    11555.898     1000 
  288000    0.5521014   -1.7891462   0.82732394  -0.96182221    0.1306118    11481.594     1000 
  290000   0.54453195   -1.7716362   0.81598112  -0.95565504   0.12429409    11512.581     1000 
  292000   0.54686452   -1.8243285   0.81947648    -1.004852   0.13001403    11598.133     1000 
  294000   0.56674442   -1.7295026   0.84926651  -0.88023608   0.14030597     11308.89     1000 
  296000    0.5402597   -1.8098145   0.80957917   -1.0002353   0.13738834    11340.554     1000 
  298000   0.54420093     -1.77574   0.81548509  -0.96025488   0.13090815    11501.372     1000 
  300000     0.542351   -1.7755062   0.81271298  -0.96279321    0.1390202    11403.798     1000 
  302000   0.53642256   -1.7444901    0.8038292  -0.94066085   0.12901522    11395.983     1000 
  304000   0.55243739   -1.8116875   0.82782743  -0.98386008    0.1369962    11463.049     1000 
  306000   0.52959155    -1.814415   0.79359294    -1.020822   0.12769995    11480.279     1000 
  308000   0.56495072    -1.805319   0.84657866  -0.95874035   0.13614362    11561.492     1000 
  310000   0.53896748   -1.7745876   0.80764277  -0.96694484   0.13304521    11424.853     1000 
  312000   0.52302242   -1.7514338    0.7837491  -0.96768471   0.15162955    11132.673     1000 
  314000   0.52529119   -1.8325978   0.78714884    -1.045449   0.13844167    11329.963     1000 
  316000    0.5385699   -1.7673455     0.807047  -0.96029853   0.13680731    11334.309     1000 
  318000   0.54893228   -1.7571058   0.82257503  -0.93453079   0.13491984    11369.716     1000 
  320000   0.54632483   -1.7954166   0.81866776  -0.97674886   0.13813922    11419.927     1000 
  322000   0.54250518   -1.8086914   0.81294402  -0.99574734   0.13140073    11389.913     1000 
  324000   0.55156042   -1.8049672   0.82651329  -0.97845387   0.12319207    11457.552     1000 
  326000    0.5464024   -1.7508669     0.818784  -0.93208294    0.1231586    11413.479     1000 
  328000   0.54973926   -1.7945251   0.82378428  -0.97074084   0.14184541    11175.311     1000 
  330000   0.55511905   -1.7960502   0.83184589  -0.96420428   0.12815951    11402.809     1000 
  332000   0.56050478   -1.7737251   0.83991641  -0.93380869   0.12706927    11617.342     1000 
  334000    0.5395687   -1.7976129    0.8085437  -0.98906924   0.12457984     11509.11     1000 
  336000    0.5415203   -1.8116631   0.81146817   -1.0001949    0.1264443    11366.023     1000 
  338000   0.54838118   -1.8113018    0.8217492  -0.98955258   0.12910807    11448.829     1000 
  340000   0.54940363   -1.7902918   0.82328134   -0.9670105   0.13637677    11307.934     1000 
  342000   0.56403802   -1.7728055   0.84521097  -0.92759452   0.13432849    11480.429     1000 
  344000   0.56020109   -1.7668726   0.83946134  -0.92741123   0.13919182    11407.495     1000 
  346000   0.55578709   -1.7555538   0.83284695   -0.9227068   0.12789995    11474.688     1000 
  348000   0.53295068   -1.8051064   0.79862659   -1.0064798   0.11979953    11452.252     1000 
  350000   0.53352697   -1.7839799   0.79949016  -0.98448971   0.12116081    11438.135     1000 
  352000   0.52485874   -1.7615901   0.78650082  -0.97508933   0.13728662    11220.683     1000 
  354000   0.55601023   -1.7649234   0.83318133  -0.93174205   0.13909435    11213.621     1000 
  356000   0.54458065   -1.7591582   0.81605411  -0.94310407   0.11268479      11603.8     1000 
  358000   0.54547487   -1.7569841   0.81739409  -0.93959001   0.12311366    11523.232     1000 
  360000   0.55312542   -1.7413891   0.82885844  -0.91253069   0.13568502    11294.426     1000 
  362000    0.5319169   -1.7716737   0.79707747  -0.97459621   0.12561535    11426.883     1000 
  364000   0.55805411   -1.7313732   0.83624409  -0.89512914   0.12875995    11398.921     1000 
  366000   0.54355863   -1.7919386    0.8145226  -0.97741595   0.12591319    11367.563     1000 
  368000   0.54112656   -1.7902507   0.81087814  -0.97937257   0.12782147    11496.981     1000 
  370000   0.54800548   -1.7749356   0.82118621  -0.95374942   0.11479603    11509.434     1000 
  372000   0.55519444    -1.773167   0.83195887  -0.94120817   0.13030762    11512.412     1000 
  374000   0.56330391   -1.7759113   0.84411092  -0.93180038   0.14411343    11225.442     1000 
  376000   0.52268884   -1.7553307   0.78324923  -0.97208151   0.12546254    11514.128     1000 
  378000   0.52622998   -1.7564597   0.78855562  -0.96790404   0.11811264    11540.904     1000 
  380000   0.53462477   -1.7664647   0.80113522  -0.96532951   0.12777557    11418.695     1000 
  382000   0.55355576    -1.720185    0.8295033  -0.89068169    0.1154302     11517.43     1000 
  384000   0.54401375   -1.8028256   0.81520461  -0.98762099   0.12617309    11398.607     1000 
  386000   0.55067045   -1.7900904   0.82517966  -0.96491072   0.12377837    11541.439     1000 
  388000   0.56096028   -1.8066876   0.84059899  -0.96608864    0.1366849    11395.202     1000 
  390000   0.55709281   -1.7586451   0.83480358  -0.92384149   0.12425668    11424.898     1000 
  392000   0.54396508   -1.7601165   0.81513168  -0.94498482   0.12643464    11388.776     1000 
  394000    0.5640593   -1.7523628   0.84524285  -0.90711993    0.1422386    11158.798     1000 
  396000    0.5533268   -1.7827405    0.8291602  -0.95358034   0.13232188     11399.13     1000 
  398000    0.5255395   -1.7774629   0.78752094  -0.98994194   0.12624728    11514.695     1000 
  400000   0.55149638   -1.7717735   0.82641733  -0.94535614   0.12771759    11531.232     1000 
  402000   0.56923737   -1.8104076    0.8530022  -0.95740541   0.12697773    11610.755     1000 
  404000   0.55434195    -1.732798   0.83068142  -0.90211663    0.1290031    11495.569     1000 
  406000   0.55251016   -1.8315473   0.82793647   -1.0036108   0.13151052     11494.18     1000 
  408000   0.56198924   -1.8151609   0.84214088  -0.97302003   0.11866096    11573.115     1000 
  410000   0.56346632   -1.7920334   0.84435428  -0.94767909   0.13033062    11527.409     1000 
  412000   0.53247306   -1.7599697   0.79791088  -0.96205879    0.1127485     11563.93     1000 
  414000   0.54736272    -1.856981   0.82022303    -1.036758   0.12592948    11532.474     1000 
  416000   0.58431912   -1.7894014    0.8756022  -0.91379924   0.13701841    11316.385     1000 
  418000   0.56534461   -1.8171609   0.84716889  -0.96999199   0.12149751    11625.399     1000 
  420000   0.55609022    -1.797492    0.8333012  -0.96419081   0.12096813    11454.234     1000 
  422000   0.53206555   -1.7900287   0.79730023  -0.99272845   0.12507962    11415.226     1000 
  424000   0.53221393   -1.7980171   0.79752258   -1.0004945   0.12321905    11371.968     1000 
  426000   0.53927952   -1.7881306   0.80811036  -0.98002021   0.13517735    11389.152     1000 
  428000   0.55396948   -1.7635868   0.83012327  -0.93346353   0.14231278    11281.351     1000 
  430000   0.55929222    -1.789582   0.83809939  -0.95148265   0.13734975    11235.169     1000 
  432000   0.57980195   -1.7839634   0.86883322  -0.91513014   0.13533171    11340.412     1000 
  434000    0.5647194   -1.8328025   0.84623203  -0.98657046   0.12183614    11562.393     1000 
  436000   0.55761314   -1.8386405   0.83558329   -1.0030572   0.13276909    11413.438     1000 
  438000   0.54365835   -1.8308254   0.81467203   -1.0161534   0.13008884    11394.212     1000 
  440000   0.55847874   -1.8058763   0.83688039  -0.96899586   0.12244891     11546.52     1000 
  442000    0.5666512   -1.7752727   0.84912682  -0.92614591   0.12187396    11513.171     1000 
  444000   0.53318449   -1.7823908   0.79897696  -0.98341383   0.13645526    11500.302     1000 
  446000   0.55619402   -1.8229817   0.83345674  -0.98952491   0.12426602    11522.777     1000 
  448000   0.57218026   -1.7972632   0.85741212  -0.93985106    0.1239112    11538.649     1000 
  450000   0.55947575    -1.844953   0.83837441   -1.0065786   0.12352533     11501.15     1000 
  452000   0.53862798    -1.782705   0.80713402  -0.97557101   0.14012651    11326.064     1000 
  454000   0.54134443   -1.8085177   0.81120463  -0.99731304   0.12991527    11397.153     1000 
  456000   0.55412335   -1.8055142   0.83035384  -0.97516039   0.12475907    11504.753     1000 
  458000   0.54943913   -1.8398161   0.82333454   -1.0164816   0.12449295    11526.065     1000 
  460000   0.53487401    -1.752316    0.8015087  -0.95080731   0.12350367    11501.237     1000 
  462000   0.53434804   -1.8108603   0.80072054   -1.0101398   0.11897548    11533.016     1000 
  464000   0.55511598   -1.8022674   0.83184129  -0.97042608   0.12869948    11471.062     1000 
  466000   0.55301329   -1.7830714   0.82869042  -0.95438103   0.14059841    11421.986     1000 
  468000   0.57148189   -1.7669768   0.85636561  -0.91061118   0.12102245    11476.377     1000 
  470000   0.55266678   -1.8275083   0.82817118  -0.99933713   0.12915173    11373.392     1000 
  472000    0.5559345   -1.7819798   0.83306784  -0.94891199   0.12576505    11560.169     1000 
  474000   0.56913229   -1.8094198   0.85284473  -0.95657509   0.13159225    11484.278     1000 
  476000   0.55751734   -1.7991551   0.83543973  -0.96371537   0.13503783    11506.183     1000 
  478000   0.56817752   -1.7882867   0.85141401  -0.93687272   0.13294752    11443.958     1000 
  480000   0.54804553   -1.7627399   0.82124622  -0.94149372   0.11941599     11438.27     1000 
  482000   0.57535675    -1.771613   0.86217208  -0.90944087   0.12497535    11473.772     1000 
  484000   0.52270288   -1.7225545   0.78327027  -0.93928427   0.13305345    11484.214     1000 
  486000   0.54988917   -1.7910225   0.82400892  -0.96701354   0.13317723     11429.66     1000 
  488000   0.54381445   -1.7926666   0.81490596  -0.97776062   0.13203489    11413.669     1000 
  490000   0.54218185    -1.761405    0.8124595  -0.94894554   0.13731174    11360.854     1000 
  492000    0.5488694   -1.8055795    0.8224808  -0.98309866   0.12755778     11555.35     1000 
  494000   0.55041785   -1.8234745   0.82480114  -0.99867337   0.12673646    11416.038     1000 
  496000   0.57280382   -1.8214877   0.85834653  -0.96314121   0.13019988    11467.005     1000 
  498000   0.56470295   -1.7876927   0.84620737  -0.94148537   0.12223006    11567.098     1000 
  500000   0.56673901   -1.8044387    0.8492584  -0.95518029   0.13832846    11454.074     1000 
  502000   0.54492207   -1.7995758   0.81656572  -0.98301003   0.12519761    11428.054     1000 
  504000   0.55067204    -1.806104   0.82518205  -0.98092196   0.12895308    11308.918     1000 
  506000    0.5592096   -1.7958495   0.83797558  -0.95787388   0.12954708    11464.068     1000 
  508000   0.52577952   -1.7241063   0.78788061   -0.9362257   0.14045459     11237.08     1000 
  510000   0.55373145   -1.7874872   0.82976658   -0.9577206   0.12658908    11541.739     1000 
  512000   0.56296866   -1.8229033   0.84360854  -0.97929471   0.13554607    11393.834     1000 
  514000   0.55450868   -1.7852517   0.83093125  -0.95432043   0.14599535    11289.437     1000 
  516000   0.54758227   -1.8420167   0.82055202   -1.0214647   0.11904656    11665.519     1000 
  518000   0.55592814   -1.7670774   0.83305832  -0.93401905    0.1212425    11465.566     1000 
  520000   0.53305366   -1.7423309   0.79878091  -0.94354996    0.1230935    11435.127     1000 
  522000   0.56146896   -1.7780633   0.84136123   -0.9367021   0.12251302    11614.264     1000 
  524000   0.54089906   -1.8231033   0.81053724    -1.012566   0.11394179    11610.613     1000 
  526000   0.56237937   -1.7604139   0.84272549  -0.91768844   0.13518762    11267.955     1000 
  528000   0.55710464   -1.7571871   0.83482131  -0.92236577   0.14809433    11347.063     1000 
  530000   0.55544765   -1.7905555    0.8323383  -0.95821719   0.13160198    11291.321     1000 
  532000   0.53907987   -1.8195092   0.80781118    -1.011698   0.12938003    11347.184     1000 
  534000   0.54963996   -1.7974323   0.82363549  -0.97379677   0.13576706    11339.906     1000 
  536000   0.55586009   -1.8166733   0.83295634  -0.98371698   0.13125281    11539.148     1000 
  538000   0.55750531   -1.7672473   0.83542171   -0.9318256   0.13486898    11399.347     1000 
  540000   0.54924838   -1.7737455    0.8230487  -0.95069681   0.13884201    11381.483     1000 
  542000   0.55703028   -1.7971059   0.83470987  -0.96239607   0.13401807    11392.922     1000 
  544000   0.54762444   -1.7831812   0.82061522  -0.96256599   0.12460912    11359.254     1000 
  546000   0.54409735   -1.7979868   0.81532988   -0.9826569   0.12007618    11648.584     1000 
  548000   0.55288108   -1.7907314    0.8284923  -0.96223906   0.13061358    11468.136     1000 
  550000   0.52678478   -1.8133908   0.78938699   -1.0240038   0.12998407    11438.086     1000 
  552000    0.5556016    -1.813198   0.83256899  -0.98062897   0.14525411    11399.782     1000 
  554000   0.53773087   -1.7846598   0.80578971  -0.97887009   0.13040442    11378.369     1000 
  556000    0.5325355   -1.7818649   0.79800445  -0.98386041   0.12020454    11464.595     1000 
  558000   0.54721229   -1.7920081   0.81999762  -0.97201052   0.13371276    11375.552     1000 
  560000     0.571687   -1.7714743   0.85667297  -0.91480134   0.13342753    11669.337     1000 
  562000    0.5708584   -1.8295922   0.85543132  -0.97416089   0.12979458    11491.716     1000 
  564000   0.54791458   -1.7585998      0.82105  -0.93754975   0.12980977    11350.109     1000 
  566000   0.55378274   -1.7826599   0.82984344  -0.95281642   0.14710229    11270.127     1000 
  568000   0.55932295   -1.8204093   0.83814544  -0.98226382   0.13414743    11447.376     1000 
  570000   0.54032993   -1.8037883    0.8096844  -0.99410391   0.13284552    11474.173     1000 
  572000   0.55988045   -1.8049088   0.83898085  -0.96592794    0.1300269    11380.762     1000 
  574000   0.54575192   -1.8420166   0.81780926   -1.0242073   0.12426616    11574.763     1000 
  576000   0.55415414   -1.7735375   0.83039999  -0.94313749   0.12344559    11436.874     1000 
  578000   0.56533906    -1.774326   0.84716058  -0.92716545   0.13429902    11295.849     1000 
  580000   0.55036849   -1.8180041   0.82472719  -0.99327691   0.10713158    11736.991     1000 
  582000   0.55788729   -1.7661695    0.8359941   -0.9301754   0.13370499    11498.817     1000 
  584000   0.54610069   -1.7846916   0.81833188   -0.9663597    0.1270955    11352.967     1000 
  586000   0.52422992   -1.7672872   0.78555853  -0.98172871   0.12724199    11431.556     1000 
  588000   0.54092129   -1.7850792   0.81057056  -0.97450868   0.11751779     11727.23     1000 
  590000   0.56054712   -1.7225965   0.83997986  -0.88261667   0.15335175    11246.858     1000 
  592000   0.53894506     -1.79235   0.80760917  -0.98474082   0.13526451    11392.873     1000 
  594000    0.5635181    -1.813307   0.84443188  -0.96887508   0.12581798    11454.837     1000 
  596000   0.57032783   -1.8067435   0.85463625  -0.95210728   0.12551394    11528.535     1000 
  598000   0.55107828   -1.8251329    0.8257908  -0.99934209   0.12449072     11481.36     1000 
  600000   0.54228093   -1.7821788   0.81260797  -0.96957088   0.12511951    11525.703     1000 
  602000   0.52679391   -1.7790799   0.78940068  -0.98967924   0.12266394    11534.886     1000 
  604000   0.55695141   -1.7357876   0.83459168  -0.90119593   0.13108408     11371.58     1000 
  606000    0.5570969   -1.7773455   0.83480971  -0.94253574   0.12666767    11431.255     1000 
  608000   0.55555037   -1.8486022   0.83249223     -1.01611    0.1156903     11700.89     1000 
  610000    0.5652865   -1.7485352   0.84708182  -0.90145334   0.13254595    11409.162     1000 
  612000   0.55287072   -1.8298076   0.82847678   -1.0013308   0.13061761    11449.207     1000 
  614000   0.55827334   -1.7349775    0.8365726  -0.89840493   0.12700476    11467.339     1000 
  616000     0.547264   -1.8291851   0.82007511     -1.00911   0.12920906    11431.176     1000 
  618000   0.53601525   -1.7456218   0.80321885  -0.94240298   0.13266396    11278.317     1000 
  620000   0.57613496   -1.8319865   0.86333824  -0.96864825   0.12382334    11567.258     1000 
  622000   0.54525413   -1.7838037   0.81706332  -0.96674037   0.12349975    11475.337     1000 
  624000   0.55829295   -1.7453329   0.83660198  -0.90873091   0.12575599    11470.682     1000 
  626000   0.56489418   -1.7504537   0.84649393  -0.90395981   0.13592245    11379.641     1000 
  628000   0.53592399   -1.7846958    0.8030821  -0.98161373   0.12192913    11381.828     1000 
  630000   0.54328421   -1.7468225   0.81411139   -0.9327111   0.13328397    11243.306     1000 
  632000   0.55229756   -1.7401409   0.82761789  -0.91252302   0.13092116    11463.131     1000 
  634000   0.55281767   -1.7864195   0.82839729  -0.95802221   0.13263497    11376.208     1000 
  636000   0.56957741   -1.8255622   0.85351175   -0.9720504   0.12782076    11376.709     1000 
  638000   0.55218069   -1.7783927   0.82744276  -0.95094999   0.13710849    11342.987     1000 
  640000   0.54667861    -1.837103    0.8191979   -1.0179051   0.14687499     11321.96     1000 
  642000   0.54256987   -1.7576714   0.81304096  -0.94463044   0.12811702    11244.017     1000 
  644000   0.55240277   -1.8015352   0.82777555   -0.9737596   0.13146078    11377.077     1000 
  646000    0.5383296   -1.7853052    0.8066869  -0.97861834   0.12682395    11441.437     1000 
  648000    0.5811476   -1.7663996   0.87084968  -0.89554997   0.12238958    11466.351     1000 
  650000   0.54966776   -1.7787488   0.82367714  -0.95507169   0.14088504    11391.768     1000 
  652000   0.56557129   -1.8267916   0.84750858  -0.97928306    0.1297314    11356.729     1000 
  654000   0.57640792    -1.800753   0.86374727  -0.93700574   0.13655331    11379.223     1000 
  656000   0.56179528   -1.7553408   0.84185022  -0.91349055    0.1211221    11408.951     1000 
  658000   0.54461987   -1.8075703   0.81611288  -0.99145746   0.12975594    11495.502     1000 
  660000   0.55413304   -1.8321972   0.83036836   -1.0018289    0.1126011    11575.282     1000 
  662000    0.5599562   -1.8331944   0.83909437  -0.99410008   0.13430964    11502.895     1000 
  664000   0.55614972   -1.7957967   0.83339036  -0.96240632   0.12008526     11468.13     1000 
  666000    0.5321208   -1.7747241   0.79738303  -0.97734108   0.12312526    11471.342     1000 
  668000   0.56544086   -1.7860657   0.84731313  -0.93875262   0.14355182    11352.304     1000 
  670000   0.56358602   -1.7927163   0.84453366  -0.94818263   0.13244118    11323.675     1000 
  672000   0.54037418   -1.7424388   0.80975071  -0.93268812   0.12398096    11571.569     1000 
  674000   0.57259135   -1.7188324   0.85802814  -0.86080422   0.13336068    11400.688     1000 
  676000   0.54178837   -1.8079794   0.81186988  -0.99610952   0.12826804    11456.783     1000 
  678000    0.5554027   -1.7806555   0.83227094  -0.94838458   0.11922354    11360.539     1000 
  680000   0.56177114   -1.7927831   0.84181405    -0.950969   0.13494215    11532.976     1000 
  682000   0.56535766   -1.7997016   0.84718845  -0.95251316   0.13619602    11576.119     1000 
  684000   0.55683289   -1.8047339   0.83441409  -0.97031978   0.13715202    11395.627     1000 
  686000   0.53919606   -1.7745248    0.8079853  -0.96653951   0.12162554    11508.107     1000 
  688000   0.50840237   -1.7960655   0.76184095   -1.0342245   0.12512502    11401.593     1000 
  690000    0.5421225    -1.760691   0.81237057  -0.94832047   0.13824158    11240.347     1000 
  692000   0.53149643   -1.8065126    0.7964474   -1.0100652    0.1236466        11334     1000 
  694000   0.55180251   -1.7890329   0.82687607  -0.96215681   0.12990669    11417.979     1000 
  696000   0.56140455   -1.7941372   0.84126472  -0.95287245   0.12322989    11372.935     1000 
  698000   0.54441919   -1.7468326   0.81581216   -0.9310204   0.12773479    11426.936     1000 
  700000   0.54949687   -1.7877812   0.82342105  -0.96436014   0.11938519    11556.247     1000 
  702000   0.56273962   -1.8050737   0.84326532  -0.96180834   0.12542035     11524.69     1000 
  704000   0.52583677   -1.7871018    0.7879664   -0.9991354   0.13836775    11504.704     1000 
  706000   0.51449301   -1.8079584   0.77096777   -1.0369907   0.12233989    11477.896     1000 
  708000   0.58208216   -1.7702436   0.87225012   -0.8979935   0.13499029    11418.337     1000 
  710000   0.52823325   -1.7741143   0.79155752  -0.98255682   0.12572534    11615.345     1000 
  712000   0.56742622   -1.8294437   0.85028819  -0.97915547   0.12787793    11445.858     1000 
  714000   0.54204882   -1.8092139   0.81226015  -0.99695375   0.13133107    11418.591     1000 
  716000   0.56054023   -1.7446996   0.83996953   -0.9047301   0.12497422    11562.929     1000 
  718000   0.55887449   -1.8269348   0.83747342  -0.98946142   0.13264751    11420.075     1000 
  720000   0.53595122   -1.7455338   0.80312291  -0.94241087   0.13844156    11379.067     1000 
  722000   0.54456809   -1.7976668   0.81603529  -0.98163151   0.13184551    11487.595     1000 
  724000   0.54684223   -1.7781224   0.81944308  -0.95867932   0.13354173    11435.201     1000 
  726000   0.54859811   -1.7832548   0.82207427  -0.96118054   0.13174013    11410.275     1000 
  728000   0.56048618   -1.8145148   0.83988855  -0.97462623   0.12738625    11641.591     1000 
  730000   0.53910608   -1.7713698   0.80785046  -0.96351934   0.13661922    11421.814     1000 
  732000   0.53446497   -1.8241791   0.80089575   -1.0232834   0.11636724    11562.788     1000 
  734000   0.54827166   -1.8106093   0.82158508  -0.98902424    0.1273549        11625     1000 
  736000   0.53047415   -1.7594026   0.79491551  -0.96448714   0.13020583     11427.89     1000 
  738000   0.57038286   -1.7360808   0.85471871  -0.88136213    0.1358435    11330.987     1000 
  740000   0.55760057   -1.8014917   0.83556445  -0.96592727   0.12854128    11426.663     1000 
  742000   0.56329677   -1.7127288   0.84410021   -0.8686286   0.13312952    11287.151     1000 
  744000   0.55339855   -1.8250546   0.82926773  -0.99578686    0.1239829    11503.884     1000 
  746000   0.54240087   -1.7695974   0.81278771  -0.95680968   0.13217898    11447.271     1000 
  748000   0.52419818   -1.8043424   0.78551097   -1.0188314   0.12036492    11448.734     1000 
  750000   0.54411766   -1.7383277   0.81536031  -0.92296738   0.12831511    11293.756     1000 
  752000   0.55167543   -1.7761689   0.82668563   -0.9494833   0.12845927    11485.149     1000 
  754000   0.52998411   -1.7445006   0.79418119  -0.95031943   0.12964429    11369.857     1000 
  756000   0.56683516   -1.7631865   0.84940248  -0.91378404   0.14390836    11326.392     1000 
  758000   0.55543225   -1.7277733   0.83231523  -0.89545805   0.14207839    11209.255     1000 
  760000   0.54225735    -1.838742   0.81257264   -1.0261694    0.1322582    11355.591     1000 
  762000   0.50500586    -1.782445   0.75675128   -1.0256938   0.12545636    11369.785     1000 
  764000   0.55345715   -1.8271206   0.82935554  -0.99776504   0.12410304    11599.101     1000 
  766000   0.54845274   -1.7884242   0.82185643  -0.96656774   0.12699845     11412.21     1000 
  768000   0.55526394   -1.7945753   0.83206301  -0.96251225   0.13158656     11385.66     1000 
  770000   0.54300489   -1.7791845   0.81369283  -0.96549164   0.13251144    11376.448     1000 
  772000   0.54881868   -1.8157187   0.82240479  -0.99331388   0.12296784    11435.304     1000 
  774000    0.5425426   -1.8145827   0.81300009   -1.0015826   0.12329781    11426.308     1000 
  776000   0.55469437   -1.7914152   0.83120951  -0.96020566   0.12313738      11425.6     1000 
  778000   0.53559897   -1.7954204   0.80259506  -0.99282535   0.13755467    11413.075     1000 
  780000    0.5718375   -1.7884088    0.8568985  -0.93151031   0.12250573    11546.685     1000 
  782000   0.52867966   -1.7730504   0.79222646  -0.98082393    0.1440664    11326.367     1000 
  784000   0.54808615   -1.8389384    0.8213071   -1.0176313    0.1261027    11442.063     1000 
  786000   0.56232468   -1.7540788   0.84264354  -0.91143525   0.14250027    11172.959     1000 
  788000   0.55222078   -1.8099068   0.82750284  -0.98240397   0.13564062    11450.027     1000 
  790000   0.56708158   -1.7662696   0.84977174  -0.91649782   0.14350729    11276.936     1000 
  792000   0.52393898   -1.7970495   0.78512256   -1.0119269   0.12773725    11598.724     1000 
  794000   0.54801109   -1.7923492   0.82119462  -0.97115456   0.12163774     11550.58     1000 
  796000   0.54952371   -1.7536032   0.82346128  -0.93014193   0.13010257    11446.876     1000 
  798000   0.53384182     -1.80492   0.79996196   -1.0049581   0.13986624    11471.276     1000 
  800000   0.56393314    -1.797385   0.84505381  -0.95233123   0.14725063    11214.629     1000 
  802000   0.52811204   -1.7567599   0.79137589  -0.96538402   0.12139284    11462.907     1000 
  804000   0.55686005   -1.7822535   0.83445478  -0.94779873   0.12249136    11461.335     1000 
  806000    0.5387147   -1.8227251   0.80726397   -1.0154611   0.12338768    11619.873     1000 
  808000   0.53279849    -1.759891   0.79839854  -0.96149245   0.12782915    11441.136     1000 
  810000    0.5320606   -1.7738687   0.79729281   -0.9765759   0.12182588    11408.509     1000 
  812000   0.57172087   -1.7348165   0.85672372  -0.87809278   0.12529928    11462.773     1000 
  814000   0.56603336   -1.7888461     0.848201  -0.94064512   0.14040871    11358.255     1000 
  816000   0.54222087   -1.8323161   0.81251797   -1.0197982   0.12931355    11517.049     1000 
  818000   0.53103118   -1.7555328   0.79575023  -0.95978256   0.13429413    11342.396     1000 
  820000   0.56035566   -1.8111187   0.83969295  -0.97142572   0.12991038    11513.976     1000 
  822000   0.55338438   -1.7862616    0.8292465  -0.95701506   0.13894333    11234.391     1000 
  824000   0.54927539    -1.799669   0.82308918  -0.97657984   0.11868944    11513.414     1000 
  826000   0.52994131   -1.8128374   0.79411706   -1.0187204   0.12287208    11542.333     1000 
  828000   0.53545576     -1.82877   0.80238045   -1.0263896   0.12376611     11551.74     1000 
  830000   0.54118688   -1.8145904   0.81096854   -1.0036219   0.13090598    11513.867     1000 
  832000   0.52578768   -1.7862325   0.78789284  -0.99833961   0.12569843    11483.148     1000 
  834000   0.56154692   -1.7718121   0.84147805  -0.93033402   0.12372752    11613.905     1000 
  836000    0.5385852   -1.7769309   0.80706992  -0.96986101   0.12549977    11345.211     1000 
  838000   0.53631649     -1.81517   0.80367026   -1.0114997    0.1205715    11566.319     1000 
  840000     0.544836   -1.7985855   0.81643675  -0.98214873   0.12520022    11519.333     1000 
  842000   0.55358176   -1.8103874   0.82954227   -0.9808451   0.12360675    11543.691     1000 
  844000   0.54401949     -1.77534   0.81521321  -0.96012684   0.12176699    11457.617     1000 
  846000   0.55949399   -1.7581786   0.83840175  -0.91977687   0.11232591    11607.813     1000 
  848000    0.5538789   -1.7407227   0.82998753   -0.9107352   0.13778359    11347.511     1000 
  850000   0.54572014   -1.8193695   0.81776162   -1.0016079   0.12457934    11443.279     1000 
  852000   0.53319182   -1.7800398   0.79898794  -0.98105181   0.12672252    11440.536     1000 
  854000   0.57202847   -1.8074801   0.85718466  -0.95029544   0.14218934    11259.642     1000 
  856000    0.5486563     -1.81156   0.82216146  -0.98939851   0.12033978    11470.751     1000 
  858000   0.54277884   -1.7660718    0.8133541  -0.95271767   0.13773531     11405.32     1000 
  860000    0.5511782     -1.82949   0.82594053   -1.0035494   0.13198572    11471.929     1000 
  862000   0.56047243   -1.8028398   0.83986794  -0.96297182   0.12706175    11424.574     1000 
  864000   0.55014305   -1.7858709   0.82438936  -0.96148149    0.1201909    11515.761     1000 
  866000   0.54474607   -1.8084771   0.81630199  -0.99217509   0.11950797    11490.505     1000 
  868000   0.55268358    -1.814896   0.82819635  -0.98669966   0.13311704    11460.913     1000 
  870000   0.54918484   -1.8274982   0.82295348   -1.0045447    0.1244303    11522.397     1000 
  872000   0.53564242   -1.7954476   0.80266017  -0.99278746   0.13326998    11488.654     1000 
  874000   0.54738549   -1.8182913   0.82025716  -0.99803411   0.13347776    11463.439     1000 
  876000   0.57252993   -1.7841273   0.85793609   -0.9261912   0.12222964    11661.877     1000 
  878000   0.56541297   -1.7920949   0.84727133   -0.9448236    0.1395198    11423.485     1000 
  880000   0.54620844   -1.7777783   0.81849335  -0.95928499   0.12486793    11432.125     1000 
  882000   0.55122341    -1.768178   0.82600829  -0.94216976   0.12589028    11531.405     1000 
  884000   0.55037138   -1.8509444   0.82473151   -1.0262129   0.12689826    11509.554     1000 
  886000   0.56192542   -1.7945406   0.84204524  -0.95249535   0.12489288    11525.665     1000 
  888000   0.55227606   -1.7778787   0.82758567  -0.95029303   0.12469396    11469.154     1000 
  890000   0.53391063   -1.7737399   0.80006508  -0.97367483   0.12720089    11408.422     1000 
  892000   0.54535111   -1.7939905   0.81720864  -0.97678184   0.12874371    11388.664     1000 
  894000   0.55585353   -1.7982201   0.83294651  -0.96527362   0.12635441    11547.607     1000 
  896000   0.54682809    -1.811979   0.81942189  -0.99255712   0.12312666    11397.724     1000 
  898000   0.54262575   -1.7398269   0.81312468  -0.92670223    0.1379643    11401.966     1000 
  900000    0.5500337   -1.8078843    0.8242255  -0.98365878   0.13223841    11370.095     1000 
  902000   0.57283949   -1.7440548   0.85839997  -0.88565478   0.14531114    11287.967     1000 
  904000   0.56419778   -1.7479281   0.84545037  -0.90247777    0.1297211    11447.148     1000 
  906000   0.54100706   -1.7163444   0.81069908  -0.90564528   0.14615365    11182.754     1000 
  908000   0.54475882   -1.8084265   0.81632109  -0.99210537   0.13307641    11362.741     1000 
  910000   0.53995107   -1.7772582   0.80911668  -0.96814156   0.12340834    11560.055     1000 
  912000   0.55194519   -1.8449145   0.82708987   -1.0178246   0.11025212    11706.017     1000 
  914000   0.54548293   -1.7522685   0.81740617  -0.93486229   0.13248106    11340.854     1000 
  916000   0.53947384   -1.7614355   0.80840155  -0.95303397    0.1261718    11381.667     1000 
  918000   0.55335122   -1.7835157    0.8291968  -0.95431888   0.12143435    11448.406     1000 
  920000   0.54165879   -1.7899681   0.81167569  -0.97829237   0.13181873    11487.417     1000 
  922000   0.53683082   -1.7376692   0.80444099   -0.9332282   0.14686196    11300.186     1000 
  924000   0.53579153   -1.7847994   0.80288361  -0.98191577   0.12202998    11302.273     1000 
  926000   0.57458821   -1.8175034   0.86102043  -0.95648292   0.13800763    11324.873     1000 
  928000   0.54708776   -1.7721035     0.819811  -0.95229245   0.14003622     11256.23     1000 
  930000   0.56466389   -1.7838201   0.84614884  -0.93767125   0.13403448    11378.977     1000 
  932000   0.55123873   -1.7943804   0.82603124  -0.96834921   0.12903011    11505.789     1000 
  934000   0.56448536   -1.8018797   0.84588132  -0.95599835   0.13798818    11338.607     1000 
  936000   0.54335077   -1.8451312   0.81421113     -1.03092    0.1409983    11329.448     1000 
  938000    0.5549426   -1.7810145   0.83158149  -0.94943306   0.12840883    11420.561     1000 
  940000   0.54780373   -1.7714257   0.82088388   -0.9505418   0.14317561    11268.711     1000 
  942000   0.55907686   -1.7988628   0.83777668  -0.96108614   0.14467687    11349.931     1000 
  944000   0.55186288   -1.7736406   0.82696652  -0.94667406   0.12832943    11379.509     1000 
  946000   0.54463783   -1.7570345   0.81613978  -0.94089472   0.12081792    11411.099     1000 
  948000   0.56043205    -1.821533   0.83980743  -0.98172557   0.11770989    11417.441     1000 
  950000   0.55290001   -1.7827713   0.82852067   -0.9542506    0.1343936    11327.277     1000 
  952000   0.55729305    -1.769924   0.83510363  -0.93482038   0.12553516    11542.644     1000 
  954000   0.56392083   -1.7273626   0.84503536  -0.88232723   0.12826966    11461.433     1000 
  956000   0.54143818   -1.7666849   0.81134511  -0.95533981   0.13402904    11417.381     1000 
  958000   0.54576659   -1.7894065   0.81783123   -0.9715753   0.12098966    11502.323     1000 
  960000   0.54506444   -1.7373211   0.81677906  -0.92054202   0.13812294    11378.347     1000 
  962000    0.5354952   -1.7986789   0.80243956  -0.99623937   0.13337978    11344.902     1000 
  964000   0.54541824   -1.7810488   0.81730923  -0.96373962   0.13945194    11168.084     1000 
  966000   0.55580218   -1.7591437   0.83286957  -0.92627413   0.13681013    11438.373     1000 
  968000   0.54336994   -1.7824746   0.81423986  -0.96823475   0.11486045    11389.365     1000 
  970000   0.53936682    -1.764977   0.80824119  -0.95673582   0.13287661    11305.847     1000 
  972000   0.54769883   -1.7811686   0.82072669  -0.96044187   0.13161442    11332.239     1000 
  974000   0.53103991   -1.8053024   0.79576331   -1.0095391   0.13475663    11398.366     1000 
  976000   0.54048394   -1.8125305   0.80991518   -1.0026153   0.12398186    11540.304     1000 
  978000   0.56122932   -1.7909265   0.84100213  -0.94992438   0.13476011    11228.692     1000 
  980000   0.54851161    -1.778328   0.82194465  -0.95638335   0.12765672      11409.5     1000 
  982000   0.56587575   -1.8112552   0.84796482  -0.96329035    0.1302156    11408.777     1000 
  984000   0.57030039   -1.7651249   0.85459514  -0.91052975   0.12306175    11498.617     1000 
  986000   0.55976807   -1.8235996   0.83881246  -0.98478712   0.12613252    11653.307     1000 
  988000   0.55101403   -1.8107921   0.82569453  -0.98509762   0.12882825    11414.681     1000 
  990000    0.5225193   -1.7943967   0.78299517   -1.0114015   0.11330941     11424.24     1000 
  992000   0.54744096   -1.7872938   0.82034028  -0.96695352   0.13339619    11326.956     1000 
  994000   0.54088885   -1.7334112   0.81052194  -0.92288922   0.12684234    11392.852     1000 
  996000   0.54481315   -1.8436753   0.81640251   -1.0272728   0.12591034    11334.178     1000 
  998000   0.55496742   -1.7666764   0.83161868  -0.93505773   0.12472883    11372.401     1000 
 1000000   0.52710239   -1.7927467   0.78986293   -1.0028838   0.12647878    11355.979     1000 
 1002000    0.5457646   -1.7586214   0.81782825  -0.94079318   0.14078253    11277.908     1000 
 1004000   0.55377156   -1.7688219   0.82982668  -0.93899519   0.13149209    11325.145     1000 
 1006000   0.54305217   -1.7350115   0.81376367  -0.92124784   0.13564454    11351.164     1000 
 1008000   0.55723983   -1.8140794   0.83502388  -0.97905553   0.11976608    11636.699     1000 
 1010000   0.56237721   -1.7796352   0.84272225  -0.93691296   0.13582727    11342.161     1000 
 1012000   0.54838615   -1.8072906   0.82175665  -0.98553396   0.13067409    11413.336     1000 
 1014000   0.57707631   -1.7989124   0.86474886  -0.93416357   0.12852305    11439.005     1000 
 1016000   0.56041833   -1.7753014   0.83978686  -0.93551451   0.14449787      11267.3     1000 
 1018000    0.5692492   -1.7533655   0.85301993  -0.90034562   0.13333296    11406.858     1000 
 1020000   0.55004436   -1.7976278   0.82424147  -0.97338636   0.12568974    11553.861     1000 
 1022000   0.53756199   -1.7704818   0.80553664  -0.96494518   0.14150864     11381.78     1000 
 1024000   0.56219193   -1.7966399   0.84244461   -0.9541953   0.14375617    11354.613     1000 
 1026000   0.53855574   -1.7861853   0.80702578  -0.97915957   0.12838894    11323.681     1000 
 1028000   0.54355856   -1.7977003   0.81452251   -0.9831778   0.12898685     11402.07     1000 
 1030000   0.55123994   -1.7898188   0.82603305  -0.96378576   0.13530622    11389.162     1000 
 1032000   0.55571761   -1.7496968   0.83274283  -0.91695396    0.1263049     11470.89     1000 
 1034000   0.55270335   -1.8092632   0.82822597  -0.98103727   0.12667917    11577.323     1000 
 1036000   0.52587809   -1.8124704   0.78802832   -1.0244421    0.1281972    11523.606     1000 
 1038000   0.54651316   -1.7691959   0.81894997   -0.9502459   0.13256994    11528.788     1000 
 1040000   0.54838604    -1.776986   0.82175648  -0.95522953   0.11998558    11557.531     1000 
 1042000   0.57682736   -1.7958543    0.8643758   -0.9314785   0.13592441    11386.803     1000 
 1044000   0.52826029   -1.7709097   0.79159805  -0.97931162   0.13806206    11193.807     1000 
 1046000    0.5461398   -1.7704453   0.81839049  -0.95205484    0.1196187     11464.86     1000 
 1048000   0.54609528   -1.7447643   0.81832377  -0.92644055   0.13012118    11385.694     1000 
 1050000   0.54616598   -1.7791928   0.81842973  -0.96076308   0.13914318    11388.166     1000 
 1052000   0.54474246   -1.8374287   0.81629658   -1.0211321   0.11846537    11678.898     1000 
 1054000   0.53328773   -1.7984655   0.79913166  -0.99933385   0.12411333    11591.613     1000 
 1056000   0.55097548   -1.7657837   0.82563675  -0.94014691   0.12272067    11461.863     1000 
 1058000   0.54548863   -1.7905076   0.81741472  -0.97309287    0.1314101    11602.735     1000 
 1060000   0.54745589   -1.8085351   0.82036265   -0.9881724    0.1327793    11257.465     1000 
 1062000   0.54972287   -1.7992415   0.82375972  -0.97548183     0.129388    11449.275     1000 
 1064000   0.56320915   -1.7961572   0.84396892  -0.95218826   0.13578358    11508.873     1000 
 1066000   0.55916118   -1.8245871   0.83790303  -0.98668406    0.1199623    11584.283     1000 
 1068000   0.55937444   -1.8150386   0.83822259  -0.97681602   0.13176238    11514.509     1000 
 1070000   0.54749913   -1.8131848   0.82042745  -0.99275736    0.1278787    11377.125     1000 
 1072000    0.5467465   -1.7690308   0.81929963   -0.9497312   0.13249288    11402.054     1000 
 1074000   0.53483364   -1.7985935   0.80144822   -0.9971453   0.12430918    11332.919     1000 
 1076000   0.54764777   -1.7279819   0.82065019  -0.90733174   0.13467946    11362.614     1000 
 1078000   0.57064953   -1.7364652   0.85511832  -0.88134692   0.15234321    11141.045     1000 
 1080000   0.54842745   -1.7501877   0.82181853   -0.9283692   0.12979205      11506.7     1000 
 1082000   0.56386411   -1.8032534   0.84495037  -0.95830302   0.12941419    11395.554     1000 
 1084000   0.56768396   -1.7909711   0.85067442  -0.94029672   0.13454605    11454.399     1000 
 1086000   0.53785098   -1.7466581   0.80596969  -0.94068838   0.13157047     11256.68     1000 
 1088000   0.55505582   -1.7866915   0.83175115  -0.95494037   0.14080976    11279.426     1000 
 1090000   0.55534556   -1.7896371   0.83218533  -0.95745181   0.13267515    11355.748     1000 
 1092000   0.54413673   -1.7795299   0.81538888  -0.96414101   0.12548011    11510.085     1000 
 1094000   0.54245047   -1.8172789   0.81286202   -1.0044169   0.13830199    11366.275     1000 
 1096000   0.52872968   -1.7068665   0.79230142  -0.91456512   0.13588568    11270.702     1000 
 1098000   0.56696483   -1.7897727    0.8495968  -0.94017592   0.13298851    11479.119     1000 
 1100000   0.55261376   -1.8169709   0.82809172  -0.98887914   0.13152208    11508.443     1000 
 1102000     0.547752     -1.80476   0.82080638  -0.98395359   0.11039638    11714.616     1000 
 1104000   0.53542234   -1.8124159   0.80233037   -1.0100856   0.12503823    11455.725     1000 
 1106000   0.55749843   -1.7942054    0.8354114  -0.95879401   0.13380982    11482.203     1000 
 1108000   0.55967649   -1.7483138   0.83867522  -0.90963857   0.13778523    11239.134     1000 
 1110000   0.53268944   -1.8418418   0.79823513   -1.0436067   0.13225049    11478.522     1000 
 1112000   0.55478888   -1.7248995   0.83135114  -0.89354837   0.12957365    11249.366     1000 
 1114000    0.5586955   -1.7681061   0.83720521   -0.9309009   0.12639395    11384.422     1000 
 1116000   0.55882982   -1.7655415   0.83740649  -0.92813502   0.12064799    11416.952     1000 
 1118000   0.55277337   -1.8409786   0.82833089   -1.0126477   0.14034273    11464.747     1000 
 1120000   0.56520139    -1.795097   0.84695429  -0.94814269   0.13439764    11360.595     1000 
 1122000   0.55502306   -1.7714219   0.83170205  -0.93971987   0.14150688    11153.011     1000 
 1124000   0.56065687   -1.7633774   0.84014431   -0.9232331   0.13308483    11392.078     1000 
 1126000   0.55899788   -1.7686108   0.83765832  -0.93095248    0.1301696    11380.484     1000 
 1128000   0.51968837    -1.848955   0.77875303    -1.070202   0.12152903    11607.876     1000 
 1130000   0.52792593   -1.8038726     0.791097   -1.0127756   0.13231893    11360.208     1000 
 1132000    0.5515188   -1.7502244   0.82645092  -0.92377353   0.14771085    11144.429     1000 
 1134000   0.55832894    -1.777537   0.83665592  -0.94088107   0.12583441     11536.25     1000 
 1136000   0.54293853   -1.8440575   0.81359339   -1.0304641   0.11848213    11638.302     1000 
 1138000   0.55671143    -1.801459   0.83423208  -0.96722695   0.11874395    11587.489     1000 
 1140000    0.5257306    -1.846437    0.7878073   -1.0586297   0.12113201    11608.429     1000 
 1142000   0.55429272   -1.6975612   0.83060765  -0.86695358   0.15311503    11156.053     1000 
 1144000   0.54953038   -1.8536361   0.82347127   -1.0301648   0.12007187    11574.121     1000 
 1146000    0.5639605   -1.7770287   0.84509482  -0.93193389   0.13382012     11428.53     1000 
 1148000   0.55917792   -1.7935227   0.83792811  -0.95559461   0.14618773    11294.159     1000 
 1150000    0.5623257   -1.7595552   0.84264506  -0.91691015   0.13196844    11229.025     1000 
 1152000   0.57647818   -1.7096958   0.86385256  -0.84584321   0.13612321    11385.882     1000 
 1154000   0.55400948   -1.7667418    0.8301832  -0.93655855    0.1283456    11296.042     1000 
 1156000   0.53379086   -1.7922141   0.79988561  -0.99232853   0.13314596    11369.479     1000 
 1158000   0.55210417   -1.7781028    0.8273281  -0.95077467   0.11906221    11572.969     1000 
 1160000   0.57420366   -1.8013965   0.86044419  -0.94095228   0.13443413    11488.681     1000 
 1162000   0.55911965   -1.7448847   0.83784079  -0.90704392   0.10774821    11668.987     1000 
 1164000   0.57884307   -1.8199446   0.86739634   -0.9525483   0.14561117     11304.59     1000 
 1166000   0.56251119   -1.8142323   0.84292302   -0.9713093   0.13491898    11390.288     1000 
 1168000   0.54456496   -1.8061683   0.81603059  -0.99013774   0.13080892    11419.094     1000 
 1170000   0.57130403   -1.8453364   0.85609909  -0.98923731   0.12178947    11616.309     1000 
 1172000    0.5453173   -1.7852133   0.81715798  -0.96805532   0.11705762    11481.644     1000 
 1174000   0.53797916   -1.7899394   0.80616178  -0.98377767   0.12823416    11329.961     1000 
 1176000   0.54816531   -1.8459524   0.82142571   -1.0245267   0.12574265    11494.889     1000 
 1178000   0.53807439   -1.7578282   0.80630447  -0.95152373   0.12270672     11388.86     1000 
 1180000   0.53336866   -1.7519119   0.79925294  -0.95265893   0.12751947    11423.099     1000 
 1182000    0.5568284   -1.7542969   0.83440735  -0.91988952   0.13866238    11309.633     1000 
 1184000   0.54764868     -1.79533   0.82065155  -0.97467846   0.13413005    11292.092     1000 
 1186000   0.53492096   -1.7941346   0.80157905  -0.99255553   0.12944608    11448.482     1000 
 1188000   0.55165511   -1.7701991   0.82665518  -0.94354397   0.13428641    11380.351     1000 
 1190000   0.56278593   -1.8048539   0.84333471  -0.96151918   0.13641554    11441.678     1000 
 1192000   0.53389128    -1.831266   0.80003609   -1.0312299    0.1378074    11445.974     1000 
 1194000   0.54691349   -1.7886189   0.81954987  -0.96906905   0.11009634    11534.008     1000 
 1196000   0.55724892   -1.7989618    0.8350375  -0.96392432    0.1398255    11298.626     1000 
 1198000   0.55458832   -1.7632924   0.83105059   -0.9322418   0.14068445    11229.947     1000 
 1200000   0.54843863   -1.7967066   0.82183529  -0.97487127   0.11777661    11435.431     1000 
 1202000   0.52785462   -1.7800276   0.79099015  -0.98903741   0.13325881    11238.024     1000 
 1204000    0.5508613   -1.7651815   0.82546565  -0.93971587   0.12852266    11385.075     1000 
 1206000   0.55850451   -1.7670678     0.836919  -0.93014879   0.14658881    11232.295     1000 
 1208000   0.56645069   -1.7938375   0.84882636  -0.94501114   0.12648473    11398.672     1000 
 1210000   0.55528806   -1.7521422   0.83209915  -0.92004302   0.12188562    11419.069     1000 
 1212000    0.5576741   -1.7685297   0.83567465  -0.93285502     0.130868    11407.466     1000 
 1214000   0.57012456   -1.8160152   0.85433166  -0.96168351    0.1216681    11619.294     1000 
 1216000   0.55412025   -1.7949185    0.8303492  -0.96456932   0.13255895    11457.593     1000 
 1218000   0.54777611   -1.7172866    0.8208425  -0.89644413   0.11482169    11515.987     1000 
 1220000   0.54055176   -1.8212811   0.81001681   -1.0112643   0.11670026    11662.293     1000 
 1222000   0.53891344   -1.8146197   0.80756179   -1.0070579   0.13485596    11351.383     1000 
 1224000   0.51310467   -1.8294832   0.76888734   -1.0605959   0.12311116     11553.29     1000 
 1226000   0.54831635   -1.8905298   0.82165204   -1.0688778   0.12210287    11646.097     1000 
 1228000   0.53025994    -1.823596   0.79459451   -1.0290015   0.13238355    11494.831     1000 
 1230000   0.53740078   -1.7308315   0.80529506  -0.92553647   0.12837417    11312.428     1000 
 1232000   0.56575771   -1.7743846   0.84778793  -0.92659664   0.13006453    11442.794     1000 
 1234000   0.56054749   -1.8100146   0.83998041  -0.97003415   0.12920467    11467.059     1000 
 1236000   0.55166565   -1.7670617   0.82667097  -0.94039071   0.12320701    11501.438     1000 
 1238000   0.54201393    -1.779943   0.81220787  -0.96773512   0.13776577    11386.127     1000 
 1240000   0.56795698   -1.7849351   0.85108354  -0.93385155   0.14659319     11310.49     1000 
 1242000   0.56159573   -1.7858535   0.84155121  -0.94430228   0.11957503    11510.875     1000 
 1244000   0.54223001   -1.7610983   0.81253167   -0.9485666    0.1207371    11609.216     1000 
 1246000   0.53175134    -1.836226   0.79682939   -1.0393966   0.12790248    11492.669     1000 
 1248000   0.55840102   -1.7907407   0.83676392  -0.95397678   0.13611082    11391.571     1000 
 1250000   0.52659432   -1.8148203   0.78910159   -1.0257187    0.1282627    11490.309     1000 
 1252000   0.56091818   -1.7591019    0.8405359  -0.91856598   0.13598517    11384.768     1000 
 1254000   0.52408024   -1.7863656   0.78533423   -1.0010314   0.12456826    11343.875     1000 
 1256000   0.54960495   -1.7723492   0.82358301  -0.94876619   0.13754165    11455.149     1000 
 1258000   0.54206671   -1.7372774   0.81228696  -0.92499048   0.13291185    11568.677     1000 
 1260000   0.57221866   -1.7455915   0.85746966  -0.88812184   0.12497891    11534.568     1000 
 1262000   0.54677784   -1.7808451    0.8193466  -0.96149854   0.12592559    11502.735     1000 
 1264000   0.54749939   -1.7708444   0.82042783  -0.95041661   0.13211779    11353.579     1000 
 1266000   0.55363655   -1.7472123   0.82962438  -0.91758795   0.12345675     11486.36     1000 
 1268000   0.57090727   -1.7985132   0.85550455  -0.94300862   0.13874938    11268.831     1000 
 1270000   0.54972764   -1.7779711   0.82376686  -0.95420424   0.12636721    11433.588     1000 
 1272000   0.55652872   -1.8108978   0.83395829  -0.97693951   0.13029734     11477.17     1000 
 1274000   0.56421825   -1.8245472   0.84548105  -0.97906614   0.13304422    11504.406     1000 
 1276000   0.54145579   -1.7978919    0.8113715  -0.98652044   0.13033991    11527.004     1000 
 1278000   0.52938019   -1.8448439   0.79327621   -1.0515677   0.12218125    11517.288     1000 
 1280000   0.57955687   -1.7907045   0.86846597  -0.92223854   0.14139207    11361.373     1000 
 1282000    0.5582833   -1.8250594   0.83658752  -0.98847187   0.12466838    11494.615     1000 
 1284000   0.54956885   -1.7763712   0.82352893  -0.95284229   0.12850721    11402.153     1000 
 1286000    0.5448174   -1.8172824   0.81640887   -1.0008736    0.1323719    11421.948     1000 
 1288000   0.54013646   -1.7899563   0.80939449  -0.98056183   0.12693105    11500.931     1000 
 1290000   0.55771183   -1.8169322   0.83573117  -0.98120107   0.12170322    11539.357     1000 
 1292000   0.55908432   -1.8312088   0.83778786  -0.99342097   0.12471245    11470.369     1000 
 1294000   0.56474334   -1.7838417    0.8462679  -0.93757376   0.14596124    11317.167     1000 
 1296000   0.52195167   -1.7936802   0.78214457   -1.0115356   0.11416982    11585.781     1000 
 1298000   0.56683936   -1.7250199   0.84940879  -0.87561111   0.13426714    11240.417     1000 
 1300000   0.54047291   -1.7723274   0.80989866  -0.96242877   0.12197496    11424.806     1000 
 1302000    0.5614288   -1.7619148   0.84130106  -0.92061371   0.13865155    11254.324     1000 
 1304000   0.56427375   -1.7582087   0.84556421  -0.91264448   0.13651157    11267.505     1000 
 1306000   0.56083135   -1.7726355   0.84040578  -0.93222971   0.12571919    11385.835     1000 
 1308000   0.54828292   -1.8052539   0.82160196  -0.98365196   0.13431945    11456.622     1000 
 1310000   0.56832039   -1.8046641    0.8516281  -0.95303597   0.12987876    11385.128     1000 
 1312000   0.52758679   -1.7717251    0.7905888   -0.9811363   0.12851265    11422.006     1000 
 1314000   0.53466398   -1.7934043   0.80119397  -0.99221031   0.13475628    11369.523     1000 
 1316000   0.55120976   -1.8373855   0.82598783   -1.0113976   0.12660283    11372.442     1000 
 1318000   0.56004234   -1.7858909   0.83922345  -0.94666743   0.13509598    11414.393     1000 
 1320000   0.56510821   -1.7550407   0.84681466  -0.90822606   0.14472902    11184.858     1000 
 1322000   0.56544711    -1.794336    0.8473225  -0.94701351   0.12742869    11453.243     1000 
 1324000   0.54137585   -1.7879938   0.81125172  -0.97674208   0.13657817    11402.888     1000 
 1326000   0.57209992   -1.7880764   0.85729173  -0.93078467   0.12373715    11545.653     1000 
 1328000    0.5560079   -1.8347554   0.83317784   -1.0015775   0.12528622    11463.951     1000 
 1330000    0.5379052   -1.8274962   0.80605094   -1.0214453   0.13056995    11395.201     1000 
 1332000   0.53301902   -1.8160312     0.798729   -1.0173022   0.14375523    11277.251     1000 
 1334000   0.57678409   -1.7779687   0.86431095  -0.91365771   0.13197995    11294.967     1000 
 1336000    0.5483653   -1.7872523   0.82172541  -0.96552692   0.13290993    11322.538     1000 
 1338000   0.57285794   -1.8364151   0.85842762  -0.97798746   0.13497999    11432.048     1000 
 1340000   0.54227859   -1.8104167   0.81260447  -0.99781219   0.13362799    11409.647     1000 
 1342000   0.54314574   -1.8055552    0.8139039  -0.99165129   0.13557492    11342.456     1000 
 1344000    0.5538241   -1.7449307   0.82990542  -0.91502525   0.14606846    11261.119     1000 
 1346000   0.57681879   -1.8158345   0.86436296  -0.95147156   0.14249796    11512.839     1000 
 1348000   0.55009753   -1.7766336   0.82432114  -0.95231244   0.14416989     11305.62     1000 
 1350000   0.55906998   -1.8117441   0.83776636  -0.97397776   0.14143239    11368.484     1000 
 1352000    0.5246489   -1.8292207   0.78618638   -1.0430343   0.12866473    11393.168     1000 
 1354000   0.56165927   -1.8103785   0.84164642   -0.9687321    0.1361589    11444.286     1000 
 1356000   0.54561579   -1.7733425   0.81760525   -0.9557372   0.12730808    11383.191     1000 
 1358000   0.55166288   -1.8026131   0.82666682  -0.97594625   0.13970503    11231.513     1000 
 1360000    0.5753433   -1.7981017   0.86215194  -0.93594972   0.11031326    11648.223     1000 
 1362000   0.56000074   -1.7259972   0.83916111  -0.88683605   0.13010491    11428.047     1000 
 1364000   0.54099159   -1.7649179   0.81067589  -0.95424202   0.13810212    11373.192     1000 
 1366000   0.55743896    -1.844324   0.83532228   -1.0090017   0.12633366    11488.445     1000 
 1368000   0.52178014    -1.809642   0.78188754   -1.0277545   0.13483478    11345.849     1000 
 1370000   0.55924417   -1.8354524   0.83802739  -0.99742497   0.11973582    11538.403     1000 
 1372000   0.55506691   -1.8038001   0.83176776  -0.97203232   0.12730873    11564.623     1000 
 1374000   0.55706379   -1.7871704   0.83476009  -0.95241034   0.13113063    11392.826     1000 
 1376000   0.54654292   -1.7947367   0.81899456  -0.97574214    0.1312328    11373.933     1000 
 1378000   0.56780158   -1.7827795   0.85085066  -0.93192884   0.13204076    11476.961     1000 
 1380000   0.55634754   -1.8204924   0.83368679  -0.98680563   0.13107904    11482.009     1000 
 1382000   0.53533212   -1.8338925   0.80219519   -1.0316973   0.11346415     11639.61     1000 
 1384000   0.54599937   -1.7707695   0.81818006  -0.95258943    0.1167345    11504.058     1000 
 1386000   0.55155237   -1.7605762   0.82650122  -0.93407498   0.12538066    11475.177     1000 
 1388000   0.55515486   -1.7974362   0.83189956  -0.96553666   0.13242497    11420.982     1000 
 1390000   0.54071767   -1.7649472   0.81026543  -0.95468181   0.12373239    11521.065     1000 
 1392000   0.54882893   -1.7950219   0.82242014  -0.97260172   0.13291736    11488.957     1000 
 1394000   0.54720837   -1.7544218   0.81999174  -0.93443011   0.13500724    11377.252     1000 
 1396000   0.54947479   -1.8026381   0.82338797  -0.97925016   0.12989592    11293.916     1000 
 1398000   0.53669802    -1.759452   0.80424198     -0.95521   0.12694253    11413.162     1000 
 1400000   0.54501351   -1.7956353   0.81670274  -0.97893259   0.13230396    11321.885     1000 
 1402000   0.54433022   -1.7925075   0.81567883  -0.97682863   0.13654993    11310.518     1000 
 1404000   0.54269523    -1.785513    0.8132288  -0.97228422   0.13828513    11260.716     1000 
 1406000   0.55002201   -1.8082768   0.82420798  -0.98406883   0.12551892    11532.721     1000 
 1408000   0.55064633    -1.765068   0.82514352  -0.93992443   0.14995042    11261.153     1000 
 1410000   0.53492547   -1.7853956   0.80158581   -0.9838098   0.13426752    11416.263     1000 
 1412000     0.564096   -1.8210245   0.84529785   -0.9757266   0.12589296    11456.688     1000 
 1414000   0.57160582   -1.7907559   0.85655132  -0.93420457   0.14290283     11349.71     1000 
 1416000   0.54335878    -1.788064   0.81422314  -0.97384091   0.13504386    11254.345     1000 
 1418000   0.55414241   -1.8195486   0.83038239   -0.9891662   0.12711976     11507.87     1000 
 1420000   0.54859896   -1.7806472   0.82207554  -0.95857169   0.12588609    11670.969     1000 
 1422000   0.55821352   -1.8065812   0.83648295  -0.97009825   0.12687992    11533.614     1000 
 1424000   0.54056166   -1.8012466   0.81003165  -0.99121493   0.12989347    11376.934     1000 
 1426000   0.53453671   -1.7695711   0.80100325  -0.96856782    0.1139615    11609.363     1000 
 1428000   0.55945039   -1.7861206   0.83833641  -0.94778422   0.13616742    11314.267     1000 
 1430000   0.55911414    -1.757747   0.83783254  -0.91991449   0.13577469    11323.052     1000 
 1432000   0.50553438   -1.7516822   0.75754327  -0.99413893    0.1224716    11438.379     1000 
 1434000   0.55207604   -1.7952147   0.82728594  -0.96792874   0.13538085    11389.106     1000 
 1436000   0.53817498   -1.7760363   0.80645521  -0.96958112    0.1378796    11397.419     1000 
 1438000   0.55479909    -1.787397   0.83136644  -0.95603057   0.13160094    11478.138     1000 
 1440000   0.56280174   -1.7699034    0.8433584  -0.92654503   0.13291545    11323.785     1000 
 1442000   0.56272697   -1.7584922   0.84324637  -0.91524579   0.12748971    11409.145     1000 
 1444000   0.55553339   -1.8016867   0.83246679  -0.96921996   0.14821875     11277.33     1000 
 1446000    0.5314221   -1.7971714   0.79633602   -1.0008353   0.12155866    11463.577     1000 
 1448000   0.57201084   -1.7646441   0.85715824  -0.90748584   0.12988638    11401.741     1000 
 1450000   0.55602886   -1.8694278   0.83320924   -1.0362186   0.12961901     11500.78     1000 
 1452000    0.5399282   -1.7826686    0.8090824  -0.97358621   0.11789654    11709.865     1000 
 1454000   0.53454311   -1.7593572   0.80101284  -0.95834439   0.13712712    11357.651     1000 
 1456000   0.54584645   -1.8337714    0.8179509   -1.0158205   0.11861078    11631.234     1000 
 1458000   0.53341671   -1.7850943   0.79932493  -0.98576938   0.11953355    11525.151     1000 
 1460000   0.53531964   -1.7938446   0.80217648  -0.99166814   0.10156816    11636.772     1000 
 1462000    0.5576844   -1.8761538   0.83569007   -1.0404637   0.14035714    11413.274     1000 
 1464000   0.55419154   -1.7928536   0.83045603  -0.96239757   0.13055321    11341.943     1000 
 1466000   0.51353803   -1.8277064   0.76953673   -1.0581697   0.12594835    11471.778     1000 
 1468000   0.53819461   -1.8133868   0.80648463   -1.0069022   0.12146174    11578.923     1000 
 1470000   0.53012046   -1.8107568    0.7943855   -1.0163713   0.12239038    11547.165     1000 
 1472000   0.55181174   -1.7713862   0.82688989  -0.94449629    0.1243042    11542.878     1000 
 1474000   0.54093122   -1.7518109   0.81058543  -0.94122552   0.14411878    11400.016     1000 
 1476000   0.52726882   -1.7857354   0.79011233  -0.99562305   0.13294678    11375.006     1000 
 1478000   0.54604324   -1.7946577   0.81824579  -0.97641196   0.12657259    11614.103     1000 
 1480000    0.5482439   -1.7785215   0.82154348  -0.95697798   0.13032714    11459.194     1000 
 1482000   0.53153162   -1.8299147   0.79650014   -1.0334146   0.11841441    11527.174     1000 
 1484000   0.56778908   -1.7437069   0.85083194  -0.89287493   0.14232594    11214.856     1000 
 1486000   0.56407696   -1.7496267   0.84526933  -0.90435741   0.12528716    11618.655     1000 
 1488000   0.56511997   -1.8223373   0.84683228  -0.97550506   0.13784976    11481.814     1000 
 1490000   0.56127418   -1.7679828   0.84106936  -0.92691348   0.13049979    11537.139     1000 
 1492000   0.56246117   -1.7299169   0.84284806  -0.88706884   0.13979377    11225.222     1000 
 1494000   0.55058113    -1.787789   0.82504582  -0.96274313   0.12546974    11512.125     1000 
 1496000   0.53902952   -1.7533259   0.80773573  -0.94559013   0.13229666    11380.128     1000 
 1498000   0.56799144   -1.8150306   0.85113517  -0.96389543   0.13144667    11329.671     1000 
 1500000    0.5368545   -1.7564179   0.80447647  -0.95194147   0.13161191    11491.524     1000 
 1502000   0.54160247   -1.7353563    0.8115913  -0.92376497   0.13965214    11389.483     1000 
 1504000   0.56011019   -1.7618377   0.83932511  -0.92251261   0.13111609    11357.817     1000 
 1506000   0.55273607   -1.7859369   0.82827499  -0.95766195   0.12665191    11460.014     1000 
 1508000    0.5675666   -1.7917749   0.85049856  -0.94127638   0.13191576    11355.579     1000 
 1510000    0.5852243   -1.7827046   0.87695861  -0.90574602   0.15108469    11325.039     1000 
 1512000   0.56935838   -1.8624899   0.85318353   -1.0093063     0.132818    11477.247     1000 
 1514000   0.54973988   -1.7819428   0.82378521  -0.95815759   0.13132096    11326.882     1000 
 1516000   0.56175159   -1.7922324   0.84178475   -0.9504477   0.11738603    11546.689     1000 
 1518000   0.57671429   -1.7876894   0.86420637  -0.92348304   0.13249004    11424.189     1000 
 1520000    0.5419418   -1.7373112   0.81209979  -0.92521143   0.12884455    11440.129     1000 
 1522000   0.57605245   -1.7991806   0.86321459  -0.93596602   0.12488784    11547.608     1000 
 1524000   0.55024902   -1.8045657   0.82454815  -0.98001753   0.12837833     11454.55     1000 
 1526000   0.54584558   -1.7616529   0.81794961  -0.94370331   0.13949572    11334.685     1000 
 1528000   0.57801652   -1.7623808   0.86615775  -0.89622308   0.13229916     11377.95     1000 
 1530000   0.56514583   -1.7969767   0.84687102   -0.9501057   0.11432879    11511.293     1000 
 1532000   0.54323299   -1.7460287   0.81403463  -0.93199405   0.12141811    11402.543     1000 
 1534000   0.55128936   -1.7807749   0.82610711  -0.95466777    0.1323465    11303.524     1000 
 1536000   0.54352908   -1.7703902   0.81447833  -0.95591185    0.1389247    11319.154     1000 
 1538000   0.54501036   -1.7984603   0.81669802  -0.98176226   0.13578327    11324.429     1000 
 1540000   0.55458575    -1.790585   0.83104675  -0.95953825   0.13997318    11381.397     1000 
 1542000   0.54351755   -1.8089354   0.81446105  -0.99447434   0.12275089    11534.955     1000 
 1544000   0.52879902   -1.7712049   0.79240534  -0.97879952    0.1285631    11405.606     1000 
 1546000   0.54474605    -1.816315   0.81630196   -1.0000131   0.13226335    11382.364     1000 
 1548000   0.54009779   -1.8270023   0.80933654   -1.0176657   0.12320465     11349.26     1000 
 1550000   0.55632011   -1.7640636   0.83364568  -0.93041788   0.13455594    11267.414     1000 
 1552000   0.55621302   -1.7847381   0.83348521  -0.95125287   0.12727025    11572.995     1000 
 1554000    0.5535009   -1.8082543    0.8294211  -0.97883321   0.11481416    11633.496     1000 
 1556000    0.5344684   -1.7745865    0.8009009  -0.97368558   0.12695502    11384.253     1000 
 1558000   0.57093076   -1.7309343   0.85553975  -0.87539454    0.1353409    11500.941     1000 
 1560000   0.55357717   -1.7834332   0.82953538  -0.95389785    0.1326476    11489.324     1000 
 1562000   0.53161995   -1.7953989   0.79663249   -0.9987664   0.11993171    11403.904     1000 
 1564000   0.55332523   -1.8347724   0.82915786   -1.0056146   0.12780682    11343.252     1000 
 1566000   0.52861357   -1.7608705   0.79212744  -0.96874306   0.14687482    11125.619     1000 
 1568000   0.56179156   -1.8011337   0.84184465   -0.9592891   0.11727895    11558.689     1000 
 1570000   0.55868957   -1.8354995   0.83719631  -0.99830318    0.1142795    11527.586     1000 
 1572000   0.53081697   -1.7581715   0.79542923  -0.96274223   0.13292158    11470.275     1000 
 1574000   0.56802249   -1.7644381   0.85118169   -0.9132564   0.13258961    11304.898     1000 
 1576000   0.55365282   -1.7879722   0.82964875  -0.95832349   0.12949184    11335.137     1000 
 1578000   0.55076742   -1.8162281   0.82532499  -0.99090308   0.13278809    11403.729     1000 
 1580000    0.5656394   -1.7623715   0.84761065  -0.91476086    0.1427073    11266.816     1000 
 1582000   0.54644582   -1.7626366   0.81884906  -0.94378757   0.13696373    11361.446     1000 
 1584000   0.54183128   -1.7850082   0.81193417  -0.97307402    0.1288641    11286.963     1000 
 1586000   0.56757581   -1.7738377   0.85051235  -0.92332539   0.12367859    11355.454     1000 
 1588000   0.54524268   -1.7903665   0.81704615  -0.97332032    0.1352632    11277.336     1000 
[...]
 2614000   0.56290587   -1.8243113   0.84351445  -0.98079686    0.1322858     11420.75     1000 
 2616000     0.559259   -1.7826951   0.83804962  -0.94464546   0.13485413    11397.513     1000 
 2618000   0.53536628   -1.7717022   0.80224637  -0.96945582   0.13070962    11360.561     1000 
 2620000   0.54576354   -1.7622729   0.81782667   -0.9444462   0.13502408    11402.923     1000 
 2622000   0.54994422   -1.7795709   0.82409142  -0.95547946   0.12084693    11541.217     1000 
 2624000   0.54364934   -1.8089882   0.81465854  -0.99432962    0.1271996    11449.198     1000 
 2626000    0.5438663   -1.7615946   0.81498366  -0.94661092   0.12287518    11533.807     1000 
 2628000   0.55310328   -1.7501015   0.82882527  -0.92127623   0.14312136    11183.934     1000 
 2630000   0.55977895     -1.75062   0.83882876  -0.91179121   0.13681181     11331.57     1000 
 2632000   0.54870117   -1.8096022    0.8222287   -0.9873735   0.12311053    11547.181     1000 
 2634000   0.55326918   -1.7975553   0.82907387  -0.96848148    0.1313918    11490.165     1000 
 2636000   0.51956547   -1.7839279   0.77856886   -1.0053591   0.12278513    11368.385     1000 
 2638000   0.54246614    -1.731161    0.8128855  -0.91827546   0.12962318    11328.122     1000 
 2640000   0.57773423   -1.7843627   0.86573475    -0.918628   0.11445034    11553.377     1000 
 2642000   0.56087585     -1.82701   0.84047245  -0.98653752    0.1104658    11583.179     1000 
 2644000   0.56506625   -1.7600124   0.84675178  -0.91326066   0.12800938    11554.757     1000 
 2646000   0.55374702    -1.788679   0.82978991  -0.95888906   0.12447867    11508.388     1000 
 2648000   0.56786598   -1.8458971   0.85094717   -0.9949499   0.13577186    11362.822     1000 
 2650000   0.54402068   -1.7622761   0.81521499  -0.94706111   0.12995078    11428.284     1000 
 2652000   0.53416707   -1.8221598   0.80044936   -1.0217105   0.12485927    11530.308     1000 
 2654000   0.53541934   -1.8135638   0.80232588   -1.0112379   0.12061029    11540.585     1000 
 2656000   0.54201928   -1.7801663    0.8122159  -0.96795039    0.1412789    11333.184     1000 
 2658000   0.54793703   -1.7681942   0.82108363  -0.94711054   0.13050954    11323.164     1000 
 2660000   0.52306289   -1.7663427   0.78380974    -0.982533   0.12755779    11367.147     1000 
 2662000   0.52880042   -1.8020227   0.79240743   -1.0096153   0.13721165    11467.854     1000 
 2664000   0.56120022   -1.7230374   0.84095853  -0.88207886   0.12856435    11450.195     1000 
 2666000   0.53714917   -1.7329373   0.80491803  -0.92801924   0.12393287    11405.189     1000 
 2668000    0.5503721    -1.825163   0.82473259   -1.0004305   0.12742356    11596.643     1000 
 2670000   0.54039264    -1.834681   0.80977837   -1.0249026   0.13047349    11466.652     1000 
 2672000   0.52701242   -1.8055391   0.78972811    -1.015811    0.1349663    11338.416     1000 
 2674000   0.55956094   -1.7818682   0.83850207  -0.94336615   0.13509923    11357.169     1000 
 2676000    0.5561378   -1.7934581   0.83337249  -0.96008564   0.12778497    11461.306     1000 
 2678000   0.54836715   -1.7372071   0.82172817  -0.91547888   0.13040772    11331.716     1000 
 2680000   0.54276662   -1.7748284   0.81333579  -0.96149261   0.12706354    11399.521     1000 
 2682000   0.54194008   -1.7277265   0.81209721  -0.91562927   0.14327749    11188.092     1000 
 2684000   0.56290243   -1.8278257   0.84350929  -0.98431644   0.14039502    11307.611     1000 
 2686000   0.55734173   -1.7888419   0.83517658  -0.95366532    0.1359221    11347.368     1000 
 2688000   0.55963118   -1.7619008   0.83860732  -0.92329346   0.12109379    11551.228     1000 
 2690000   0.53106443    -1.770337   0.79580004  -0.97453696   0.11493189    11586.114     1000 
 2692000    0.5348069   -1.8016057   0.80140814   -1.0001975    0.1392362     11411.12     1000 
 2694000   0.55227682   -1.7712052   0.82758681  -0.94361837   0.12446506    11591.682     1000 
 2696000   0.53083655   -1.7927427   0.79545857  -0.99728415   0.12892254    11393.866     1000 
 2698000   0.55999251   -1.7381009   0.83914878  -0.89895212   0.12090423     11503.78     1000 
 2700000   0.53554295   -1.7703365    0.8025111  -0.96782542   0.14030802    11286.068     1000 
 2702000   0.53607874   -1.8371851     0.803314   -1.0338711   0.13507683    11442.082     1000 
 2704000   0.55006419   -1.8429485   0.82427118   -1.0186773   0.13318458    11485.797     1000 
 2706000    0.5286087   -1.7825718   0.79212013  -0.99045171   0.12489353     11367.12     1000 
 2708000   0.56724349   -1.7879602   0.85001437  -0.93794581   0.13011017    11454.884     1000 
 2710000   0.56244571   -1.7997257    0.8428249  -0.95690076   0.13326122    11472.403     1000 
 2712000   0.52864237   -1.7625039    0.7921706  -0.97033331   0.13296736     11407.82     1000 
 2714000   0.54491972   -1.7853489    0.8165622  -0.96878674   0.13012845    11418.735     1000 
 2716000   0.55803647    -1.780793   0.83621766  -0.94457532   0.13018826    11475.815     1000 
 2718000   0.53387153   -1.7693521   0.80000649  -0.96934562     0.139479    11274.545     1000 
 2720000   0.54272498   -1.7943293   0.81327338  -0.98105587   0.13178132    11299.174     1000 
 2722000   0.52993959   -1.7971118   0.79411448   -1.0029973    0.1299625    11562.564     1000 
 2724000   0.55927736   -1.7844527   0.83807713   -0.9463756   0.12344021    11487.499     1000 
 2726000   0.56659203   -1.7228137   0.84903816  -0.87377553   0.13864984    11167.127     1000 
 2728000   0.53911656   -1.7487073   0.80786617  -0.94084115   0.13550578    11441.889     1000 
 2730000   0.54082402   -1.7965728    0.8104248  -0.98614799   0.13426784    11291.156     1000 
 2732000   0.55167731   -1.7873088   0.82668845   -0.9606204   0.12524661    11408.034     1000 
 2734000   0.54256239    -1.769133   0.81302975  -0.95610324   0.14264443    11276.805     1000 
 2736000   0.54997453   -1.7997443   0.82413684  -0.97560749   0.12630137    11426.879     1000 
 2738000   0.55931563   -1.7961747   0.83813447  -0.95804022    0.1251654    11625.401     1000 
 2740000   0.59317567   -1.7839059   0.88887375  -0.89503214   0.13453287    11494.021     1000 
 2742000   0.57092865   -1.7208598   0.85553658  -0.86532324   0.12882159    11349.545     1000 
 2744000    0.5660551   -1.8418432   0.84823357  -0.99360964   0.13272457    11332.348     1000 
 2746000   0.55476923   -1.7736139    0.8313217  -0.94229225   0.12541381    11528.694     1000 
 2748000   0.52621718   -1.7826387   0.78853644  -0.99410224   0.12826423    11411.801     1000 
 2750000   0.56367641    -1.772835   0.84466911  -0.92816589   0.13344377    11401.128     1000 
 2752000   0.55533856   -1.7809772   0.83217483  -0.94880236   0.12798245    11469.602     1000 
 2754000   0.57667278   -1.7953078   0.86414415  -0.93116362   0.13676598    11414.499     1000 
 2756000   0.54877651   -1.7455353   0.82234161  -0.92319369    0.1359413    11420.228     1000 
 2758000   0.55093941   -1.7967178   0.82558271  -0.97113507    0.1294259    11279.688     1000 
 2760000   0.55346799   -1.8114645   0.82937179   -0.9820927   0.13487784    11282.162     1000 
 2762000   0.55373238   -1.7907771   0.82976797  -0.96100917   0.13209656    11450.119     1000 
 2764000    0.5607159   -1.8092678   0.84023277  -0.96903501   0.12975293    11434.855     1000 
 2766000   0.55981039   -1.8004492   0.83887586  -0.96157335   0.12500477    11463.873     1000 
 2768000   0.54878347   -1.8140378   0.82235203  -0.99168572   0.12881335    11687.572     1000 
 2770000   0.55546042   -1.8165502   0.83235744  -0.98419272   0.10853518    11543.575     1000 
 2772000    0.5384999   -1.7836096   0.80694209  -0.97666746   0.11926904    11435.812     1000 
 2774000   0.54069878   -1.8546453   0.81023712   -1.0444082   0.13136163    11465.108     1000 
 2776000   0.56774527   -1.8027668   0.85076629  -0.95200047   0.11271706    11525.408     1000 
 2778000   0.56272855   -1.8164206   0.84324873   -0.9731719   0.13707078    11357.715     1000 
 2780000   0.53998982   -1.7993384   0.80917475  -0.99016362   0.12730994    11523.581     1000 
 2782000   0.52810953   -1.7633369   0.79137213  -0.97196477   0.12884166    11425.538     1000 
 2784000   0.55746904    -1.787695   0.83536736  -0.95232764   0.12676672    11327.838     1000 
 2786000   0.55916387    -1.779077   0.83790706  -0.94116992   0.15152052    11261.385     1000 
 2788000   0.54559558   -1.7374975   0.81757498  -0.91992256   0.12695027    11518.083     1000 
 2790000   0.54202871   -1.8004418   0.81223003   -0.9882118   0.12661496    11464.339     1000 
 2792000   0.54571608   -1.8098375   0.81775555    -0.992082   0.12859912    11478.322     1000 
 2794000    0.5409359   -1.8119804   0.81059245    -1.001388   0.12480304    11549.951     1000 
 2796000   0.57337503   -1.8401748   0.85920248  -0.98097233   0.12469931     11488.33     1000 
 2798000   0.55633625   -1.7252701   0.83366987  -0.89160019   0.12257532    11356.845     1000 
 2800000   0.56883081    -1.789171   0.85239297  -0.93677804   0.14796708    11302.752     1000 
 2802000   0.54874088    -1.797745    0.8222882  -0.97545676   0.13861538    11293.145     1000 
 2804000    0.5458634   -1.7747946    0.8179763  -0.95681827   0.12346545    11378.816     1000 
 2806000   0.55813801   -1.7728395   0.83636981  -0.93646973    0.1226506    11517.235     1000 
 2808000   0.54333394   -1.7499155   0.81418591  -0.93572955   0.12023597    11384.235     1000 
 2810000    0.5242146   -1.7872362   0.78553557   -1.0017006   0.12537651    11493.229     1000 
 2812000   0.54879042   -1.8321964   0.82236244   -1.0098339   0.12860087    11452.706     1000 
 2814000   0.54413806   -1.7687882   0.81539089  -0.95339734   0.13178601    11460.439     1000 
 2816000    0.5584215   -1.7956174   0.83679461  -0.95882278   0.13307683    11401.295     1000 
 2818000   0.55628898   -1.8090378   0.83359904  -0.97543877   0.12834458    11481.911     1000 
 2820000   0.53088607   -1.7790966   0.79553278  -0.98356385   0.10819292    11661.665     1000 
 2822000   0.57227641   -1.7820487    0.8575562  -0.92449254   0.12928244    11374.938     1000 
 2824000    0.5600126   -1.7648835   0.83917888  -0.92570464   0.12473967    11602.462     1000 
 2826000   0.55557561   -1.7482997   0.83253005  -0.91576962   0.12820749    11519.315     1000 
 2828000   0.51895813   -1.7406726   0.77765876  -0.96301383   0.11179767    11490.162     1000 
 2830000   0.55793962   -1.8249679   0.83607253   -0.9888954   0.13485275    11488.711     1000 
 2832000   0.54787426   -1.8052386   0.82098958  -0.98424904   0.13752091    11448.697     1000 
 2834000   0.54193918   -1.7579927   0.81209587  -0.94589682   0.12961458    11396.864     1000 
 2836000   0.53624551   -1.7929595    0.8035639  -0.98939561   0.12826214    11405.726     1000 
 2838000   0.53704347   -1.7876364   0.80475964  -0.98287678   0.13431672    11444.155     1000 
 2840000   0.55805564    -1.787634   0.83624637  -0.95138763   0.13008308    11490.487     1000 
 2842000   0.55338511    -1.782323   0.82924759  -0.95307538    0.1314757    11392.004     1000 
 2844000   0.54870287    -1.829648   0.82223125   -1.0074168   0.11964308     11437.05     1000 
 2846000   0.54429275    -1.799421   0.81562269   -0.9837983   0.13129713    11385.556     1000 
 2848000   0.55296927   -1.7706164   0.82862445  -0.94199195     0.137051    11259.922     1000 
 2850000   0.53496015   -1.8227504   0.80163779   -1.0211126   0.14321696    11284.739     1000 
 2852000   0.54656354    -1.790374   0.81902547  -0.97134855     0.132661    11495.692     1000 
 2854000   0.54611303   -1.7750966   0.81835038   -0.9567462   0.12323965    11387.787     1000 
 2856000   0.53710744   -1.7642135    0.8048555  -0.95935803   0.13437327    11358.759     1000 
 2858000   0.54940488   -1.7627441   0.82328321  -0.93946088   0.13236627    11323.057     1000 
 2860000   0.54507263   -1.8465401   0.81679134   -1.0297488   0.11940846    11424.396     1000 
 2862000   0.53542509   -1.8460645    0.8023345     -1.04373   0.13077002     11482.85     1000 
 2864000    0.5398265   -1.7508022   0.80893001  -0.94187214   0.12906543     11402.18     1000 
 2866000   0.56715574   -1.7949948   0.84988288  -0.94511188   0.12752274    11516.159     1000 
 2868000   0.55170481   -1.7751566   0.82672966  -0.94842689    0.1493668    11321.061     1000 
 2870000   0.55665747   -1.7802818   0.83415122  -0.94613059   0.13003738     11500.08     1000 
 2872000   0.55450441   -1.7526616   0.83092485  -0.92173673   0.13085319    11462.428     1000 
 2874000   0.54198049   -1.7901192   0.81215776  -0.97796143   0.12958766    11466.123     1000 
 2876000   0.54278867   -1.8422847   0.81336882   -1.0289159   0.12262084     11550.76     1000 
 2878000   0.55469357   -1.8102542   0.83120831   -0.9790459   0.13013966    11422.356     1000 
 2880000   0.55143201   -1.8189683   0.82632087  -0.99264738   0.12944831    11570.489     1000 
 2882000   0.54179094    -1.814316   0.81187373   -1.0024423    0.1243203    11541.426     1000 
 2884000   0.51730659   -1.7980067   0.77518393   -1.0228228   0.13432412    11367.188     1000 
 2886000   0.56815666   -1.7971986   0.85138275  -0.94581588   0.13164833    11359.443     1000 
 2888000   0.50644728   -1.7750172   0.75891125   -1.0161059   0.12986778    11408.455     1000 
 2890000   0.58637531   -1.8108625   0.87868341  -0.93217912   0.13749562    11501.231     1000 
 2892000   0.57022822   -1.7810489   0.85448699  -0.92656186   0.13082602    11388.781     1000 
 2894000   0.58131052   -1.8384911   0.87109381  -0.96739727   0.13095005    11525.356     1000 
 2896000   0.53118761    -1.795003   0.79598464  -0.99901832   0.13832247    11432.239     1000 
 2898000   0.53554211    -1.760449   0.80250985  -0.95793919   0.13439087    11392.966     1000 
 2900000    0.5517629   -1.8092351   0.82681671  -0.98241838   0.12766563    11525.059     1000 
 2902000   0.56633724   -1.8012739   0.84865635  -0.95261753   0.11585226    11543.528     1000 
 2904000   0.54589292   -1.7794153   0.81802054  -0.96139474   0.11343772    11507.704     1000 
 2906000   0.56123816   -1.8529176   0.84101538   -1.0119022    0.1270026    11633.739     1000 
 2908000   0.53254098   -1.7690665   0.79801266  -0.97105388   0.12416963    11411.926     1000 
 2910000   0.56550797   -1.7608646   0.84741369  -0.91345087    0.1326512    11615.393     1000 
 2912000   0.52797171   -1.8456432   0.79116561   -1.0544776    0.1201956    11464.802     1000 
 2914000   0.54668406   -1.7776604   0.81920607  -0.95845438   0.13333281    11565.074     1000 
 2916000   0.58905087   -1.8032237   0.88269273  -0.92053093   0.13223021    11482.064     1000 
 2918000    0.5256085   -1.8040824   0.78762434    -1.016458   0.12793779    11518.906     1000 
 2920000   0.53724743   -1.8211096   0.80506527   -1.0160444    0.1318933    11475.753     1000 
 2922000   0.53863877   -1.7110176   0.80715019  -0.90386736   0.12977918    11397.526     1000 
 2924000   0.55270742   -1.7704333   0.82823207  -0.94220119   0.12797877    11376.131     1000 
 2926000   0.55009007   -1.7868017   0.82430998  -0.96249173   0.11047801    11550.144     1000 
 2928000   0.53205116   -1.7353397   0.79727866  -0.93806101   0.14146137    11215.286     1000 
 2930000   0.55403929   -1.7613885   0.83022788  -0.93116066   0.13634757    11379.771     1000 
 2932000   0.52637892   -1.7576262   0.78877882  -0.96884738   0.12254293    11535.519     1000 
 2934000   0.56689164   -1.8339188   0.84948713  -0.98443162   0.12513143    11565.641     1000 
 2936000   0.53953561   -1.7925579   0.80849412   -0.9840638   0.12013619    11570.096     1000 
 2938000   0.54572557   -1.8217042   0.81776977   -1.0039344   0.12649247    11430.463     1000 
 2940000   0.52945045   -1.8538676   0.79338149   -1.0604861   0.13592324    11415.378     1000 
 2942000   0.53846669   -1.7846878   0.80689234  -0.97779543   0.12296577    11502.404     1000 
 2944000   0.51112153   -1.8053506   0.76591561    -1.039435   0.12978694    11515.317     1000 
 2946000   0.54965097   -1.8079339   0.82365198  -0.98428188   0.13978783    11499.724     1000 
 2948000   0.54574282   -1.7774106   0.81779561  -0.95961501   0.13650395    11325.766     1000 
 2950000   0.56381756   -1.7779808   0.84488062  -0.93310019   0.14054217    11323.083     1000 
 2952000   0.56359167   -1.7676187   0.84454211  -0.92307662   0.12844113    11451.494     1000 
 2954000   0.53660441   -1.7947067   0.80410171  -0.99060502   0.12620942     11503.39     1000 
 2956000   0.53415334   -1.7847111   0.80042877  -0.98428232   0.12409982    11325.794     1000 
 2958000   0.54758376   -1.7691483   0.82055427  -0.94859401   0.12283299    11501.838     1000 
 2960000   0.55004856     -1.79749   0.82424777  -0.97324225    0.1283451    11267.878     1000 
 2962000   0.58527185   -1.7646822   0.87702987  -0.88765238    0.1360185    11246.644     1000 
 2964000   0.55448316   -1.8103149   0.83089302  -0.97942189   0.12770118    11436.463     1000 
 2966000   0.55895804   -1.8101833   0.83759862  -0.97258463   0.13266435    11331.128     1000 
 2968000   0.56232955   -1.7643017   0.84265083  -0.92165084   0.13056537    11417.744     1000 
 2970000    0.5613802   -1.8098081   0.84122822  -0.96857987   0.14794859    11247.341     1000 
 2972000   0.56590369   -1.8013973   0.84800667  -0.95339068   0.14369762    11254.854     1000 
 2974000   0.57446077   -1.7903304   0.86082947  -0.92950091   0.12913065    11371.751     1000 
 2976000   0.56672913   -1.7826676    0.8492436  -0.93342397   0.14538891    11247.905     1000 
 2978000   0.55984287   -1.7692959   0.83892454  -0.93037137   0.13920995    11325.123     1000 
 2980000   0.53170013   -1.8029754   0.79675265   -1.0062228   0.13927431    11350.773     1000 
 2982000   0.56313458   -1.7784341   0.84385717  -0.93457697   0.12775603    11471.428     1000 
 2984000   0.56492746   -1.7724272   0.84654381  -0.92588343   0.13274627    11334.908     1000 
 2986000   0.55612068   -1.7637221   0.83334683  -0.93037527   0.12192878    11565.807     1000 
 2988000   0.55399794   -1.8068353   0.83016591  -0.97666935   0.11399405    11537.225     1000 
 2990000   0.54493814   -1.8056477    0.8165898  -0.98905786   0.12115678    11441.288     1000 
 2992000   0.54916185    -1.785697   0.82291903  -0.96277801   0.12196117     11468.85     1000 
 2994000   0.53174689   -1.7842948   0.79682272  -0.98747207   0.11871379    11501.415     1000 
 2996000   0.54222047   -1.7821484   0.81251737  -0.96963106   0.13621135    11406.683     1000 
 2998000   0.54153502    -1.766008   0.81149023  -0.95451772   0.12521813    11524.627     1000 
 3000000   0.55109742   -1.7809161   0.82581948  -0.95509663   0.13944541    11438.884     1000 
Loop time of 7278.45 on 1 procs for 3000000 steps with 1000 atoms

Performance: 178059.822 tau/day, 412.176 timesteps/s
100.0% CPU use with 1 MPI tasks x 1 OpenMP threads

MPI task timing breakdown:
Section |  min time  |  avg time  |  max time  |%varavg| %total
---------------------------------------------------------------
Pair    | 6560.9     | 6560.9     | 6560.9     |   0.0 | 90.14
Neigh   | 568.42     | 568.42     | 568.42     |   0.0 |  7.81
Comm    | 62.298     | 62.298     | 62.298     |   0.0 |  0.86
Output  | 0.026515   | 0.026515   | 0.026515   |   0.0 |  0.00
Modify  | 75.813     | 75.813     | 75.813     |   0.0 |  1.04
Other   |            | 10.97      |            |       |  0.15

Nlocal:        1000.00 ave        1000 max        1000 min
Histogram: 1 0 0 0 0 0 0 0 0 0
Nghost:        6046.00 ave        6046 max        6046 min
Histogram: 1 0 0 0 0 0 0 0 0 0
Neighs:        199528.0 ave      199528 max      199528 min
Histogram: 1 0 0 0 0 0 0 0 0 0

Total # of neighbors = 199528
Ave neighs/atom = 199.52800
Neighbor list builds = 150000
Dangerous builds not checked

Total wall time: 2:01:18
